<event>
 6    1  0.1782050E-003  0.5007452E+03  0.7546771E-02  0.9398144E-01
        -11   -1    0    0    0    0  0.00000000000E+00  0.00000000000E+00  0.50000000000E+03  0.50000000000E+03  0.00000000000E+00 0.  1.
         11   -1    0    0    0    0 -0.00000000000E+00 -0.00000000000E+00 -0.50000000000E+03  0.50000000000E+03  0.00000000000E+00 0. -1.
        -11    1    1    2    0    0  0.15126200317E+01 -0.94485921183E+01  0.49916305597E+03  0.49925476498E+03  0.00000000000E+00 0.  1.
         11    1    1    2    0    0  0.37635587608E+01  0.11209685846E+02 -0.32881471522E+03  0.32902726084E+03  0.00000000000E+00 0. -1.
        -15    1    1    2    0    0 -0.11654803761E+02  0.38913677016E+01 -0.80918970381E+02  0.81865833471E+02  0.17770000000E+01 0.  1.
         15    1    1    2    0    0  0.63786249682E+01 -0.56524614296E+01 -0.89429370371E+02  0.89852140712E+02  0.17770000000E+01 0. -1.
</event>
<event>
 6    1  0.1782050E-003  0.4505836E+03  0.7546771E-02  0.9517723E-01
        -11   -1    0    0    0    0  0.00000000000E+00  0.00000000000E+00  0.50000000000E+03  0.50000000000E+03  0.00000000000E+00 0.  1.
         11   -1    0    0    0    0 -0.00000000000E+00 -0.00000000000E+00 -0.50000000000E+03  0.50000000000E+03  0.00000000000E+00 0.  1.
        -11    1    1    2    0    0  0.77735482335E+01 -0.27889349582E+02  0.44979726738E+03  0.45072810609E+03  0.00000000000E+00 0.  1.
         11    1    1    2    0    0 -0.78181547269E+01  0.64603991152E+01 -0.45058005770E+03  0.45069418533E+03  0.00000000000E+00 0.  1.
        -15    1    1    2    0    0 -0.71481416812E+01 -0.30331917794E+02  0.25909126176E+02  0.40565523721E+02  0.17770000000E+01 0. -1.
         15    1    1    2    0    0  0.71927481745E+01  0.51760868260E+02 -0.25126335860E+02  0.58012184859E+02  0.17770000000E+01 0.  1.
</event>
<event>
 6    1  0.1782050E-003  0.5063620E+03  0.7546771E-02  0.9385686E-01
        -11   -1    0    0    0    0  0.00000000000E+00  0.00000000000E+00  0.50000000000E+03  0.50000000000E+03  0.00000000000E+00 0.  1.
         11   -1    0    0    0    0 -0.00000000000E+00 -0.00000000000E+00 -0.50000000000E+03  0.50000000000E+03  0.00000000000E+00 0. -1.
        -11    1    1    2    0    0 -0.10316383170E+02 -0.95870326449E+01  0.49343703441E+03  0.49363797047E+03  0.00000000000E+00 0.  1.
         11    1    1    2    0    0 -0.40905183686E+01  0.12538520365E+02 -0.46155159718E+03  0.46173999577E+03  0.00000000000E+00 0. -1.
        -15    1    1    2    0    0  0.74233674939E+01 -0.48485749680E+01 -0.35289526279E+02  0.36429705711E+02  0.17770000000E+01 0.  1.
         15    1    1    2    0    0  0.69835340449E+01  0.18970872477E+01  0.34040890443E+01  0.81923280576E+01  0.17770000000E+01 0. -1.
</event>
<event>
 6    1  0.1782050E-003  0.5036168E+03  0.7546771E-02  0.9391753E-01
        -11   -1    0    0    0    0  0.00000000000E+00  0.00000000000E+00  0.50000000000E+03  0.50000000000E+03  0.00000000000E+00 0. -1.
         11   -1    0    0    0    0 -0.00000000000E+00 -0.00000000000E+00 -0.50000000000E+03  0.50000000000E+03  0.00000000000E+00 0. -1.
        -11    1    1    2    0    0  0.10511068742E+01  0.11701641992E+02  0.49624412793E+03  0.49638318642E+03  0.00000000000E+00 0. -1.
         11    1    1    2    0    0  0.15455060268E+02  0.18902424603E+02 -0.35059920573E+03  0.35144837971E+03  0.00000000000E+00 0. -1.
        -15    1    1    2    0    0 -0.56899309745E+01 -0.20915352980E+02 -0.12492760214E+03  0.12680650934E+03  0.17770000000E+01 0. -1.
         15    1    1    2    0    0 -0.10816236168E+02 -0.96887136154E+01 -0.20717320061E+02  0.25361924530E+02  0.17770000000E+01 0.  1.
</event>
<event>
 6    1  0.1782050E-003  0.5004374E+03  0.7546771E-02  0.9398832E-01
        -11   -1    0    0    0    0  0.00000000000E+00  0.00000000000E+00  0.50000000000E+03  0.50000000000E+03  0.00000000000E+00 0.  1.
         11   -1    0    0    0    0 -0.00000000000E+00 -0.00000000000E+00 -0.50000000000E+03  0.50000000000E+03  0.00000000000E+00 0.  1.
        -11    1    1    2    0    0  0.92953467953E+01  0.21562751358E+01  0.49947150749E+03  0.49956264851E+03  0.00000000000E+00 0.  1.
         11    1    1    2    0    0 -0.88478512985E+00  0.22223614000E+01 -0.15791285047E+03  0.15793096618E+03  0.00000000000E+00 0.  1.
        -15    1    1    2    0    0  0.64898359146E+01  0.25135372930E+01 -0.17084688700E+03  0.17099781393E+03  0.17770000000E+01 0. -1.
         15    1    1    2    0    0 -0.14900397580E+02 -0.68921738288E+01 -0.17071177001E+03  0.17150857138E+03  0.17770000000E+01 0.  1.
</event>
<event>
 6    1  0.1782050E-003  0.5267813E+03  0.7546771E-02  0.9341801E-01
        -11   -1    0    0    0    0  0.00000000000E+00  0.00000000000E+00  0.50000000000E+03  0.50000000000E+03  0.00000000000E+00 0.  1.
         11   -1    0    0    0    0 -0.00000000000E+00 -0.00000000000E+00 -0.50000000000E+03  0.50000000000E+03  0.00000000000E+00 0. -1.
        -11    1    1    2    0    0 -0.17150330479E+01 -0.20223057696E+02  0.47278328701E+03  0.47321871251E+03  0.00000000000E+00 0.  1.
         11    1    1    2    0    0 -0.16900370987E+01 -0.68485988588E+01 -0.44900846221E+03  0.44906386926E+03  0.00000000000E+00 0. -1.
        -15    1    1    2    0    0  0.14616543673E+02 -0.49467700528E+01 -0.37874951132E+02  0.40936335146E+02  0.17770000000E+01 0.  1.
         15    1    1    2    0    0 -0.11211473526E+02  0.32018426608E+02  0.14100126341E+02  0.36781083085E+02  0.17770000000E+01 0. -1.
</event>
<event>
 6    1  0.1782050E-003  0.5007660E+03  0.7546771E-02  0.9398097E-01
        -11   -1    0    0    0    0  0.00000000000E+00  0.00000000000E+00  0.50000000000E+03  0.50000000000E+03  0.00000000000E+00 0.  1.
         11   -1    0    0    0    0 -0.00000000000E+00 -0.00000000000E+00 -0.50000000000E+03  0.50000000000E+03  0.00000000000E+00 0. -1.
        -11    1    1    2    0    0  0.52595189157E+01 -0.81044241387E+01  0.49914055178E+03  0.49923404797E+03  0.00000000000E+00 0.  1.
         11    1    1    2    0    0  0.65211813361E+01 -0.57375001180E+01 -0.37263211398E+03  0.37273333240E+03  0.00000000000E+00 0. -1.
        -15    1    1    2    0    0 -0.10635059711E+02  0.87856722343E+01 -0.79709616176E+02  0.80913986254E+02  0.17770000000E+01 0. -1.
         15    1    1    2    0    0 -0.11456405407E+01  0.50562520224E+01 -0.46798821621E+02  0.47118633372E+02  0.17770000000E+01 0.  1.
</event>
<event>
 6    1  0.1782050E-003  0.5278975E+03  0.7546771E-02  0.9339463E-01
        -11   -1    0    0    0    0  0.00000000000E+00  0.00000000000E+00  0.50000000000E+03  0.50000000000E+03  0.00000000000E+00 0.  1.
         11   -1    0    0    0    0 -0.00000000000E+00 -0.00000000000E+00 -0.50000000000E+03  0.50000000000E+03  0.00000000000E+00 0. -1.
        -11    1    1    2    0    0 -0.10377048157E+02 -0.18489330350E+01  0.43138853816E+03  0.43151729112E+03  0.00000000000E+00 0.  1.
         11    1    1    2    0    0 -0.11304617023E+02  0.11744747384E+02 -0.47182099255E+03  0.47210251267E+03  0.00000000000E+00 0. -1.
        -15    1    1    2    0    0  0.26345928106E+02 -0.20881901298E+02 -0.16986105608E+02  0.37707389757E+02  0.17770000000E+01 0.  1.
         15    1    1    2    0    0 -0.46642629267E+01  0.10986086949E+02  0.57418559999E+02  0.58672806448E+02  0.17770000000E+01 0. -1.
</event>
<event>
 6    1  0.1782050E-003  0.5088305E+03  0.7546771E-02  0.9380265E-01
        -11   -1    0    0    0    0  0.00000000000E+00  0.00000000000E+00  0.50000000000E+03  0.50000000000E+03  0.00000000000E+00 0. -1.
         11   -1    0    0    0    0 -0.00000000000E+00 -0.00000000000E+00 -0.50000000000E+03  0.50000000000E+03  0.00000000000E+00 0.  1.
        -11    1    1    2    0    0 -0.99326426250E+01 -0.21106212323E+01  0.30374312842E+03  0.30391281673E+03  0.00000000000E+00 0. -1.
         11    1    1    2    0    0  0.49900249468E+02  0.27004842429E+02 -0.48788136196E+03  0.49116954279E+03  0.00000000000E+00 0.  1.
        -15    1    1    2    0    0  0.95011010863E+01  0.24355984365E+01  0.11576174710E+03  0.11619011526E+03  0.17770000000E+01 0. -1.
         15    1    1    2    0    0 -0.49468707929E+02 -0.27329819634E+02  0.68376486445E+02  0.88727525227E+02  0.17770000000E+01 0.  1.
</event>
<event>
 6    1  0.1782050E-003  0.4955585E+03  0.7546771E-02  0.9409803E-01
        -11   -1    0    0    0    0  0.00000000000E+00  0.00000000000E+00  0.50000000000E+03  0.50000000000E+03  0.00000000000E+00 0.  1.
         11   -1    0    0    0    0 -0.00000000000E+00 -0.00000000000E+00 -0.50000000000E+03  0.50000000000E+03  0.00000000000E+00 0. -1.
        -11    1    1    2    0    0 -0.47245333752E+01  0.58424558155E+01  0.14885970602E+02  0.16674760158E+02  0.00000000000E+00 0.  1.
         11    1    1    2    0    0  0.59154145972E+01 -0.49816348667E+01 -0.49504710766E+03  0.49510751118E+03  0.00000000000E+00 0. -1.
        -15    1    1    2    0    0  0.58605018105E+01 -0.40099604414E+02  0.14106819389E+03  0.14678459324E+03  0.17770000000E+01 0. -1.
         15    1    1    2    0    0 -0.70513830324E+01  0.39238783465E+02  0.33909294317E+03  0.34143313543E+03  0.17770000000E+01 0.  1.
</event>
<event>
 6    1  0.1782050E-003  0.5010641E+03  0.7546771E-02  0.9397432E-01
        -11   -1    0    0    0    0  0.00000000000E+00  0.00000000000E+00  0.50000000000E+03  0.50000000000E+03  0.00000000000E+00 0.  1.
         11   -1    0    0    0    0 -0.00000000000E+00 -0.00000000000E+00 -0.50000000000E+03  0.50000000000E+03  0.00000000000E+00 0.  1.
        -11    1    1    2    0    0  0.80136530616E+01  0.83018215187E+00  0.23575752174E+03  0.23589513962E+03  0.00000000000E+00 0.  1.
         11    1    1    2    0    0  0.14149959708E+02  0.17302362881E+02 -0.49843498303E+03  0.49893589310E+03  0.00000000000E+00 0.  1.
        -15    1    1    2    0    0 -0.38123001453E+01 -0.14938530106E+00  0.12693738736E+03  0.12700714148E+03  0.17770000000E+01 0. -1.
         15    1    1    2    0    0 -0.18351312625E+02 -0.17983159732E+02  0.13574007393E+03  0.13816182580E+03  0.17770000000E+01 0.  1.
</event>
<event>
 6    1  0.1782050E-003  0.5193059E+03  0.7546771E-02  0.9357618E-01
        -11   -1    0    0    0    0  0.00000000000E+00  0.00000000000E+00  0.50000000000E+03  0.50000000000E+03  0.00000000000E+00 0.  1.
         11   -1    0    0    0    0 -0.00000000000E+00 -0.00000000000E+00 -0.50000000000E+03  0.50000000000E+03  0.00000000000E+00 0. -1.
        -11    1    1    2    0    0 -0.12146796051E+02 -0.71545593419E+01  0.48048735838E+03  0.48069411681E+03  0.00000000000E+00 0.  1.
         11    1    1    2    0    0  0.21655631980E+00 -0.10685033072E+02 -0.44251634032E+03  0.44264537530E+03  0.00000000000E+00 0. -1.
        -15    1    1    2    0    0  0.15216745140E+02  0.42524277376E+01  0.14993215317E+02  0.21853757317E+02  0.17770000000E+01 0.  1.
         15    1    1    2    0    0 -0.32865054094E+01  0.13587164676E+02 -0.52964233377E+02  0.54806750569E+02  0.17770000000E+01 0. -1.
</event>
<event>
 6    1  0.1782050E-003  0.5185039E+03  0.7546771E-02  0.9359332E-01
        -11   -1    0    0    0    0  0.00000000000E+00  0.00000000000E+00  0.50000000000E+03  0.50000000000E+03  0.00000000000E+00 0.  1.
         11   -1    0    0    0    0 -0.00000000000E+00 -0.00000000000E+00 -0.50000000000E+03  0.50000000000E+03  0.00000000000E+00 0. -1.
        -11    1    1    2    0    0 -0.27887917318E+02  0.18316076614E+02  0.48033867890E+03  0.48149606545E+03  0.00000000000E+00 0.  1.
         11    1    1    2    0    0  0.10431263403E+02  0.74939892916E+01 -0.43184742378E+03  0.43203838783E+03  0.00000000000E+00 0. -1.
        -15    1    1    2    0    0  0.56216529939E+01 -0.45671485218E+02 -0.21324685811E+02  0.50748275816E+02  0.17770000000E+01 0.  1.
         15    1    1    2    0    0  0.11835000921E+02  0.19861419312E+02 -0.27166569314E+02  0.35717270909E+02  0.17770000000E+01 0. -1.
</event>
<event>
 6    1  0.1782050E-003  0.5017539E+03  0.7546771E-02  0.9395894E-01
        -11   -1    0    0    0    0  0.00000000000E+00  0.00000000000E+00  0.50000000000E+03  0.50000000000E+03  0.00000000000E+00 0.  1.
         11   -1    0    0    0    0 -0.00000000000E+00 -0.00000000000E+00 -0.50000000000E+03  0.50000000000E+03  0.00000000000E+00 0.  1.
        -11    1    1    2    0    0 -0.14571402853E+02  0.23535062461E+01  0.36723472358E+02  0.39578759389E+02  0.00000000000E+00 0.  1.
         11    1    1    2    0    0  0.86692928100E+01  0.48300059940E+01 -0.49814724447E+03  0.49824608656E+03  0.00000000000E+00 0.  1.
        -15    1    1    2    0    0 -0.25762540858E+01  0.68934633032E+01  0.71174129094E+02  0.71575633443E+02  0.17770000000E+01 0. -1.
         15    1    1    2    0    0  0.84783641290E+01 -0.14076975543E+02  0.39024964302E+03  0.39059952061E+03  0.17770000000E+01 0.  1.
</event>
<event>
 6    1  0.1782050E-003  0.5014384E+03  0.7546771E-02  0.9396597E-01
        -11   -1    0    0    0    0  0.00000000000E+00  0.00000000000E+00  0.50000000000E+03  0.50000000000E+03  0.00000000000E+00 0. -1.
         11   -1    0    0    0    0 -0.00000000000E+00 -0.00000000000E+00 -0.50000000000E+03  0.50000000000E+03  0.00000000000E+00 0. -1.
        -11    1    1    2    0    0  0.11233525448E+02 -0.12978732760E+02  0.49826598965E+03  0.49856156695E+03  0.00000000000E+00 0. -1.
         11    1    1    2    0    0  0.33001840431E+01  0.39818133896E+01 -0.16964345327E+03  0.16972226516E+03  0.00000000000E+00 0. -1.
        -15    1    1    2    0    0  0.18274362021E+00  0.47811282314E+01 -0.29119782740E+03  0.29124255354E+03  0.17770000000E+01 0.  1.
         15    1    1    2    0    0 -0.14716453111E+02  0.42157911395E+01 -0.37424708985E+02  0.40473614352E+02  0.17770000000E+01 0. -1.
</event>
<event>
 6    1  0.1782050E-003  0.4805089E+03  0.7546771E-02  0.9444511E-01
        -11   -1    0    0    0    0  0.00000000000E+00  0.00000000000E+00  0.50000000000E+03  0.50000000000E+03  0.00000000000E+00 0. -1.
         11   -1    0    0    0    0 -0.00000000000E+00 -0.00000000000E+00 -0.50000000000E+03  0.50000000000E+03  0.00000000000E+00 0. -1.
        -11    1    1    2    0    0 -0.75799160490E+01  0.10826570896E+02  0.47649061857E+03  0.47667387105E+03  0.00000000000E+00 0. -1.
         11    1    1    2    0    0 -0.74724826390E+01  0.17832219362E+00 -0.48450054828E+03  0.48455820195E+03  0.00000000000E+00 0. -1.
        -15    1    1    2    0    0  0.10741357825E+02 -0.12324899988E+02  0.19966284965E+02  0.25866777765E+02  0.17770000000E+01 0. -1.
         15    1    1    2    0    0  0.43110408634E+01  0.13200068977E+01 -0.11956355252E+02  0.12901149230E+02  0.17770000000E+01 0. -1.
</event>
<event>
 6    1  0.1782050E-003  0.5066073E+03  0.7546771E-02  0.9385146E-01
        -11   -1    0    0    0    0  0.00000000000E+00  0.00000000000E+00  0.50000000000E+03  0.50000000000E+03  0.00000000000E+00 0.  1.
         11   -1    0    0    0    0 -0.00000000000E+00 -0.00000000000E+00 -0.50000000000E+03  0.50000000000E+03  0.00000000000E+00 0.  1.
        -11    1    1    2    0    0  0.49010783749E+01 -0.72406525755E+01  0.49331520150E+03  0.49339267896E+03  0.00000000000E+00 0.  1.
         11    1    1    2    0    0  0.12916208413E+02  0.25113488222E+01 -0.34975707222E+03  0.35000449266E+03  0.00000000000E+00 0.  1.
        -15    1    1    2    0    0  0.21742233033E+01  0.93688676312E+01  0.16690017771E+01  0.99220070347E+01  0.17770000000E+01 0. -1.
         15    1    1    2    0    0 -0.19991510091E+02 -0.46395638779E+01 -0.14522713106E+03  0.14668082135E+03  0.17770000000E+01 0.  1.
</event>
<event>
 6    1  0.1782050E-003  0.5031342E+03  0.7546771E-02  0.9392824E-01
        -11   -1    0    0    0    0  0.00000000000E+00  0.00000000000E+00  0.50000000000E+03  0.50000000000E+03  0.00000000000E+00 0.  1.
         11   -1    0    0    0    0 -0.00000000000E+00 -0.00000000000E+00 -0.50000000000E+03  0.50000000000E+03  0.00000000000E+00 0.  1.
        -11    1    1    2    0    0  0.73663723100E+01 -0.21402788711E+01  0.49680653977E+03  0.49686575873E+03  0.00000000000E+00 0.  1.
         11    1    1    2    0    0 -0.15171637897E+02 -0.23255571838E+02 -0.41224065854E+03  0.41317473395E+03  0.00000000000E+00 0.  1.
        -15    1    1    2    0    0  0.99165812490E+01  0.25280310504E+02 -0.80998118504E+02  0.85447560604E+02  0.17770000000E+01 0.  1.
         15    1    1    2    0    0 -0.21113156624E+01  0.11554020567E+00 -0.35677627263E+01  0.45119467236E+01  0.17770000000E+01 0. -1.
</event>
<event>
 6    1  0.1782050E-003  0.5017034E+03  0.7546771E-02  0.9396006E-01
        -11   -1    0    0    0    0  0.00000000000E+00  0.00000000000E+00  0.50000000000E+03  0.50000000000E+03  0.00000000000E+00 0. -1.
         11   -1    0    0    0    0 -0.00000000000E+00 -0.00000000000E+00 -0.50000000000E+03  0.50000000000E+03  0.00000000000E+00 0. -1.
        -11    1    1    2    0    0  0.27995305824E+01 -0.72564202762E+01  0.28187164996E+03  0.28197893549E+03  0.00000000000E+00 0. -1.
         11    1    1    2    0    0 -0.10348904636E+02  0.27199001620E+01 -0.49818170747E+03  0.49829660980E+03  0.00000000000E+00 0. -1.
        -15    1    1    2    0    0  0.73500553208E+01 -0.50994484461E+01  0.11489192769E+02  0.14669252441E+02  0.17770000000E+01 0.  1.
         15    1    1    2    0    0  0.19931873228E+00  0.96359685603E+01  0.20482086474E+03  0.20505520227E+03  0.17770000000E+01 0. -1.
</event>
<event>
 6    1  0.1782050E-003  0.5002025E+03  0.7546771E-02  0.9399357E-01
        -11   -1    0    0    0    0  0.00000000000E+00  0.00000000000E+00  0.50000000000E+03  0.50000000000E+03  0.00000000000E+00 0.  1.
         11   -1    0    0    0    0 -0.00000000000E+00 -0.00000000000E+00 -0.50000000000E+03  0.50000000000E+03  0.00000000000E+00 0.  1.
        -11    1    1    2    0    0 -0.11980261963E+01 -0.55714757681E+01  0.24017069068E+03  0.24023829268E+03  0.00000000000E+00 0.  1.
         11    1    1    2    0    0  0.38512962398E+01 -0.57062374297E+01 -0.49975005041E+03  0.49979746549E+03  0.00000000000E+00 0.  1.
        -15    1    1    2    0    0  0.15185111449E+00  0.85008962760E+01  0.21495748749E+03  0.21513290648E+03  0.17770000000E+01 0.  1.
         15    1    1    2    0    0 -0.28051211579E+01  0.27768169218E+01  0.44621872242E+02  0.44831335339E+02  0.17770000000E+01 0. -1.
</event>
<event>
 6    1  0.1782050E-003  0.5059711E+03  0.7546771E-02  0.9386547E-01
        -11   -1    0    0    0    0  0.00000000000E+00  0.00000000000E+00  0.50000000000E+03  0.50000000000E+03  0.00000000000E+00 0. -1.
         11   -1    0    0    0    0 -0.00000000000E+00 -0.00000000000E+00 -0.50000000000E+03  0.50000000000E+03  0.00000000000E+00 0. -1.
        -11    1    1    2    0    0 -0.26177586192E+01  0.46068591279E+01  0.33716334789E+03  0.33720498065E+03  0.00000000000E+00 0. -1.
         11    1    1    2    0    0 -0.20269453202E+02  0.15593888386E+00 -0.49361285293E+03  0.49402886922E+03  0.00000000000E+00 0. -1.
        -15    1    1    2    0    0  0.17165810418E+02 -0.33090806219E+01  0.65701393796E+01  0.18760051235E+02  0.17770000000E+01 0. -1.
         15    1    1    2    0    0  0.57214014028E+01 -0.14537173898E+01  0.14987936565E+03  0.15000609889E+03  0.17770000000E+01 0.  1.
</event>
<event>
 6    1  0.1782050E-003  0.5003755E+03  0.7546771E-02  0.9398970E-01
        -11   -1    0    0    0    0  0.00000000000E+00  0.00000000000E+00  0.50000000000E+03  0.50000000000E+03  0.00000000000E+00 0.  1.
         11   -1    0    0    0    0 -0.00000000000E+00 -0.00000000000E+00 -0.50000000000E+03  0.50000000000E+03  0.00000000000E+00 0. -1.
        -11    1    1    2    0    0 -0.97479882589E+01  0.97656190992E+01  0.49943397078E+03  0.49962454079E+03  0.00000000000E+00 0.  1.
         11    1    1    2    0    0 -0.12513392588E+01  0.14673388445E+01 -0.10865973783E+03  0.10867684923E+03  0.00000000000E+00 0. -1.
        -15    1    1    2    0    0  0.69993781891E+01  0.40039635934E+01 -0.62672070959E+02  0.63213679111E+02  0.17770000000E+01 0. -1.
         15    1    1    2    0    0  0.39999493286E+01 -0.15236921537E+02 -0.32810216199E+03  0.32848493087E+03  0.17770000000E+01 0.  1.
</event>
<event>
 6    1  0.1782050E-003  0.5195721E+03  0.7546771E-02  0.9357050E-01
        -11   -1    0    0    0    0  0.00000000000E+00  0.00000000000E+00  0.50000000000E+03  0.50000000000E+03  0.00000000000E+00 0. -1.
         11   -1    0    0    0    0 -0.00000000000E+00 -0.00000000000E+00 -0.50000000000E+03  0.50000000000E+03  0.00000000000E+00 0.  1.
        -11    1    1    2    0    0  0.41901103318E+01 -0.86838943851E+01  0.48033117229E+03  0.48042793645E+03  0.00000000000E+00 0. -1.
         11    1    1    2    0    0  0.10219945179E+02 -0.12415480045E+01 -0.43414031297E+03  0.43426236317E+03  0.00000000000E+00 0.  1.
        -15    1    1    2    0    0 -0.29717996972E+02  0.15862129352E+02 -0.56526912809E+02  0.65827168345E+02  0.17770000000E+01 0.  1.
         15    1    1    2    0    0  0.15307941461E+02 -0.59366869622E+01  0.10336053487E+02  0.19482532037E+02  0.17770000000E+01 0. -1.
</event>
<event>
 6    1  0.1782050E-003  0.5024268E+03  0.7546771E-02  0.9394396E-01
        -11   -1    0    0    0    0  0.00000000000E+00  0.00000000000E+00  0.50000000000E+03  0.50000000000E+03  0.00000000000E+00 0.  1.
         11   -1    0    0    0    0 -0.00000000000E+00 -0.00000000000E+00 -0.50000000000E+03  0.50000000000E+03  0.00000000000E+00 0. -1.
        -11    1    1    2    0    0 -0.22013448453E+01  0.64854487295E+01  0.49752605379E+03  0.49757319177E+03  0.00000000000E+00 0.  1.
         11    1    1    2    0    0  0.79236316868E+01 -0.27051951302E+01 -0.48032600738E+03  0.48039897521E+03  0.00000000000E+00 0. -1.
        -15    1    1    2    0    0 -0.27724688613E+01 -0.40964805414E+00 -0.16874961134E+02  0.17198152151E+02  0.17770000000E+01 0. -1.
         15    1    1    2    0    0 -0.29498179802E+01 -0.33706055452E+01 -0.32508528211E+00  0.48296808692E+01  0.17770000000E+01 0.  1.
</event>
<event>
 6    1  0.1782050E-003  0.5015560E+03  0.7546771E-02  0.9396335E-01
        -11   -1    0    0    0    0  0.00000000000E+00  0.00000000000E+00  0.50000000000E+03  0.50000000000E+03  0.00000000000E+00 0. -1.
         11   -1    0    0    0    0 -0.00000000000E+00 -0.00000000000E+00 -0.50000000000E+03  0.50000000000E+03  0.00000000000E+00 0. -1.
        -11    1    1    2    0    0 -0.11069700491E+02  0.77876419284E+01  0.36259835989E+03  0.36285087326E+03  0.00000000000E+00 0. -1.
         11    1    1    2    0    0  0.78144903591E+01  0.38204896008E+01 -0.49836809968E+03  0.49844400406E+03  0.00000000000E+00 0. -1.
        -15    1    1    2    0    0  0.35348940648E+01 -0.23338900356E+01  0.27570808269E+01  0.53574007161E+01  0.17770000000E+01 0. -1.
         15    1    1    2    0    0 -0.27968393249E+00 -0.92742414936E+01  0.13301265897E+03  0.13334772196E+03  0.17770000000E+01 0.  1.
</event>
<event>
 6    1  0.1782050E-003  0.5464788E+03  0.7546771E-02  0.9301423E-01
        -11   -1    0    0    0    0  0.00000000000E+00  0.00000000000E+00  0.50000000000E+03  0.50000000000E+03  0.00000000000E+00 0.  1.
         11   -1    0    0    0    0 -0.00000000000E+00 -0.00000000000E+00 -0.50000000000E+03  0.50000000000E+03  0.00000000000E+00 0.  1.
        -11    1    1    2    0    0  0.17831990534E+02 -0.31542066850E+02  0.45207143053E+03  0.45352117940E+03  0.00000000000E+00 0.  1.
         11    1    1    2    0    0  0.86456819156E+01 -0.52565943794E+01 -0.18563889792E+03  0.18591444275E+03  0.00000000000E+00 0.  1.
        -15    1    1    2    0    0  0.72848837698E+02  0.23057448222E+02 -0.58947568931E+00  0.76433659359E+02  0.17770000000E+01 0. -1.
         15    1    1    2    0    0 -0.99326510148E+02  0.13741213008E+02 -0.26584305691E+03  0.28413071849E+03  0.17770000000E+01 0.  1.
</event>
<event>
 6    1  0.1782050E-003  0.5013036E+03  0.7546771E-02  0.9396897E-01
        -11   -1    0    0    0    0  0.00000000000E+00  0.00000000000E+00  0.50000000000E+03  0.50000000000E+03  0.00000000000E+00 0. -1.
         11   -1    0    0    0    0 -0.00000000000E+00 -0.00000000000E+00 -0.50000000000E+03  0.50000000000E+03  0.00000000000E+00 0. -1.
        -11    1    1    2    0    0 -0.16399867742E+01 -0.12582361875E+02  0.42237608525E+03  0.42256663709E+03  0.00000000000E+00 0. -1.
         11    1    1    2    0    0 -0.12604006919E+02  0.47680227288E+01 -0.49851425854E+03  0.49869636153E+03  0.00000000000E+00 0. -1.
        -15    1    1    2    0    0  0.10838133382E+02  0.99608288590E+01  0.66631202857E+02  0.68260956410E+02  0.17770000000E+01 0.  1.
         15    1    1    2    0    0  0.34058603107E+01 -0.21464897124E+01  0.95069704319E+01  0.10476044976E+02  0.17770000000E+01 0. -1.
</event>
<event>
 6    1  0.1782050E-003  0.5009595E+03  0.7546771E-02  0.9397665E-01
        -11   -1    0    0    0    0  0.00000000000E+00  0.00000000000E+00  0.50000000000E+03  0.50000000000E+03  0.00000000000E+00 0. -1.
         11   -1    0    0    0    0 -0.00000000000E+00 -0.00000000000E+00 -0.50000000000E+03  0.50000000000E+03  0.00000000000E+00 0.  1.
        -11    1    1    2    0    0 -0.27148833423E+01 -0.17346985743E+01  0.70849983656E+02  0.70923197578E+02  0.00000000000E+00 0. -1.
         11    1    1    2    0    0  0.70005309959E+00  0.69987260353E+01 -0.49899089425E+03  0.49904046407E+03  0.00000000000E+00 0.  1.
        -15    1    1    2    0    0  0.76694734382E+01 -0.10742996751E+02  0.48105650326E+02  0.49915369620E+02  0.17770000000E+01 0.  1.
         15    1    1    2    0    0 -0.56546431955E+01  0.54789692898E+01  0.38003526026E+03  0.38012096873E+03  0.17770000000E+01 0. -1.
</event>
<event>
 6    1  0.1782050E-003  0.5436461E+03  0.7546771E-02  0.9307118E-01
        -11   -1    0    0    0    0  0.00000000000E+00  0.00000000000E+00  0.50000000000E+03  0.50000000000E+03  0.00000000000E+00 0.  1.
         11   -1    0    0    0    0 -0.00000000000E+00 -0.00000000000E+00 -0.50000000000E+03  0.50000000000E+03  0.00000000000E+00 0. -1.
        -11    1    1    2    0    0  0.40333406190E+01  0.82060639814E+01  0.37393495255E+03  0.37404672978E+03  0.00000000000E+00 0.  1.
         11    1    1    2    0    0  0.36994218963E+02 -0.36573977397E+01 -0.45483730099E+03  0.45635394068E+03  0.00000000000E+00 0. -1.
        -15    1    1    2    0    0  0.20835815360E+02  0.25724704081E+02  0.93817720418E+02  0.99502834106E+02  0.17770000000E+01 0.  1.
         15    1    1    2    0    0 -0.61863374942E+02 -0.30273370323E+02 -0.12915371975E+02  0.70096495434E+02  0.17770000000E+01 0. -1.
</event>
<event>
 6    1  0.1782050E-003  0.5047662E+03  0.7546771E-02  0.9389208E-01
        -11   -1    0    0    0    0  0.00000000000E+00  0.00000000000E+00  0.50000000000E+03  0.50000000000E+03  0.00000000000E+00 0. -1.
         11   -1    0    0    0    0 -0.00000000000E+00 -0.00000000000E+00 -0.50000000000E+03  0.50000000000E+03  0.00000000000E+00 0. -1.
        -11    1    1    2    0    0  0.32615165725E+01 -0.16875015573E+02  0.38032874832E+03  0.38071690327E+03  0.00000000000E+00 0. -1.
         11    1    1    2    0    0 -0.53677436083E+01  0.44871291880E+01 -0.49518437491E+03  0.49523379545E+03  0.00000000000E+00 0. -1.
        -15    1    1    2    0    0 -0.47411208228E+01 -0.51509529756E+01  0.99298831588E+02  0.99561168268E+02  0.17770000000E+01 0.  1.
         15    1    1    2    0    0  0.68473478586E+01  0.17538839360E+02  0.15556795003E+02  0.24488133015E+02  0.17770000000E+01 0. -1.
</event>
<event>
 6    1  0.1782050E-003  0.4873411E+03  0.7546771E-02  0.9428589E-01
        -11   -1    0    0    0    0  0.00000000000E+00  0.00000000000E+00  0.50000000000E+03  0.50000000000E+03  0.00000000000E+00 0. -1.
         11   -1    0    0    0    0 -0.00000000000E+00 -0.00000000000E+00 -0.50000000000E+03  0.50000000000E+03  0.00000000000E+00 0.  1.
        -11    1    1    2    0    0  0.22737454342E+01  0.95234708991E+01  0.48961664729E+03  0.48971453697E+03  0.00000000000E+00 0. -1.
         11    1    1    2    0    0  0.13083844303E+01  0.72304542069E+01 -0.48507313798E+03  0.48512878757E+03  0.00000000000E+00 0.  1.
        -15    1    1    2    0    0 -0.65392568099E+01 -0.10384139063E+01  0.28813464535E+01  0.74364016467E+01  0.17770000000E+01 0. -1.
         15    1    1    2    0    0  0.29571269454E+01 -0.15715511200E+02 -0.74248557617E+01  0.17720273816E+02  0.17770000000E+01 0.  1.
</event>
<event>
 6    1  0.1782050E-003  0.5027599E+03  0.7546771E-02  0.9393655E-01
        -11   -1    0    0    0    0  0.00000000000E+00  0.00000000000E+00  0.50000000000E+03  0.50000000000E+03  0.00000000000E+00 0.  1.
         11   -1    0    0    0    0 -0.00000000000E+00 -0.00000000000E+00 -0.50000000000E+03  0.50000000000E+03  0.00000000000E+00 0.  1.
        -11    1    1    2    0    0 -0.61367275642E+01  0.11752150952E+01  0.29217247868E+03  0.29223928184E+03  0.00000000000E+00 0.  1.
         11    1    1    2    0    0 -0.60862048449E+01  0.21639229081E+02 -0.49673177661E+03  0.49724013918E+03  0.00000000000E+00 0.  1.
        -15    1    1    2    0    0  0.96504982414E+01 -0.24609155639E+02  0.56349012216E+02  0.62266456173E+02  0.17770000000E+01 0.  1.
         15    1    1    2    0    0  0.25724341677E+01  0.17947114627E+01  0.14821028571E+03  0.14825412280E+03  0.17770000000E+01 0. -1.
</event>
<event>
 6    1  0.1782050E-003  0.5075371E+03  0.7546771E-02  0.9383101E-01
        -11   -1    0    0    0    0  0.00000000000E+00  0.00000000000E+00  0.50000000000E+03  0.50000000000E+03  0.00000000000E+00 0. -1.
         11   -1    0    0    0    0 -0.00000000000E+00 -0.00000000000E+00 -0.50000000000E+03  0.50000000000E+03  0.00000000000E+00 0. -1.
        -11    1    1    2    0    0  0.12414381913E+01  0.90677861680E+01  0.45442287203E+03  0.45451503005E+03  0.00000000000E+00 0. -1.
         11    1    1    2    0    0 -0.16125436631E+02  0.24304395116E+01 -0.49219277986E+03  0.49246286082E+03  0.00000000000E+00 0. -1.
        -15    1    1    2    0    0  0.16158290353E+02  0.38510525680E+00  0.34294887051E+01  0.16617995516E+02  0.17770000000E+01 0.  1.
         15    1    1    2    0    0 -0.12742919130E+01 -0.11883330936E+02  0.34340419120E+02  0.36404113619E+02  0.17770000000E+01 0. -1.
</event>
<event>
 6    1  0.1782050E-003  0.5113469E+03  0.7546771E-02  0.9374772E-01
        -11   -1    0    0    0    0  0.00000000000E+00  0.00000000000E+00  0.50000000000E+03  0.50000000000E+03  0.00000000000E+00 0. -1.
         11   -1    0    0    0    0 -0.00000000000E+00 -0.00000000000E+00 -0.50000000000E+03  0.50000000000E+03  0.00000000000E+00 0. -1.
        -11    1    1    2    0    0  0.69010482578E+01 -0.45883566679E+01  0.48858282376E+03  0.48865310104E+03  0.00000000000E+00 0. -1.
         11    1    1    2    0    0  0.87884759349E+01 -0.13416117262E+01 -0.45695194503E+03  0.45703841994E+03  0.00000000000E+00 0. -1.
        -15    1    1    2    0    0  0.17730780134E+01 -0.31626203972E+01  0.85903212083E+01  0.94919608554E+01  0.17770000000E+01 0.  1.
         15    1    1    2    0    0 -0.17462602206E+02  0.90925887913E+01 -0.40221199937E+02  0.44816518161E+02  0.17770000000E+01 0. -1.
</event>
<event>
 6    1  0.1782050E-003  0.5010922E+03  0.7546771E-02  0.9397369E-01
        -11   -1    0    0    0    0  0.00000000000E+00  0.00000000000E+00  0.50000000000E+03  0.50000000000E+03  0.00000000000E+00 0.  1.
         11   -1    0    0    0    0 -0.00000000000E+00 -0.00000000000E+00 -0.50000000000E+03  0.50000000000E+03  0.00000000000E+00 0.  1.
        -11    1    1    2    0    0 -0.92300338136E+01  0.22498556910E+01  0.49881733547E+03  0.49890779663E+03  0.00000000000E+00 0.  1.
         11    1    1    2    0    0  0.16701475710E+01 -0.65373161544E+01 -0.28403756752E+03  0.28411769684E+03  0.00000000000E+00 0.  1.
        -15    1    1    2    0    0 -0.52359859602E+01  0.40761034479E+01 -0.12342489231E+02  0.14125329650E+02  0.17770000000E+01 0.  1.
         15    1    1    2    0    0  0.12795872203E+02  0.21135701550E+00 -0.20243727871E+03  0.20284917688E+03  0.17770000000E+01 0. -1.
</event>
<event>
 6    1  0.1782050E-003  0.5003642E+03  0.7546771E-02  0.9398995E-01
        -11   -1    0    0    0    0  0.00000000000E+00  0.00000000000E+00  0.50000000000E+03  0.50000000000E+03  0.00000000000E+00 0. -1.
         11   -1    0    0    0    0 -0.00000000000E+00 -0.00000000000E+00 -0.50000000000E+03  0.50000000000E+03  0.00000000000E+00 0.  1.
        -11    1    1    2    0    0  0.24870536401E+01  0.24078429583E+01  0.10830626917E+03  0.10836157569E+03  0.00000000000E+00 0. -1.
         11    1    1    2    0    0 -0.52001572758E+01  0.10593739429E+02 -0.49949646006E+03  0.49963584995E+03  0.00000000000E+00 0.  1.
        -15    1    1    2    0    0 -0.43975207981E+01  0.38909348564E+01  0.14227752646E+03  0.14240972518E+03  0.17770000000E+01 0. -1.
         15    1    1    2    0    0  0.71106244338E+01 -0.16892517244E+02  0.24891266443E+03  0.24959284918E+03  0.17770000000E+01 0.  1.
</event>
<event>
 6    1  0.1782050E-003  0.5058609E+03  0.7546771E-02  0.9386790E-01
        -11   -1    0    0    0    0  0.00000000000E+00  0.00000000000E+00  0.50000000000E+03  0.50000000000E+03  0.00000000000E+00 0.  1.
         11   -1    0    0    0    0 -0.00000000000E+00 -0.00000000000E+00 -0.50000000000E+03  0.50000000000E+03  0.00000000000E+00 0.  1.
        -11    1    1    2    0    0 -0.10155641991E+02  0.25902131321E+01  0.31491728264E+03  0.31509163932E+03  0.00000000000E+00 0.  1.
         11    1    1    2    0    0 -0.76900145306E+01  0.28043961119E+01 -0.49407128882E+03  0.49413908912E+03  0.00000000000E+00 0.  1.
        -15    1    1    2    0    0  0.23152212063E+02 -0.21230376301E+01  0.18214414253E+03  0.18363054920E+03  0.17770000000E+01 0.  1.
         15    1    1    2    0    0 -0.53065555412E+01 -0.32715716139E+01 -0.29901363410E+01  0.71387223559E+01  0.17770000000E+01 0. -1.
</event>
<event>
 6    1  0.1782050E-003  0.5081942E+03  0.7546771E-02  0.9381659E-01
        -11   -1    0    0    0    0  0.00000000000E+00  0.00000000000E+00  0.50000000000E+03  0.50000000000E+03  0.00000000000E+00 0. -1.
         11   -1    0    0    0    0 -0.00000000000E+00 -0.00000000000E+00 -0.50000000000E+03  0.50000000000E+03  0.00000000000E+00 0.  1.
        -11    1    1    2    0    0  0.87204198280E+01 -0.62842558798E+01  0.45947960393E+03  0.45960531330E+03  0.00000000000E+00 0. -1.
         11    1    1    2    0    0 -0.17042861797E+01 -0.13577122192E+02 -0.49161540375E+03  0.49180580318E+03  0.00000000000E+00 0.  1.
        -15    1    1    2    0    0 -0.10477285561E+02  0.96699549335E+01  0.34547933959E+02  0.37416560651E+02  0.17770000000E+01 0. -1.
         15    1    1    2    0    0  0.34611519125E+01  0.10191423138E+02 -0.24121341386E+01  0.11172322867E+02  0.17770000000E+01 0.  1.
</event>
<event>
 6    1  0.1782050E-003  0.5213577E+03  0.7546771E-02  0.9353249E-01
        -11   -1    0    0    0    0  0.00000000000E+00  0.00000000000E+00  0.50000000000E+03  0.50000000000E+03  0.00000000000E+00 0.  1.
         11   -1    0    0    0    0 -0.00000000000E+00 -0.00000000000E+00 -0.50000000000E+03  0.50000000000E+03  0.00000000000E+00 0.  1.
        -11    1    1    2    0    0  0.77274599016E+01  0.31079099581E+01  0.47856981795E+03  0.47864229169E+03  0.00000000000E+00 0.  1.
         11    1    1    2    0    0  0.34708098815E+01 -0.36707630454E+01 -0.33396865338E+03  0.33400685991E+03  0.00000000000E+00 0.  1.
        -15    1    1    2    0    0  0.15428458962E+02  0.30912674781E+01  0.17179679578E+02  0.23364340349E+02  0.17770000000E+01 0. -1.
         15    1    1    2    0    0 -0.26626728745E+02 -0.25284143909E+01 -0.16178084414E+03  0.16398650805E+03  0.17770000000E+01 0.  1.
</event>
<event>
 6    1  0.1782050E-003  0.5111389E+03  0.7546771E-02  0.9375225E-01
        -11   -1    0    0    0    0  0.00000000000E+00  0.00000000000E+00  0.50000000000E+03  0.50000000000E+03  0.00000000000E+00 0. -1.
         11   -1    0    0    0    0 -0.00000000000E+00 -0.00000000000E+00 -0.50000000000E+03  0.50000000000E+03  0.00000000000E+00 0.  1.
        -11    1    1    2    0    0  0.38151652219E+01 -0.16214181314E+02  0.46039227095E+03  0.46069349714E+03  0.00000000000E+00 0. -1.
         11    1    1    2    0    0 -0.48911525739E+01 -0.53163709810E+01 -0.48880775017E+03  0.48886112936E+03  0.00000000000E+00 0.  1.
        -15    1    1    2    0    0  0.73900333656E+01  0.17967972204E+02  0.35273215011E+02  0.40309031798E+02  0.17770000000E+01 0.  1.
         15    1    1    2    0    0 -0.63140460135E+01  0.35625800905E+01 -0.68577357898E+01  0.10136341703E+02  0.17770000000E+01 0. -1.
</event>
<event>
 6    1  0.1782050E-003  0.5004072E+03  0.7546771E-02  0.9398899E-01
        -11   -1    0    0    0    0  0.00000000000E+00  0.00000000000E+00  0.50000000000E+03  0.50000000000E+03  0.00000000000E+00 0.  1.
         11   -1    0    0    0    0 -0.00000000000E+00 -0.00000000000E+00 -0.50000000000E+03  0.50000000000E+03  0.00000000000E+00 0.  1.
        -11    1    1    2    0    0  0.44021816970E+01  0.38429389017E+00  0.32060469988E+03  0.32063515165E+03  0.00000000000E+00 0.  1.
         11    1    1    2    0    0 -0.92773511810E+01  0.68119755093E+01 -0.49946018833E+03  0.49959278616E+03  0.00000000000E+00 0.  1.
        -15    1    1    2    0    0  0.81479190186E+01 -0.10311010257E+02  0.12772437940E+03  0.12841098216E+03  0.17770000000E+01 0.  1.
         15    1    1    2    0    0 -0.32727495347E+01  0.31147408572E+01  0.51131109047E+02  0.51361080027E+02  0.17770000000E+01 0.  1.
</event>
<event>
 6    1  0.1782050E-003  0.5359969E+03  0.7546771E-02  0.9322681E-01
        -11   -1    0    0    0    0  0.00000000000E+00  0.00000000000E+00  0.50000000000E+03  0.50000000000E+03  0.00000000000E+00 0.  1.
         11   -1    0    0    0    0 -0.00000000000E+00 -0.00000000000E+00 -0.50000000000E+03  0.50000000000E+03  0.00000000000E+00 0.  1.
        -11    1    1    2    0    0  0.10756056433E+02  0.11550899771E+02  0.46373460514E+03  0.46400312504E+03  0.00000000000E+00 0.  1.
         11    1    1    2    0    0 -0.55881546133E+00  0.56695813883E+01 -0.26516749865E+03  0.26522869145E+03  0.00000000000E+00 0.  1.
        -15    1    1    2    0    0  0.83931328455E+02 -0.21447928397E+02 -0.70162232969E+02  0.11149160593E+03  0.17770000000E+01 0. -1.
         15    1    1    2    0    0 -0.94128569426E+02  0.42274472381E+01 -0.12840487353E+03  0.15927657758E+03  0.17770000000E+01 0.  1.
</event>
<event>
 6    1  0.1782050E-003  0.5081538E+03  0.7546771E-02  0.9381747E-01
        -11   -1    0    0    0    0  0.00000000000E+00  0.00000000000E+00  0.50000000000E+03  0.50000000000E+03  0.00000000000E+00 0. -1.
         11   -1    0    0    0    0 -0.00000000000E+00 -0.00000000000E+00 -0.50000000000E+03  0.50000000000E+03  0.00000000000E+00 0.  1.
        -11    1    1    2    0    0  0.34810120535E+00 -0.89261047310E+01  0.49176503363E+03  0.49184615971E+03  0.00000000000E+00 0. -1.
         11    1    1    2    0    0  0.58724460746E+01 -0.24529633973E+02 -0.44093016590E+03  0.44165099317E+03  0.00000000000E+00 0.  1.
        -15    1    1    2    0    0 -0.89412264331E+01  0.13713522277E+02 -0.41051582934E+02  0.44231170160E+02  0.17770000000E+01 0.  1.
         15    1    1    2    0    0  0.27206791531E+01  0.19742216428E+02 -0.97832847947E+01  0.22271676967E+02  0.17770000000E+01 0. -1.
</event>
<event>
 6    1  0.1782050E-003  0.5276561E+03  0.7546771E-02  0.9339968E-01
        -11   -1    0    0    0    0  0.00000000000E+00  0.00000000000E+00  0.50000000000E+03  0.50000000000E+03  0.00000000000E+00 0. -1.
         11   -1    0    0    0    0 -0.00000000000E+00 -0.00000000000E+00 -0.50000000000E+03  0.50000000000E+03  0.00000000000E+00 0.  1.
        -11    1    1    2    0    0  0.28391702232E+02  0.78413998900E+01  0.42469293725E+03  0.42571312789E+03  0.00000000000E+00 0. -1.
         11    1    1    2    0    0  0.76691727509E+00  0.22115803218E+02 -0.47182528974E+03  0.47234394349E+03  0.00000000000E+00 0.  1.
        -15    1    1    2    0    0 -0.17765910583E+02  0.14027379563E+02 -0.13300123233E+02  0.26314368000E+02  0.17770000000E+01 0.  1.
         15    1    1    2    0    0 -0.11392708924E+02 -0.43984582670E+02  0.60432475730E+02  0.75628560618E+02  0.17770000000E+01 0. -1.
</event>
<event>
 6    1  0.1782050E-003  0.5224276E+03  0.7546771E-02  0.9350979E-01
        -11   -1    0    0    0    0  0.00000000000E+00  0.00000000000E+00  0.50000000000E+03  0.50000000000E+03  0.00000000000E+00 0.  1.
         11   -1    0    0    0    0 -0.00000000000E+00 -0.00000000000E+00 -0.50000000000E+03  0.50000000000E+03  0.00000000000E+00 0.  1.
        -11    1    1    2    0    0 -0.57763879790E+02  0.13352558559E+02  0.47387806725E+03  0.47757238117E+03  0.00000000000E+00 0.  1.
         11    1    1    2    0    0  0.28595548567E+02  0.45298897565E+00 -0.34667426678E+03  0.34785191942E+03  0.00000000000E+00 0.  1.
        -15    1    1    2    0    0 -0.26848979540E+02 -0.30819511975E+02 -0.78983485771E+01  0.41668353219E+02  0.17770000000E+01 0. -1.
         15    1    1    2    0    0  0.56017310763E+02  0.17013964440E+02 -0.11930545189E+03  0.13290734619E+03  0.17770000000E+01 0.  1.
</event>
<event>
 6    1  0.1782050E-003  0.5002388E+03  0.7546771E-02  0.9399275E-01
        -11   -1    0    0    0    0  0.00000000000E+00  0.00000000000E+00  0.50000000000E+03  0.50000000000E+03  0.00000000000E+00 0. -1.
         11   -1    0    0    0    0 -0.00000000000E+00 -0.00000000000E+00 -0.50000000000E+03  0.50000000000E+03  0.00000000000E+00 0. -1.
        -11    1    1    2    0    0  0.62229870875E+01  0.59540205239E+01  0.49968694485E+03  0.49976116174E+03  0.00000000000E+00 0. -1.
         11    1    1    2    0    0 -0.16232530588E+01 -0.73965673229E+00 -0.21610715574E+02  0.21684212465E+02  0.00000000000E+00 0. -1.
        -15    1    1    2    0    0  0.68574094401E+01 -0.59811116273E+01 -0.16219232462E+03  0.16245708866E+03  0.17770000000E+01 0.  1.
         15    1    1    2    0    0 -0.11457143469E+02  0.76674783570E+00 -0.31588390465E+03  0.31609753714E+03  0.17770000000E+01 0. -1.
</event>
<event>
 6    1  0.1782050E-003  0.5009840E+03  0.7546771E-02  0.9397611E-01
        -11   -1    0    0    0    0  0.00000000000E+00  0.00000000000E+00  0.50000000000E+03  0.50000000000E+03  0.00000000000E+00 0.  1.
         11   -1    0    0    0    0 -0.00000000000E+00 -0.00000000000E+00 -0.50000000000E+03  0.50000000000E+03  0.00000000000E+00 0. -1.
        -11    1    1    2    0    0 -0.87011363687E+01 -0.10972901218E+02  0.49881950488E+03  0.49901604462E+03  0.00000000000E+00 0.  1.
         11    1    1    2    0    0  0.91897186500E-01 -0.48636039555E+01 -0.32084385760E+03  0.32088073181E+03  0.00000000000E+00 0. -1.
        -15    1    1    2    0    0 -0.45440057474E+01 -0.19884219145E+01 -0.28231455437E+02  0.28718889517E+02  0.17770000000E+01 0.  1.
         15    1    1    2    0    0  0.13153244930E+02  0.17824927088E+02 -0.14974419184E+03  0.15138433405E+03  0.17770000000E+01 0.  1.
</event>
<event>
 6    1  0.1782050E-003  0.5018397E+03  0.7546771E-02  0.9395703E-01
        -11   -1    0    0    0    0  0.00000000000E+00  0.00000000000E+00  0.50000000000E+03  0.50000000000E+03  0.00000000000E+00 0.  1.
         11   -1    0    0    0    0 -0.00000000000E+00 -0.00000000000E+00 -0.50000000000E+03  0.50000000000E+03  0.00000000000E+00 0. -1.
        -11    1    1    2    0    0 -0.81690185489E+01  0.24641475136E+01  0.95893070442E+02  0.96271936959E+02  0.00000000000E+00 0.  1.
         11    1    1    2    0    0 -0.36263247449E+01  0.21775764782E+02 -0.49767090331E+03  0.49816027759E+03  0.00000000000E+00 0. -1.
        -15    1    1    2    0    0 -0.14507712581E+02 -0.20019625084E+02  0.26852179504E+03  0.26966344070E+03  0.17770000000E+01 0.  1.
         15    1    1    2    0    0  0.26303055875E+02 -0.42202872112E+01  0.13325603783E+03  0.13590434475E+03  0.17770000000E+01 0. -1.
</event>
<event>
 6    1  0.1782050E-003  0.5049088E+03  0.7546771E-02  0.9388892E-01
        -11   -1    0    0    0    0  0.00000000000E+00  0.00000000000E+00  0.50000000000E+03  0.50000000000E+03  0.00000000000E+00 0. -1.
         11   -1    0    0    0    0 -0.00000000000E+00 -0.00000000000E+00 -0.50000000000E+03  0.50000000000E+03  0.00000000000E+00 0.  1.
        -11    1    1    2    0    0  0.10022284770E+02 -0.63028523580E+01  0.49494958344E+03  0.49509116563E+03  0.00000000000E+00 0. -1.
         11    1    1    2    0    0  0.85227001093E+01 -0.60628031980E+01 -0.39942097195E+03  0.39955788921E+03  0.00000000000E+00 0.  1.
        -15    1    1    2    0    0 -0.11529189917E+02 -0.13230149324E+02 -0.33504870572E+02  0.37864140718E+02  0.17770000000E+01 0. -1.
         15    1    1    2    0    0 -0.70157949624E+01  0.25595804880E+02 -0.62023740921E+02  0.67486804438E+02  0.17770000000E+01 0.  1.
</event>
<event>
 6    1  0.1782050E-003  0.5036702E+03  0.7546771E-02  0.9391635E-01
        -11   -1    0    0    0    0  0.00000000000E+00  0.00000000000E+00  0.50000000000E+03  0.50000000000E+03  0.00000000000E+00 0. -1.
         11   -1    0    0    0    0 -0.00000000000E+00 -0.00000000000E+00 -0.50000000000E+03  0.50000000000E+03  0.00000000000E+00 0. -1.
        -11    1    1    2    0    0 -0.55056134856E+01  0.45246773850E+01  0.49627861845E+03  0.49632978111E+03  0.00000000000E+00 0. -1.
         11    1    1    2    0    0  0.71239827759E+01  0.54110930627E+01 -0.45491581154E+03  0.45500376553E+03  0.00000000000E+00 0. -1.
        -15    1    1    2    0    0 -0.10244794627E+02 -0.86905253418E+01 -0.35537544238E+02  0.38033614437E+02  0.17770000000E+01 0.  1.
         15    1    1    2    0    0  0.86264253364E+01 -0.12452451059E+01 -0.58252626721E+01  0.10632838927E+02  0.17770000000E+01 0. -1.
</event>
<event>
 6    1  0.1782050E-003  0.5002191E+03  0.7546771E-02  0.9399320E-01
        -11   -1    0    0    0    0  0.00000000000E+00  0.00000000000E+00  0.50000000000E+03  0.50000000000E+03  0.00000000000E+00 0.  1.
         11   -1    0    0    0    0 -0.00000000000E+00 -0.00000000000E+00 -0.50000000000E+03  0.50000000000E+03  0.00000000000E+00 0. -1.
        -11    1    1    2    0    0  0.55127855649E+01  0.13778661150E+02  0.49956047316E+03  0.49978086063E+03  0.00000000000E+00 0.  1.
         11    1    1    2    0    0 -0.36749523972E+01 -0.80307867681E+00 -0.89748911638E+02  0.89827709259E+02  0.00000000000E+00 0. -1.
        -15    1    1    2    0    0 -0.56615549405E+01 -0.59883023409E+01 -0.73665606485E+02  0.74146424573E+02  0.17770000000E+01 0.  1.
         15    1    1    2    0    0  0.38237217728E+01 -0.69872801327E+01 -0.33614595504E+03  0.33624500554E+03  0.17770000000E+01 0. -1.
</event>
<event>
 6    1  0.1782050E-003  0.5060834E+03  0.7546771E-02  0.9386300E-01
        -11   -1    0    0    0    0  0.00000000000E+00  0.00000000000E+00  0.50000000000E+03  0.50000000000E+03  0.00000000000E+00 0.  1.
         11   -1    0    0    0    0 -0.00000000000E+00 -0.00000000000E+00 -0.50000000000E+03  0.50000000000E+03  0.00000000000E+00 0. -1.
        -11    1    1    2    0    0 -0.69856014886E+00 -0.11765465585E+02  0.48192162693E+03  0.48206573065E+03  0.00000000000E+00 0.  1.
         11    1    1    2    0    0 -0.66401741196E+01  0.43029577011E+01 -0.49385317611E+03  0.49391655865E+03  0.00000000000E+00 0. -1.
        -15    1    1    2    0    0  0.10187443736E+02  0.10625293188E+02  0.12470142042E+02  0.19373771877E+02  0.17770000000E+01 0. -1.
         15    1    1    2    0    0 -0.28487094674E+01 -0.31627853042E+01 -0.53859286266E+00  0.46439388220E+01  0.17770000000E+01 0.  1.
</event>
<event>
 6    1  0.1782050E-003  0.5042035E+03  0.7546771E-02  0.9390453E-01
        -11   -1    0    0    0    0  0.00000000000E+00  0.00000000000E+00  0.50000000000E+03  0.50000000000E+03  0.00000000000E+00 0. -1.
         11   -1    0    0    0    0 -0.00000000000E+00 -0.00000000000E+00 -0.50000000000E+03  0.50000000000E+03  0.00000000000E+00 0. -1.
        -11    1    1    2    0    0 -0.25650015187E+01  0.19888287231E+01  0.11983171201E+03  0.11987566006E+03  0.00000000000E+00 0. -1.
         11    1    1    2    0    0 -0.33995579374E+02 -0.30126648199E+02 -0.49371131576E+03  0.49579650832E+03  0.00000000000E+00 0. -1.
        -15    1    1    2    0    0  0.44131317144E+02  0.39313030002E+02  0.16991400543E+03  0.17990835014E+03  0.17770000000E+01 0.  1.
         15    1    1    2    0    0 -0.75707362506E+01 -0.11175210525E+02  0.20396559832E+03  0.20441948148E+03  0.17770000000E+01 0. -1.
</event>
<event>
 6    1  0.1782050E-003  0.5213893E+03  0.7546771E-02  0.9353182E-01
        -11   -1    0    0    0    0  0.00000000000E+00  0.00000000000E+00  0.50000000000E+03  0.50000000000E+03  0.00000000000E+00 0.  1.
         11   -1    0    0    0    0 -0.00000000000E+00 -0.00000000000E+00 -0.50000000000E+03  0.50000000000E+03  0.00000000000E+00 0. -1.
        -11    1    1    2    0    0  0.72255627952E+00  0.75135108144E+01  0.47201543938E+03  0.47207578835E+03  0.00000000000E+00 0.  1.
         11    1    1    2    0    0  0.47357522251E-03 -0.59102269216E+00 -0.12282063449E+02  0.12296275477E+02  0.00000000000E+00 0. -1.
        -15    1    1    2    0    0  0.10220479688E+03  0.51241621320E+02 -0.20335572546E+03  0.23329859208E+03  0.17770000000E+01 0. -1.
         15    1    1    2    0    0 -0.10292782674E+03 -0.58164109442E+02 -0.25637765047E+03  0.28232934409E+03  0.17770000000E+01 0.  1.
</event>
<event>
 6    1  0.1782050E-003  0.5046980E+03  0.7546771E-02  0.9389359E-01
        -11   -1    0    0    0    0  0.00000000000E+00  0.00000000000E+00  0.50000000000E+03  0.50000000000E+03  0.00000000000E+00 0.  1.
         11   -1    0    0    0    0 -0.00000000000E+00 -0.00000000000E+00 -0.50000000000E+03  0.50000000000E+03  0.00000000000E+00 0.  1.
        -11    1    1    2    0    0 -0.31061812413E+01 -0.49115749767E+01  0.33328278568E+03  0.33333344741E+03  0.00000000000E+00 0.  1.
         11    1    1    2    0    0 -0.72832667277E+01  0.31697801083E+01 -0.49523832653E+03  0.49530202255E+03  0.00000000000E+00 0.  1.
        -15    1    1    2    0    0  0.31716505671E+01 -0.13131418206E+02  0.66322652702E+01  0.15153817441E+02  0.17770000000E+01 0. -1.
         15    1    1    2    0    0  0.72177974019E+01  0.14873213074E+02  0.15532327558E+03  0.15621071260E+03  0.17770000000E+01 0.  1.
</event>
<event>
 6    1  0.1782050E-003  0.5013205E+03  0.7546771E-02  0.9396860E-01
        -11   -1    0    0    0    0  0.00000000000E+00  0.00000000000E+00  0.50000000000E+03  0.50000000000E+03  0.00000000000E+00 0.  1.
         11   -1    0    0    0    0 -0.00000000000E+00 -0.00000000000E+00 -0.50000000000E+03  0.50000000000E+03  0.00000000000E+00 0.  1.
        -11    1    1    2    0    0  0.42803032279E+01  0.24346466203E+02  0.49806647133E+03  0.49867953766E+03  0.00000000000E+00 0.  1.
         11    1    1    2    0    0  0.22980939423E+01  0.18539477599E+01 -0.17143320772E+03  0.17145863369E+03  0.00000000000E+00 0.  1.
        -15    1    1    2    0    0 -0.50020741052E+01 -0.23782779796E+02 -0.91057846375E+02  0.94262030933E+02  0.17770000000E+01 0.  1.
         15    1    1    2    0    0 -0.15763230651E+01 -0.24176341666E+01 -0.23557541724E+03  0.23559979772E+03  0.17770000000E+01 0.  1.
</event>
<event>
 6    1  0.1782050E-003  0.5003813E+03  0.7546771E-02  0.9398957E-01
        -11   -1    0    0    0    0  0.00000000000E+00  0.00000000000E+00  0.50000000000E+03  0.50000000000E+03  0.00000000000E+00 0. -1.
         11   -1    0    0    0    0 -0.00000000000E+00 -0.00000000000E+00 -0.50000000000E+03  0.50000000000E+03  0.00000000000E+00 0.  1.
        -11    1    1    2    0    0 -0.32800734809E+01  0.40656608394E+01  0.33997958701E+03  0.34001971717E+03  0.00000000000E+00 0. -1.
         11    1    1    2    0    0  0.28019351399E+01 -0.63041322075E+01 -0.49957103741E+03  0.49961866893E+03  0.00000000000E+00 0.  1.
        -15    1    1    2    0    0 -0.24479826883E+01  0.33614243002E+01  0.15070129057E+03  0.15076912317E+03  0.17770000000E+01 0. -1.
         15    1    1    2    0    0  0.29261210292E+01 -0.11229529321E+01  0.88901598306E+01  0.95924907287E+01  0.17770000000E+01 0. -1.
</event>
<event>
 6    1  0.1782050E-003  0.5064035E+03  0.7546771E-02  0.9385594E-01
        -11   -1    0    0    0    0  0.00000000000E+00  0.00000000000E+00  0.50000000000E+03  0.50000000000E+03  0.00000000000E+00 0. -1.
         11   -1    0    0    0    0 -0.00000000000E+00 -0.00000000000E+00 -0.50000000000E+03  0.50000000000E+03  0.00000000000E+00 0.  1.
        -11    1    1    2    0    0  0.63836456181E+01 -0.96163469874E+00  0.47659569737E+03  0.47663941762E+03  0.00000000000E+00 0. -1.
         11    1    1    2    0    0 -0.20717432276E+01  0.75456738560E+01 -0.49353446124E+03  0.49359648878E+03  0.00000000000E+00 0.  1.
        -15    1    1    2    0    0  0.15901397338E+01 -0.37362243277E+01 -0.50685345892E+01  0.67331781858E+01  0.17770000000E+01 0. -1.
         15    1    1    2    0    0 -0.59020421243E+01 -0.28478148295E+01  0.22007298451E+02  0.23030915410E+02  0.17770000000E+01 0.  1.
</event>
<event>
 6    1  0.1782050E-003  0.5018074E+03  0.7546771E-02  0.9395775E-01
        -11   -1    0    0    0    0  0.00000000000E+00  0.00000000000E+00  0.50000000000E+03  0.50000000000E+03  0.00000000000E+00 0. -1.
         11   -1    0    0    0    0 -0.00000000000E+00 -0.00000000000E+00 -0.50000000000E+03  0.50000000000E+03  0.00000000000E+00 0.  1.
        -11    1    1    2    0    0 -0.38262356898E+00  0.67461154158E+01  0.49814676918E+03  0.49819259340E+03  0.00000000000E+00 0. -1.
         11    1    1    2    0    0  0.16964491782E+02 -0.24232035603E+01 -0.36137893852E+03  0.36178502333E+03  0.00000000000E+00 0.  1.
        -15    1    1    2    0    0 -0.34695511838E+01  0.87801489323E+01 -0.71751406400E+02  0.72391649035E+02  0.17770000000E+01 0.  1.
         15    1    1    2    0    0 -0.13112317029E+02 -0.13103060788E+02 -0.65016424263E+02  0.67630734232E+02  0.17770000000E+01 0. -1.
</event>
<event>
 6    1  0.1782050E-003  0.5074543E+03  0.7546771E-02  0.9383283E-01
        -11   -1    0    0    0    0  0.00000000000E+00  0.00000000000E+00  0.50000000000E+03  0.50000000000E+03  0.00000000000E+00 0.  1.
         11   -1    0    0    0    0 -0.00000000000E+00 -0.00000000000E+00 -0.50000000000E+03  0.50000000000E+03  0.00000000000E+00 0.  1.
        -11    1    1    2    0    0 -0.26597588702E+01 -0.67668500453E+01  0.49249202938E+03  0.49254569695E+03  0.00000000000E+00 0.  1.
         11    1    1    2    0    0  0.11843046722E+01  0.10458140500E+02 -0.46919138961E+03  0.46930942391E+03  0.00000000000E+00 0.  1.
        -15    1    1    2    0    0 -0.12239455516E+01 -0.62161598786E+01  0.57911165818E+01  0.87654689899E+01  0.17770000000E+01 0. -1.
         15    1    1    2    0    0  0.26993997497E+01  0.25248694243E+01 -0.29091756349E+02  0.29379410155E+02  0.17770000000E+01 0.  1.
</event>
<event>
 6    1  0.1782050E-003  0.5095339E+03  0.7546771E-02  0.9378726E-01
        -11   -1    0    0    0    0  0.00000000000E+00  0.00000000000E+00  0.50000000000E+03  0.50000000000E+03  0.00000000000E+00 0.  1.
         11   -1    0    0    0    0 -0.00000000000E+00 -0.00000000000E+00 -0.50000000000E+03  0.50000000000E+03  0.00000000000E+00 0. -1.
        -11    1    1    2    0    0 -0.16500620742E+01  0.89492852272E+01  0.49038166770E+03  0.49046609712E+03  0.00000000000E+00 0.  1.
         11    1    1    2    0    0 -0.44217355969E+01  0.42567138235E+01 -0.44246102521E+03  0.44250359342E+03  0.00000000000E+00 0. -1.
        -15    1    1    2    0    0 -0.13923366824E+02  0.58989162605E+01 -0.51619361732E+01  0.16076712065E+02  0.17770000000E+01 0.  1.
         15    1    1    2    0    0  0.19995164495E+02 -0.19104915311E+02 -0.42758706319E+02  0.50953597393E+02  0.17770000000E+01 0. -1.
</event>
<event>
 6    1  0.1782050E-003  0.5416689E+03  0.7546771E-02  0.9311115E-01
        -11   -1    0    0    0    0  0.00000000000E+00  0.00000000000E+00  0.50000000000E+03  0.50000000000E+03  0.00000000000E+00 0. -1.
         11   -1    0    0    0    0 -0.00000000000E+00 -0.00000000000E+00 -0.50000000000E+03  0.50000000000E+03  0.00000000000E+00 0. -1.
        -11    1    1    2    0    0  0.95307074574E+01  0.38338159748E+01  0.31486253188E+03  0.31503007239E+03  0.00000000000E+00 0. -1.
         11    1    1    2    0    0 -0.10821563366E+02  0.20075604779E+02 -0.45776331417E+03  0.45833108987E+03  0.00000000000E+00 0. -1.
        -15    1    1    2    0    0  0.26211500500E+01 -0.91610568221E+01 -0.41002064601E+02  0.42132201702E+02  0.17770000000E+01 0.  1.
         15    1    1    2    0    0 -0.13302941415E+01 -0.14748363931E+02  0.18390284689E+03  0.18450663604E+03  0.17770000000E+01 0. -1.
</event>
<event>
 6    1  0.1782050E-003  0.4888135E+03  0.7546771E-02  0.9425194E-01
        -11   -1    0    0    0    0  0.00000000000E+00  0.00000000000E+00  0.50000000000E+03  0.50000000000E+03  0.00000000000E+00 0. -1.
         11   -1    0    0    0    0 -0.00000000000E+00 -0.00000000000E+00 -0.50000000000E+03  0.50000000000E+03  0.00000000000E+00 0.  1.
        -11    1    1    2    0    0  0.24464590349E+01 -0.98419486728E+01  0.48458015381E+03  0.48468626408E+03  0.00000000000E+00 0. -1.
         11    1    1    2    0    0  0.11856951321E+02 -0.28882581791E+01 -0.49301367874E+03  0.49316469537E+03  0.00000000000E+00 0.  1.
        -15    1    1    2    0    0 -0.34339820801E+01  0.17960414556E+01 -0.41616828009E+00  0.42835642722E+01  0.17770000000E+01 0.  1.
         15    1    1    2    0    0 -0.10869428276E+02  0.10934165396E+02  0.88496932111E+01  0.17865476285E+02  0.17770000000E+01 0. -1.
</event>
<event>
 6    1  0.1782050E-003  0.5008255E+03  0.7546771E-02  0.9397965E-01
        -11   -1    0    0    0    0  0.00000000000E+00  0.00000000000E+00  0.50000000000E+03  0.50000000000E+03  0.00000000000E+00 0.  1.
         11   -1    0    0    0    0 -0.00000000000E+00 -0.00000000000E+00 -0.50000000000E+03  0.50000000000E+03  0.00000000000E+00 0.  1.
        -11    1    1    2    0    0  0.14643381352E+02 -0.65428330128E+01  0.49891677685E+03  0.49917450606E+03  0.00000000000E+00 0.  1.
         11    1    1    2    0    0  0.11566825782E+01 -0.71862319832E+01 -0.20915082977E+03  0.20927744608E+03  0.00000000000E+00 0.  1.
        -15    1    1    2    0    0 -0.20141981913E+02  0.15796104780E+02 -0.26604248899E+03  0.26727697252E+03  0.17770000000E+01 0.  1.
         15    1    1    2    0    0  0.43419179822E+01 -0.20670397844E+01 -0.23723458092E+02  0.24271075338E+02  0.17770000000E+01 0. -1.
</event>
<event>
 6    1  0.1782050E-003  0.5009163E+03  0.7546771E-02  0.9397762E-01
        -11   -1    0    0    0    0  0.00000000000E+00  0.00000000000E+00  0.50000000000E+03  0.50000000000E+03  0.00000000000E+00 0.  1.
         11   -1    0    0    0    0 -0.00000000000E+00 -0.00000000000E+00 -0.50000000000E+03  0.50000000000E+03  0.00000000000E+00 0. -1.
        -11    1    1    2    0    0  0.12169381152E+01 -0.11323980371E+02  0.33892744779E+03  0.33911875256E+03  0.00000000000E+00 0.  1.
         11    1    1    2    0    0  0.77295287544E+01 -0.58959489057E+01 -0.49898900602E+03  0.49908369635E+03  0.00000000000E+00 0. -1.
        -15    1    1    2    0    0 -0.11648531526E+02  0.14171948257E+02  0.10941960409E+03  0.11096098365E+03  0.17770000000E+01 0. -1.
         15    1    1    2    0    0  0.27020646569E+01  0.30479810202E+01  0.50641954142E+02  0.50836567449E+02  0.17770000000E+01 0.  1.
</event>
<event>
 6    1  0.1782050E-003  0.5064953E+03  0.7546771E-02  0.9385392E-01
        -11   -1    0    0    0    0  0.00000000000E+00  0.00000000000E+00  0.50000000000E+03  0.50000000000E+03  0.00000000000E+00 0.  1.
         11   -1    0    0    0    0 -0.00000000000E+00 -0.00000000000E+00 -0.50000000000E+03  0.50000000000E+03  0.00000000000E+00 0.  1.
        -11    1    1    2    0    0  0.19501297765E+02 -0.85456875954E+01  0.39037098348E+03  0.39095119150E+03  0.00000000000E+00 0.  1.
         11    1    1    2    0    0 -0.16599603840E+02  0.20927737264E+01 -0.49322100163E+03  0.49350469400E+03  0.00000000000E+00 0.  1.
        -15    1    1    2    0    0 -0.11357654234E+02  0.97666677694E+01  0.10497148184E+03  0.10604977056E+03  0.17770000000E+01 0. -1.
         15    1    1    2    0    0  0.84559603089E+01 -0.33137539004E+01 -0.21214636797E+01  0.94943439374E+01  0.17770000000E+01 0.  1.
</event>
<event>
 6    1  0.1782050E-003  0.5046042E+03  0.7546771E-02  0.9389566E-01
        -11   -1    0    0    0    0  0.00000000000E+00  0.00000000000E+00  0.50000000000E+03  0.50000000000E+03  0.00000000000E+00 0.  1.
         11   -1    0    0    0    0 -0.00000000000E+00 -0.00000000000E+00 -0.50000000000E+03  0.50000000000E+03  0.00000000000E+00 0. -1.
        -11    1    1    2    0    0  0.28299308585E+01  0.72995030952E+01  0.49533397660E+03  0.49539584135E+03  0.00000000000E+00 0.  1.
         11    1    1    2    0    0 -0.66769466103E+01 -0.14965296532E+01 -0.34916524767E+03  0.34923228859E+03  0.00000000000E+00 0. -1.
        -15    1    1    2    0    0  0.11167261503E+01 -0.14940362972E+01  0.41886481344E+01  0.49174916315E+01  0.17770000000E+01 0.  1.
         15    1    1    2    0    0  0.27302896015E+01 -0.43089371449E+01 -0.15035737707E+03  0.15045437843E+03  0.17770000000E+01 0. -1.
</event>
<event>
 6    1  0.1782050E-003  0.4350616E+03  0.7546771E-02  0.9558125E-01
        -11   -1    0    0    0    0  0.00000000000E+00  0.00000000000E+00  0.50000000000E+03  0.50000000000E+03  0.00000000000E+00 0.  1.
         11   -1    0    0    0    0 -0.00000000000E+00 -0.00000000000E+00 -0.50000000000E+03  0.50000000000E+03  0.00000000000E+00 0. -1.
        -11    1    1    2    0    0 -0.92405109111E+01 -0.74434653433E+01  0.45350816428E+03  0.45366336340E+03  0.00000000000E+00 0.  1.
         11    1    1    2    0    0  0.87858910061E+00 -0.12628203257E+02 -0.85405594395E+01  0.15270382832E+02  0.00000000000E+00 0. -1.
        -15    1    1    2    0    0  0.83727991015E+02  0.85453270093E+02 -0.40712453500E+03  0.42434205845E+03  0.17770000000E+01 0. -1.
         15    1    1    2    0    0 -0.75366069205E+02 -0.65381601493E+02 -0.37843069849E+02  0.10672419532E+03  0.17770000000E+01 0.  1.
</event>
<event>
 6    1  0.1782050E-003  0.5041762E+03  0.7546771E-02  0.9390513E-01
        -11   -1    0    0    0    0  0.00000000000E+00  0.00000000000E+00  0.50000000000E+03  0.50000000000E+03  0.00000000000E+00 0.  1.
         11   -1    0    0    0    0 -0.00000000000E+00 -0.00000000000E+00 -0.50000000000E+03  0.50000000000E+03  0.00000000000E+00 0. -1.
        -11    1    1    2    0    0  0.95376449599E+01 -0.31986524602E+01  0.47245171845E+03  0.47255880514E+03  0.00000000000E+00 0.  1.
         11    1    1    2    0    0 -0.23799150738E+01  0.10321436398E+02 -0.49571066589E+03  0.49582381984E+03  0.00000000000E+00 0. -1.
        -15    1    1    2    0    0 -0.21131044716E+01  0.59914838607E+01  0.40125784946E+01  0.77215027382E+01  0.17770000000E+01 0. -1.
         15    1    1    2    0    0 -0.50446254145E+01 -0.13114267799E+02  0.19246368950E+02  0.23895872284E+02  0.17770000000E+01 0.  1.
</event>
<event>
 6    1  0.1782050E-003  0.5073076E+03  0.7546771E-02  0.9383605E-01
        -11   -1    0    0    0    0  0.00000000000E+00  0.00000000000E+00  0.50000000000E+03  0.50000000000E+03  0.00000000000E+00 0. -1.
         11   -1    0    0    0    0 -0.00000000000E+00 -0.00000000000E+00 -0.50000000000E+03  0.50000000000E+03  0.00000000000E+00 0. -1.
        -11    1    1    2    0    0  0.73547274673E+01 -0.19477334234E+01  0.49263364447E+03  0.49269239222E+03  0.00000000000E+00 0. -1.
         11    1    1    2    0    0  0.58686542981E+01  0.10259389114E+02 -0.47863259033E+03  0.47877850066E+03  0.00000000000E+00 0. -1.
        -15    1    1    2    0    0 -0.11226204046E+02 -0.14098920786E+02 -0.80869863700E+01  0.19833413780E+02  0.17770000000E+01 0.  1.
         15    1    1    2    0    0 -0.19971777198E+01  0.57872650958E+01 -0.59140677709E+01  0.86956933439E+01  0.17770000000E+01 0. -1.
</event>
<event>
 6    1  0.2665213E-003  0.5321635E+03  0.7546771E-02  0.9330585E-01
        -11   -1    0    0    0    0  0.00000000000E+00  0.00000000000E+00  0.50000000000E+03  0.50000000000E+03  0.00000000000E+00 0.  1.
         11   -1    0    0    0    0 -0.00000000000E+00 -0.00000000000E+00 -0.50000000000E+03  0.50000000000E+03  0.00000000000E+00 0. -1.
        -11    1    1    2    0    0  0.76927347952E+01 -0.91067378580E+01  0.46768462618E+03  0.46783653172E+03  0.00000000000E+00 0.  1.
         11    1    1    2    0    0  0.24218145270E+01 -0.66486481573E+01 -0.39275493776E+03  0.39281867426E+03  0.00000000000E+00 0. -1.
        -15    1    1    2    0    0 -0.10769161949E+02  0.13079322838E+02  0.29927554609E+02  0.34436314972E+02  0.17770000000E+01 0.  1.
         15    1    1    2    0    0  0.65461262695E+00  0.26760631773E+01 -0.10485724303E+03  0.10490847905E+03  0.17770000000E+01 0. -1.
</event>
<event>
 6    1  0.1782050E-003  0.5057553E+03  0.7546771E-02  0.9387023E-01
        -11   -1    0    0    0    0  0.00000000000E+00  0.00000000000E+00  0.50000000000E+03  0.50000000000E+03  0.00000000000E+00 0.  1.
         11   -1    0    0    0    0 -0.00000000000E+00 -0.00000000000E+00 -0.50000000000E+03  0.50000000000E+03  0.00000000000E+00 0.  1.
        -11    1    1    2    0    0  0.15667292563E+01  0.78754506121E+01  0.46466881563E+03  0.46473819036E+03  0.00000000000E+00 0.  1.
         11    1    1    2    0    0  0.42628513801E+01  0.55478035287E+01 -0.49419522608E+03  0.49424474859E+03  0.00000000000E+00 0.  1.
        -15    1    1    2    0    0  0.52109355846E+00 -0.14503531668E+02  0.30909206077E+02  0.34192992245E+02  0.17770000000E+01 0. -1.
         15    1    1    2    0    0 -0.63506741948E+01  0.10802775274E+01 -0.13827956242E+01  0.68240688012E+01  0.17770000000E+01 0.  1.
</event>
<event>
 6    1  0.1782050E-003  0.5005453E+03  0.7546771E-02  0.9398590E-01
        -11   -1    0    0    0    0  0.00000000000E+00  0.00000000000E+00  0.50000000000E+03  0.50000000000E+03  0.00000000000E+00 0.  1.
         11   -1    0    0    0    0 -0.00000000000E+00 -0.00000000000E+00 -0.50000000000E+03  0.50000000000E+03  0.00000000000E+00 0.  1.
        -11    1    1    2    0    0  0.34457778533E+01 -0.74569081376E+01  0.49938713573E+03  0.49945469283E+03  0.00000000000E+00 0.  1.
         11    1    1    2    0    0 -0.92766438410E+01 -0.28963159989E+01 -0.35319832101E+03  0.35333199505E+03  0.00000000000E+00 0.  1.
        -15    1    1    2    0    0  0.56226427423E+01 -0.84451853340E+00 -0.45655768793E+02  0.46042744011E+02  0.17770000000E+01 0.  1.
         15    1    1    2    0    0  0.20822324540E+00  0.11197742670E+02 -0.10053304593E+03  0.10117056810E+03  0.17770000000E+01 0. -1.
</event>
<event>
 6    1  0.1782050E-003  0.4885093E+03  0.7546771E-02  0.9425894E-01
        -11   -1    0    0    0    0  0.00000000000E+00  0.00000000000E+00  0.50000000000E+03  0.50000000000E+03  0.00000000000E+00 0.  1.
         11   -1    0    0    0    0 -0.00000000000E+00 -0.00000000000E+00 -0.50000000000E+03  0.50000000000E+03  0.00000000000E+00 0. -1.
        -11    1    1    2    0    0  0.85753663636E+01  0.32107785739E+01  0.49295579366E+03  0.49304083047E+03  0.00000000000E+00 0.  1.
         11    1    1    2    0    0  0.15190978664E+00  0.89427238073E+01 -0.48405033641E+03  0.48413296063E+03  0.00000000000E+00 0. -1.
        -15    1    1    2    0    0  0.75804885314E+00 -0.90366693014E+01  0.13288272783E+00  0.92418297401E+01  0.17770000000E+01 0. -1.
         15    1    1    2    0    0 -0.94853250033E+01 -0.31168330798E+01 -0.90383399708E+01  0.13584379165E+02  0.17770000000E+01 0.  1.
</event>
<event>
 6    1  0.1782050E-003  0.5013026E+03  0.7546771E-02  0.9396900E-01
        -11   -1    0    0    0    0  0.00000000000E+00  0.00000000000E+00  0.50000000000E+03  0.50000000000E+03  0.00000000000E+00 0. -1.
         11   -1    0    0    0    0 -0.00000000000E+00 -0.00000000000E+00 -0.50000000000E+03  0.50000000000E+03  0.00000000000E+00 0. -1.
        -11    1    1    2    0    0 -0.28155552811E+01  0.13052356052E+02  0.49851858347E+03  0.49869737258E+03  0.00000000000E+00 0. -1.
         11    1    1    2    0    0  0.53365455399E+00  0.82697970467E+01 -0.23699522792E+03  0.23714006913E+03  0.00000000000E+00 0. -1.
        -15    1    1    2    0    0 -0.71270877238E+01 -0.44174543794E+01 -0.18543498444E+03  0.18563297246E+03  0.17770000000E+01 0.  1.
         15    1    1    2    0    0  0.94089884509E+01 -0.16904698719E+02 -0.76088371120E+02  0.78529585833E+02  0.17770000000E+01 0. -1.
</event>
<event>
 6    1  0.1782050E-003  0.3976677E+03  0.7546771E-02  0.9663317E-01
        -11   -1    0    0    0    0  0.00000000000E+00  0.00000000000E+00  0.50000000000E+03  0.50000000000E+03  0.00000000000E+00 0.  1.
         11   -1    0    0    0    0 -0.00000000000E+00 -0.00000000000E+00 -0.50000000000E+03  0.50000000000E+03  0.00000000000E+00 0.  1.
        -11    1    1    2    0    0  0.24922768974E+02 -0.70981189462E+00  0.39126683713E+03  0.39206043677E+03  0.00000000000E+00 0.  1.
         11    1    1    2    0    0  0.60849612943E+01  0.75214603196E+01 -0.40389264723E+03  0.40400850190E+03  0.00000000000E+00 0.  1.
        -15    1    1    2    0    0 -0.24560945603E+02 -0.20923984317E+01  0.10668820878E+03  0.10951324030E+03  0.17770000000E+01 0.  1.
         15    1    1    2    0    0 -0.64467846652E+01 -0.47192499934E+01 -0.94062398678E+02  0.94417821024E+02  0.17770000000E+01 0. -1.
</event>
<event>
 6    1  0.1782050E-003  0.5075831E+03  0.7546771E-02  0.9383000E-01
        -11   -1    0    0    0    0  0.00000000000E+00  0.00000000000E+00  0.50000000000E+03  0.50000000000E+03  0.00000000000E+00 0. -1.
         11   -1    0    0    0    0 -0.00000000000E+00 -0.00000000000E+00 -0.50000000000E+03  0.50000000000E+03  0.00000000000E+00 0.  1.
        -11    1    1    2    0    0 -0.45767873989E+01  0.28593698516E+01  0.36603510812E+03  0.36607488763E+03  0.00000000000E+00 0. -1.
         11    1    1    2    0    0 -0.28267702840E+02  0.22037462876E+02 -0.49111065257E+03  0.49241688219E+03  0.00000000000E+00 0.  1.
        -15    1    1    2    0    0 -0.40768551174E+00  0.13637557806E+02  0.40600546834E+02  0.42868535344E+02  0.17770000000E+01 0.  1.
         15    1    1    2    0    0  0.33252175751E+02 -0.38534390533E+02  0.84474997620E+02  0.98639694839E+02  0.17770000000E+01 0. -1.
</event>
<event>
 6    1  0.1782050E-003  0.4994657E+03  0.7546771E-02  0.9401006E-01
        -11   -1    0    0    0    0  0.00000000000E+00  0.00000000000E+00  0.50000000000E+03  0.50000000000E+03  0.00000000000E+00 0. -1.
         11   -1    0    0    0    0 -0.00000000000E+00 -0.00000000000E+00 -0.50000000000E+03  0.50000000000E+03  0.00000000000E+00 0.  1.
        -11    1    1    2    0    0  0.67902069100E+01 -0.18860254999E+01  0.79529719315E+01  0.10626088867E+02  0.00000000000E+00 0. -1.
         11    1    1    2    0    0 -0.12527531625E+02 -0.18491892604E+00 -0.49371831212E+03  0.49387725698E+03  0.00000000000E+00 0.  1.
        -15    1    1    2    0    0 -0.44377995813E+01 -0.32096463496E+02  0.41472857419E+03  0.41599618389E+03  0.17770000000E+01 0. -1.
         15    1    1    2    0    0  0.10175124296E+02  0.34167407922E+02  0.71036765999E+02  0.79500470258E+02  0.17770000000E+01 0.  1.
</event>
<event>
 6    1  0.1782050E-003  0.5010278E+03  0.7546771E-02  0.9397513E-01
        -11   -1    0    0    0    0  0.00000000000E+00  0.00000000000E+00  0.50000000000E+03  0.50000000000E+03  0.00000000000E+00 0. -1.
         11   -1    0    0    0    0 -0.00000000000E+00 -0.00000000000E+00 -0.50000000000E+03  0.50000000000E+03  0.00000000000E+00 0. -1.
        -11    1    1    2    0    0  0.24446738754E+02  0.14232886637E+02  0.49816971351E+03  0.49897222524E+03  0.00000000000E+00 0. -1.
         11    1    1    2    0    0  0.20744975201E+01 -0.24668243590E+01 -0.17176752405E+03  0.17179776215E+03  0.00000000000E+00 0. -1.
        -15    1    1    2    0    0 -0.31261721131E+02 -0.15564645927E+02 -0.23250233095E+03  0.23511708794E+03  0.17770000000E+01 0. -1.
         15    1    1    2    0    0  0.47404848568E+01  0.37985836492E+01 -0.93899858507E+02  0.94112924676E+02  0.17770000000E+01 0.  1.
</event>
<event>
 6    1  0.1782050E-003  0.4783759E+03  0.7546771E-02  0.9449539E-01
        -11   -1    0    0    0    0  0.00000000000E+00  0.00000000000E+00  0.50000000000E+03  0.50000000000E+03  0.00000000000E+00 0.  1.
         11   -1    0    0    0    0 -0.00000000000E+00 -0.00000000000E+00 -0.50000000000E+03  0.50000000000E+03  0.00000000000E+00 0. -1.
        -11    1    1    2    0    0  0.62256750516E+02 -0.63693618223E+02  0.48763327601E+03  0.49570050621E+03  0.00000000000E+00 0.  1.
         11    1    1    2    0    0 -0.47503283660E+00 -0.12768611533E+01 -0.49157859965E+02  0.49176734610E+02  0.00000000000E+00 0. -1.
        -15    1    1    2    0    0 -0.68507218292E+01  0.20826873387E+02 -0.28924830410E+03  0.29008348832E+03  0.17770000000E+01 0.  1.
         15    1    1    2    0    0 -0.54930995850E+02  0.44143605990E+02 -0.14922711195E+03  0.16503927085E+03  0.17770000000E+01 0. -1.
</event>
<event>
 6    1  0.1782050E-003  0.5052178E+03  0.7546771E-02  0.9388210E-01
        -11   -1    0    0    0    0  0.00000000000E+00  0.00000000000E+00  0.50000000000E+03  0.50000000000E+03  0.00000000000E+00 0.  1.
         11   -1    0    0    0    0 -0.00000000000E+00 -0.00000000000E+00 -0.50000000000E+03  0.50000000000E+03  0.00000000000E+00 0. -1.
        -11    1    1    2    0    0 -0.95260117498E+01 -0.31409679359E+00  0.49469039048E+03  0.49478220056E+03  0.00000000000E+00 0.  1.
         11    1    1    2    0    0  0.72659695179E+01  0.25396953179E+01 -0.40879123728E+02  0.41597441293E+02  0.00000000000E+00 0. -1.
        -15    1    1    2    0    0 -0.50228058185E+01  0.10266414825E+02 -0.21997215345E+01  0.11773884469E+02  0.17770000000E+01 0.  1.
         15    1    1    2    0    0  0.72828480504E+01 -0.12492013350E+02 -0.45161154522E+03  0.45184647368E+03  0.17770000000E+01 0. -1.
</event>
<event>
 6    1  0.1782050E-003  0.5128953E+03  0.7546771E-02  0.9371409E-01
        -11   -1    0    0    0    0  0.00000000000E+00  0.00000000000E+00  0.50000000000E+03  0.50000000000E+03  0.00000000000E+00 0.  1.
         11   -1    0    0    0    0 -0.00000000000E+00 -0.00000000000E+00 -0.50000000000E+03  0.50000000000E+03  0.00000000000E+00 0.  1.
        -11    1    1    2    0    0  0.39610166659E+02 -0.16463311940E+02  0.40407421071E+03  0.40634464891E+03  0.00000000000E+00 0.  1.
         11    1    1    2    0    0  0.72219411440E+01  0.37671776865E+01 -0.48703656610E+03  0.48710467538E+03  0.00000000000E+00 0.  1.
        -15    1    1    2    0    0 -0.38515948362E+02  0.16988390038E+02  0.27585981285E+02  0.50360974641E+02  0.17770000000E+01 0.  1.
         15    1    1    2    0    0 -0.83161594409E+01 -0.42922557848E+01  0.55376374105E+02  0.56189701063E+02  0.17770000000E+01 0. -1.
</event>
<event>
 6    1  0.1782050E-003  0.5024340E+03  0.7546771E-02  0.9394380E-01
        -11   -1    0    0    0    0  0.00000000000E+00  0.00000000000E+00  0.50000000000E+03  0.50000000000E+03  0.00000000000E+00 0.  1.
         11   -1    0    0    0    0 -0.00000000000E+00 -0.00000000000E+00 -0.50000000000E+03  0.50000000000E+03  0.00000000000E+00 0.  1.
        -11    1    1    2    0    0 -0.13121908122E+02  0.50757518821E+01  0.49736702393E+03  0.49756597976E+03  0.00000000000E+00 0.  1.
         11    1    1    2    0    0 -0.41504313644E+01  0.63247203368E+01 -0.19402937164E+03  0.19417678858E+03  0.00000000000E+00 0.  1.
        -15    1    1    2    0    0  0.22807464875E+02 -0.10707769849E+02 -0.63373333799E+02  0.68221506543E+02  0.17770000000E+01 0. -1.
         15    1    1    2    0    0 -0.55351253887E+01 -0.69270236936E+00 -0.23996431849E+03  0.24003572511E+03  0.17770000000E+01 0.  1.
</event>
<event>
 6    1  0.1782050E-003  0.3970404E+03  0.7546771E-02  0.9665186E-01
        -11   -1    0    0    0    0  0.00000000000E+00  0.00000000000E+00  0.50000000000E+03  0.50000000000E+03  0.00000000000E+00 0.  1.
         11   -1    0    0    0    0 -0.00000000000E+00 -0.00000000000E+00 -0.50000000000E+03  0.50000000000E+03  0.00000000000E+00 0.  1.
        -11    1    1    2    0    0 -0.95907675908E+01  0.89353983524E+01  0.78399693322E+02  0.79487961854E+02  0.00000000000E+00 0.  1.
         11    1    1    2    0    0  0.48038892091E+02 -0.25908929860E+02 -0.46988413755E+03  0.47304345522E+03  0.00000000000E+00 0.  1.
        -15    1    1    2    0    0 -0.78350196178E+02  0.49198111296E+02  0.56164716332E+02  0.10824435545E+03  0.17770000000E+01 0.  1.
         15    1    1    2    0    0  0.39902071678E+02 -0.32224579788E+02  0.33531972790E+03  0.33922422749E+03  0.17770000000E+01 0. -1.
</event>
<event>
 6    1  0.1782050E-003  0.5025240E+03  0.7546771E-02  0.9394180E-01
        -11   -1    0    0    0    0  0.00000000000E+00  0.00000000000E+00  0.50000000000E+03  0.50000000000E+03  0.00000000000E+00 0. -1.
         11   -1    0    0    0    0 -0.00000000000E+00 -0.00000000000E+00 -0.50000000000E+03  0.50000000000E+03  0.00000000000E+00 0. -1.
        -11    1    1    2    0    0 -0.24353008717E+01  0.20463287825E+01  0.21654994730E+03  0.21657330820E+03  0.00000000000E+00 0. -1.
         11    1    1    2    0    0  0.16053973888E+02 -0.53810477591E+02 -0.49429655883E+03  0.49747601515E+03  0.00000000000E+00 0. -1.
        -15    1    1    2    0    0 -0.18798181823E+02  0.49866426982E+02  0.17269805947E+03  0.18074238477E+03  0.17770000000E+01 0. -1.
         15    1    1    2    0    0  0.51795088067E+01  0.18977218263E+01  0.10504855207E+03  0.10520829188E+03  0.17770000000E+01 0.  1.
</event>
<event>
 6    1  0.1782050E-003  0.5067092E+03  0.7546771E-02  0.9384921E-01
        -11   -1    0    0    0    0  0.00000000000E+00  0.00000000000E+00  0.50000000000E+03  0.50000000000E+03  0.00000000000E+00 0.  1.
         11   -1    0    0    0    0 -0.00000000000E+00 -0.00000000000E+00 -0.50000000000E+03  0.50000000000E+03  0.00000000000E+00 0. -1.
        -11    1    1    2    0    0  0.23434789045E+02  0.45950007302E+01  0.49271238597E+03  0.49329078509E+03  0.00000000000E+00 0.  1.
         11    1    1    2    0    0  0.29422736294E+01  0.89285727763E+01 -0.46034880508E+03  0.46044478358E+03  0.00000000000E+00 0. -1.
        -15    1    1    2    0    0 -0.71560833860E+01 -0.11118098681E+02 -0.16099999688E+02  0.20909073787E+02  0.17770000000E+01 0.  1.
         15    1    1    2    0    0 -0.19220979288E+02 -0.24054748258E+01 -0.16263581199E+02  0.25355357548E+02  0.17770000000E+01 0. -1.
</event>
<event>
 6    1  0.1782050E-003  0.5013259E+03  0.7546771E-02  0.9396848E-01
        -11   -1    0    0    0    0  0.00000000000E+00  0.00000000000E+00  0.50000000000E+03  0.50000000000E+03  0.00000000000E+00 0. -1.
         11   -1    0    0    0    0 -0.00000000000E+00 -0.00000000000E+00 -0.50000000000E+03  0.50000000000E+03  0.00000000000E+00 0. -1.
        -11    1    1    2    0    0  0.73348362568E+01 -0.87064037024E+01  0.49854412855E+03  0.49867409137E+03  0.00000000000E+00 0. -1.
         11    1    1    2    0    0  0.31896449588E+01  0.54048587339E+01 -0.44288317378E+03  0.44292763738E+03  0.00000000000E+00 0. -1.
        -15    1    1    2    0    0 -0.71691280507E+01 -0.32007140887E+01 -0.42323016441E+02  0.43081741113E+02  0.17770000000E+01 0. -1.
         15    1    1    2    0    0 -0.33553531649E+01  0.65022590572E+01 -0.13337938328E+02  0.15316530140E+02  0.17770000000E+01 0.  1.
</event>
<event>
 6    1  0.4276692E-003  0.5445367E+03  0.7546771E-02  0.9305324E-01
        -11   -1    0    0    0    0  0.00000000000E+00  0.00000000000E+00  0.50000000000E+03  0.50000000000E+03  0.00000000000E+00 0. -1.
         11   -1    0    0    0    0 -0.00000000000E+00 -0.00000000000E+00 -0.50000000000E+03  0.50000000000E+03  0.00000000000E+00 0. -1.
        -11    1    1    2    0    0 -0.10496506822E+02 -0.14100013298E+02  0.45512401446E+03  0.45546334163E+03  0.00000000000E+00 0. -1.
         11    1    1    2    0    0  0.65932259984E+01  0.37738218680E+01 -0.41385726856E+03  0.41392698764E+03  0.00000000000E+00 0. -1.
        -15    1    1    2    0    0  0.83894077397E+01  0.15870017705E+02  0.42683281682E+02  0.46338535673E+02  0.17770000000E+01 0. -1.
         15    1    1    2    0    0 -0.44861269163E+01 -0.55438262753E+01 -0.83950027579E+02  0.84271135058E+02  0.17770000000E+01 0.  1.
</event>
<event>
 6    1  0.1782050E-003  0.4952817E+03  0.7546771E-02  0.9410430E-01
        -11   -1    0    0    0    0  0.00000000000E+00  0.00000000000E+00  0.50000000000E+03  0.50000000000E+03  0.00000000000E+00 0.  1.
         11   -1    0    0    0    0 -0.00000000000E+00 -0.00000000000E+00 -0.50000000000E+03  0.50000000000E+03  0.00000000000E+00 0. -1.
        -11    1    1    2    0    0  0.98618692400E+01  0.23330854424E+00  0.49489676732E+03  0.49499507190E+03  0.00000000000E+00 0.  1.
         11    1    1    2    0    0 -0.75489674803E+01  0.22517918954E+01 -0.49551166241E+03  0.49557427805E+03  0.00000000000E+00 0. -1.
        -15    1    1    2    0    0 -0.33170761888E+01  0.30707384558E+00 -0.26986518314E+01  0.46408770180E+01  0.17770000000E+01 0.  1.
         15    1    1    2    0    0  0.10041744291E+01 -0.27921742852E+01  0.33135469234E+01  0.47897730360E+01  0.17770000000E+01 0. -1.
</event>
<event>
 6    1  0.1782050E-003  0.5040154E+03  0.7546771E-02  0.9390870E-01
        -11   -1    0    0    0    0  0.00000000000E+00  0.00000000000E+00  0.50000000000E+03  0.50000000000E+03  0.00000000000E+00 0. -1.
         11   -1    0    0    0    0 -0.00000000000E+00 -0.00000000000E+00 -0.50000000000E+03  0.50000000000E+03  0.00000000000E+00 0. -1.
        -11    1    1    2    0    0 -0.58859637136E+01 -0.94201918681E+01  0.32856611622E+03  0.32875382479E+03  0.00000000000E+00 0. -1.
         11    1    1    2    0    0 -0.59407991121E+00  0.16674853317E+02 -0.49570388248E+03  0.49598461949E+03  0.00000000000E+00 0. -1.
        -15    1    1    2    0    0  0.24088806795E+02  0.84506799595E+01  0.11774386511E+03  0.12049257282E+03  0.17770000000E+01 0. -1.
         15    1    1    2    0    0 -0.17608763171E+02 -0.15705341409E+02  0.49393901143E+02  0.54768982903E+02  0.17770000000E+01 0.  1.
</event>
<event>
 6    1  0.1782050E-003  0.5147066E+03  0.7546771E-02  0.9367491E-01
        -11   -1    0    0    0    0  0.00000000000E+00  0.00000000000E+00  0.50000000000E+03  0.50000000000E+03  0.00000000000E+00 0. -1.
         11   -1    0    0    0    0 -0.00000000000E+00 -0.00000000000E+00 -0.50000000000E+03  0.50000000000E+03  0.00000000000E+00 0.  1.
        -11    1    1    2    0    0 -0.94052544204E+01 -0.88272177716E+01  0.41955037958E+03  0.41974861475E+03  0.00000000000E+00 0. -1.
         11    1    1    2    0    0  0.21805768547E+02  0.28277678288E+02 -0.48397785355E+03  0.48529339719E+03  0.00000000000E+00 0.  1.
        -15    1    1    2    0    0 -0.84603141388E+00  0.33685372358E+01  0.68832603181E+02  0.68943076534E+02  0.17770000000E+01 0. -1.
         15    1    1    2    0    0 -0.11554482713E+02 -0.22818997752E+02 -0.44051292098E+01  0.26014911523E+02  0.17770000000E+01 0.  1.
</event>
<event>
 6    1  0.1782050E-003  0.5051174E+03  0.7546771E-02  0.9388431E-01
        -11   -1    0    0    0    0  0.00000000000E+00  0.00000000000E+00  0.50000000000E+03  0.50000000000E+03  0.00000000000E+00 0. -1.
         11   -1    0    0    0    0 -0.00000000000E+00 -0.00000000000E+00 -0.50000000000E+03  0.50000000000E+03  0.00000000000E+00 0.  1.
        -11    1    1    2    0    0 -0.18071931391E+02 -0.10180951619E+02  0.49444768165E+03  0.49488256826E+03  0.00000000000E+00 0. -1.
         11    1    1    2    0    0  0.26207876090E+01 -0.15444083955E+02 -0.24765701487E+03  0.24815193989E+03  0.00000000000E+00 0.  1.
        -15    1    1    2    0    0  0.10565523172E+02  0.97923982667E+01 -0.23738833922E+03  0.23783166877E+03  0.17770000000E+01 0.  1.
         15    1    1    2    0    0  0.48856206098E+01  0.15832637307E+02 -0.94023275615E+01  0.19133823073E+02  0.17770000000E+01 0. -1.
</event>
<event>
 6    1  0.1782050E-003  0.5004191E+03  0.7546771E-02  0.9398873E-01
        -11   -1    0    0    0    0  0.00000000000E+00  0.00000000000E+00  0.50000000000E+03  0.50000000000E+03  0.00000000000E+00 0. -1.
         11   -1    0    0    0    0 -0.00000000000E+00 -0.00000000000E+00 -0.50000000000E+03  0.50000000000E+03  0.00000000000E+00 0.  1.
        -11    1    1    2    0    0 -0.33240010464E+01  0.58954127911E+01  0.40153664405E+03  0.40159367698E+03  0.00000000000E+00 0. -1.
         11    1    1    2    0    0  0.58049395272E+01 -0.35443883505E+01 -0.49953463975E+03  0.49958094072E+03  0.00000000000E+00 0.  1.
        -15    1    1    2    0    0  0.10886932558E+01 -0.55486216233E+01  0.76452935538E+02  0.76682341751E+02  0.17770000000E+01 0. -1.
         15    1    1    2    0    0 -0.35696317367E+01  0.31975971827E+01  0.21545060169E+02  0.22143040559E+02  0.17770000000E+01 0.  1.
</event>
<event>
 6    1  0.1782050E-003  0.5040219E+03  0.7546771E-02  0.9390855E-01
        -11   -1    0    0    0    0  0.00000000000E+00  0.00000000000E+00  0.50000000000E+03  0.50000000000E+03  0.00000000000E+00 0. -1.
         11   -1    0    0    0    0 -0.00000000000E+00 -0.00000000000E+00 -0.50000000000E+03  0.50000000000E+03  0.00000000000E+00 0.  1.
        -11    1    1    2    0    0  0.90185601898E+01 -0.52581610715E+01  0.49586823810E+03  0.49597811669E+03  0.00000000000E+00 0. -1.
         11    1    1    2    0    0  0.15022220621E+02 -0.18655994911E+02 -0.34401715996E+03  0.34484999580E+03  0.00000000000E+00 0.  1.
        -15    1    1    2    0    0 -0.32086918938E+02  0.16300960971E+02 -0.12448896006E+03  0.12959919213E+03  0.17770000000E+01 0. -1.
         15    1    1    2    0    0  0.80461381274E+01  0.76131950116E+01 -0.27362118077E+02  0.29572695374E+02  0.17770000000E+01 0.  1.
</event>
<event>
 6    1  0.1782050E-003  0.5008848E+03  0.7546771E-02  0.9397832E-01
        -11   -1    0    0    0    0  0.00000000000E+00  0.00000000000E+00  0.50000000000E+03  0.50000000000E+03  0.00000000000E+00 0. -1.
         11   -1    0    0    0    0 -0.00000000000E+00 -0.00000000000E+00 -0.50000000000E+03  0.50000000000E+03  0.00000000000E+00 0.  1.
        -11    1    1    2    0    0 -0.65532293206E+01 -0.53829630535E+01  0.35442310657E+03  0.35452455427E+03  0.00000000000E+00 0. -1.
         11    1    1    2    0    0 -0.98392839266E+01 -0.75514103948E+01 -0.49896110196E+03  0.49911523377E+03  0.00000000000E+00 0.  1.
        -15    1    1    2    0    0  0.40162121489E+01  0.77102464751E+00  0.14868865064E+02  0.15523057570E+02  0.17770000000E+01 0. -1.
         15    1    1    2    0    0  0.12376301098E+02  0.12163348801E+02  0.12966913033E+03  0.13083715440E+03  0.17770000000E+01 0.  1.
</event>
<event>
 6    1  0.1782050E-003  0.5019602E+03  0.7546771E-02  0.9395434E-01
        -11   -1    0    0    0    0  0.00000000000E+00  0.00000000000E+00  0.50000000000E+03  0.50000000000E+03  0.00000000000E+00 0.  1.
         11   -1    0    0    0    0 -0.00000000000E+00 -0.00000000000E+00 -0.50000000000E+03  0.50000000000E+03  0.00000000000E+00 0.  1.
        -11    1    1    2    0    0 -0.57753309583E-01  0.37227904615E+01  0.22917868873E+03  0.22920893061E+03  0.00000000000E+00 0.  1.
         11    1    1    2    0    0 -0.39965858421E+02  0.96197632910E+01 -0.49634046560E+03  0.49803982519E+03  0.00000000000E+00 0.  1.
        -15    1    1    2    0    0  0.50096117061E+00  0.54307413838E+00  0.11222184355E+03  0.11223834367E+03  0.17770000000E+01 0.  1.
         15    1    1    2    0    0  0.39522650560E+02 -0.13885627891E+02  0.15493993332E+03  0.16051290052E+03  0.17770000000E+01 0.  1.
</event>
<event>
 6    1  0.1782050E-003  0.5191788E+03  0.7546771E-02  0.9357890E-01
        -11   -1    0    0    0    0  0.00000000000E+00  0.00000000000E+00  0.50000000000E+03  0.50000000000E+03  0.00000000000E+00 0. -1.
         11   -1    0    0    0    0 -0.00000000000E+00 -0.00000000000E+00 -0.50000000000E+03  0.50000000000E+03  0.00000000000E+00 0.  1.
        -11    1    1    2    0    0 -0.35389850973E+01 -0.97161171221E+01  0.48071000372E+03  0.48082120900E+03  0.00000000000E+00 0. -1.
         11    1    1    2    0    0  0.37984632118E+01  0.17375050787E+02 -0.46930165506E+03  0.46963854628E+03  0.00000000000E+00 0.  1.
        -15    1    1    2    0    0  0.11009795312E+02  0.53113996572E+01 -0.24785009860E+02  0.27692616378E+02  0.17770000000E+01 0.  1.
         15    1    1    2    0    0 -0.11269273427E+02 -0.12970333322E+02  0.13376661199E+02  0.21847628335E+02  0.17770000000E+01 0. -1.
</event>
<event>
 6    1  0.1782050E-003  0.5001869E+03  0.7546771E-02  0.9399392E-01
        -11   -1    0    0    0    0  0.00000000000E+00  0.00000000000E+00  0.50000000000E+03  0.50000000000E+03  0.00000000000E+00 0. -1.
         11   -1    0    0    0    0 -0.00000000000E+00 -0.00000000000E+00 -0.50000000000E+03  0.50000000000E+03  0.00000000000E+00 0. -1.
        -11    1    1    2    0    0  0.17665931745E+00 -0.15973533144E+01  0.33854599911E+02  0.33892723131E+02  0.00000000000E+00 0. -1.
         11    1    1    2    0    0  0.81503288715E+01  0.45102739490E+01 -0.49972629431E+03  0.49981310473E+03  0.00000000000E+00 0. -1.
        -15    1    1    2    0    0  0.26334665374E+00 -0.47451201982E+01  0.36229433704E+03  0.36232986338E+03  0.17770000000E+01 0. -1.
         15    1    1    2    0    0 -0.85903348427E+01  0.18321995636E+01  0.10357735736E+03  0.10396430876E+03  0.17770000000E+01 0.  1.
</event>
<event>
 6    1  0.1782050E-003  0.5001199E+03  0.7546771E-02  0.9399541E-01
        -11   -1    0    0    0    0  0.00000000000E+00  0.00000000000E+00  0.50000000000E+03  0.50000000000E+03  0.00000000000E+00 0. -1.
         11   -1    0    0    0    0 -0.00000000000E+00 -0.00000000000E+00 -0.50000000000E+03  0.50000000000E+03  0.00000000000E+00 0.  1.
        -11    1    1    2    0    0 -0.12102255116E+01  0.12585105122E+01  0.64187511977E+02  0.64211254374E+02  0.00000000000E+00 0. -1.
         11    1    1    2    0    0  0.10677486362E+02 -0.69693606556E+00 -0.49976552202E+03  0.49988005705E+03  0.00000000000E+00 0.  1.
        -15    1    1    2    0    0 -0.29791767394E+01  0.63673612261E+01  0.16779515932E+03  0.16795175499E+03  0.17770000000E+01 0.  1.
         15    1    1    2    0    0 -0.64880841115E+01 -0.69289356728E+01  0.26778285073E+03  0.26795693359E+03  0.17770000000E+01 0. -1.
</event>
<event>
 6    1  0.1782050E-003  0.5076335E+03  0.7546771E-02  0.9382889E-01
        -11   -1    0    0    0    0  0.00000000000E+00  0.00000000000E+00  0.50000000000E+03  0.50000000000E+03  0.00000000000E+00 0.  1.
         11   -1    0    0    0    0 -0.00000000000E+00 -0.00000000000E+00 -0.50000000000E+03  0.50000000000E+03  0.00000000000E+00 0.  1.
        -11    1    1    2    0    0 -0.43769827541E+01  0.90199583227E+01  0.49226444438E+03  0.49236653098E+03  0.00000000000E+00 0.  1.
         11    1    1    2    0    0 -0.13081448717E+02 -0.13930212735E+01 -0.46535384880E+03  0.46553976136E+03  0.00000000000E+00 0.  1.
        -15    1    1    2    0    0  0.84096552098E+01 -0.86582857588E+01  0.14196466144E+01  0.12282562377E+02  0.17770000000E+01 0.  1.
         15    1    1    2    0    0  0.90487762609E+01  0.10313487096E+01 -0.28330242191E+02  0.29811145291E+02  0.17770000000E+01 0. -1.
</event>
<event>
 6    1  0.1782050E-003  0.5186611E+03  0.7546771E-02  0.9358996E-01
        -11   -1    0    0    0    0  0.00000000000E+00  0.00000000000E+00  0.50000000000E+03  0.50000000000E+03  0.00000000000E+00 0. -1.
         11   -1    0    0    0    0 -0.00000000000E+00 -0.00000000000E+00 -0.50000000000E+03  0.50000000000E+03  0.00000000000E+00 0.  1.
        -11    1    1    2    0    0 -0.14721459170E+02  0.21527866386E+02  0.48063183689E+03  0.48133889623E+03  0.00000000000E+00 0. -1.
         11    1    1    2    0    0 -0.12128634732E+02 -0.89578262151E+01 -0.41911955637E+03  0.41939068774E+03  0.00000000000E+00 0.  1.
        -15    1    1    2    0    0  0.15418067448E+02  0.20286250498E+01 -0.74780422698E+02  0.76400925854E+02  0.17770000000E+01 0.  1.
         15    1    1    2    0    0  0.11432026454E+02 -0.14598665221E+02  0.13268142174E+02  0.22869490174E+02  0.17770000000E+01 0. -1.
</event>
<event>
 6    1  0.1782050E-003  0.5045462E+03  0.7546771E-02  0.9389694E-01
        -11   -1    0    0    0    0  0.00000000000E+00  0.00000000000E+00  0.50000000000E+03  0.50000000000E+03  0.00000000000E+00 0. -1.
         11   -1    0    0    0    0 -0.00000000000E+00 -0.00000000000E+00 -0.50000000000E+03  0.50000000000E+03  0.00000000000E+00 0.  1.
        -11    1    1    2    0    0 -0.21378955960E+01 -0.18744576629E+02  0.49509448801E+03  0.49545381400E+03  0.00000000000E+00 0. -1.
         11    1    1    2    0    0  0.70896282348E+01  0.48260882380E+01 -0.47531398691E+03  0.47539135469E+03  0.00000000000E+00 0.  1.
        -15    1    1    2    0    0 -0.46825976165E+01  0.13224875016E+02 -0.22039284641E+02  0.26186100056E+02  0.17770000000E+01 0.  1.
         15    1    1    2    0    0 -0.26913502238E+00  0.69361337492E+00  0.22587835440E+01  0.29687312564E+01  0.17770000000E+01 0. -1.
</event>
<event>
 6    1  0.1782050E-003  0.5056749E+03  0.7546771E-02  0.9387200E-01
        -11   -1    0    0    0    0  0.00000000000E+00  0.00000000000E+00  0.50000000000E+03  0.50000000000E+03  0.00000000000E+00 0. -1.
         11   -1    0    0    0    0 -0.00000000000E+00 -0.00000000000E+00 -0.50000000000E+03  0.50000000000E+03  0.00000000000E+00 0.  1.
        -11    1    1    2    0    0  0.47866627493E+00 -0.65174051316E+01  0.46808035842E+03  0.46812597410E+03  0.00000000000E+00 0. -1.
         11    1    1    2    0    0 -0.11355804623E+02  0.36477313099E+01 -0.49418118514E+03  0.49432509949E+03  0.00000000000E+00 0.  1.
        -15    1    1    2    0    0 -0.55044180235E+00  0.28428546651E+01  0.25755718964E+02  0.25978829788E+02  0.17770000000E+01 0. -1.
         15    1    1    2    0    0  0.11427580151E+02  0.26819156607E-01  0.34510775811E+00  0.11570096617E+02  0.17770000000E+01 0.  1.
</event>
<event>
 6    1  0.1782050E-003  0.5004983E+03  0.7546771E-02  0.9398695E-01
        -11   -1    0    0    0    0  0.00000000000E+00  0.00000000000E+00  0.50000000000E+03  0.50000000000E+03  0.00000000000E+00 0.  1.
         11   -1    0    0    0    0 -0.00000000000E+00 -0.00000000000E+00 -0.50000000000E+03  0.50000000000E+03  0.00000000000E+00 0. -1.
        -11    1    1    2    0    0 -0.29916134231E+01 -0.96836171571E+01  0.49939889326E+03  0.49950172850E+03  0.00000000000E+00 0.  1.
         11    1    1    2    0    0  0.15802399873E+01 -0.38523908580E+01 -0.28919278098E+03  0.28922275610E+03  0.00000000000E+00 0. -1.
        -15    1    1    2    0    0 -0.20225047892E+01 -0.27727764772E+01 -0.62967275639E+02  0.63085769753E+02  0.17770000000E+01 0. -1.
         15    1    1    2    0    0  0.34338782250E+01  0.16308784492E+02 -0.14723883664E+03  0.14818974565E+03  0.17770000000E+01 0. -1.
</event>
<event>
 6    1  0.1782050E-003  0.5077784E+03  0.7546771E-02  0.9382571E-01
        -11   -1    0    0    0    0  0.00000000000E+00  0.00000000000E+00  0.50000000000E+03  0.50000000000E+03  0.00000000000E+00 0. -1.
         11   -1    0    0    0    0 -0.00000000000E+00 -0.00000000000E+00 -0.50000000000E+03  0.50000000000E+03  0.00000000000E+00 0.  1.
        -11    1    1    2    0    0  0.20924000107E+01 -0.78629040881E+00  0.80815011924E+02  0.80845918528E+02  0.00000000000E+00 0. -1.
         11    1    1    2    0    0  0.42507583460E+02  0.81056122772E+01 -0.49031573539E+03  0.49222161266E+03  0.00000000000E+00 0.  1.
        -15    1    1    2    0    0 -0.21878380859E+02 -0.45292581110E+02  0.34523475519E+03  0.34888432950E+03  0.17770000000E+01 0. -1.
         15    1    1    2    0    0 -0.22721602611E+02  0.37973259242E+02  0.64265968276E+02  0.78048139313E+02  0.17770000000E+01 0.  1.
</event>
<event>
 6    1  0.1782050E-003  0.4777896E+03  0.7546771E-02  0.9450926E-01
        -11   -1    0    0    0    0  0.00000000000E+00  0.00000000000E+00  0.50000000000E+03  0.50000000000E+03  0.00000000000E+00 0.  1.
         11   -1    0    0    0    0 -0.00000000000E+00 -0.00000000000E+00 -0.50000000000E+03  0.50000000000E+03  0.00000000000E+00 0.  1.
        -11    1    1    2    0    0  0.35600651072E+01  0.11259754737E+02  0.47901740063E+03  0.47916294332E+03  0.00000000000E+00 0.  1.
         11    1    1    2    0    0  0.10495707400E+02  0.16522545682E+02 -0.47652483895E+03  0.47692669932E+03  0.00000000000E+00 0.  1.
        -15    1    1    2    0    0 -0.56433376869E+00 -0.87142026898E+01 -0.14930189585E+02  0.17387469372E+02  0.17770000000E+01 0. -1.
         15    1    1    2    0    0 -0.13491438739E+02 -0.19068097729E+02  0.12437627902E+02  0.26522887985E+02  0.17770000000E+01 0.  1.
</event>
<event>
 6    1  0.1782050E-003  0.5059057E+03  0.7546771E-02  0.9386691E-01
        -11   -1    0    0    0    0  0.00000000000E+00  0.00000000000E+00  0.50000000000E+03  0.50000000000E+03  0.00000000000E+00 0. -1.
         11   -1    0    0    0    0 -0.00000000000E+00 -0.00000000000E+00 -0.50000000000E+03  0.50000000000E+03  0.00000000000E+00 0. -1.
        -11    1    1    2    0    0 -0.68526149893E+01  0.33398568873E+01  0.49123478597E+03  0.49129393231E+03  0.00000000000E+00 0. -1.
         11    1    1    2    0    0  0.54526074220E+01 -0.40519858456E+01 -0.49404761358E+03  0.49409431691E+03  0.00000000000E+00 0. -1.
        -15    1    1    2    0    0 -0.16796097580E+01  0.37220767966E+01 -0.42467526231E+01  0.61536640679E+01  0.17770000000E+01 0. -1.
         15    1    1    2    0    0  0.30796173253E+01 -0.30099478383E+01  0.70595802317E+01  0.84580867167E+01  0.17770000000E+01 0.  1.
</event>
<event>
 6    1  0.1782050E-003  0.5018222E+03  0.7546771E-02  0.9395742E-01
        -11   -1    0    0    0    0  0.00000000000E+00  0.00000000000E+00  0.50000000000E+03  0.50000000000E+03  0.00000000000E+00 0. -1.
         11   -1    0    0    0    0 -0.00000000000E+00 -0.00000000000E+00 -0.50000000000E+03  0.50000000000E+03  0.00000000000E+00 0.  1.
        -11    1    1    2    0    0 -0.35730960367E+01  0.64176053748E+01  0.46976088457E+03  0.46981830674E+03  0.00000000000E+00 0. -1.
         11    1    1    2    0    0 -0.58968583003E+01 -0.49427538379E+01 -0.49811835840E+03  0.49817778225E+03  0.00000000000E+00 0.  1.
        -15    1    1    2    0    0 -0.60232987015E+00 -0.38653585637E+00  0.15116391666E+02  0.15237297570E+02  0.17770000000E+01 0. -1.
         15    1    1    2    0    0  0.10072284207E+02 -0.10883156806E+01  0.13241082165E+02  0.16766613435E+02  0.17770000000E+01 0.  1.
</event>
<event>
 6    1  0.1782050E-003  0.5022191E+03  0.7546771E-02  0.9394858E-01
        -11   -1    0    0    0    0  0.00000000000E+00  0.00000000000E+00  0.50000000000E+03  0.50000000000E+03  0.00000000000E+00 0.  1.
         11   -1    0    0    0    0 -0.00000000000E+00 -0.00000000000E+00 -0.50000000000E+03  0.50000000000E+03  0.00000000000E+00 0.  1.
        -11    1    1    2    0    0 -0.21709667722E+01  0.11154370089E+02  0.49765120640E+03  0.49778093204E+03  0.00000000000E+00 0.  1.
         11    1    1    2    0    0  0.13848304915E+01 -0.70288948159E+01 -0.46267179012E+03  0.46272725065E+03  0.00000000000E+00 0.  1.
        -15    1    1    2    0    0 -0.21743511844E+01  0.42058012526E+01 -0.26939032290E+02  0.27409592426E+02  0.17770000000E+01 0. -1.
         15    1    1    2    0    0  0.29604874651E+01 -0.83312765259E+01 -0.80403839863E+01  0.12082224887E+02  0.17770000000E+01 0.  1.
</event>
<event>
 6    1  0.1782050E-003  0.5022654E+03  0.7546771E-02  0.9394755E-01
        -11   -1    0    0    0    0  0.00000000000E+00  0.00000000000E+00  0.50000000000E+03  0.50000000000E+03  0.00000000000E+00 0.  1.
         11   -1    0    0    0    0 -0.00000000000E+00 -0.00000000000E+00 -0.50000000000E+03  0.50000000000E+03  0.00000000000E+00 0. -1.
        -11    1    1    2    0    0  0.21909489241E+01  0.63611350066E+01  0.47426700709E+03  0.47431472495E+03  0.00000000000E+00 0.  1.
         11    1    1    2    0    0 -0.90367705379E+01  0.46125568384E+01 -0.49763120577E+03  0.49773462393E+03  0.00000000000E+00 0. -1.
        -15    1    1    2    0    0  0.68121971413E+01 -0.71120187063E+01  0.10975125930E+02  0.14852540461E+02  0.17770000000E+01 0. -1.
         15    1    1    2    0    0  0.33624472558E-01 -0.38616731387E+01  0.12389072755E+02  0.13098110656E+02  0.17770000000E+01 0.  1.
</event>
<event>
 6    1  0.1782050E-003  0.5026028E+03  0.7546771E-02  0.9394005E-01
        -11   -1    0    0    0    0  0.00000000000E+00  0.00000000000E+00  0.50000000000E+03  0.50000000000E+03  0.00000000000E+00 0. -1.
         11   -1    0    0    0    0 -0.00000000000E+00 -0.00000000000E+00 -0.50000000000E+03  0.50000000000E+03  0.00000000000E+00 0.  1.
        -11    1    1    2    0    0  0.28880173798E+01  0.65926825478E+01  0.49734515853E+03  0.49739723644E+03  0.00000000000E+00 0. -1.
         11    1    1    2    0    0 -0.39291128206E+00 -0.81306674496E+01 -0.45618554765E+03  0.45625816817E+03  0.00000000000E+00 0.  1.
        -15    1    1    2    0    0 -0.35030671925E+01  0.82739214192E+01 -0.71641830365E+01  0.11628091115E+02  0.17770000000E+01 0.  1.
         15    1    1    2    0    0  0.10079610948E+01 -0.67359365174E+01 -0.33995427836E+02  0.34716504275E+02  0.17770000000E+01 0. -1.
</event>
<event>
 6    1  0.1782050E-003  0.5004695E+03  0.7546771E-02  0.9398760E-01
        -11   -1    0    0    0    0  0.00000000000E+00  0.00000000000E+00  0.50000000000E+03  0.50000000000E+03  0.00000000000E+00 0. -1.
         11   -1    0    0    0    0 -0.00000000000E+00 -0.00000000000E+00 -0.50000000000E+03  0.50000000000E+03  0.00000000000E+00 0. -1.
        -11    1    1    2    0    0  0.76036459014E+01  0.56558491614E+00  0.23775180032E+03  0.23787402942E+03  0.00000000000E+00 0. -1.
         11    1    1    2    0    0  0.90423488010E+01  0.24354212569E+01 -0.49944271500E+03  0.49953050048E+03  0.00000000000E+00 0. -1.
        -15    1    1    2    0    0 -0.17902040994E+02 -0.50327784333E+01  0.21517261566E+03  0.21598199969E+03  0.17770000000E+01 0. -1.
         15    1    1    2    0    0  0.12560462921E+01  0.20317722603E+01  0.46518299016E+02  0.46613470404E+02  0.17770000000E+01 0. -1.
</event>
<event>
 6    1  0.1782050E-003  0.5074308E+03  0.7546771E-02  0.9383334E-01
        -11   -1    0    0    0    0  0.00000000000E+00  0.00000000000E+00  0.50000000000E+03  0.50000000000E+03  0.00000000000E+00 0. -1.
         11   -1    0    0    0    0 -0.00000000000E+00 -0.00000000000E+00 -0.50000000000E+03  0.50000000000E+03  0.00000000000E+00 0.  1.
        -11    1    1    2    0    0 -0.68124275587E+01 -0.33631080788E+01  0.49251058509E+03  0.49256917899E+03  0.00000000000E+00 0. -1.
         11    1    1    2    0    0  0.69910816972E+01  0.29473905002E+01 -0.43164451020E+03  0.43171118299E+03  0.00000000000E+00 0.  1.
        -15    1    1    2    0    0  0.10988606203E+02  0.87423995826E+00  0.24239842403E+01  0.11425724939E+02  0.17770000000E+01 0. -1.
         15    1    1    2    0    0 -0.11167260341E+02 -0.45852237960E+00 -0.63290059130E+02  0.64293913086E+02  0.17770000000E+01 0.  1.
</event>
<event>
 6    1  0.1782050E-003  0.5025947E+03  0.7546771E-02  0.9394023E-01
        -11   -1    0    0    0    0  0.00000000000E+00  0.00000000000E+00  0.50000000000E+03  0.50000000000E+03  0.00000000000E+00 0.  1.
         11   -1    0    0    0    0 -0.00000000000E+00 -0.00000000000E+00 -0.50000000000E+03  0.50000000000E+03  0.00000000000E+00 0. -1.
        -11    1    1    2    0    0  0.55696675565E+01 -0.92262025915E+01  0.49728858322E+03  0.49740534679E+03  0.00000000000E+00 0.  1.
         11    1    1    2    0    0  0.14157931929E+02  0.51204898734E+01 -0.42735614134E+03  0.42762125531E+03  0.00000000000E+00 0. -1.
        -15    1    1    2    0    0 -0.10725499575E+01  0.48539203355E+01 -0.45988292402E+01  0.70012759848E+01  0.17770000000E+01 0.  1.
         15    1    1    2    0    0 -0.18655049528E+02 -0.74820761737E+00 -0.65333612645E+02  0.67972121917E+02  0.17770000000E+01 0. -1.
</event>
<event>
 6    1  0.1782050E-003  0.5274770E+03  0.7546771E-02  0.9340343E-01
        -11   -1    0    0    0    0  0.00000000000E+00  0.00000000000E+00  0.50000000000E+03  0.50000000000E+03  0.00000000000E+00 0.  1.
         11   -1    0    0    0    0 -0.00000000000E+00 -0.00000000000E+00 -0.50000000000E+03  0.50000000000E+03  0.00000000000E+00 0.  1.
        -11    1    1    2    0    0 -0.88235792871E+01 -0.17401377963E+01  0.41443959022E+03  0.41453716066E+03  0.00000000000E+00 0.  1.
         11    1    1    2    0    0 -0.97084500028E+01  0.91539777326E+00 -0.47242234503E+03  0.47252297726E+03  0.00000000000E+00 0.  1.
        -15    1    1    2    0    0 -0.16903323030E+01 -0.82353691063E+01  0.80699463634E+02  0.81155650989E+02  0.17770000000E+01 0.  1.
         15    1    1    2    0    0  0.20222361593E+02  0.90601091294E+01 -0.22716708823E+02  0.31784211090E+02  0.17770000000E+01 0. -1.
</event>
<event>
 6    1  0.1782050E-003  0.5030061E+03  0.7546771E-02  0.9393108E-01
        -11   -1    0    0    0    0  0.00000000000E+00  0.00000000000E+00  0.50000000000E+03  0.50000000000E+03  0.00000000000E+00 0.  1.
         11   -1    0    0    0    0 -0.00000000000E+00 -0.00000000000E+00 -0.50000000000E+03  0.50000000000E+03  0.00000000000E+00 0.  1.
        -11    1    1    2    0    0 -0.32290273791E+01  0.18294215384E+02  0.49664658207E+03  0.49699389576E+03  0.00000000000E+00 0.  1.
         11    1    1    2    0    0  0.64320476430E+00 -0.68240769089E+01 -0.17695990519E+03  0.17709260228E+03  0.00000000000E+00 0.  1.
        -15    1    1    2    0    0 -0.90148126072E+01 -0.32496004942E+02 -0.11621823292E+03  0.12102517332E+03  0.17770000000E+01 0. -1.
         15    1    1    2    0    0  0.11600635222E+02  0.21025866468E+02 -0.20346844396E+03  0.20488832864E+03  0.17770000000E+01 0.  1.
</event>
<event>
 6    1  0.1782050E-003  0.5108422E+03  0.7546771E-02  0.9375871E-01
        -11   -1    0    0    0    0  0.00000000000E+00  0.00000000000E+00  0.50000000000E+03  0.50000000000E+03  0.00000000000E+00 0.  1.
         11   -1    0    0    0    0 -0.00000000000E+00 -0.00000000000E+00 -0.50000000000E+03  0.50000000000E+03  0.00000000000E+00 0.  1.
        -11    1    1    2    0    0  0.94146246272E+00 -0.51162156035E+02  0.48647394956E+03  0.48915780292E+03  0.00000000000E+00 0.  1.
         11    1    1    2    0    0  0.73590743157E+00  0.75681827210E+01 -0.35225416754E+03  0.35233622791E+03  0.00000000000E+00 0.  1.
        -15    1    1    2    0    0  0.34607247010E+01 -0.12641526213E+02 -0.76876524045E+02  0.78006041296E+02  0.17770000000E+01 0.  1.
         15    1    1    2    0    0 -0.51380945953E+01  0.56235499526E+02 -0.57343257975E+02  0.80499927871E+02  0.17770000000E+01 0. -1.
</event>
<event>
 6    1  0.1782050E-003  0.4434563E+03  0.7546771E-02  0.9536056E-01
        -11   -1    0    0    0    0  0.00000000000E+00  0.00000000000E+00  0.50000000000E+03  0.50000000000E+03  0.00000000000E+00 0.  1.
         11   -1    0    0    0    0 -0.00000000000E+00 -0.00000000000E+00 -0.50000000000E+03  0.50000000000E+03  0.00000000000E+00 0.  1.
        -11    1    1    2    0    0 -0.11303890082E+01 -0.85510480378E+01  0.44838159941E+03  0.44846455478E+03  0.00000000000E+00 0.  1.
         11    1    1    2    0    0  0.14416191077E+02 -0.33862954764E+02 -0.43807761900E+03  0.43962088957E+03  0.00000000000E+00 0.  1.
        -15    1    1    2    0    0  0.11429016770E+02  0.13669866851E+02  0.42943472438E+02  0.46527274131E+02  0.17770000000E+01 0.  1.
         15    1    1    2    0    0 -0.24714818838E+02  0.28744135951E+02 -0.53247452845E+02  0.65387281526E+02  0.17770000000E+01 0. -1.
</event>
<event>
 6    1  0.1782050E-003  0.5176012E+03  0.7546771E-02  0.9361265E-01
        -11   -1    0    0    0    0  0.00000000000E+00  0.00000000000E+00  0.50000000000E+03  0.50000000000E+03  0.00000000000E+00 0.  1.
         11   -1    0    0    0    0 -0.00000000000E+00 -0.00000000000E+00 -0.50000000000E+03  0.50000000000E+03  0.00000000000E+00 0.  1.
        -11    1    1    2    0    0 -0.98962897393E+01  0.41796486534E+01  0.48227914837E+03  0.48239878002E+03  0.00000000000E+00 0.  1.
         11    1    1    2    0    0 -0.46807130006E+02 -0.14661453787E+02 -0.37633453835E+03  0.37951752318E+03  0.00000000000E+00 0.  1.
        -15    1    1    2    0    0  0.59689135025E+01  0.24105131727E+02 -0.67046972724E+01  0.25783638193E+02  0.17770000000E+01 0.  1.
         15    1    1    2    0    0  0.50734506243E+02 -0.13623326593E+02 -0.99239912747E+02  0.11230005860E+03  0.17770000000E+01 0. -1.
</event>
<event>
 6    1  0.1782050E-003  0.5010494E+03  0.7546771E-02  0.9397465E-01
        -11   -1    0    0    0    0  0.00000000000E+00  0.00000000000E+00  0.50000000000E+03  0.50000000000E+03  0.00000000000E+00 0. -1.
         11   -1    0    0    0    0 -0.00000000000E+00 -0.00000000000E+00 -0.50000000000E+03  0.50000000000E+03  0.00000000000E+00 0. -1.
        -11    1    1    2    0    0 -0.11376201585E+02  0.15092885604E+01  0.49881863142E+03  0.49895062177E+03  0.00000000000E+00 0. -1.
         11    1    1    2    0    0  0.16178888191E+02 -0.28786886929E+01 -0.23599197923E+03  0.23656343236E+03  0.00000000000E+00 0. -1.
        -15    1    1    2    0    0 -0.13922805977E+02 -0.10633957094E+01 -0.22564991807E+03  0.22608851937E+03  0.17770000000E+01 0. -1.
         15    1    1    2    0    0  0.91201193701E+01  0.24327958418E+01 -0.37176734120E+02  0.38397426499E+02  0.17770000000E+01 0.  1.
</event>
<event>
 6    1  0.1782050E-003  0.5018589E+03  0.7546771E-02  0.9395660E-01
        -11   -1    0    0    0    0  0.00000000000E+00  0.00000000000E+00  0.50000000000E+03  0.50000000000E+03  0.00000000000E+00 0.  1.
         11   -1    0    0    0    0 -0.00000000000E+00 -0.00000000000E+00 -0.50000000000E+03  0.50000000000E+03  0.00000000000E+00 0.  1.
        -11    1    1    2    0    0  0.39954190108E+01  0.69916366506E+01  0.49807595996E+03  0.49814105256E+03  0.00000000000E+00 0.  1.
         11    1    1    2    0    0 -0.48378414498E+01  0.62133224720E+01 -0.41257724485E+03  0.41265238767E+03  0.00000000000E+00 0.  1.
        -15    1    1    2    0    0  0.25502146166E+01  0.55229601766E+01 -0.26996146182E+02  0.27730061691E+02  0.17770000000E+01 0.  1.
         15    1    1    2    0    0 -0.17077921776E+01 -0.18727919299E+02 -0.58502568930E+02  0.61476498077E+02  0.17770000000E+01 0. -1.
</event>
<event>
 6    1  0.1782050E-003  0.5012024E+03  0.7546771E-02  0.9397123E-01
        -11   -1    0    0    0    0  0.00000000000E+00  0.00000000000E+00  0.50000000000E+03  0.50000000000E+03  0.00000000000E+00 0. -1.
         11   -1    0    0    0    0 -0.00000000000E+00 -0.00000000000E+00 -0.50000000000E+03  0.50000000000E+03  0.00000000000E+00 0.  1.
        -11    1    1    2    0    0 -0.99145994500E+01  0.18173748499E+01  0.37628548779E+03  0.37642047029E+03  0.00000000000E+00 0. -1.
         11    1    1    2    0    0  0.60069277388E+01 -0.14218977404E+02 -0.49855874490E+03  0.49879763894E+03  0.00000000000E+00 0.  1.
        -15    1    1    2    0    0 -0.25535480266E+01  0.15024933029E+02  0.10428246130E+03  0.10540521185E+03  0.17770000000E+01 0. -1.
         15    1    1    2    0    0  0.64612197378E+01 -0.26233304747E+01  0.17990795802E+02  0.19376678918E+02  0.17770000000E+01 0. -1.
</event>
<event>
 6    1  0.1782050E-003  0.4805694E+03  0.7546771E-02  0.9444369E-01
        -11   -1    0    0    0    0  0.00000000000E+00  0.00000000000E+00  0.50000000000E+03  0.50000000000E+03  0.00000000000E+00 0. -1.
         11   -1    0    0    0    0 -0.00000000000E+00 -0.00000000000E+00 -0.50000000000E+03  0.50000000000E+03  0.00000000000E+00 0.  1.
        -11    1    1    2    0    0  0.35879414649E+01 -0.87808892709E+01  0.48154844955E+03  0.48164186550E+03  0.00000000000E+00 0. -1.
         11    1    1    2    0    0 -0.13509645952E+02  0.13274125603E+01 -0.47938723086E+03  0.47957938828E+03  0.00000000000E+00 0.  1.
        -15    1    1    2    0    0 -0.10855037653E+02  0.10446536022E+02 -0.76779459701E+01  0.17002074598E+02  0.17770000000E+01 0.  1.
         15    1    1    2    0    0  0.20776742140E+02 -0.29930593112E+01  0.55167272784E+01  0.21776671620E+02  0.17770000000E+01 0. -1.
</event>
<event>
 6    1  0.1782050E-003  0.4863593E+03  0.7546771E-02  0.9430860E-01
        -11   -1    0    0    0    0  0.00000000000E+00  0.00000000000E+00  0.50000000000E+03  0.50000000000E+03  0.00000000000E+00 0.  1.
         11   -1    0    0    0    0 -0.00000000000E+00 -0.00000000000E+00 -0.50000000000E+03  0.50000000000E+03  0.00000000000E+00 0.  1.
        -11    1    1    2    0    0  0.80399515033E+01  0.32492845978E+01  0.48494329166E+03  0.48502081893E+03  0.00000000000E+00 0.  1.
         11    1    1    2    0    0  0.18978693914E+01 -0.16938320279E+02 -0.48755059483E+03  0.48784843048E+03  0.00000000000E+00 0.  1.
        -15    1    1    2    0    0  0.51570239919E+01  0.82939047827E+01  0.44861907450E+01  0.10893456265E+02  0.17770000000E+01 0.  1.
         15    1    1    2    0    0 -0.15094844887E+02  0.53951308990E+01 -0.18788875766E+01  0.16237294328E+02  0.17770000000E+01 0. -1.
</event>
<event>
 6    1  0.1782050E-003  0.5126561E+03  0.7546771E-02  0.9371928E-01
        -11   -1    0    0    0    0  0.00000000000E+00  0.00000000000E+00  0.50000000000E+03  0.50000000000E+03  0.00000000000E+00 0.  1.
         11   -1    0    0    0    0 -0.00000000000E+00 -0.00000000000E+00 -0.50000000000E+03  0.50000000000E+03  0.00000000000E+00 0.  1.
        -11    1    1    2    0    0 -0.18401298773E+02  0.25283567889E+02  0.42520537269E+03  0.42635369772E+03  0.00000000000E+00 0.  1.
         11    1    1    2    0    0  0.19836181971E+02  0.21722434090E+02 -0.48645532864E+03  0.48734394940E+03  0.00000000000E+00 0.  1.
        -15    1    1    2    0    0  0.26094963963E+01 -0.51736917987E+02  0.60680293300E+02  0.79804598102E+02  0.17770000000E+01 0.  1.
         15    1    1    2    0    0 -0.40443795946E+01  0.47309160077E+01  0.56966265010E+00  0.64977547747E+01  0.17770000000E+01 0. -1.
</event>
<event>
 6    1  0.1782050E-003  0.5038774E+03  0.7546771E-02  0.9391175E-01
        -11   -1    0    0    0    0  0.00000000000E+00  0.00000000000E+00  0.50000000000E+03  0.50000000000E+03  0.00000000000E+00 0.  1.
         11   -1    0    0    0    0 -0.00000000000E+00 -0.00000000000E+00 -0.50000000000E+03  0.50000000000E+03  0.00000000000E+00 0. -1.
        -11    1    1    2    0    0 -0.97280921596E+01  0.46410917074E+01  0.46819079998E+03  0.46831485210E+03  0.00000000000E+00 0.  1.
         11    1    1    2    0    0  0.71916464353E+01  0.65628016804E+01 -0.49602704113E+03  0.49612258130E+03  0.00000000000E+00 0. -1.
        -15    1    1    2    0    0 -0.49353204924E+01 -0.62729837648E+01  0.23751536914E+01  0.85150923503E+01  0.17770000000E+01 0. -1.
         15    1    1    2    0    0  0.74717662167E+01 -0.49309096230E+01  0.25461087452E+02  0.27047474251E+02  0.17770000000E+01 0.  1.
</event>
<event>
 6    1  0.1782050E-003  0.4822530E+03  0.7546771E-02  0.9440420E-01
        -11   -1    0    0    0    0  0.00000000000E+00  0.00000000000E+00  0.50000000000E+03  0.50000000000E+03  0.00000000000E+00 0.  1.
         11   -1    0    0    0    0 -0.00000000000E+00 -0.00000000000E+00 -0.50000000000E+03  0.50000000000E+03  0.00000000000E+00 0. -1.
        -11    1    1    2    0    0 -0.27569673069E+01  0.81123838882E+01  0.47951787027E+03  0.47959441151E+03  0.00000000000E+00 0.  1.
         11    1    1    2    0    0 -0.64802502113E+01  0.66738108757E+01 -0.48499546989E+03  0.48508467221E+03  0.00000000000E+00 0. -1.
        -15    1    1    2    0    0  0.91008212943E+01 -0.88796773629E+01  0.17560991966E+02  0.21753615473E+02  0.17770000000E+01 0.  1.
         15    1    1    2    0    0  0.13639622390E+00 -0.59065174009E+01 -0.12083392347E+02  0.13567300813E+02  0.17770000000E+01 0. -1.
</event>
<event>
 6    1  0.1782050E-003  0.5025433E+03  0.7546771E-02  0.9394137E-01
        -11   -1    0    0    0    0  0.00000000000E+00  0.00000000000E+00  0.50000000000E+03  0.50000000000E+03  0.00000000000E+00 0.  1.
         11   -1    0    0    0    0 -0.00000000000E+00 -0.00000000000E+00 -0.50000000000E+03  0.50000000000E+03  0.00000000000E+00 0. -1.
        -11    1    1    2    0    0 -0.27497613354E+01 -0.12052313838E+02  0.49730312364E+03  0.49745674810E+03  0.00000000000E+00 0.  1.
         11    1    1    2    0    0 -0.75546422675E+01 -0.10479114680E+01 -0.38901710806E+03  0.38909186718E+03  0.00000000000E+00 0. -1.
        -15    1    1    2    0    0  0.32335662694E+01  0.48338056850E+01 -0.17238225055E+01  0.63206741135E+01  0.17770000000E+01 0.  1.
         15    1    1    2    0    0  0.70708373335E+01  0.82664196207E+01 -0.10656219307E+03  0.10713071060E+03  0.17770000000E+01 0. -1.
</event>
<event>
 6    1  0.1782050E-003  0.5022417E+03  0.7546771E-02  0.9394808E-01
        -11   -1    0    0    0    0  0.00000000000E+00  0.00000000000E+00  0.50000000000E+03  0.50000000000E+03  0.00000000000E+00 0. -1.
         11   -1    0    0    0    0 -0.00000000000E+00 -0.00000000000E+00 -0.50000000000E+03  0.50000000000E+03  0.00000000000E+00 0. -1.
        -11    1    1    2    0    0 -0.32425692359E+01 -0.13463955176E+02  0.40741245279E+03  0.40764776343E+03  0.00000000000E+00 0. -1.
         11    1    1    2    0    0 -0.73025896614E+01 -0.54361131058E+01 -0.49767508277E+03  0.49775834212E+03  0.00000000000E+00 0. -1.
        -15    1    1    2    0    0 -0.38325783810E+01  0.78880071024E+01  0.43595857056E+02  0.44504671604E+02  0.17770000000E+01 0. -1.
         15    1    1    2    0    0  0.14377737278E+02  0.11012061179E+02  0.46666772929E+02  0.50089222846E+02  0.17770000000E+01 0.  1.
</event>
<event>
 6    1  0.1782050E-003  0.5019085E+03  0.7546771E-02  0.9395550E-01
        -11   -1    0    0    0    0  0.00000000000E+00  0.00000000000E+00  0.50000000000E+03  0.50000000000E+03  0.00000000000E+00 0. -1.
         11   -1    0    0    0    0 -0.00000000000E+00 -0.00000000000E+00 -0.50000000000E+03  0.50000000000E+03  0.00000000000E+00 0.  1.
        -11    1    1    2    0    0 -0.39068643860E+01  0.55839670074E+01  0.47040557013E+03  0.47045493374E+03  0.00000000000E+00 0. -1.
         11    1    1    2    0    0  0.56932389856E+01  0.59556832589E+01 -0.49802339775E+03  0.49809154564E+03  0.00000000000E+00 0.  1.
        -15    1    1    2    0    0 -0.20979683046E+00 -0.12116233344E+02  0.25182570976E+02  0.28002977254E+02  0.17770000000E+01 0.  1.
         15    1    1    2    0    0 -0.15765777691E+01  0.57658307740E+00  0.24352566501E+01  0.34505433571E+01  0.17770000000E+01 0. -1.
</event>
<event>
 6    1  0.1782050E-003  0.5226948E+03  0.7546771E-02  0.9350413E-01
        -11   -1    0    0    0    0  0.00000000000E+00  0.00000000000E+00  0.50000000000E+03  0.50000000000E+03  0.00000000000E+00 0. -1.
         11   -1    0    0    0    0 -0.00000000000E+00 -0.00000000000E+00 -0.50000000000E+03  0.50000000000E+03  0.00000000000E+00 0. -1.
        -11    1    1    2    0    0 -0.12587882267E+02  0.11614661013E+02  0.44307165047E+03  0.44340257394E+03  0.00000000000E+00 0. -1.
         11    1    1    2    0    0  0.15071018412E+02 -0.11447979096E+01 -0.47706585439E+03  0.47730522267E+03  0.00000000000E+00 0. -1.
        -15    1    1    2    0    0  0.11720869463E+02 -0.92286640107E+01  0.53214680675E+02  0.55294728399E+02  0.17770000000E+01 0.  1.
         15    1    1    2    0    0 -0.14204005607E+02 -0.12411990922E+01 -0.19220476752E+02  0.23997474993E+02  0.17770000000E+01 0. -1.
</event>
<event>
 6    1  0.1782050E-003  0.5016884E+03  0.7546771E-02  0.9396040E-01
        -11   -1    0    0    0    0  0.00000000000E+00  0.00000000000E+00  0.50000000000E+03  0.50000000000E+03  0.00000000000E+00 0. -1.
         11   -1    0    0    0    0 -0.00000000000E+00 -0.00000000000E+00 -0.50000000000E+03  0.50000000000E+03  0.00000000000E+00 0. -1.
        -11    1    1    2    0    0  0.13245505132E+01 -0.96811949421E+01  0.49821577124E+03  0.49831158393E+03  0.00000000000E+00 0. -1.
         11    1    1    2    0    0 -0.61875598776E+01 -0.16576253396E+01 -0.35628314184E+03  0.35634072288E+03  0.00000000000E+00 0. -1.
        -15    1    1    2    0    0  0.13553981788E+02  0.99212800308E+01 -0.12539657847E+03  0.12652905532E+03  0.17770000000E+01 0. -1.
         15    1    1    2    0    0 -0.86909724239E+01  0.14175402509E+01 -0.16536050928E+02  0.18818637872E+02  0.17770000000E+01 0.  1.
</event>
<event>
 6    1  0.1782050E-003  0.5070169E+03  0.7546771E-02  0.9384244E-01
        -11   -1    0    0    0    0  0.00000000000E+00  0.00000000000E+00  0.50000000000E+03  0.50000000000E+03  0.00000000000E+00 0.  1.
         11   -1    0    0    0    0 -0.00000000000E+00 -0.00000000000E+00 -0.50000000000E+03  0.50000000000E+03  0.00000000000E+00 0. -1.
        -11    1    1    2    0    0 -0.83217513646E+01  0.32426922437E+00  0.49291271508E+03  0.49298306400E+03  0.00000000000E+00 0.  1.
         11    1    1    2    0    0 -0.64514415458E+01 -0.53603431899E+01 -0.47283011398E+03  0.47290450523E+03  0.00000000000E+00 0. -1.
        -15    1    1    2    0    0  0.46548593345E+01 -0.64357778209E+01  0.78619207642E+00  0.81769663424E+01  0.17770000000E+01 0. -1.
         15    1    1    2    0    0  0.10118333576E+02  0.11471851786E+02 -0.20868793180E+02  0.25935464437E+02  0.17770000000E+01 0.  1.
</event>
<event>
 6    1  0.1782050E-003  0.5129971E+03  0.7546771E-02  0.9371188E-01
        -11   -1    0    0    0    0  0.00000000000E+00  0.00000000000E+00  0.50000000000E+03  0.50000000000E+03  0.00000000000E+00 0.  1.
         11   -1    0    0    0    0 -0.00000000000E+00 -0.00000000000E+00 -0.50000000000E+03  0.50000000000E+03  0.00000000000E+00 0.  1.
        -11    1    1    2    0    0 -0.11235148663E+02  0.68300343907E+01  0.48682540527E+03  0.48700292930E+03  0.00000000000E+00 0.  1.
         11    1    1    2    0    0  0.72969003065E+00  0.88137813577E+01 -0.43531449231E+03  0.43540432061E+03  0.00000000000E+00 0.  1.
        -15    1    1    2    0    0  0.28051945397E+02 -0.10639535177E+02 -0.91201758638E+01  0.31407748823E+02  0.17770000000E+01 0. -1.
         15    1    1    2    0    0 -0.17546486765E+02 -0.50042805712E+01 -0.42390737095E+02  0.46185001270E+02  0.17770000000E+01 0.  1.
</event>
<event>
 6    1  0.1782050E-003  0.5087722E+03  0.7546771E-02  0.9380392E-01
        -11   -1    0    0    0    0  0.00000000000E+00  0.00000000000E+00  0.50000000000E+03  0.50000000000E+03  0.00000000000E+00 0. -1.
         11   -1    0    0    0    0 -0.00000000000E+00 -0.00000000000E+00 -0.50000000000E+03  0.50000000000E+03  0.00000000000E+00 0. -1.
        -11    1    1    2    0    0 -0.94314332878E+01 -0.42251383735E+01  0.47003955192E+03  0.47015314962E+03  0.00000000000E+00 0. -1.
         11    1    1    2    0    0  0.51785617599E+01 -0.55346766879E+01 -0.49116930227E+03  0.49122778183E+03  0.00000000000E+00 0. -1.
        -15    1    1    2    0    0 -0.14405922947E+01  0.34929709437E+00 -0.75259339639E+01  0.78736729452E+01  0.17770000000E+01 0.  1.
         15    1    1    2    0    0  0.56934638225E+01  0.94105179671E+01  0.28655684310E+02  0.30745395606E+02  0.17770000000E+01 0. -1.
</event>
<event>
 6    1  0.1782050E-003  0.4403915E+03  0.7546771E-02  0.9544053E-01
        -11   -1    0    0    0    0  0.00000000000E+00  0.00000000000E+00  0.50000000000E+03  0.50000000000E+03  0.00000000000E+00 0.  1.
         11   -1    0    0    0    0 -0.00000000000E+00 -0.00000000000E+00 -0.50000000000E+03  0.50000000000E+03  0.00000000000E+00 0.  1.
        -11    1    1    2    0    0 -0.19343358148E+02  0.76743223988E+00  0.43592818496E+03  0.43635780834E+03  0.00000000000E+00 0.  1.
         11    1    1    2    0    0 -0.33960129239E+02  0.18367961474E+02 -0.44461351114E+03  0.44628673145E+03  0.00000000000E+00 0.  1.
        -15    1    1    2    0    0  0.61145164470E+01 -0.26232621789E+01  0.51226238388E+02  0.51687078117E+02  0.17770000000E+01 0.  1.
         15    1    1    2    0    0  0.47188970940E+02 -0.16512131535E+02 -0.42540912208E+02  0.65668382093E+02  0.17770000000E+01 0. -1.
</event>
<event>
 6    1  0.1782050E-003  0.4994403E+03  0.7546771E-02  0.9401063E-01
        -11   -1    0    0    0    0  0.00000000000E+00  0.00000000000E+00  0.50000000000E+03  0.50000000000E+03  0.00000000000E+00 0.  1.
         11   -1    0    0    0    0 -0.00000000000E+00 -0.00000000000E+00 -0.50000000000E+03  0.50000000000E+03  0.00000000000E+00 0.  1.
        -11    1    1    2    0    0 -0.20379900952E+02  0.39790360402E+00  0.49879826978E+03  0.49921459577E+03  0.00000000000E+00 0.  1.
         11    1    1    2    0    0  0.76381716818E+00  0.15844755414E+00 -0.24713578473E+01  0.25915500966E+01  0.00000000000E+00 0.  1.
        -15    1    1    2    0    0  0.22269997676E+02 -0.55183070582E+01 -0.14478206339E+03  0.14659948198E+03  0.17770000000E+01 0. -1.
         15    1    1    2    0    0 -0.26539138918E+01  0.49619559000E+01 -0.35154484855E+03  0.35159437216E+03  0.17770000000E+01 0.  1.
</event>
<event>
 6    1  0.1782050E-003  0.5009583E+03  0.7546771E-02  0.9397668E-01
        -11   -1    0    0    0    0  0.00000000000E+00  0.00000000000E+00  0.50000000000E+03  0.50000000000E+03  0.00000000000E+00 0.  1.
         11   -1    0    0    0    0 -0.00000000000E+00 -0.00000000000E+00 -0.50000000000E+03  0.50000000000E+03  0.00000000000E+00 0. -1.
        -11    1    1    2    0    0 -0.65925604826E+01 -0.62107738726E+01  0.43248534158E+03  0.43258017320E+03  0.00000000000E+00 0.  1.
         11    1    1    2    0    0  0.59321559916E+01 -0.52245869758E+01 -0.49897907461E+03  0.49904168531E+03  0.00000000000E+00 0. -1.
        -15    1    1    2    0    0 -0.31130356041E+01 -0.14256509807E+00  0.17351463042E+02  0.17718417372E+02  0.17770000000E+01 0.  1.
         15    1    1    2    0    0  0.37734400951E+01  0.11577925947E+02  0.49142269985E+02  0.50659724117E+02  0.17770000000E+01 0. -1.
</event>
<event>
 6    1  0.1782050E-003  0.5016374E+03  0.7546771E-02  0.9396153E-01
        -11   -1    0    0    0    0  0.00000000000E+00  0.00000000000E+00  0.50000000000E+03  0.50000000000E+03  0.00000000000E+00 0.  1.
         11   -1    0    0    0    0 -0.00000000000E+00 -0.00000000000E+00 -0.50000000000E+03  0.50000000000E+03  0.00000000000E+00 0.  1.
        -11    1    1    2    0    0  0.24465431460E+02 -0.86401457607E+01  0.49768675815E+03  0.49836263773E+03  0.00000000000E+00 0.  1.
         11    1    1    2    0    0 -0.60696399726E+01 -0.16478472119E+01 -0.33045800414E+03  0.33051784888E+03  0.00000000000E+00 0.  1.
        -15    1    1    2    0    0 -0.19055417633E+01  0.13031788385E+02 -0.29336974990E+02  0.32206745078E+02  0.17770000000E+01 0. -1.
         15    1    1    2    0    0 -0.16490249724E+02 -0.27437954126E+01 -0.13789177901E+03  0.13891276830E+03  0.17770000000E+01 0.  1.
</event>
<event>
 6    1  0.1782050E-003  0.5005371E+03  0.7546771E-02  0.9398609E-01
        -11   -1    0    0    0    0  0.00000000000E+00  0.00000000000E+00  0.50000000000E+03  0.50000000000E+03  0.00000000000E+00 0.  1.
         11   -1    0    0    0    0 -0.00000000000E+00 -0.00000000000E+00 -0.50000000000E+03  0.50000000000E+03  0.00000000000E+00 0. -1.
        -11    1    1    2    0    0 -0.64292804439E+01  0.28198704334E+01  0.49941351062E+03  0.49946285338E+03  0.00000000000E+00 0.  1.
         11    1    1    2    0    0 -0.19571065579E+01  0.60777347312E+01 -0.38329956738E+03  0.38335274550E+03  0.00000000000E+00 0. -1.
        -15    1    1    2    0    0  0.39699975352E+01 -0.14781958371E+01 -0.15019378354E+02  0.15706221649E+02  0.17770000000E+01 0.  1.
         15    1    1    2    0    0  0.44163894666E+01 -0.74194093275E+01 -0.10109456489E+03  0.10147817947E+03  0.17770000000E+01 0. -1.
</event>
<event>
 6    1  0.1782050E-003  0.5060525E+03  0.7546771E-02  0.9386368E-01
        -11   -1    0    0    0    0  0.00000000000E+00  0.00000000000E+00  0.50000000000E+03  0.50000000000E+03  0.00000000000E+00 0. -1.
         11   -1    0    0    0    0 -0.00000000000E+00 -0.00000000000E+00 -0.50000000000E+03  0.50000000000E+03  0.00000000000E+00 0.  1.
        -11    1    1    2    0    0 -0.10173596370E+01 -0.44929417546E+01  0.75002086370E-01  0.46072954706E+01  0.00000000000E+00 0. -1.
         11    1    1    2    0    0  0.37169790715E+01 -0.58543027558E+01 -0.48928938738E+03  0.48933852638E+03  0.00000000000E+00 0.  1.
        -15    1    1    2    0    0 -0.50784976154E+02 -0.20706713805E+02  0.36709239900E+03  0.37117094301E+03  0.17770000000E+01 0.  1.
         15    1    1    2    0    0  0.48085356720E+02  0.31053958315E+02  0.12212198629E+03  0.13488323514E+03  0.17770000000E+01 0. -1.
</event>
<event>
 6    1  0.1782050E-003  0.5053701E+03  0.7546771E-02  0.9387873E-01
        -11   -1    0    0    0    0  0.00000000000E+00  0.00000000000E+00  0.50000000000E+03  0.50000000000E+03  0.00000000000E+00 0.  1.
         11   -1    0    0    0    0 -0.00000000000E+00 -0.00000000000E+00 -0.50000000000E+03  0.50000000000E+03  0.00000000000E+00 0.  1.
        -11    1    1    2    0    0  0.39138619650E+01 -0.23275999313E+01  0.10863983215E+03  0.10873522505E+03  0.00000000000E+00 0.  1.
         11    1    1    2    0    0  0.12173043613E+02  0.11094258556E+02 -0.49435564864E+03  0.49462993531E+03  0.00000000000E+00 0.  1.
        -15    1    1    2    0    0 -0.12478680620E+02  0.35302169324E+02  0.88040602475E+02  0.95688379870E+02  0.17770000000E+01 0. -1.
         15    1    1    2    0    0 -0.36082249585E+01 -0.44068827949E+02  0.29767521401E+03  0.30094645977E+03  0.17770000000E+01 0.  1.
</event>
<event>
 6    1  0.1782050E-003  0.5019368E+03  0.7546771E-02  0.9395486E-01
        -11   -1    0    0    0    0  0.00000000000E+00  0.00000000000E+00  0.50000000000E+03  0.50000000000E+03  0.00000000000E+00 0.  1.
         11   -1    0    0    0    0 -0.00000000000E+00 -0.00000000000E+00 -0.50000000000E+03  0.50000000000E+03  0.00000000000E+00 0. -1.
        -11    1    1    2    0    0  0.44529481691E+00  0.16068168228E+01  0.70138940155E+02  0.70158756216E+02  0.00000000000E+00 0.  1.
         11    1    1    2    0    0 -0.24746776198E+02 -0.28283785383E+02 -0.49664330722E+03  0.49806319886E+03  0.00000000000E+00 0. -1.
        -15    1    1    2    0    0 -0.14884966477E+02  0.89645400475E+01  0.53044860402E+02  0.55846576881E+02  0.17770000000E+01 0. -1.
         15    1    1    2    0    0  0.39186447858E+02  0.17712428513E+02  0.37345950666E+03  0.37593146805E+03  0.17770000000E+01 0.  1.
</event>
<event>
 6    1  0.1782050E-003  0.5169232E+03  0.7546771E-02  0.9362719E-01
        -11   -1    0    0    0    0  0.00000000000E+00  0.00000000000E+00  0.50000000000E+03  0.50000000000E+03  0.00000000000E+00 0.  1.
         11   -1    0    0    0    0 -0.00000000000E+00 -0.00000000000E+00 -0.50000000000E+03  0.50000000000E+03  0.00000000000E+00 0. -1.
        -11    1    1    2    0    0  0.10375600511E+02 -0.31845121624E+02  0.48191437738E+03  0.48307683859E+03  0.00000000000E+00 0.  1.
         11    1    1    2    0    0 -0.10779687917E+02  0.18733595356E+02 -0.23448248996E+03  0.23547651128E+03  0.00000000000E+00 0. -1.
        -15    1    1    2    0    0  0.10838412533E+02 -0.15151923141E+02 -0.25042039592E+03  0.25111866594E+03  0.17770000000E+01 0. -1.
         15    1    1    2    0    0 -0.10434325127E+02  0.28263449408E+02  0.29885084958E+01  0.30327984195E+02  0.17770000000E+01 0.  1.
</event>
<event>
 6    1  0.1782050E-003  0.5014163E+03  0.7546771E-02  0.9396646E-01
        -11   -1    0    0    0    0  0.00000000000E+00  0.00000000000E+00  0.50000000000E+03  0.50000000000E+03  0.00000000000E+00 0.  1.
         11   -1    0    0    0    0 -0.00000000000E+00 -0.00000000000E+00 -0.50000000000E+03  0.50000000000E+03  0.00000000000E+00 0. -1.
        -11    1    1    2    0    0 -0.12227005629E+02  0.81395760455E+00  0.37478061392E+03  0.37498089387E+03  0.00000000000E+00 0.  1.
         11    1    1    2    0    0 -0.61777807027E+01 -0.11543543295E+02 -0.49841177279E+03  0.49858370774E+03  0.00000000000E+00 0. -1.
        -15    1    1    2    0    0  0.14740224482E+02  0.49421375379E+01  0.10969408588E+03  0.11080455382E+03  0.17770000000E+01 0. -1.
         15    1    1    2    0    0  0.36645618500E+01  0.57874481529E+01  0.13937072981E+02  0.15630844569E+02  0.17770000000E+01 0.  1.
</event>
<event>
 6    1  0.1782050E-003  0.5002416E+03  0.7546771E-02  0.9399269E-01
        -11   -1    0    0    0    0  0.00000000000E+00  0.00000000000E+00  0.50000000000E+03  0.50000000000E+03  0.00000000000E+00 0. -1.
         11   -1    0    0    0    0 -0.00000000000E+00 -0.00000000000E+00 -0.50000000000E+03  0.50000000000E+03  0.00000000000E+00 0. -1.
        -11    1    1    2    0    0 -0.66183320246E+01 -0.24829917235E+01  0.49970836922E+03  0.49975836344E+03  0.00000000000E+00 0. -1.
         11    1    1    2    0    0  0.51085943317E+00  0.11134174154E+00 -0.23171961541E+02  0.23177859608E+02  0.00000000000E+00 0. -1.
        -15    1    1    2    0    0 -0.78189065789E+01  0.19306438692E+01 -0.20195914028E+03  0.20212747155E+03  0.17770000000E+01 0. -1.
         15    1    1    2    0    0  0.13926379170E+02  0.44100611276E+00 -0.27457726740E+03  0.27493630540E+03  0.17770000000E+01 0.  1.
</event>
<event>
 6    1  0.1782050E-003  0.5032458E+03  0.7546771E-02  0.9392576E-01
        -11   -1    0    0    0    0  0.00000000000E+00  0.00000000000E+00  0.50000000000E+03  0.50000000000E+03  0.00000000000E+00 0. -1.
         11   -1    0    0    0    0 -0.00000000000E+00 -0.00000000000E+00 -0.50000000000E+03  0.50000000000E+03  0.00000000000E+00 0.  1.
        -11    1    1    2    0    0 -0.22259813758E+02  0.16754802826E+02  0.49597232339E+03  0.49675423329E+03  0.00000000000E+00 0. -1.
         11    1    1    2    0    0  0.91728400407E+01  0.11849007754E+02 -0.34865048984E+03  0.34897235427E+03  0.00000000000E+00 0.  1.
        -15    1    1    2    0    0  0.14502478255E+02 -0.18715261318E+02 -0.40319037673E+02  0.46790655153E+02  0.17770000000E+01 0. -1.
         15    1    1    2    0    0 -0.14155045375E+01 -0.98885492624E+01 -0.10700279587E+03  0.10748275728E+03  0.17770000000E+01 0.  1.
</event>
<event>
 6    1  0.1782050E-003  0.5022744E+03  0.7546771E-02  0.9394735E-01
        -11   -1    0    0    0    0  0.00000000000E+00  0.00000000000E+00  0.50000000000E+03  0.50000000000E+03  0.00000000000E+00 0. -1.
         11   -1    0    0    0    0 -0.00000000000E+00 -0.00000000000E+00 -0.50000000000E+03  0.50000000000E+03  0.00000000000E+00 0.  1.
        -11    1    1    2    0    0  0.53749420073E+01  0.44709117515E+01  0.49767652612E+03  0.49772563095E+03  0.00000000000E+00 0. -1.
         11    1    1    2    0    0 -0.92578395027E+01  0.70668771729E+01 -0.47770343856E+03  0.47784539713E+03  0.00000000000E+00 0.  1.
        -15    1    1    2    0    0  0.45194244937E+01 -0.77493488306E+01 -0.16839648162E+02  0.19162700339E+02  0.17770000000E+01 0.  1.
         15    1    1    2    0    0 -0.63652699823E+00 -0.37884400939E+01 -0.31334393976E+01  0.52662715865E+01  0.17770000000E+01 0. -1.
</event>
<event>
 6    1  0.1782050E-003  0.5015235E+03  0.7546771E-02  0.9396407E-01
        -11   -1    0    0    0    0  0.00000000000E+00  0.00000000000E+00  0.50000000000E+03  0.50000000000E+03  0.00000000000E+00 0.  1.
         11   -1    0    0    0    0 -0.00000000000E+00 -0.00000000000E+00 -0.50000000000E+03  0.50000000000E+03  0.00000000000E+00 0.  1.
        -11    1    1    2    0    0  0.21102309069E+02 -0.14690483655E+02  0.49781293344E+03  0.49847651344E+03  0.00000000000E+00 0.  1.
         11    1    1    2    0    0 -0.26023268005E+01  0.41555735519E-01 -0.13539902683E+03  0.13542403885E+03  0.00000000000E+00 0.  1.
        -15    1    1    2    0    0 -0.25615656060E+02  0.14290155381E+02 -0.11899205317E+03  0.12256686674E+03  0.17770000000E+01 0.  1.
         15    1    1    2    0    0  0.71156737910E+01  0.35877253871E+00 -0.24342185344E+03  0.24353258096E+03  0.17770000000E+01 0.  1.
</event>
<event>
 6    1  0.1782050E-003  0.5011934E+03  0.7546771E-02  0.9397143E-01
        -11   -1    0    0    0    0  0.00000000000E+00  0.00000000000E+00  0.50000000000E+03  0.50000000000E+03  0.00000000000E+00 0.  1.
         11   -1    0    0    0    0 -0.00000000000E+00 -0.00000000000E+00 -0.50000000000E+03  0.50000000000E+03  0.00000000000E+00 0.  1.
        -11    1    1    2    0    0 -0.61538773453E+01  0.39067997184E+01  0.25924845134E+03  0.25935090671E+03  0.00000000000E+00 0.  1.
         11    1    1    2    0    0  0.62856215822E+01  0.26594199591E+02 -0.49805747889E+03  0.49880658854E+03  0.00000000000E+00 0.  1.
        -15    1    1    2    0    0 -0.64668831212E+01 -0.30588964552E+02  0.18486417094E+03  0.18749779934E+03  0.17770000000E+01 0.  1.
         15    1    1    2    0    0  0.63351388842E+01  0.87965241926E-01  0.53944856611E+02  0.54344705412E+02  0.17770000000E+01 0. -1.
</event>
<event>
 6    1  0.1782050E-003  0.5028567E+03  0.7546771E-02  0.9393440E-01
        -11   -1    0    0    0    0  0.00000000000E+00  0.00000000000E+00  0.50000000000E+03  0.50000000000E+03  0.00000000000E+00 0. -1.
         11   -1    0    0    0    0 -0.00000000000E+00 -0.00000000000E+00 -0.50000000000E+03  0.50000000000E+03  0.00000000000E+00 0.  1.
        -11    1    1    2    0    0  0.13254473842E+01  0.12744397040E+02  0.45631536112E+03  0.45649521931E+03  0.00000000000E+00 0. -1.
         11    1    1    2    0    0  0.57022835255E+01  0.41430240956E+01 -0.49709330720E+03  0.49714327588E+03  0.00000000000E+00 0.  1.
        -15    1    1    2    0    0  0.29975654553E+01 -0.20315686627E+01  0.68357444918E+01  0.79371154488E+01  0.17770000000E+01 0.  1.
         15    1    1    2    0    0 -0.10025296365E+02 -0.14855852473E+02  0.33942201592E+02  0.38424389361E+02  0.17770000000E+01 0. -1.
</event>
<event>
 6    1  0.1782050E-003  0.5529249E+03  0.7546771E-02  0.9288600E-01
        -11   -1    0    0    0    0  0.00000000000E+00  0.00000000000E+00  0.50000000000E+03  0.50000000000E+03  0.00000000000E+00 0.  1.
         11   -1    0    0    0    0 -0.00000000000E+00 -0.00000000000E+00 -0.50000000000E+03  0.50000000000E+03  0.00000000000E+00 0.  1.
        -11    1    1    2    0    0 -0.22062981826E+02  0.44775560529E+00  0.44653016662E+03  0.44707512271E+03  0.00000000000E+00 0.  1.
         11    1    1    2    0    0 -0.14124704793E+02  0.51407731495E+01 -0.35953285269E+03  0.35984692161E+03  0.00000000000E+00 0.  1.
        -15    1    1    2    0    0  0.29098448937E+01  0.66762057710E+02 -0.91471998066E+02  0.11329573560E+03  0.17770000000E+01 0. -1.
         15    1    1    2    0    0  0.33277841725E+02 -0.72350586465E+02  0.44746841365E+01  0.79782220067E+02  0.17770000000E+01 0.  1.
</event>
<event>
 6    1  0.1782050E-003  0.5006005E+03  0.7546771E-02  0.9398467E-01
        -11   -1    0    0    0    0  0.00000000000E+00  0.00000000000E+00  0.50000000000E+03  0.50000000000E+03  0.00000000000E+00 0.  1.
         11   -1    0    0    0    0 -0.00000000000E+00 -0.00000000000E+00 -0.50000000000E+03  0.50000000000E+03  0.00000000000E+00 0.  1.
        -11    1    1    2    0    0  0.89887988832E+01  0.10633492120E+01  0.49931745309E+03  0.49939948756E+03  0.00000000000E+00 0.  1.
         11    1    1    2    0    0 -0.11291109593E+02 -0.10540428691E+02 -0.38409611991E+03  0.38440658049E+03  0.00000000000E+00 0.  1.
        -15    1    1    2    0    0  0.56909880464E+01  0.86316826967E+01 -0.67306837671E+02  0.68119464307E+02  0.17770000000E+01 0. -1.
         15    1    1    2    0    0 -0.33886773361E+01  0.84539678210E+00 -0.47914495509E+02  0.48074467638E+02  0.17770000000E+01 0.  1.
</event>
<event>
 6    1  0.1782050E-003  0.5029358E+03  0.7546771E-02  0.9393264E-01
        -11   -1    0    0    0    0  0.00000000000E+00  0.00000000000E+00  0.50000000000E+03  0.50000000000E+03  0.00000000000E+00 0. -1.
         11   -1    0    0    0    0 -0.00000000000E+00 -0.00000000000E+00 -0.50000000000E+03  0.50000000000E+03  0.00000000000E+00 0.  1.
        -11    1    1    2    0    0 -0.80510471554E+01  0.82357458782E+01  0.49693074949E+03  0.49706419772E+03  0.00000000000E+00 0. -1.
         11    1    1    2    0    0 -0.29078277061E+01 -0.57865497627E+01 -0.46751777819E+03  0.46756262954E+03  0.00000000000E+00 0.  1.
        -15    1    1    2    0    0  0.10583466056E+01  0.58618366613E+01 -0.12966056837E+02  0.14379067615E+02  0.17770000000E+01 0. -1.
         15    1    1    2    0    0  0.99005282559E+01 -0.83110327769E+01 -0.16446914459E+02  0.20994105120E+02  0.17770000000E+01 0.  1.
</event>
<event>
 6    1  0.1782050E-003  0.5000688E+03  0.7546771E-02  0.9399656E-01
        -11   -1    0    0    0    0  0.00000000000E+00  0.00000000000E+00  0.50000000000E+03  0.50000000000E+03  0.00000000000E+00 0.  1.
         11   -1    0    0    0    0 -0.00000000000E+00 -0.00000000000E+00 -0.50000000000E+03  0.50000000000E+03  0.00000000000E+00 0. -1.
        -11    1    1    2    0    0 -0.29481883538E+01 -0.25171607499E+01  0.16336582650E+03  0.16341181470E+03  0.00000000000E+00 0.  1.
         11    1    1    2    0    0  0.45143736932E+01  0.10463824267E+02 -0.49980134404E+03  0.49993124997E+03  0.00000000000E+00 0. -1.
        -15    1    1    2    0    0 -0.16405716445E+01  0.13069153394E+01  0.87340650901E+02  0.87383903162E+02  0.17770000000E+01 0.  1.
         15    1    1    2    0    0  0.74386305146E-01 -0.92535788568E+01  0.24909486664E+03  0.24927303217E+03  0.17770000000E+01 0. -1.
</event>
<event>
 6    1  0.1782050E-003  0.4776851E+03  0.7546771E-02  0.9451174E-01
        -11   -1    0    0    0    0  0.00000000000E+00  0.00000000000E+00  0.50000000000E+03  0.50000000000E+03  0.00000000000E+00 0. -1.
         11   -1    0    0    0    0 -0.00000000000E+00 -0.00000000000E+00 -0.50000000000E+03  0.50000000000E+03  0.00000000000E+00 0.  1.
        -11    1    1    2    0    0  0.37156665998E+01  0.70044459919E+01  0.48044120463E+03  0.48050662800E+03  0.00000000000E+00 0. -1.
         11    1    1    2    0    0  0.91040917240E+01 -0.31289748284E+02 -0.47416025271E+03  0.47527873726E+03  0.00000000000E+00 0.  1.
        -15    1    1    2    0    0 -0.12403686662E+02  0.22433369656E+02 -0.18538065316E+02  0.31684777285E+02  0.17770000000E+01 0.  1.
         15    1    1    2    0    0 -0.41607166150E+00  0.18519326364E+01  0.12257113399E+02  0.12529857461E+02  0.17770000000E+01 0. -1.
</event>
<event>
 6    1  0.1782050E-003  0.5015300E+03  0.7546771E-02  0.9396393E-01
        -11   -1    0    0    0    0  0.00000000000E+00  0.00000000000E+00  0.50000000000E+03  0.50000000000E+03  0.00000000000E+00 0. -1.
         11   -1    0    0    0    0 -0.00000000000E+00 -0.00000000000E+00 -0.50000000000E+03  0.50000000000E+03  0.00000000000E+00 0. -1.
        -11    1    1    2    0    0  0.69973580483E+01  0.57684191132E+01  0.42554865385E+03  0.42564526836E+03  0.00000000000E+00 0. -1.
         11    1    1    2    0    0 -0.15882324095E+02 -0.13298177762E+01 -0.49821515305E+03  0.49847001451E+03  0.00000000000E+00 0. -1.
        -15    1    1    2    0    0  0.11722381479E+02  0.21318725263E+01  0.26200265500E+02  0.28836968448E+02  0.17770000000E+01 0. -1.
         15    1    1    2    0    0 -0.28374154323E+01 -0.65704738633E+01  0.46466233698E+02  0.47047748684E+02  0.17770000000E+01 0.  1.
</event>
<event>
 6    1  0.1782050E-003  0.5171119E+03  0.7546771E-02  0.9362314E-01
        -11   -1    0    0    0    0  0.00000000000E+00  0.00000000000E+00  0.50000000000E+03  0.50000000000E+03  0.00000000000E+00 0.  1.
         11   -1    0    0    0    0 -0.00000000000E+00 -0.00000000000E+00 -0.50000000000E+03  0.50000000000E+03  0.00000000000E+00 0.  1.
        -11    1    1    2    0    0  0.12385382432E+02  0.75763823043E+01  0.41383125909E+03  0.41408587305E+03  0.00000000000E+00 0.  1.
         11    1    1    2    0    0 -0.47362189335E+01 -0.23270636906E+02 -0.48230380248E+03  0.48288809490E+03  0.00000000000E+00 0.  1.
        -15    1    1    2    0    0 -0.39825777046E+02  0.59871958833E+01  0.51294507967E+02  0.65239737189E+02  0.17770000000E+01 0.  1.
         15    1    1    2    0    0  0.32176613548E+02  0.97070587186E+01  0.17178035430E+02  0.37786294852E+02  0.17770000000E+01 0. -1.
</event>
<event>
 6    1  0.1782050E-003  0.5005723E+03  0.7546771E-02  0.9398530E-01
        -11   -1    0    0    0    0  0.00000000000E+00  0.00000000000E+00  0.50000000000E+03  0.50000000000E+03  0.00000000000E+00 0.  1.
         11   -1    0    0    0    0 -0.00000000000E+00 -0.00000000000E+00 -0.50000000000E+03  0.50000000000E+03  0.00000000000E+00 0. -1.
        -11    1    1    2    0    0 -0.22715661323E+01  0.25467787755E+01  0.22886869872E+03  0.22889414005E+03  0.00000000000E+00 0.  1.
         11    1    1    2    0    0  0.50978715120E+01 -0.15550207140E+02 -0.49915950171E+03  0.49942767783E+03  0.00000000000E+00 0. -1.
        -15    1    1    2    0    0  0.12282099376E+01 -0.48384854630E+01  0.13963558216E+03  0.13973608330E+03  0.17770000000E+01 0. -1.
         15    1    1    2    0    0 -0.40545153173E+01  0.17841913827E+02  0.13065522082E+03  0.13194209882E+03  0.17770000000E+01 0.  1.
</event>
<event>
 6    1  0.1782050E-003  0.5084918E+03  0.7546771E-02  0.9381007E-01
        -11   -1    0    0    0    0  0.00000000000E+00  0.00000000000E+00  0.50000000000E+03  0.50000000000E+03  0.00000000000E+00 0.  1.
         11   -1    0    0    0    0 -0.00000000000E+00 -0.00000000000E+00 -0.50000000000E+03  0.50000000000E+03  0.00000000000E+00 0. -1.
        -11    1    1    2    0    0  0.76386301801E+01  0.68957176678E+01  0.48131931073E+03  0.48142930787E+03  0.00000000000E+00 0.  1.
         11    1    1    2    0    0  0.53097167660E+01 -0.40547254898E+01 -0.49146278505E+03  0.49150819218E+03  0.00000000000E+00 0. -1.
        -15    1    1    2    0    0 -0.97351847457E+01 -0.50617618471E+01  0.16195832754E+02  0.19643268125E+02  0.17770000000E+01 0.  1.
         15    1    1    2    0    0 -0.32131622004E+01  0.22207696691E+01 -0.60523584407E+01  0.74192318298E+01  0.17770000000E+01 0. -1.
</event>
<event>
 6    1  0.1782050E-003  0.5048811E+03  0.7546771E-02  0.9388954E-01
        -11   -1    0    0    0    0  0.00000000000E+00  0.00000000000E+00  0.50000000000E+03  0.50000000000E+03  0.00000000000E+00 0. -1.
         11   -1    0    0    0    0 -0.00000000000E+00 -0.00000000000E+00 -0.50000000000E+03  0.50000000000E+03  0.00000000000E+00 0. -1.
        -11    1    1    2    0    0  0.50834618175E+01 -0.33806075857E+01  0.43105692444E+03  0.43110015333E+03  0.00000000000E+00 0. -1.
         11    1    1    2    0    0  0.80416819665E+01 -0.68869158063E+01 -0.49500569687E+03  0.49511891318E+03  0.00000000000E+00 0. -1.
        -15    1    1    2    0    0 -0.11105557757E+02  0.12304405539E+02  0.94192401492E+01  0.19147104814E+02  0.17770000000E+01 0. -1.
         15    1    1    2    0    0 -0.20195860272E+01 -0.20368821468E+01  0.54529532280E+02  0.54633828680E+02  0.17770000000E+01 0.  1.
</event>
<event>
 6    1  0.1782050E-003  0.4802417E+03  0.7546771E-02  0.9445139E-01
        -11   -1    0    0    0    0  0.00000000000E+00  0.00000000000E+00  0.50000000000E+03  0.50000000000E+03  0.00000000000E+00 0.  1.
         11   -1    0    0    0    0 -0.00000000000E+00 -0.00000000000E+00 -0.50000000000E+03  0.50000000000E+03  0.00000000000E+00 0. -1.
        -11    1    1    2    0    0  0.21720203144E+00 -0.99196540182E+01  0.48244623294E+03  0.48254825084E+03  0.00000000000E+00 0.  1.
         11    1    1    2    0    0  0.19776127328E+01 -0.64161652912E+01 -0.47803950147E+03  0.47808664810E+03  0.00000000000E+00 0. -1.
        -15    1    1    2    0    0  0.60114479558E+01  0.22522571022E+02  0.65089143351E+01  0.24267826577E+02  0.17770000000E+01 0. -1.
         15    1    1    2    0    0 -0.82062627201E+01 -0.61867517127E+01 -0.10915645805E+02  0.15097274486E+02  0.17770000000E+01 0.  1.
</event>
<event>
 6    1  0.1782050E-003  0.4585564E+03  0.7546771E-02  0.9497638E-01
        -11   -1    0    0    0    0  0.00000000000E+00  0.00000000000E+00  0.50000000000E+03  0.50000000000E+03  0.00000000000E+00 0. -1.
         11   -1    0    0    0    0 -0.00000000000E+00 -0.00000000000E+00 -0.50000000000E+03  0.50000000000E+03  0.00000000000E+00 0. -1.
        -11    1    1    2    0    0 -0.15293602531E+01 -0.18807522635E+02  0.46220211930E+03  0.46258713875E+03  0.00000000000E+00 0. -1.
         11    1    1    2    0    0 -0.16356152663E+02 -0.59798806069E+01 -0.45473195899E+03  0.45506531095E+03  0.00000000000E+00 0. -1.
        -15    1    1    2    0    0 -0.12453996237E+02 -0.17949920605E+02  0.13639611996E+02  0.25816630617E+02  0.17770000000E+01 0.  1.
         15    1    1    2    0    0  0.30339509153E+02  0.42737323847E+02 -0.21109772307E+02  0.56530919691E+02  0.17770000000E+01 0. -1.
</event>
<event>
 6    1  0.1782050E-003  0.5359494E+03  0.7546771E-02  0.9322778E-01
        -11   -1    0    0    0    0  0.00000000000E+00  0.00000000000E+00  0.50000000000E+03  0.50000000000E+03  0.00000000000E+00 0. -1.
         11   -1    0    0    0    0 -0.00000000000E+00 -0.00000000000E+00 -0.50000000000E+03  0.50000000000E+03  0.00000000000E+00 0.  1.
        -11    1    1    2    0    0  0.25825847655E+01 -0.76950661657E+01  0.46397957834E+03  0.46405057149E+03  0.00000000000E+00 0. -1.
         11    1    1    2    0    0 -0.72562771849E+01 -0.15279649740E+02 -0.16120501788E+03  0.16209003376E+03  0.00000000000E+00 0.  1.
        -15    1    1    2    0    0  0.53807881969E+01  0.12771023982E+02 -0.33741124629E+03  0.33770039797E+03  0.17770000000E+01 0.  1.
         15    1    1    2    0    0 -0.70709577752E+00  0.10203691925E+02  0.34636685835E+02  0.36158996777E+02  0.17770000000E+01 0. -1.
</event>
<event>
 6    1  0.1782050E-003  0.5010318E+03  0.7546771E-02  0.9397504E-01
        -11   -1    0    0    0    0  0.00000000000E+00  0.00000000000E+00  0.50000000000E+03  0.50000000000E+03  0.00000000000E+00 0. -1.
         11   -1    0    0    0    0 -0.00000000000E+00 -0.00000000000E+00 -0.50000000000E+03  0.50000000000E+03  0.00000000000E+00 0. -1.
        -11    1    1    2    0    0 -0.11029106972E+02  0.18922492352E+01  0.22146257449E+03  0.22174510978E+03  0.00000000000E+00 0. -1.
         11    1    1    2    0    0 -0.11866285374E+02  0.13824376058E+02 -0.49863549321E+03  0.49896821261E+03  0.00000000000E+00 0. -1.
        -15    1    1    2    0    0  0.71815123685E+01 -0.72478140113E+01  0.36352278294E+02  0.37798820008E+02  0.17770000000E+01 0.  1.
         15    1    1    2    0    0  0.15713879978E+02 -0.84688112821E+01  0.24082064042E+03  0.24148785761E+03  0.17770000000E+01 0. -1.
</event>
<event>
 6    1  0.1782050E-003  0.5036955E+03  0.7546771E-02  0.9391578E-01
        -11   -1    0    0    0    0  0.00000000000E+00  0.00000000000E+00  0.50000000000E+03  0.50000000000E+03  0.00000000000E+00 0.  1.
         11   -1    0    0    0    0 -0.00000000000E+00 -0.00000000000E+00 -0.50000000000E+03  0.50000000000E+03  0.00000000000E+00 0.  1.
        -11    1    1    2    0    0  0.73380525247E+01 -0.22285161992E+01  0.49624521086E+03  0.49630446563E+03  0.00000000000E+00 0.  1.
         11    1    1    2    0    0  0.10624900115E+02 -0.52229819567E+01 -0.46351113544E+03  0.46366231324E+03  0.00000000000E+00 0.  1.
        -15    1    1    2    0    0 -0.38004097600E+01  0.16298220468E+00 -0.75917225247E+00  0.42665851746E+01  0.17770000000E+01 0.  1.
         15    1    1    2    0    0 -0.14162542879E+02  0.72885159513E+01 -0.31974903176E+02  0.35766635957E+02  0.17770000000E+01 0. -1.
</event>
<event>
 6    1  0.1782050E-003  0.5043313E+03  0.7546771E-02  0.9390170E-01
        -11   -1    0    0    0    0  0.00000000000E+00  0.00000000000E+00  0.50000000000E+03  0.50000000000E+03  0.00000000000E+00 0. -1.
         11   -1    0    0    0    0 -0.00000000000E+00 -0.00000000000E+00 -0.50000000000E+03  0.50000000000E+03  0.00000000000E+00 0.  1.
        -11    1    1    2    0    0  0.20501867974E+02  0.29201059355E+00  0.22876396688E+03  0.22968100575E+03  0.00000000000E+00 0. -1.
         11    1    1    2    0    0  0.37290427823E+01  0.85797041383E+01 -0.49558043743E+03  0.49566872712E+03  0.00000000000E+00 0.  1.
        -15    1    1    2    0    0 -0.64536267495E+01  0.11763008448E+02  0.22031448526E+03  0.22072980725E+03  0.17770000000E+01 0.  1.
         15    1    1    2    0    0 -0.17777284006E+02 -0.20634723180E+02  0.46501985294E+02  0.53920459871E+02  0.17770000000E+01 0. -1.
</event>
<event>
 6    1  0.1782050E-003  0.5082654E+03  0.7546771E-02  0.9381503E-01
        -11   -1    0    0    0    0  0.00000000000E+00  0.00000000000E+00  0.50000000000E+03  0.50000000000E+03  0.00000000000E+00 0.  1.
         11   -1    0    0    0    0 -0.00000000000E+00 -0.00000000000E+00 -0.50000000000E+03  0.50000000000E+03  0.00000000000E+00 0. -1.
        -11    1    1    2    0    0 -0.48084589807E+00  0.79029326458E+01  0.47872114082E+03  0.47878661032E+03  0.00000000000E+00 0.  1.
         11    1    1    2    0    0  0.59653434183E+01 -0.40139816283E+01 -0.49168202842E+03  0.49173459756E+03  0.00000000000E+00 0. -1.
        -15    1    1    2    0    0  0.57671483703E+01 -0.11305704417E+02  0.73485901210E+01  0.14772896076E+02  0.17770000000E+01 0.  1.
         15    1    1    2    0    0 -0.11251645891E+02  0.74167533999E+01  0.56122974799E+01  0.14705896037E+02  0.17770000000E+01 0. -1.
</event>
<event>
 6    1  0.1782050E-003  0.5069963E+03  0.7546771E-02  0.9384290E-01
        -11   -1    0    0    0    0  0.00000000000E+00  0.00000000000E+00  0.50000000000E+03  0.50000000000E+03  0.00000000000E+00 0. -1.
         11   -1    0    0    0    0 -0.00000000000E+00 -0.00000000000E+00 -0.50000000000E+03  0.50000000000E+03  0.00000000000E+00 0. -1.
        -11    1    1    2    0    0  0.70408497490E+01 -0.83711396072E+01  0.46516312672E+03  0.46529171925E+03  0.00000000000E+00 0. -1.
         11    1    1    2    0    0 -0.76213510217E+01  0.10974505170E+02 -0.49282264860E+03  0.49300374008E+03  0.00000000000E+00 0. -1.
        -15    1    1    2    0    0 -0.74613975700E+01  0.81455267984E+01  0.25690082827E+02  0.28020709220E+02  0.17770000000E+01 0. -1.
         15    1    1    2    0    0  0.80418988427E+01 -0.10748892361E+02  0.19694390603E+01  0.13683831452E+02  0.17770000000E+01 0.  1.
</event>
<event>
 6    1  0.1782050E-003  0.5054422E+03  0.7546771E-02  0.9387714E-01
        -11   -1    0    0    0    0  0.00000000000E+00  0.00000000000E+00  0.50000000000E+03  0.50000000000E+03  0.00000000000E+00 0.  1.
         11   -1    0    0    0    0 -0.00000000000E+00 -0.00000000000E+00 -0.50000000000E+03  0.50000000000E+03  0.00000000000E+00 0. -1.
        -11    1    1    2    0    0 -0.74850987409E+01  0.69048266016E+00  0.46888801653E+03  0.46894826528E+03  0.00000000000E+00 0.  1.
         11    1    1    2    0    0 -0.40639931464E+01 -0.61856983675E+01 -0.49450243810E+03  0.49455782290E+03  0.00000000000E+00 0. -1.
        -15    1    1    2    0    0  0.70877655439E+01  0.21947764386E+01  0.28841072758E+02  0.29833180703E+02  0.17770000000E+01 0.  1.
         15    1    1    2    0    0  0.44613263434E+01  0.33004392687E+01 -0.32266511785E+01  0.66607311113E+01  0.17770000000E+01 0. -1.
</event>
<event>
 6    1  0.1782050E-003  0.5009198E+03  0.7546771E-02  0.9397754E-01
        -11   -1    0    0    0    0  0.00000000000E+00  0.00000000000E+00  0.50000000000E+03  0.50000000000E+03  0.00000000000E+00 0.  1.
         11   -1    0    0    0    0 -0.00000000000E+00 -0.00000000000E+00 -0.50000000000E+03  0.50000000000E+03  0.00000000000E+00 0.  1.
        -11    1    1    2    0    0  0.79730256725E+01  0.25103420039E+01  0.49901020398E+03  0.49908020861E+03  0.00000000000E+00 0.  1.
         11    1    1    2    0    0 -0.12772202353E+02  0.70445961607E+01 -0.38338064661E+03  0.38365801918E+03  0.00000000000E+00 0.  1.
        -15    1    1    2    0    0  0.93919649475E+01 -0.60919502422E+01 -0.97547751194E+02  0.98204085227E+02  0.17770000000E+01 0.  1.
         15    1    1    2    0    0 -0.45927882673E+01 -0.34629879224E+01 -0.18081806172E+02  0.19057686976E+02  0.17770000000E+01 0. -1.
</event>
<event>
 6    1  0.1782050E-003  0.5113375E+03  0.7546771E-02  0.9374793E-01
        -11   -1    0    0    0    0  0.00000000000E+00  0.00000000000E+00  0.50000000000E+03  0.50000000000E+03  0.00000000000E+00 0. -1.
         11   -1    0    0    0    0 -0.00000000000E+00 -0.00000000000E+00 -0.50000000000E+03  0.50000000000E+03  0.00000000000E+00 0.  1.
        -11    1    1    2    0    0  0.22452098989E+02 -0.10313030210E+02  0.44805376132E+03  0.44873447425E+03  0.00000000000E+00 0. -1.
         11    1    1    2    0    0  0.36872425483E+01  0.72878523033E+01 -0.48859428414E+03  0.48866254516E+03  0.00000000000E+00 0.  1.
        -15    1    1    2    0    0 -0.25750982503E+02 -0.53841119856E+01  0.60465349923E+01  0.27052173225E+02  0.17770000000E+01 0. -1.
         15    1    1    2    0    0 -0.38835903394E+00  0.84092898921E+01  0.34493987827E+02  0.35550807367E+02  0.17770000000E+01 0.  1.
</event>
<event>
 6    1  0.1782050E-003  0.5023907E+03  0.7546771E-02  0.9394476E-01
        -11   -1    0    0    0    0  0.00000000000E+00  0.00000000000E+00  0.50000000000E+03  0.50000000000E+03  0.00000000000E+00 0. -1.
         11   -1    0    0    0    0 -0.00000000000E+00 -0.00000000000E+00 -0.50000000000E+03  0.50000000000E+03  0.00000000000E+00 0. -1.
        -11    1    1    2    0    0 -0.27117742797E+02  0.87515341683E+01  0.49679278748E+03  0.49760931967E+03  0.00000000000E+00 0. -1.
         11    1    1    2    0    0  0.52270684511E+01  0.40565508079E+01 -0.25934692995E+03  0.25943131639E+03  0.00000000000E+00 0. -1.
        -15    1    1    2    0    0  0.26224652729E+02 -0.86322938999E+01 -0.68209077785E+02  0.73606283224E+02  0.17770000000E+01 0.  1.
         15    1    1    2    0    0 -0.43339783831E+01 -0.41757910763E+01 -0.16923677974E+03  0.16935308071E+03  0.17770000000E+01 0. -1.
</event>
<event>
 6    1  0.1782050E-003  0.5235389E+03  0.7546771E-02  0.9348627E-01
        -11   -1    0    0    0    0  0.00000000000E+00  0.00000000000E+00  0.50000000000E+03  0.50000000000E+03  0.00000000000E+00 0.  1.
         11   -1    0    0    0    0 -0.00000000000E+00 -0.00000000000E+00 -0.50000000000E+03  0.50000000000E+03  0.00000000000E+00 0.  1.
        -11    1    1    2    0    0  0.77580364729E+01 -0.50929639666E+01  0.45840514204E+03  0.45849907269E+03  0.00000000000E+00 0.  1.
         11    1    1    2    0    0 -0.10228729133E+02 -0.93538462686E+01 -0.47625944768E+03  0.47646110319E+03  0.00000000000E+00 0.  1.
        -15    1    1    2    0    0  0.11549801272E+02  0.57741976067E+01  0.38591205782E+02  0.40733010693E+02  0.17770000000E+01 0. -1.
         15    1    1    2    0    0 -0.90791086125E+01  0.86726126285E+01 -0.20736900134E+02  0.24306813431E+02  0.17770000000E+01 0.  1.
</event>
<event>
 6    1  0.1782050E-003  0.3795562E+03  0.7546771E-02  0.9718812E-01
        -11   -1    0    0    0    0  0.00000000000E+00  0.00000000000E+00  0.50000000000E+03  0.50000000000E+03  0.00000000000E+00 0. -1.
         11   -1    0    0    0    0 -0.00000000000E+00 -0.00000000000E+00 -0.50000000000E+03  0.50000000000E+03  0.00000000000E+00 0.  1.
        -11    1    1    2    0    0 -0.53317085718E+01 -0.55339130963E+01  0.18350437546E+03  0.18366520390E+03  0.00000000000E+00 0. -1.
         11    1    1    2    0    0  0.68059597038E+01  0.46457462343E+01 -0.43679844480E+02  0.44450341499E+02  0.00000000000E+00 0.  1.
        -15    1    1    2    0    0  0.52065115317E+01  0.11673978499E+02  0.31580813964E+03  0.31607171390E+03  0.17770000000E+01 0. -1.
         15    1    1    2    0    0 -0.66807626637E+01 -0.10785811637E+02 -0.45563267062E+03  0.45581274070E+03  0.17770000000E+01 0.  1.
</event>
<event>
 6    1  0.1782050E-003  0.5091569E+03  0.7546771E-02  0.9379550E-01
        -11   -1    0    0    0    0  0.00000000000E+00  0.00000000000E+00  0.50000000000E+03  0.50000000000E+03  0.00000000000E+00 0.  1.
         11   -1    0    0    0    0 -0.00000000000E+00 -0.00000000000E+00 -0.50000000000E+03  0.50000000000E+03  0.00000000000E+00 0. -1.
        -11    1    1    2    0    0 -0.39731098437E+01 -0.79162594183E+01  0.49076317021E+03  0.49084309306E+03  0.00000000000E+00 0.  1.
         11    1    1    2    0    0  0.45800518348E+01 -0.27614466560E+02 -0.33817845066E+03  0.33933493797E+03  0.00000000000E+00 0. -1.
        -15    1    1    2    0    0 -0.10323746352E+02  0.14710133720E+02 -0.14415784703E+03  0.14528458405E+03  0.17770000000E+01 0. -1.
         15    1    1    2    0    0  0.97168043606E+01  0.20820592258E+02 -0.84268725187E+01  0.24537384914E+02  0.17770000000E+01 0.  1.
</event>
<event>
 6    1  0.1782050E-003  0.5061979E+03  0.7546771E-02  0.9386047E-01
        -11   -1    0    0    0    0  0.00000000000E+00  0.00000000000E+00  0.50000000000E+03  0.50000000000E+03  0.00000000000E+00 0. -1.
         11   -1    0    0    0    0 -0.00000000000E+00 -0.00000000000E+00 -0.50000000000E+03  0.50000000000E+03  0.00000000000E+00 0.  1.
        -11    1    1    2    0    0  0.87432264031E+01  0.20385640158E+01  0.43993266439E+03  0.44002425950E+03  0.00000000000E+00 0. -1.
         11    1    1    2    0    0 -0.97459886015E+01  0.14549426187E+02 -0.49349146352E+03  0.49380208046E+03  0.00000000000E+00 0.  1.
        -15    1    1    2    0    0  0.13134531935E+02  0.22427396589E+01  0.87308408259E+01  0.16029071116E+02  0.17770000000E+01 0.  1.
         15    1    1    2    0    0 -0.12131769737E+02 -0.18830729862E+02  0.44827958304E+02  0.50144588929E+02  0.17770000000E+01 0. -1.
</event>
<event>
 6    1  0.1782050E-003  0.5367468E+03  0.7546771E-02  0.9321143E-01
        -11   -1    0    0    0    0  0.00000000000E+00  0.00000000000E+00  0.50000000000E+03  0.50000000000E+03  0.00000000000E+00 0.  1.
         11   -1    0    0    0    0 -0.00000000000E+00 -0.00000000000E+00 -0.50000000000E+03  0.50000000000E+03  0.00000000000E+00 0. -1.
        -11    1    1    2    0    0  0.45958504666E+01 -0.51619853654E+01  0.44119898014E+03  0.44125311105E+03  0.00000000000E+00 0.  1.
         11    1    1    2    0    0  0.22895718885E+02 -0.13779526260E+02 -0.46248186242E+03  0.46325323783E+03  0.00000000000E+00 0. -1.
        -15    1    1    2    0    0 -0.79813167647E+01 -0.85690355839E+01 -0.31036875539E+02  0.33220101752E+02  0.17770000000E+01 0.  1.
         15    1    1    2    0    0 -0.19510252587E+02  0.27510547209E+02  0.52319757823E+02  0.62273549372E+02  0.17770000000E+01 0. -1.
</event>
<event>
 6    1  0.1782050E-003  0.5007209E+03  0.7546771E-02  0.9398198E-01
        -11   -1    0    0    0    0  0.00000000000E+00  0.00000000000E+00  0.50000000000E+03  0.50000000000E+03  0.00000000000E+00 0. -1.
         11   -1    0    0    0    0 -0.00000000000E+00 -0.00000000000E+00 -0.50000000000E+03  0.50000000000E+03  0.00000000000E+00 0. -1.
        -11    1    1    2    0    0  0.58248064205E+01 -0.34381312863E+01  0.49923328088E+03  0.49927909816E+03  0.00000000000E+00 0. -1.
         11    1    1    2    0    0 -0.63663451090E+01  0.16961390355E+01 -0.39704938173E+03  0.39710404023E+03  0.00000000000E+00 0. -1.
        -15    1    1    2    0    0 -0.29987146743E+01  0.63601977125E+00 -0.39871780279E+01  0.53340536624E+01  0.17770000000E+01 0.  1.
         15    1    1    2    0    0  0.35402533628E+01  0.11059724795E+01 -0.98196721124E+02  0.98282807945E+02  0.17770000000E+01 0. -1.
</event>
<event>
 6    1  0.1782050E-003  0.5026572E+03  0.7546771E-02  0.9393884E-01
        -11   -1    0    0    0    0  0.00000000000E+00  0.00000000000E+00  0.50000000000E+03  0.50000000000E+03  0.00000000000E+00 0. -1.
         11   -1    0    0    0    0 -0.00000000000E+00 -0.00000000000E+00 -0.50000000000E+03  0.50000000000E+03  0.00000000000E+00 0.  1.
        -11    1    1    2    0    0  0.30804008537E+01 -0.15599814800E+01  0.18007414390E+03  0.18010724503E+03  0.00000000000E+00 0. -1.
         11    1    1    2    0    0  0.20771452325E+01 -0.84738041274E+01 -0.49726623881E+03  0.49734277128E+03  0.00000000000E+00 0.  1.
        -15    1    1    2    0    0 -0.57762253462E+01  0.47979986114E-01  0.91824439644E+00  0.61129357187E+01  0.17770000000E+01 0.  1.
         15    1    1    2    0    0  0.61867926001E+00  0.99858056213E+01  0.31627385051E+03  0.31643704797E+03  0.17770000000E+01 0. -1.
</event>
<event>
 6    1  0.1782050E-003  0.4831445E+03  0.7546771E-02  0.9438336E-01
        -11   -1    0    0    0    0  0.00000000000E+00  0.00000000000E+00  0.50000000000E+03  0.50000000000E+03  0.00000000000E+00 0.  1.
         11   -1    0    0    0    0 -0.00000000000E+00 -0.00000000000E+00 -0.50000000000E+03  0.50000000000E+03  0.00000000000E+00 0.  1.
        -11    1    1    2    0    0  0.17577109981E+01 -0.70414517515E+01  0.48332195745E+03  0.48337644351E+03  0.00000000000E+00 0.  1.
         11    1    1    2    0    0 -0.49347032151E+01  0.10471377007E+02 -0.48278516111E+03  0.48292392033E+03  0.00000000000E+00 0.  1.
        -15    1    1    2    0    0 -0.90453833635E+01 -0.90673274238E+01 -0.10665194296E+02  0.16761249511E+02  0.17770000000E+01 0.  1.
         15    1    1    2    0    0  0.12222375580E+02  0.56374021687E+01  0.10128397965E+02  0.16938386652E+02  0.17770000000E+01 0. -1.
</event>
<event>
 6    1  0.1782050E-003  0.5028832E+03  0.7546771E-02  0.9393381E-01
        -11   -1    0    0    0    0  0.00000000000E+00  0.00000000000E+00  0.50000000000E+03  0.50000000000E+03  0.00000000000E+00 0.  1.
         11   -1    0    0    0    0 -0.00000000000E+00 -0.00000000000E+00 -0.50000000000E+03  0.50000000000E+03  0.00000000000E+00 0.  1.
        -11    1    1    2    0    0 -0.51639492706E+01 -0.67986477776E+01  0.49704352535E+03  0.49711684147E+03  0.00000000000E+00 0.  1.
         11    1    1    2    0    0 -0.80106527562E+01 -0.38893419078E+01 -0.30810134311E+03  0.30823000368E+03  0.00000000000E+00 0.  1.
        -15    1    1    2    0    0  0.35079459898E+01  0.53676800096E+01 -0.14270819229E+01  0.68052895286E+01  0.17770000000E+01 0.  1.
         15    1    1    2    0    0  0.96666560370E+01  0.53203096758E+01 -0.18751510031E+03  0.18784786533E+03  0.17770000000E+01 0. -1.
</event>
<event>
 6    1  0.1782050E-003  0.5070904E+03  0.7546771E-02  0.9384083E-01
        -11   -1    0    0    0    0  0.00000000000E+00  0.00000000000E+00  0.50000000000E+03  0.50000000000E+03  0.00000000000E+00 0. -1.
         11   -1    0    0    0    0 -0.00000000000E+00 -0.00000000000E+00 -0.50000000000E+03  0.50000000000E+03  0.00000000000E+00 0.  1.
        -11    1    1    2    0    0  0.84252293591E+01 -0.93900895516E+01  0.40741328644E+03  0.40760856743E+03  0.00000000000E+00 0. -1.
         11    1    1    2    0    0  0.17484737997E+02  0.20485615668E+02 -0.49217328062E+03  0.49290964148E+03  0.00000000000E+00 0.  1.
        -15    1    1    2    0    0 -0.51179625336E+01  0.75470820017E+01  0.63920267751E+02  0.64591875229E+02  0.17770000000E+01 0.  1.
         15    1    1    2    0    0 -0.20792004823E+02 -0.18642608118E+02  0.20839726427E+02  0.34889915857E+02  0.17770000000E+01 0. -1.
</event>
<event>
 6    1  0.1782050E-003  0.5022901E+03  0.7546771E-02  0.9394700E-01
        -11   -1    0    0    0    0  0.00000000000E+00  0.00000000000E+00  0.50000000000E+03  0.50000000000E+03  0.00000000000E+00 0. -1.
         11   -1    0    0    0    0 -0.00000000000E+00 -0.00000000000E+00 -0.50000000000E+03  0.50000000000E+03  0.00000000000E+00 0.  1.
        -11    1    1    2    0    0  0.35219547717E+01  0.16494719613E+02  0.38475942101E+03  0.38512892906E+03  0.00000000000E+00 0. -1.
         11    1    1    2    0    0 -0.83130028972E+01 -0.76935844707E+00 -0.49763992165E+03  0.49770994520E+03  0.00000000000E+00 0.  1.
        -15    1    1    2    0    0 -0.61470738804E+01 -0.13062599383E+02  0.28329930948E+02  0.31845890416E+02  0.17770000000E+01 0. -1.
         15    1    1    2    0    0  0.10938122006E+02 -0.26627617833E+01  0.84550569695E+02  0.85315235322E+02  0.17770000000E+01 0.  1.
</event>
<event>
 6    1  0.1782050E-003  0.5010602E+03  0.7546771E-02  0.9397440E-01
        -11   -1    0    0    0    0  0.00000000000E+00  0.00000000000E+00  0.50000000000E+03  0.50000000000E+03  0.00000000000E+00 0. -1.
         11   -1    0    0    0    0 -0.00000000000E+00 -0.00000000000E+00 -0.50000000000E+03  0.50000000000E+03  0.00000000000E+00 0.  1.
        -11    1    1    2    0    0  0.13641672106E+00  0.16040795633E+02  0.49868181643E+03  0.49893975566E+03  0.00000000000E+00 0. -1.
         11    1    1    2    0    0  0.58595984065E+01  0.58907296996E+01 -0.32916844728E+03  0.32927329421E+03  0.00000000000E+00 0.  1.
        -15    1    1    2    0    0  0.52021754681E+01 -0.61852388647E+01 -0.42237018124E+02  0.43040019034E+02  0.17770000000E+01 0.  1.
         15    1    1    2    0    0 -0.11198190596E+02 -0.15746286468E+02 -0.12727635102E+03  0.12874693111E+03  0.17770000000E+01 0. -1.
</event>
<event>
 6    1  0.1782050E-003  0.5243062E+03  0.7546771E-02  0.9347007E-01
        -11   -1    0    0    0    0  0.00000000000E+00  0.00000000000E+00  0.50000000000E+03  0.50000000000E+03  0.00000000000E+00 0.  1.
         11   -1    0    0    0    0 -0.00000000000E+00 -0.00000000000E+00 -0.50000000000E+03  0.50000000000E+03  0.00000000000E+00 0.  1.
        -11    1    1    2    0    0 -0.14330653107E+02 -0.27143133383E+02  0.45445334352E+03  0.45548870320E+03  0.00000000000E+00 0.  1.
         11    1    1    2    0    0  0.11241843068E+02  0.14821008059E+02 -0.47532995497E+03  0.47569381687E+03  0.00000000000E+00 0.  1.
        -15    1    1    2    0    0 -0.78722087146E+01 -0.93725906692E+01 -0.18651682801E+02  0.22379904518E+02  0.17770000000E+01 0. -1.
         15    1    1    2    0    0  0.10961018754E+02  0.21694715994E+02  0.39528294259E+02  0.46437575413E+02  0.17770000000E+01 0.  1.
</event>
<event>
 6    1  0.1782050E-003  0.5007435E+03  0.7546771E-02  0.9398148E-01
        -11   -1    0    0    0    0  0.00000000000E+00  0.00000000000E+00  0.50000000000E+03  0.50000000000E+03  0.00000000000E+00 0.  1.
         11   -1    0    0    0    0 -0.00000000000E+00 -0.00000000000E+00 -0.50000000000E+03  0.50000000000E+03  0.00000000000E+00 0.  1.
        -11    1    1    2    0    0  0.11010315160E+02  0.13968716294E+02  0.49893955169E+03  0.49925647549E+03  0.00000000000E+00 0.  1.
         11    1    1    2    0    0  0.28226958137E+01 -0.71544010570E+01 -0.33916711351E+03  0.33925430572E+03  0.00000000000E+00 0.  1.
        -15    1    1    2    0    0  0.83616168288E+00 -0.82299618606E+01 -0.48745707270E+02  0.49474570689E+02  0.17770000000E+01 0. -1.
         15    1    1    2    0    0 -0.14669172656E+02  0.14156466241E+01 -0.11102673091E+03  0.11201464810E+03  0.17770000000E+01 0.  1.
</event>
<event>
 6    1  0.1782050E-003  0.5048971E+03  0.7546771E-02  0.9388918E-01
        -11   -1    0    0    0    0  0.00000000000E+00  0.00000000000E+00  0.50000000000E+03  0.50000000000E+03  0.00000000000E+00 0. -1.
         11   -1    0    0    0    0 -0.00000000000E+00 -0.00000000000E+00 -0.50000000000E+03  0.50000000000E+03  0.00000000000E+00 0.  1.
        -11    1    1    2    0    0 -0.13288561342E+02  0.98266928468E+01  0.49482695043E+03  0.49510287883E+03  0.00000000000E+00 0. -1.
         11    1    1    2    0    0 -0.95430478836E+01 -0.48867974445E+01 -0.45869004410E+03  0.45881533007E+03  0.00000000000E+00 0.  1.
        -15    1    1    2    0    0  0.32928523060E+01 -0.88628326930E+00  0.92214562574E+00  0.39542958789E+01  0.17770000000E+01 0.  1.
         15    1    1    2    0    0  0.19538756920E+02 -0.40536121330E+01 -0.37059051952E+02  0.42127495224E+02  0.17770000000E+01 0. -1.
</event>
<event>
 6    1  0.1782050E-003  0.5100529E+03  0.7546771E-02  0.9377592E-01
        -11   -1    0    0    0    0  0.00000000000E+00  0.00000000000E+00  0.50000000000E+03  0.50000000000E+03  0.00000000000E+00 0.  1.
         11   -1    0    0    0    0 -0.00000000000E+00 -0.00000000000E+00 -0.50000000000E+03  0.50000000000E+03  0.00000000000E+00 0.  1.
        -11    1    1    2    0    0 -0.77803346252E+00 -0.66764853684E+01  0.48990101730E+03  0.48994712730E+03  0.00000000000E+00 0.  1.
         11    1    1    2    0    0 -0.23781813499E+02  0.46805534475E+02 -0.39656172242E+03  0.40002191489E+03  0.00000000000E+00 0.  1.
        -15    1    1    2    0    0  0.26947416210E+02 -0.39898645856E+02 -0.61850303008E+02  0.78400783750E+02  0.17770000000E+01 0.  1.
         15    1    1    2    0    0 -0.23875692487E+01 -0.23040325119E+00 -0.31488991877E+02  0.31630174059E+02  0.17770000000E+01 0. -1.
</event>
<event>
 6    1  0.1782050E-003  0.4544421E+03  0.7546771E-02  0.9507948E-01
        -11   -1    0    0    0    0  0.00000000000E+00  0.00000000000E+00  0.50000000000E+03  0.50000000000E+03  0.00000000000E+00 0.  1.
         11   -1    0    0    0    0 -0.00000000000E+00 -0.00000000000E+00 -0.50000000000E+03  0.50000000000E+03  0.00000000000E+00 0. -1.
        -11    1    1    2    0    0  0.15511042928E+02 -0.82489620601E+01  0.45528133777E+03  0.45562016455E+03  0.00000000000E+00 0.  1.
         11    1    1    2    0    0 -0.10561705355E+02  0.83249261894E+01 -0.45308057175E+03  0.45328011043E+03  0.00000000000E+00 0. -1.
        -15    1    1    2    0    0  0.40644109052E+01 -0.39984137166E+02  0.19551854631E+02  0.44728999647E+02  0.17770000000E+01 0.  1.
         15    1    1    2    0    0 -0.90137484784E+01  0.39908173037E+02 -0.21752620648E+02  0.46370725364E+02  0.17770000000E+01 0. -1.
</event>
<event>
 6    1  0.1782050E-003  0.5000948E+03  0.7546771E-02  0.9399598E-01
        -11   -1    0    0    0    0  0.00000000000E+00  0.00000000000E+00  0.50000000000E+03  0.50000000000E+03  0.00000000000E+00 0. -1.
         11   -1    0    0    0    0 -0.00000000000E+00 -0.00000000000E+00 -0.50000000000E+03  0.50000000000E+03  0.00000000000E+00 0.  1.
        -11    1    1    2    0    0 -0.24454149559E+01 -0.57742743912E+00  0.18157590343E+03  0.18159328783E+03  0.00000000000E+00 0. -1.
         11    1    1    2    0    0 -0.29310558707E+00 -0.72077868613E+01 -0.49985315533E+03  0.49990520601E+03  0.00000000000E+00 0.  1.
        -15    1    1    2    0    0 -0.13062380933E+00  0.65116077603E+01  0.11881426590E+03  0.11900590577E+03  0.17770000000E+01 0. -1.
         15    1    1    2    0    0  0.28691443523E+01  0.12736065402E+01  0.19946298600E+03  0.19949560039E+03  0.17770000000E+01 0.  1.
</event>
<event>
 6    1  0.1782050E-003  0.2577293E+03  0.7546771E-02  0.1020604E+00
        -11   -1    0    0    0    0  0.00000000000E+00  0.00000000000E+00  0.50000000000E+03  0.50000000000E+03  0.00000000000E+00 0.  1.
         11   -1    0    0    0    0 -0.00000000000E+00 -0.00000000000E+00 -0.50000000000E+03  0.50000000000E+03  0.00000000000E+00 0. -1.
        -11    1    1    2    0    0 -0.62143848441E+01  0.43279628876E+01  0.25664598113E+03  0.25675768629E+03  0.00000000000E+00 0.  1.
         11    1    1    2    0    0 -0.19894880949E+02  0.14572007019E+02 -0.27335154484E+03  0.27446168538E+03  0.00000000000E+00 0. -1.
        -15    1    1    2    0    0  0.14618742307E+02 -0.19285580060E+02 -0.22524615156E+03  0.22654939361E+03  0.17770000000E+01 0. -1.
         15    1    1    2    0    0  0.11490523486E+02  0.38561015325E+00  0.24195171527E+03  0.24223123472E+03  0.17770000000E+01 0.  1.
</event>
<event>
 6    1  0.1782050E-003  0.5015566E+03  0.7546771E-02  0.9396333E-01
        -11   -1    0    0    0    0  0.00000000000E+00  0.00000000000E+00  0.50000000000E+03  0.50000000000E+03  0.00000000000E+00 0.  1.
         11   -1    0    0    0    0 -0.00000000000E+00 -0.00000000000E+00 -0.50000000000E+03  0.50000000000E+03  0.00000000000E+00 0.  1.
        -11    1    1    2    0    0 -0.15489803915E+01 -0.55203665047E+01  0.37472475569E+03  0.37476861704E+03  0.00000000000E+00 0.  1.
         11    1    1    2    0    0  0.10141113836E+02 -0.17004779641E+01 -0.49833731289E+03  0.49844338819E+03  0.00000000000E+00 0.  1.
        -15    1    1    2    0    0 -0.19370316279E+01  0.13334568922E+02  0.32726690646E+02  0.35436659401E+02  0.17770000000E+01 0.  1.
         15    1    1    2    0    0 -0.66551018163E+01 -0.61137244528E+01  0.90885866549E+02  0.91351335372E+02  0.17770000000E+01 0. -1.
</event>
<event>
 6    1  0.1782050E-003  0.5155897E+03  0.7546771E-02  0.9365587E-01
        -11   -1    0    0    0    0  0.00000000000E+00  0.00000000000E+00  0.50000000000E+03  0.50000000000E+03  0.00000000000E+00 0.  1.
         11   -1    0    0    0    0 -0.00000000000E+00 -0.00000000000E+00 -0.50000000000E+03  0.50000000000E+03  0.00000000000E+00 0.  1.
        -11    1    1    2    0    0 -0.12705115514E+02  0.13840653761E+02  0.35910936559E+03  0.35960050071E+03  0.00000000000E+00 0.  1.
         11    1    1    2    0    0  0.97206263232E+01  0.51322938157E+01 -0.48428553717E+03  0.48441027294E+03  0.00000000000E+00 0.  1.
        -15    1    1    2    0    0  0.11104161276E+02 -0.11974300352E+02  0.13811760852E+03  0.13909104134E+03  0.17770000000E+01 0. -1.
         15    1    1    2    0    0 -0.81196720856E+01 -0.69986472241E+01 -0.12941436939E+02  0.16898185015E+02  0.17770000000E+01 0. -1.
</event>
<event>
 6    1  0.1782050E-003  0.5104481E+03  0.7546771E-02  0.9376730E-01
        -11   -1    0    0    0    0  0.00000000000E+00  0.00000000000E+00  0.50000000000E+03  0.50000000000E+03  0.00000000000E+00 0.  1.
         11   -1    0    0    0    0 -0.00000000000E+00 -0.00000000000E+00 -0.50000000000E+03  0.50000000000E+03  0.00000000000E+00 0. -1.
        -11    1    1    2    0    0 -0.32109969439E+02  0.12235171813E+02  0.48834450828E+03  0.48955194651E+03  0.00000000000E+00 0.  1.
         11    1    1    2    0    0 -0.83662579846E+01 -0.13714296512E+02 -0.38458794331E+03  0.38492332008E+03  0.00000000000E+00 0. -1.
        -15    1    1    2    0    0  0.41997798686E+00  0.99815790869E+01 -0.74449087912E+02  0.75137425578E+02  0.17770000000E+01 0. -1.
         15    1    1    2    0    0  0.40056249437E+02 -0.85024543882E+01 -0.29307477057E+02  0.50387307827E+02  0.17770000000E+01 0.  1.
</event>
<event>
 6    1  0.1782050E-003  0.5004183E+03  0.7546771E-02  0.9398874E-01
        -11   -1    0    0    0    0  0.00000000000E+00  0.00000000000E+00  0.50000000000E+03  0.50000000000E+03  0.00000000000E+00 0. -1.
         11   -1    0    0    0    0 -0.00000000000E+00 -0.00000000000E+00 -0.50000000000E+03  0.50000000000E+03  0.00000000000E+00 0. -1.
        -11    1    1    2    0    0 -0.90977517047E+00 -0.11113625670E+02  0.49945724067E+03  0.49958170065E+03  0.00000000000E+00 0. -1.
         11    1    1    2    0    0  0.32895294301E+01 -0.79491274695E-01 -0.13375765589E+03  0.13379812343E+03  0.00000000000E+00 0. -1.
        -15    1    1    2    0    0 -0.12482672634E+02  0.38711900241E+01 -0.16587813791E+03  0.16640167546E+03  0.17770000000E+01 0.  1.
         15    1    1    2    0    0  0.10102918374E+02  0.73219269203E+01 -0.19982144686E+03  0.20021850047E+03  0.17770000000E+01 0. -1.
</event>
<event>
 6    1  0.1782050E-003  0.5006458E+03  0.7546771E-02  0.9398366E-01
        -11   -1    0    0    0    0  0.00000000000E+00  0.00000000000E+00  0.50000000000E+03  0.50000000000E+03  0.00000000000E+00 0.  1.
         11   -1    0    0    0    0 -0.00000000000E+00 -0.00000000000E+00 -0.50000000000E+03  0.50000000000E+03  0.00000000000E+00 0.  1.
        -11    1    1    2    0    0 -0.20861080481E+00 -0.32783912170E+01  0.17888165954E+03  0.17891182042E+03  0.00000000000E+00 0.  1.
         11    1    1    2    0    0  0.61445421249E+01 -0.82011136508E+01 -0.49924903334E+03  0.49935419389E+03  0.00000000000E+00 0.  1.
        -15    1    1    2    0    0 -0.12913593177E+02  0.10172138824E+02  0.29097047034E+03  0.29143988340E+03  0.17770000000E+01 0. -1.
         15    1    1    2    0    0  0.69776618569E+01  0.13073660441E+01  0.29396903468E+02  0.30294102289E+02  0.17770000000E+01 0.  1.
</event>
<event>
 6    1  0.1782050E-003  0.4878313E+03  0.7546771E-02  0.9427457E-01
        -11   -1    0    0    0    0  0.00000000000E+00  0.00000000000E+00  0.50000000000E+03  0.50000000000E+03  0.00000000000E+00 0. -1.
         11   -1    0    0    0    0 -0.00000000000E+00 -0.00000000000E+00 -0.50000000000E+03  0.50000000000E+03  0.00000000000E+00 0. -1.
        -11    1    1    2    0    0 -0.13338461294E+02 -0.20668713423E+01  0.48834385147E+03  0.48853035093E+03  0.00000000000E+00 0. -1.
         11    1    1    2    0    0  0.22854029217E+01  0.70051296671E+01 -0.48715239044E+03  0.48720811407E+03  0.00000000000E+00 0. -1.
        -15    1    1    2    0    0  0.17199112361E+02 -0.34991137258E+01 -0.14343024795E+01  0.17699384607E+02  0.17770000000E+01 0. -1.
         15    1    1    2    0    0 -0.61460539890E+01 -0.14391445990E+01  0.24284144072E+00  0.65621503928E+01  0.17770000000E+01 0.  1.
</event>
<event>
 6    1  0.1782050E-003  0.4893215E+03  0.7546771E-02  0.9424026E-01
        -11   -1    0    0    0    0  0.00000000000E+00  0.00000000000E+00  0.50000000000E+03  0.50000000000E+03  0.00000000000E+00 0. -1.
         11   -1    0    0    0    0 -0.00000000000E+00 -0.00000000000E+00 -0.50000000000E+03  0.50000000000E+03  0.00000000000E+00 0. -1.
        -11    1    1    2    0    0 -0.25231724114E+01 -0.12189905686E+02  0.48557991185E+03  0.48573944763E+03  0.00000000000E+00 0. -1.
         11    1    1    2    0    0 -0.10124557466E+02 -0.75413255102E+00 -0.49299448423E+03  0.49309901324E+03  0.00000000000E+00 0. -1.
        -15    1    1    2    0    0  0.37166748926E+01  0.63739124555E+01 -0.20396083439E+00  0.75920854361E+01  0.17770000000E+01 0.  1.
         15    1    1    2    0    0  0.89310549853E+01  0.65701257814E+01  0.76185332200E+01  0.13569453687E+02  0.17770000000E+01 0. -1.
</event>
<event>
 6    1  0.1782050E-003  0.5013722E+03  0.7546771E-02  0.9396745E-01
        -11   -1    0    0    0    0  0.00000000000E+00  0.00000000000E+00  0.50000000000E+03  0.50000000000E+03  0.00000000000E+00 0.  1.
         11   -1    0    0    0    0 -0.00000000000E+00 -0.00000000000E+00 -0.50000000000E+03  0.50000000000E+03  0.00000000000E+00 0. -1.
        -11    1    1    2    0    0  0.58799249623E+01  0.64979572195E+01  0.49855078481E+03  0.49862779907E+03  0.00000000000E+00 0.  1.
         11    1    1    2    0    0 -0.40141799715E+01  0.56576476554E+01 -0.41720460378E+03  0.41726227247E+03  0.00000000000E+00 0. -1.
        -15    1    1    2    0    0  0.32885753664E+01  0.15056324699E+01 -0.40427200564E+02  0.40627551385E+02  0.17770000000E+01 0. -1.
         15    1    1    2    0    0 -0.51543203572E+01 -0.13661237345E+02 -0.40918980472E+02  0.43482377074E+02  0.17770000000E+01 0.  1.
</event>
<event>
 6    1  0.1782050E-003  0.5044055E+03  0.7546771E-02  0.9390006E-01
        -11   -1    0    0    0    0  0.00000000000E+00  0.00000000000E+00  0.50000000000E+03  0.50000000000E+03  0.00000000000E+00 0.  1.
         11   -1    0    0    0    0 -0.00000000000E+00 -0.00000000000E+00 -0.50000000000E+03  0.50000000000E+03  0.00000000000E+00 0. -1.
        -11    1    1    2    0    0  0.15505384376E+01  0.69050424814E+01  0.49554393065E+03  0.49559446222E+03  0.00000000000E+00 0.  1.
         11    1    1    2    0    0  0.17300869612E+02 -0.12639987420E+02 -0.44384810415E+03  0.44436497266E+03  0.00000000000E+00 0. -1.
        -15    1    1    2    0    0 -0.73586016731E+01 -0.78677135272E+01 -0.10601051428E+02  0.15218079876E+02  0.17770000000E+01 0. -1.
         15    1    1    2    0    0 -0.11492806376E+02  0.13602658466E+02 -0.41094775070E+02  0.44822485237E+02  0.17770000000E+01 0.  1.
</event>
<event>
 6    1  0.1782050E-003  0.5046802E+03  0.7546771E-02  0.9389398E-01
        -11   -1    0    0    0    0  0.00000000000E+00  0.00000000000E+00  0.50000000000E+03  0.50000000000E+03  0.00000000000E+00 0. -1.
         11   -1    0    0    0    0 -0.00000000000E+00 -0.00000000000E+00 -0.50000000000E+03  0.50000000000E+03  0.00000000000E+00 0.  1.
        -11    1    1    2    0    0 -0.57512620397E+01  0.45608296821E+01  0.37335553022E+03  0.37342767724E+03  0.00000000000E+00 0. -1.
         11    1    1    2    0    0  0.93337069359E+01 -0.10347853468E+02 -0.49512373181E+03  0.49531980170E+03  0.00000000000E+00 0.  1.
        -15    1    1    2    0    0 -0.54169684289E+01  0.68551210201E+01 -0.52179383081E+00  0.89311941510E+01  0.17770000000E+01 0. -1.
         15    1    1    2    0    0  0.18345235327E+01 -0.10680972342E+01  0.12228999542E+03  0.12232132691E+03  0.17770000000E+01 0.  1.
</event>
<event>
 6    1  0.1782050E-003  0.5032496E+03  0.7546771E-02  0.9392568E-01
        -11   -1    0    0    0    0  0.00000000000E+00  0.00000000000E+00  0.50000000000E+03  0.50000000000E+03  0.00000000000E+00 0. -1.
         11   -1    0    0    0    0 -0.00000000000E+00 -0.00000000000E+00 -0.50000000000E+03  0.50000000000E+03  0.00000000000E+00 0. -1.
        -11    1    1    2    0    0 -0.41249595290E+00  0.33333901375E+01  0.15738901829E+03  0.15742485420E+03  0.00000000000E+00 0. -1.
         11    1    1    2    0    0 -0.51458846152E+02  0.19070093973E+02 -0.49370970252E+03  0.49675039174E+03  0.00000000000E+00 0. -1.
        -15    1    1    2    0    0  0.69458602515E+00 -0.33656822115E+01  0.18335524017E+03  0.18339605256E+03  0.17770000000E+01 0.  1.
         15    1    1    2    0    0  0.51176756080E+02 -0.19037801899E+02  0.15296544406E+03  0.16242870149E+03  0.17770000000E+01 0. -1.
</event>
<event>
 6    1  0.1782050E-003  0.5120925E+03  0.7546771E-02  0.9373151E-01
        -11   -1    0    0    0    0  0.00000000000E+00  0.00000000000E+00  0.50000000000E+03  0.50000000000E+03  0.00000000000E+00 0.  1.
         11   -1    0    0    0    0 -0.00000000000E+00 -0.00000000000E+00 -0.50000000000E+03  0.50000000000E+03  0.00000000000E+00 0. -1.
        -11    1    1    2    0    0  0.75585157533E+01 -0.18651442848E+02  0.48749227430E+03  0.48790749634E+03  0.00000000000E+00 0.  1.
         11    1    1    2    0    0 -0.20079753891E+02  0.16690337723E+02 -0.47440825576E+03  0.47512625377E+03  0.00000000000E+00 0. -1.
        -15    1    1    2    0    0 -0.96188011668E+01 -0.38051472676E+01  0.10971928384E+00  0.10496201643E+02  0.17770000000E+01 0. -1.
         15    1    1    2    0    0  0.22140039304E+02  0.57662523924E+01 -0.13193737827E+02  0.26470048241E+02  0.17770000000E+01 0.  1.
</event>
<event>
 6    1  0.1782050E-003  0.5029270E+03  0.7546771E-02  0.9393284E-01
        -11   -1    0    0    0    0  0.00000000000E+00  0.00000000000E+00  0.50000000000E+03  0.50000000000E+03  0.00000000000E+00 0.  1.
         11   -1    0    0    0    0 -0.00000000000E+00 -0.00000000000E+00 -0.50000000000E+03  0.50000000000E+03  0.00000000000E+00 0.  1.
        -11    1    1    2    0    0  0.16434429894E+02 -0.18920537629E+02  0.49644086428E+03  0.49707304187E+03  0.00000000000E+00 0.  1.
         11    1    1    2    0    0 -0.60869232791E+01  0.71144691093E+01 -0.34124416814E+03  0.34137259497E+03  0.00000000000E+00 0.  1.
        -15    1    1    2    0    0 -0.33268432128E+01 -0.61889540708E+01 -0.12769253278E+03  0.12789805196E+03  0.17770000000E+01 0.  1.
         15    1    1    2    0    0 -0.70206634019E+01  0.17995022591E+02 -0.27504163358E+02  0.33656311201E+02  0.17770000000E+01 0. -1.
</event>
<event>
 6    1  0.1782050E-003  0.5163237E+03  0.7546771E-02  0.9364007E-01
        -11   -1    0    0    0    0  0.00000000000E+00  0.00000000000E+00  0.50000000000E+03  0.50000000000E+03  0.00000000000E+00 0.  1.
         11   -1    0    0    0    0 -0.00000000000E+00 -0.00000000000E+00 -0.50000000000E+03  0.50000000000E+03  0.00000000000E+00 0. -1.
        -11    1    1    2    0    0  0.26393210448E+01  0.79476328968E+02  0.47709462126E+03  0.48367626623E+03  0.00000000000E+00 0.  1.
         11    1    1    2    0    0  0.64229040852E+01 -0.19670125969E+00 -0.36750298397E+03  0.36755915934E+03  0.00000000000E+00 0. -1.
        -15    1    1    2    0    0 -0.24098663185E+02 -0.19052169374E+02 -0.66209811809E+02  0.73011147327E+02  0.17770000000E+01 0.  1.
         15    1    1    2    0    0  0.15036438055E+02 -0.60227458334E+02 -0.43381825479E+02  0.75753427101E+02  0.17770000000E+01 0. -1.
</event>
<event>
 6    1  0.1782050E-003  0.5030345E+03  0.7546771E-02  0.9393045E-01
        -11   -1    0    0    0    0  0.00000000000E+00  0.00000000000E+00  0.50000000000E+03  0.50000000000E+03  0.00000000000E+00 0. -1.
         11   -1    0    0    0    0 -0.00000000000E+00 -0.00000000000E+00 -0.50000000000E+03  0.50000000000E+03  0.00000000000E+00 0.  1.
        -11    1    1    2    0    0  0.77864853396E+01 -0.12585783892E+01  0.49690294400E+03  0.49696554119E+03  0.00000000000E+00 0. -1.
         11    1    1    2    0    0  0.68283479172E+01  0.14314287337E+01 -0.43679592262E+03  0.43685163768E+03  0.00000000000E+00 0.  1.
        -15    1    1    2    0    0  0.87304129274E+00  0.92207322235E+01 -0.22770385124E+02  0.24646141108E+02  0.17770000000E+01 0. -1.
         15    1    1    2    0    0 -0.15487874550E+02 -0.93935825680E+01 -0.37336636253E+02  0.41536680021E+02  0.17770000000E+01 0.  1.
</event>
<event>
 6    1  0.1782050E-003  0.5231125E+03  0.7546771E-02  0.9349529E-01
        -11   -1    0    0    0    0  0.00000000000E+00  0.00000000000E+00  0.50000000000E+03  0.50000000000E+03  0.00000000000E+00 0.  1.
         11   -1    0    0    0    0 -0.00000000000E+00 -0.00000000000E+00 -0.50000000000E+03  0.50000000000E+03  0.00000000000E+00 0. -1.
        -11    1    1    2    0    0  0.23515909944E+01  0.11801399680E+02  0.47673562328E+03  0.47688746840E+03  0.00000000000E+00 0.  1.
         11    1    1    2    0    0 -0.57186968326E+01 -0.60196359258E+01 -0.41722232562E+03  0.41730493467E+03  0.00000000000E+00 0. -1.
        -15    1    1    2    0    0 -0.13249600438E+02  0.93190376545E+00  0.20113906658E+02  0.24169139960E+02  0.17770000000E+01 0.  1.
         15    1    1    2    0    0  0.16616706276E+02 -0.67136675192E+01 -0.79627204320E+02  0.81638456966E+02  0.17770000000E+01 0. -1.
</event>
<event>
 6    1  0.1782050E-003  0.5186905E+03  0.7546771E-02  0.9358933E-01
        -11   -1    0    0    0    0  0.00000000000E+00  0.00000000000E+00  0.50000000000E+03  0.50000000000E+03  0.00000000000E+00 0.  1.
         11   -1    0    0    0    0 -0.00000000000E+00 -0.00000000000E+00 -0.50000000000E+03  0.50000000000E+03  0.00000000000E+00 0. -1.
        -11    1    1    2    0    0 -0.12009671908E+02  0.15176916184E+02  0.48092026751E+03  0.48130954147E+03  0.00000000000E+00 0.  1.
         11    1    1    2    0    0  0.11829332926E+02 -0.79650419112E+01 -0.43863048485E+03  0.43886225316E+03  0.00000000000E+00 0. -1.
        -15    1    1    2    0    0  0.85098092486E+01 -0.15711835106E+02  0.13683625182E+02  0.22576047993E+02  0.17770000000E+01 0.  1.
         15    1    1    2    0    0 -0.83294702671E+01  0.84999608328E+01 -0.55973407850E+02  0.57252157378E+02  0.17770000000E+01 0. -1.
</event>
<event>
 6    1  0.1782050E-003  0.5107136E+03  0.7546771E-02  0.9376151E-01
        -11   -1    0    0    0    0  0.00000000000E+00  0.00000000000E+00  0.50000000000E+03  0.50000000000E+03  0.00000000000E+00 0.  1.
         11   -1    0    0    0    0 -0.00000000000E+00 -0.00000000000E+00 -0.50000000000E+03  0.50000000000E+03  0.00000000000E+00 0.  1.
        -11    1    1    2    0    0 -0.81733256154E+01 -0.19341469221E+02  0.34488284460E+03  0.34552144967E+03  0.00000000000E+00 0.  1.
         11    1    1    2    0    0 -0.82924687029E+01 -0.94069036586E+01 -0.48912563801E+03  0.48928636261E+03  0.00000000000E+00 0.  1.
        -15    1    1    2    0    0  0.31951375160E+01  0.45508437928E+02  0.46664178414E+02  0.65283459639E+02  0.17770000000E+01 0. -1.
         15    1    1    2    0    0  0.13270656802E+02 -0.16760065048E+02  0.97578614999E+02  0.99908728080E+02  0.17770000000E+01 0.  1.
</event>
<event>
 6    1  0.1782050E-003  0.5112491E+03  0.7546771E-02  0.9374985E-01
        -11   -1    0    0    0    0  0.00000000000E+00  0.00000000000E+00  0.50000000000E+03  0.50000000000E+03  0.00000000000E+00 0.  1.
         11   -1    0    0    0    0 -0.00000000000E+00 -0.00000000000E+00 -0.50000000000E+03  0.50000000000E+03  0.00000000000E+00 0.  1.
        -11    1    1    2    0    0  0.56717704311E+02  0.28058748913E+02  0.48463724633E+03  0.48875090988E+03  0.00000000000E+00 0.  1.
         11    1    1    2    0    0 -0.10785679199E+02  0.28469381730E+01 -0.21377419057E+03  0.21406503799E+03  0.00000000000E+00 0.  1.
        -15    1    1    2    0    0 -0.79178489656E+02 -0.32524749236E+02 -0.22288265550E+03  0.23876123720E+03  0.17770000000E+01 0.  1.
         15    1    1    2    0    0  0.33246464544E+02  0.16190621496E+01 -0.47980400257E+02  0.58422814933E+02  0.17770000000E+01 0. -1.
</event>
<event>
 6    1  0.1782050E-003  0.5016657E+03  0.7546771E-02  0.9396090E-01
        -11   -1    0    0    0    0  0.00000000000E+00  0.00000000000E+00  0.50000000000E+03  0.50000000000E+03  0.00000000000E+00 0.  1.
         11   -1    0    0    0    0 -0.00000000000E+00 -0.00000000000E+00 -0.50000000000E+03  0.50000000000E+03  0.00000000000E+00 0. -1.
        -11    1    1    2    0    0  0.60761753817E+00  0.22665109193E+01  0.14621476898E+03  0.14623359716E+03  0.00000000000E+00 0.  1.
         11    1    1    2    0    0  0.31960257051E+01 -0.45200970264E+02 -0.49626985050E+03  0.49833433236E+03  0.00000000000E+00 0. -1.
        -15    1    1    2    0    0  0.54905646440E+01  0.30293810346E+02  0.31999159119E+03  0.32147416290E+03  0.17770000000E+01 0.  1.
         15    1    1    2    0    0 -0.92942078873E+01  0.12640648999E+02  0.30063490333E+02  0.33957907582E+02  0.17770000000E+01 0. -1.
</event>
<event>
 6    1  0.1782050E-003  0.5006941E+03  0.7546771E-02  0.9398258E-01
        -11   -1    0    0    0    0  0.00000000000E+00  0.00000000000E+00  0.50000000000E+03  0.50000000000E+03  0.00000000000E+00 0. -1.
         11   -1    0    0    0    0 -0.00000000000E+00 -0.00000000000E+00 -0.50000000000E+03  0.50000000000E+03  0.00000000000E+00 0. -1.
        -11    1    1    2    0    0  0.30578807564E+00  0.95664188861E+01  0.49921412134E+03  0.49930586700E+03  0.00000000000E+00 0. -1.
         11    1    1    2    0    0  0.35421324108E+01 -0.80120543940E+01 -0.43124945148E+03  0.43133841600E+03  0.00000000000E+00 0. -1.
        -15    1    1    2    0    0 -0.37328931538E+01 -0.69104177472E+01 -0.35287938827E+02  0.36195092491E+02  0.17770000000E+01 0.  1.
         15    1    1    2    0    0 -0.11502733262E+00  0.53560532551E+01 -0.32676731036E+02  0.33160624511E+02  0.17770000000E+01 0. -1.
</event>
<event>
 6    1  0.1782050E-003  0.5027869E+03  0.7546771E-02  0.9393595E-01
        -11   -1    0    0    0    0  0.00000000000E+00  0.00000000000E+00  0.50000000000E+03  0.50000000000E+03  0.00000000000E+00 0.  1.
         11   -1    0    0    0    0 -0.00000000000E+00 -0.00000000000E+00 -0.50000000000E+03  0.50000000000E+03  0.00000000000E+00 0.  1.
        -11    1    1    2    0    0 -0.13918076468E+02 -0.74179974338E+01  0.49696290852E+03  0.49721310520E+03  0.00000000000E+00 0.  1.
         11    1    1    2    0    0  0.20846274911E+01 -0.68908566599E+01 -0.35590603434E+03  0.35597884047E+03  0.00000000000E+00 0.  1.
        -15    1    1    2    0    0  0.40556493887E+01 -0.80297140890E+00 -0.11811786303E+03  0.11820355473E+03  0.17770000000E+01 0. -1.
         15    1    1    2    0    0  0.77777995883E+01  0.15111825503E+02 -0.22939011144E+02  0.28604499606E+02  0.17770000000E+01 0.  1.
</event>
<event>
 6    1  0.1782050E-003  0.5123672E+03  0.7546771E-02  0.9372555E-01
        -11   -1    0    0    0    0  0.00000000000E+00  0.00000000000E+00  0.50000000000E+03  0.50000000000E+03  0.00000000000E+00 0. -1.
         11   -1    0    0    0    0 -0.00000000000E+00 -0.00000000000E+00 -0.50000000000E+03  0.50000000000E+03  0.00000000000E+00 0. -1.
        -11    1    1    2    0    0  0.84002418744E+00  0.57326421389E+01  0.31450708850E+03  0.31456045133E+03  0.00000000000E+00 0. -1.
         11    1    1    2    0    0 -0.14520569056E+02  0.15698537739E+02 -0.48716372996E+03  0.48763284426E+03  0.00000000000E+00 0. -1.
        -15    1    1    2    0    0  0.12708475952E+02  0.22178623411E+02  0.14240740172E+03  0.14469423793E+03  0.17770000000E+01 0. -1.
         15    1    1    2    0    0  0.97206891637E+00 -0.43609803289E+02  0.30249239737E+02  0.53112466470E+02  0.17770000000E+01 0.  1.
</event>
<event>
 6    1  0.1782050E-003  0.5040324E+03  0.7546771E-02  0.9390832E-01
        -11   -1    0    0    0    0  0.00000000000E+00  0.00000000000E+00  0.50000000000E+03  0.50000000000E+03  0.00000000000E+00 0. -1.
         11   -1    0    0    0    0 -0.00000000000E+00 -0.00000000000E+00 -0.50000000000E+03  0.50000000000E+03  0.00000000000E+00 0.  1.
        -11    1    1    2    0    0  0.75264770897E+01  0.17984544294E+01  0.49590722112E+03  0.49596759395E+03  0.00000000000E+00 0. -1.
         11    1    1    2    0    0  0.62684088583E+01  0.36726582522E+01 -0.43412272096E+03  0.43418350754E+03  0.00000000000E+00 0.  1.
        -15    1    1    2    0    0 -0.63694811578E+01 -0.42873127327E+01 -0.61618888239E+02  0.62120821449E+02  0.17770000000E+01 0.  1.
         15    1    1    2    0    0 -0.74254047902E+01 -0.11837999489E+01 -0.16561191618E+00  0.77280770522E+01  0.17770000000E+01 0.  1.
</event>
<event>
 6    1  0.1782050E-003  0.5012296E+03  0.7546771E-02  0.9397063E-01
        -11   -1    0    0    0    0  0.00000000000E+00  0.00000000000E+00  0.50000000000E+03  0.50000000000E+03  0.00000000000E+00 0. -1.
         11   -1    0    0    0    0 -0.00000000000E+00 -0.00000000000E+00 -0.50000000000E+03  0.50000000000E+03  0.00000000000E+00 0.  1.
        -11    1    1    2    0    0 -0.80083758158E+01  0.30279014386E+01  0.36440261826E+03  0.36450318306E+03  0.00000000000E+00 0. -1.
         11    1    1    2    0    0 -0.50673068644E+00  0.11557675287E+02 -0.49863621147E+03  0.49877039609E+03  0.00000000000E+00 0.  1.
        -15    1    1    2    0    0  0.11386280197E+02 -0.54205633817E+01  0.39772284567E+02  0.41761492224E+02  0.17770000000E+01 0.  1.
         15    1    1    2    0    0 -0.28711736945E+01 -0.91650133443E+01  0.94461308642E+02  0.94964928617E+02  0.17770000000E+01 0. -1.
</event>
<event>
 6    1  0.1782050E-003  0.4591527E+03  0.7546771E-02  0.9496154E-01
        -11   -1    0    0    0    0  0.00000000000E+00  0.00000000000E+00  0.50000000000E+03  0.50000000000E+03  0.00000000000E+00 0.  1.
         11   -1    0    0    0    0 -0.00000000000E+00 -0.00000000000E+00 -0.50000000000E+03  0.50000000000E+03  0.00000000000E+00 0. -1.
        -11    1    1    2    0    0 -0.33495501580E+01 -0.35681617737E+01  0.24868247327E+02  0.25345236038E+02  0.00000000000E+00 0.  1.
         11    1    1    2    0    0  0.30400607455E+01  0.80358725054E+01 -0.48460714086E+03  0.48468329679E+03  0.00000000000E+00 0. -1.
        -15    1    1    2    0    0 -0.30597357671E+02  0.35358053622E+02  0.26439237788E+02  0.53745523314E+02  0.17770000000E+01 0. -1.
         15    1    1    2    0    0  0.30906847084E+02 -0.39825764354E+02  0.43329965574E+03  0.43622594386E+03  0.17770000000E+01 0.  1.
</event>
<event>
 6    1  0.1782050E-003  0.5012904E+03  0.7546771E-02  0.9396927E-01
        -11   -1    0    0    0    0  0.00000000000E+00  0.00000000000E+00  0.50000000000E+03  0.50000000000E+03  0.00000000000E+00 0. -1.
         11   -1    0    0    0    0 -0.00000000000E+00 -0.00000000000E+00 -0.50000000000E+03  0.50000000000E+03  0.00000000000E+00 0.  1.
        -11    1    1    2    0    0 -0.65853729435E+01  0.24770256523E+01  0.45696366349E+03  0.45701782519E+03  0.00000000000E+00 0. -1.
         11    1    1    2    0    0  0.23911834394E+01  0.78953223578E+01 -0.49864136147E+03  0.49870959610E+03  0.00000000000E+00 0.  1.
        -15    1    1    2    0    0  0.22272722203E+01 -0.33314683678E+00  0.27138877420E+01  0.39490054488E+01  0.17770000000E+01 0. -1.
         15    1    1    2    0    0  0.19669172839E+01 -0.10039201173E+02  0.38963810235E+02  0.40323573264E+02  0.17770000000E+01 0.  1.
</event>
<event>
 6    1  0.1782050E-003  0.5066554E+03  0.7546771E-02  0.9385040E-01
        -11   -1    0    0    0    0  0.00000000000E+00  0.00000000000E+00  0.50000000000E+03  0.50000000000E+03  0.00000000000E+00 0.  1.
         11   -1    0    0    0    0 -0.00000000000E+00 -0.00000000000E+00 -0.50000000000E+03  0.50000000000E+03  0.00000000000E+00 0. -1.
        -11    1    1    2    0    0  0.85625674382E+01  0.80863230966E+01  0.45023629532E+03  0.45039030607E+03  0.00000000000E+00 0.  1.
         11    1    1    2    0    0  0.58631669355E+01 -0.19539560958E+02 -0.49292265551E+03  0.49334462142E+03  0.00000000000E+00 0. -1.
        -15    1    1    2    0    0  0.75557284896E+00 -0.92948976052E+01  0.19105555214E+02  0.21334150577E+02  0.17770000000E+01 0. -1.
         15    1    1    2    0    0 -0.15181307223E+02  0.20748135467E+02  0.23580804979E+02  0.34930921929E+02  0.17770000000E+01 0.  1.
</event>
<event>
 6    1  0.1782050E-003  0.5071864E+03  0.7546771E-02  0.9383872E-01
        -11   -1    0    0    0    0  0.00000000000E+00  0.00000000000E+00  0.50000000000E+03  0.50000000000E+03  0.00000000000E+00 0. -1.
         11   -1    0    0    0    0 -0.00000000000E+00 -0.00000000000E+00 -0.50000000000E+03  0.50000000000E+03  0.00000000000E+00 0. -1.
        -11    1    1    2    0    0 -0.10155095700E+02  0.11990769758E+00  0.49270892919E+03  0.49281358468E+03  0.00000000000E+00 0. -1.
         11    1    1    2    0    0 -0.11944040455E+02  0.13977776397E+02 -0.46417104135E+03  0.46453502986E+03  0.00000000000E+00 0. -1.
        -15    1    1    2    0    0  0.17057278566E+02 -0.10124719147E+01 -0.18912378780E+02  0.25550179091E+02  0.17770000000E+01 0.  1.
         15    1    1    2    0    0  0.50418575886E+01 -0.13085212180E+02 -0.96255090575E+01  0.17101206371E+02  0.17770000000E+01 0. -1.
</event>
<event>
 6    1  0.1782050E-003  0.5482092E+03  0.7546771E-02  0.9297963E-01
        -11   -1    0    0    0    0  0.00000000000E+00  0.00000000000E+00  0.50000000000E+03  0.50000000000E+03  0.00000000000E+00 0.  1.
         11   -1    0    0    0    0 -0.00000000000E+00 -0.00000000000E+00 -0.50000000000E+03  0.50000000000E+03  0.00000000000E+00 0. -1.
        -11    1    1    2    0    0 -0.16086293247E+02 -0.15985592483E+02  0.45122121241E+03  0.45179075967E+03  0.00000000000E+00 0.  1.
         11    1    1    2    0    0 -0.58964620841E+01 -0.54427785846E+01 -0.41432329889E+03  0.41440099916E+03  0.00000000000E+00 0. -1.
        -15    1    1    2    0    0 -0.51347883712E+01  0.60706883403E+02  0.15518559881E+02  0.62894158504E+02  0.17770000000E+01 0. -1.
         15    1    1    2    0    0  0.27117543703E+02 -0.39278512335E+02 -0.52416473402E+02  0.70914082668E+02  0.17770000000E+01 0.  1.
</event>
<event>
 6    1  0.1782050E-003  0.4841991E+03  0.7546771E-02  0.9435876E-01
        -11   -1    0    0    0    0  0.00000000000E+00  0.00000000000E+00  0.50000000000E+03  0.50000000000E+03  0.00000000000E+00 0.  1.
         11   -1    0    0    0    0 -0.00000000000E+00 -0.00000000000E+00 -0.50000000000E+03  0.50000000000E+03  0.00000000000E+00 0.  1.
        -11    1    1    2    0    0  0.49778246012E+01 -0.55328193730E+01  0.47928310734E+03  0.47934088894E+03  0.00000000000E+00 0.  1.
         11    1    1    2    0    0  0.11895074754E+02  0.73556400891E+01 -0.48905544447E+03  0.48925537913E+03  0.00000000000E+00 0.  1.
        -15    1    1    2    0    0 -0.37280503899E+01  0.14051631869E+01  0.15865344092E+02  0.16454170154E+02  0.17770000000E+01 0. -1.
         15    1    1    2    0    0 -0.13144848965E+02 -0.32279839030E+01 -0.60930069631E+01  0.14949561774E+02  0.17770000000E+01 0.  1.
</event>
<event>
 6    1  0.1782050E-003  0.4918107E+03  0.7546771E-02  0.9418323E-01
        -11   -1    0    0    0    0  0.00000000000E+00  0.00000000000E+00  0.50000000000E+03  0.50000000000E+03  0.00000000000E+00 0. -1.
         11   -1    0    0    0    0 -0.00000000000E+00 -0.00000000000E+00 -0.50000000000E+03  0.50000000000E+03  0.00000000000E+00 0.  1.
        -11    1    1    2    0    0  0.49339152394E+01  0.47391405429E+01  0.49020282761E+03  0.49025056366E+03  0.00000000000E+00 0. -1.
         11    1    1    2    0    0  0.64613330173E+00  0.75744868047E+01 -0.49341031301E+03  0.49346887169E+03  0.00000000000E+00 0.  1.
        -15    1    1    2    0    0 -0.39172896871E+01 -0.83133034312E+01  0.57170117594E+01  0.10968050186E+02  0.17770000000E+01 0. -1.
         15    1    1    2    0    0 -0.16627588540E+01 -0.40003239164E+01 -0.25095263531E+01  0.53125144668E+01  0.17770000000E+01 0.  1.
</event>
<event>
 6    1  0.1782050E-003  0.5232792E+03  0.7546771E-02  0.9349176E-01
        -11   -1    0    0    0    0  0.00000000000E+00  0.00000000000E+00  0.50000000000E+03  0.50000000000E+03  0.00000000000E+00 0.  1.
         11   -1    0    0    0    0 -0.00000000000E+00 -0.00000000000E+00 -0.50000000000E+03  0.50000000000E+03  0.00000000000E+00 0. -1.
        -11    1    1    2    0    0  0.18246166168E+01 -0.19427679247E+02  0.42889611486E+03  0.42933977371E+03  0.00000000000E+00 0.  1.
         11    1    1    2    0    0 -0.38215904938E+01 -0.16697567085E+02 -0.47641292316E+03  0.47672076381E+03  0.00000000000E+00 0. -1.
        -15    1    1    2    0    0 -0.15416972370E+02  0.38616055328E+02  0.59478250451E+02  0.72592718450E+02  0.17770000000E+01 0.  1.
         15    1    1    2    0    0  0.17413946247E+02 -0.24908089969E+01 -0.11961442152E+02  0.21346744031E+02  0.17770000000E+01 0. -1.
</event>
<event>
 6    1  0.1782050E-003  0.5000780E+03  0.7546771E-02  0.9399635E-01
        -11   -1    0    0    0    0  0.00000000000E+00  0.00000000000E+00  0.50000000000E+03  0.50000000000E+03  0.00000000000E+00 0.  1.
         11   -1    0    0    0    0 -0.00000000000E+00 -0.00000000000E+00 -0.50000000000E+03  0.50000000000E+03  0.00000000000E+00 0. -1.
        -11    1    1    2    0    0 -0.39727720898E+01  0.68313521453E+01  0.49985953975E+03  0.49992200369E+03  0.00000000000E+00 0.  1.
         11    1    1    2    0    0  0.33862495324E+01 -0.16984284203E+01 -0.23142159859E+03  0.23145260344E+03  0.00000000000E+00 0. -1.
        -15    1    1    2    0    0  0.20912622466E+01 -0.65347483050E+01 -0.16570909670E+03  0.16586060042E+03  0.17770000000E+01 0. -1.
         15    1    1    2    0    0 -0.15047396892E+01  0.14018245800E+01 -0.10272884446E+03  0.10276479245E+03  0.17770000000E+01 0.  1.
</event>
<event>
 6    1  0.1782050E-003  0.5044831E+03  0.7546771E-02  0.9389834E-01
        -11   -1    0    0    0    0  0.00000000000E+00  0.00000000000E+00  0.50000000000E+03  0.50000000000E+03  0.00000000000E+00 0.  1.
         11   -1    0    0    0    0 -0.00000000000E+00 -0.00000000000E+00 -0.50000000000E+03  0.50000000000E+03  0.00000000000E+00 0. -1.
        -11    1    1    2    0    0 -0.88166454830E+01  0.18893177283E+02  0.25771632514E+03  0.25855829058E+03  0.00000000000E+00 0.  1.
         11    1    1    2    0    0  0.27139461429E+02  0.58676937820E+01 -0.49473829093E+03  0.49551685815E+03  0.00000000000E+00 0. -1.
        -15    1    1    2    0    0 -0.17321654935E+02 -0.40025712276E+02  0.21273386937E+03  0.21716572998E+03  0.17770000000E+01 0.  1.
         15    1    1    2    0    0 -0.10011610116E+01  0.15264841212E+02  0.24288096419E+02  0.28759121288E+02  0.17770000000E+01 0. -1.
</event>
<event>
 6    1  0.1782050E-003  0.5050528E+03  0.7546771E-02  0.9388574E-01
        -11   -1    0    0    0    0  0.00000000000E+00  0.00000000000E+00  0.50000000000E+03  0.50000000000E+03  0.00000000000E+00 0. -1.
         11   -1    0    0    0    0 -0.00000000000E+00 -0.00000000000E+00 -0.50000000000E+03  0.50000000000E+03  0.00000000000E+00 0.  1.
        -11    1    1    2    0    0 -0.72427495288E+01  0.18632316464E+01  0.48820100432E+03  0.48825828172E+03  0.00000000000E+00 0. -1.
         11    1    1    2    0    0  0.12804692902E+01 -0.10072321249E+02 -0.49484306252E+03  0.49494721716E+03  0.00000000000E+00 0.  1.
        -15    1    1    2    0    0  0.41709675384E+01  0.28383877710E+01  0.89508239096E+01  0.10427290780E+02  0.17770000000E+01 0. -1.
         15    1    1    2    0    0  0.17913127003E+01  0.53707018317E+01 -0.23087657118E+01  0.63672103364E+01  0.17770000000E+01 0. -1.
</event>
<event>
 6    1  0.1782050E-003  0.5061179E+03  0.7546771E-02  0.9386224E-01
        -11   -1    0    0    0    0  0.00000000000E+00  0.00000000000E+00  0.50000000000E+03  0.50000000000E+03  0.00000000000E+00 0. -1.
         11   -1    0    0    0    0 -0.00000000000E+00 -0.00000000000E+00 -0.50000000000E+03  0.50000000000E+03  0.00000000000E+00 0. -1.
        -11    1    1    2    0    0 -0.20329854280E+01  0.63330979928E+01  0.48114640138E+03  0.48119237392E+03  0.00000000000E+00 0. -1.
         11    1    1    2    0    0  0.99835596333E+01  0.55051698627E+01 -0.49375049265E+03  0.49388209864E+03  0.00000000000E+00 0. -1.
        -15    1    1    2    0    0 -0.11861898737E+02 -0.10784920458E+02  0.65072931735E+01  0.17393152227E+02  0.17770000000E+01 0. -1.
         15    1    1    2    0    0  0.39113245321E+01 -0.10533473971E+01  0.60967980986E+01  0.75323752156E+01  0.17770000000E+01 0.  1.
</event>
<event>
 6    1  0.1782050E-003  0.5189702E+03  0.7546771E-02  0.9358335E-01
        -11   -1    0    0    0    0  0.00000000000E+00  0.00000000000E+00  0.50000000000E+03  0.50000000000E+03  0.00000000000E+00 0. -1.
         11   -1    0    0    0    0 -0.00000000000E+00 -0.00000000000E+00 -0.50000000000E+03  0.50000000000E+03  0.00000000000E+00 0.  1.
        -11    1    1    2    0    0 -0.28601625063E+01  0.18307340040E+02  0.48067282105E+03  0.48102983289E+03  0.00000000000E+00 0. -1.
         11    1    1    2    0    0  0.39153590439E+02  0.93443083424E+01 -0.33137373237E+03  0.33380963175E+03  0.00000000000E+00 0.  1.
        -15    1    1    2    0    0 -0.11336273940E+02 -0.12491727430E+02  0.12288784176E+02  0.20945794484E+02  0.17770000000E+01 0. -1.
         15    1    1    2    0    0 -0.24957153993E+02 -0.15159920953E+02 -0.16158787286E+03  0.16421474088E+03  0.17770000000E+01 0.  1.
</event>
<event>
 6    1  0.1782050E-003  0.5548819E+03  0.7546771E-02  0.9284743E-01
        -11   -1    0    0    0    0  0.00000000000E+00  0.00000000000E+00  0.50000000000E+03  0.50000000000E+03  0.00000000000E+00 0.  1.
         11   -1    0    0    0    0 -0.00000000000E+00 -0.00000000000E+00 -0.50000000000E+03  0.50000000000E+03  0.00000000000E+00 0. -1.
        -11    1    1    2    0    0  0.15321402280E+02  0.33898287039E+02  0.34505547091E+03  0.34705491963E+03  0.00000000000E+00 0.  1.
         11    1    1    2    0    0  0.10582382768E+02 -0.12931726751E+02 -0.44480432964E+03  0.44511808327E+03  0.00000000000E+00 0. -1.
        -15    1    1    2    0    0  0.47868995018E+01 -0.19690203611E+02  0.14865871714E+03  0.15004396168E+03  0.17770000000E+01 0.  1.
         15    1    1    2    0    0 -0.30690684549E+02 -0.12763566775E+01 -0.48909858409E+02  0.57783035426E+02  0.17770000000E+01 0. -1.
</event>
<event>
 6    1  0.1782050E-003  0.5004942E+03  0.7546771E-02  0.9398704E-01
        -11   -1    0    0    0    0  0.00000000000E+00  0.00000000000E+00  0.50000000000E+03  0.50000000000E+03  0.00000000000E+00 0.  1.
         11   -1    0    0    0    0 -0.00000000000E+00 -0.00000000000E+00 -0.50000000000E+03  0.50000000000E+03  0.00000000000E+00 0.  1.
        -11    1    1    2    0    0  0.37696278238E+00  0.46283891054E+01  0.23636110610E+03  0.23640671852E+03  0.00000000000E+00 0.  1.
         11    1    1    2    0    0  0.11261477171E+02  0.11650459332E+02 -0.49924287052E+03  0.49950575356E+03  0.00000000000E+00 0.  1.
        -15    1    1    2    0    0  0.15086568597E+01 -0.10222881059E+02  0.12382058376E+03  0.12426374384E+03  0.17770000000E+01 0. -1.
         15    1    1    2    0    0 -0.13147096813E+02 -0.60559673780E+01  0.13906118067E+03  0.13982378407E+03  0.17770000000E+01 0.  1.
</event>
<event>
 6    1  0.1782050E-003  0.4944044E+03  0.7546771E-02  0.9412418E-01
        -11   -1    0    0    0    0  0.00000000000E+00  0.00000000000E+00  0.50000000000E+03  0.50000000000E+03  0.00000000000E+00 0. -1.
         11   -1    0    0    0    0 -0.00000000000E+00 -0.00000000000E+00 -0.50000000000E+03  0.50000000000E+03  0.00000000000E+00 0.  1.
        -11    1    1    2    0    0 -0.43894536881E+00  0.24306914820E+00  0.12420935034E+02  0.12431065230E+02  0.00000000000E+00 0. -1.
         11    1    1    2    0    0  0.14385228826E+02  0.32046328584E+02 -0.49807295861E+03  0.49931009812E+03  0.00000000000E+00 0.  1.
        -15    1    1    2    0    0  0.26407807442E+01  0.66052252382E+01  0.10651872248E+03  0.10677077639E+03  0.17770000000E+01 0.  1.
         15    1    1    2    0    0 -0.16587064201E+02 -0.38894622970E+02  0.37913330110E+03  0.38148806027E+03  0.17770000000E+01 0. -1.
</event>
<event>
 6    1  0.1782050E-003  0.5063429E+03  0.7546771E-02  0.9385728E-01
        -11   -1    0    0    0    0  0.00000000000E+00  0.00000000000E+00  0.50000000000E+03  0.50000000000E+03  0.00000000000E+00 0. -1.
         11   -1    0    0    0    0 -0.00000000000E+00 -0.00000000000E+00 -0.50000000000E+03  0.50000000000E+03  0.00000000000E+00 0.  1.
        -11    1    1    2    0    0  0.63225681021E+01 -0.39531440559E+01  0.49360077143E+03  0.49365709129E+03  0.00000000000E+00 0. -1.
         11    1    1    2    0    0  0.18148380074E+02  0.24152586723E+02 -0.33678807863E+03  0.33814038660E+03  0.00000000000E+00 0.  1.
        -15    1    1    2    0    0 -0.19014763446E+02 -0.37604738088E+02 -0.10080144975E+03  0.10926924341E+03  0.17770000000E+01 0.  1.
         15    1    1    2    0    0 -0.54561847301E+01  0.17405295421E+02 -0.56011243061E+02  0.58933278704E+02  0.17770000000E+01 0. -1.
</event>
<event>
 6    1  0.1782050E-003  0.5019418E+03  0.7546771E-02  0.9395475E-01
        -11   -1    0    0    0    0  0.00000000000E+00  0.00000000000E+00  0.50000000000E+03  0.50000000000E+03  0.00000000000E+00 0. -1.
         11   -1    0    0    0    0 -0.00000000000E+00 -0.00000000000E+00 -0.50000000000E+03  0.50000000000E+03  0.00000000000E+00 0.  1.
        -11    1    1    2    0    0 -0.37479397117E+02  0.22135668133E+02  0.49615244110E+03  0.49805816711E+03  0.00000000000E+00 0. -1.
         11    1    1    2    0    0 -0.78630173174E+01 -0.57575375863E+01 -0.19814878219E+03  0.19838829644E+03  0.00000000000E+00 0.  1.
        -15    1    1    2    0    0  0.24540457083E+02  0.77341694097E+01 -0.12469039658E+03  0.12732990277E+03  0.17770000000E+01 0. -1.
         15    1    1    2    0    0  0.20801957351E+02 -0.24112299957E+02 -0.17331326234E+03  0.17622363368E+03  0.17770000000E+01 0.  1.
</event>
<event>
 6    1  0.1782050E-003  0.5012748E+03  0.7546771E-02  0.9396962E-01
        -11   -1    0    0    0    0  0.00000000000E+00  0.00000000000E+00  0.50000000000E+03  0.50000000000E+03  0.00000000000E+00 0.  1.
         11   -1    0    0    0    0 -0.00000000000E+00 -0.00000000000E+00 -0.50000000000E+03  0.50000000000E+03  0.00000000000E+00 0. -1.
        -11    1    1    2    0    0  0.31018794518E+01  0.75338751248E+01  0.49865869312E+03  0.49872524816E+03  0.00000000000E+00 0.  1.
         11    1    1    2    0    0 -0.19044777755E+01 -0.57886554078E+01 -0.45218585071E+03  0.45222691113E+03  0.00000000000E+00 0. -1.
        -15    1    1    2    0    0 -0.20811581117E+01 -0.44050201403E+01 -0.42779620069E+01  0.67226564285E+01  0.17770000000E+01 0. -1.
         15    1    1    2    0    0  0.88375643535E+00  0.26598004233E+01 -0.42194880403E+02  0.42325184288E+02  0.17770000000E+01 0. -1.
</event>
<event>
 6    1  0.1782050E-003  0.5168698E+03  0.7546771E-02  0.9362834E-01
        -11   -1    0    0    0    0  0.00000000000E+00  0.00000000000E+00  0.50000000000E+03  0.50000000000E+03  0.00000000000E+00 0.  1.
         11   -1    0    0    0    0 -0.00000000000E+00 -0.00000000000E+00 -0.50000000000E+03  0.50000000000E+03  0.00000000000E+00 0.  1.
        -11    1    1    2    0    0  0.11771235940E+02  0.12556803143E+01  0.48298515919E+03  0.48313021301E+03  0.00000000000E+00 0.  1.
         11    1    1    2    0    0 -0.53053061840E+01 -0.48725012337E+01 -0.36789158849E+03  0.36796210189E+03  0.00000000000E+00 0.  1.
        -15    1    1    2    0    0 -0.21203122367E+01  0.11922949025E+02 -0.13034461039E+03  0.13091801872E+03  0.17770000000E+01 0. -1.
         15    1    1    2    0    0 -0.43456175197E+01 -0.83061281057E+01  0.15251039700E+02  0.17989666385E+02  0.17770000000E+01 0.  1.
</event>
<event>
 6    1  0.1782050E-003  0.5014755E+03  0.7546771E-02  0.9396514E-01
        -11   -1    0    0    0    0  0.00000000000E+00  0.00000000000E+00  0.50000000000E+03  0.50000000000E+03  0.00000000000E+00 0.  1.
         11   -1    0    0    0    0 -0.00000000000E+00 -0.00000000000E+00 -0.50000000000E+03  0.50000000000E+03  0.00000000000E+00 0.  1.
        -11    1    1    2    0    0 -0.11290013775E+02 -0.14797866002E+02  0.49817689706E+03  0.49852448487E+03  0.00000000000E+00 0.  1.
         11    1    1    2    0    0  0.13745674031E+01 -0.11644134280E+01 -0.13200544633E+03  0.13201773803E+03  0.00000000000E+00 0.  1.
        -15    1    1    2    0    0  0.12617209640E+02  0.55052591812E+01 -0.29435119538E+02  0.32543599201E+02  0.17770000000E+01 0. -1.
         15    1    1    2    0    0 -0.27017632675E+01  0.10457020249E+02 -0.33673633119E+03  0.33691417790E+03  0.17770000000E+01 0.  1.
</event>
<event>
 6    1  0.1782050E-003  0.5044214E+03  0.7546771E-02  0.9389971E-01
        -11   -1    0    0    0    0  0.00000000000E+00  0.00000000000E+00  0.50000000000E+03  0.50000000000E+03  0.00000000000E+00 0.  1.
         11   -1    0    0    0    0 -0.00000000000E+00 -0.00000000000E+00 -0.50000000000E+03  0.50000000000E+03  0.00000000000E+00 0.  1.
        -11    1    1    2    0    0  0.52199649327E+00  0.11163202596E+02  0.49545261784E+03  0.49557863765E+03  0.00000000000E+00 0.  1.
         11    1    1    2    0    0  0.29885243135E+00  0.52335273395E+01 -0.31487106926E+03  0.31491470175E+03  0.00000000000E+00 0.  1.
        -15    1    1    2    0    0  0.18057388041E+02 -0.13097994796E+02 -0.15909251275E+03  0.16065868191E+03  0.17770000000E+01 0. -1.
         15    1    1    2    0    0 -0.18878236966E+02 -0.32987351388E+01 -0.21489035830E+02  0.28847978687E+02  0.17770000000E+01 0.  1.
</event>
<event>
 6    1  0.1782050E-003  0.4827122E+03  0.7546771E-02  0.9439346E-01
        -11   -1    0    0    0    0  0.00000000000E+00  0.00000000000E+00  0.50000000000E+03  0.50000000000E+03  0.00000000000E+00 0. -1.
         11   -1    0    0    0    0 -0.00000000000E+00 -0.00000000000E+00 -0.50000000000E+03  0.50000000000E+03  0.00000000000E+00 0. -1.
        -11    1    1    2    0    0  0.95927635215E+01  0.29887807736E+01  0.48117054734E+03  0.48127544042E+03  0.00000000000E+00 0. -1.
         11    1    1    2    0    0  0.82136697357E+01 -0.17489059690E+02 -0.48404083286E+03  0.48442631995E+03  0.00000000000E+00 0. -1.
        -15    1    1    2    0    0 -0.15925495103E+02  0.11515069433E+02 -0.90729845613E+01  0.21718540378E+02  0.17770000000E+01 0.  1.
         15    1    1    2    0    0 -0.18809381541E+01  0.29852094838E+01  0.11943270084E+02  0.12579699253E+02  0.17770000000E+01 0. -1.
</event>
<event>
 6    1  0.1782050E-003  0.4402164E+03  0.7546771E-02  0.9544511E-01
        -11   -1    0    0    0    0  0.00000000000E+00  0.00000000000E+00  0.50000000000E+03  0.50000000000E+03  0.00000000000E+00 0.  1.
         11   -1    0    0    0    0 -0.00000000000E+00 -0.00000000000E+00 -0.50000000000E+03  0.50000000000E+03  0.00000000000E+00 0.  1.
        -11    1    1    2    0    0  0.48097607709E+02 -0.42066565035E+01  0.43964483807E+03  0.44228798251E+03  0.00000000000E+00 0.  1.
         11    1    1    2    0    0  0.61104486770E+01 -0.13897364280E+01 -0.43978513808E+03  0.43982978142E+03  0.00000000000E+00 0.  1.
        -15    1    1    2    0    0 -0.61694550307E+02 -0.17112917801E+00  0.42180075578E+02  0.74756694199E+02  0.17770000000E+01 0.  1.
         15    1    1    2    0    0  0.74864939210E+01  0.57675221095E+01 -0.42039775570E+02  0.43125541869E+02  0.17770000000E+01 0. -1.
</event>
<event>
 6    1  0.1782050E-003  0.4920064E+03  0.7546771E-02  0.9417876E-01
        -11   -1    0    0    0    0  0.00000000000E+00  0.00000000000E+00  0.50000000000E+03  0.50000000000E+03  0.00000000000E+00 0.  1.
         11   -1    0    0    0    0 -0.00000000000E+00 -0.00000000000E+00 -0.50000000000E+03  0.50000000000E+03  0.00000000000E+00 0.  1.
        -11    1    1    2    0    0  0.17132322099E+02  0.36421824075E+01  0.49173530854E+03  0.49204714776E+03  0.00000000000E+00 0.  1.
         11    1    1    2    0    0 -0.69705366379E+01  0.90342396636E+00 -0.49197834431E+03  0.49202855184E+03  0.00000000000E+00 0.  1.
        -15    1    1    2    0    0 -0.11056901852E+02 -0.32000356296E+01  0.32345394353E+01  0.12087815392E+02  0.17770000000E+01 0. -1.
         15    1    1    2    0    0  0.89511639112E+00 -0.13455707443E+01 -0.29915036687E+01  0.38364850034E+01  0.17770000000E+01 0.  1.
</event>
<event>
 6    1  0.1782050E-003  0.5015725E+03  0.7546771E-02  0.9396298E-01
        -11   -1    0    0    0    0  0.00000000000E+00  0.00000000000E+00  0.50000000000E+03  0.50000000000E+03  0.00000000000E+00 0.  1.
         11   -1    0    0    0    0 -0.00000000000E+00 -0.00000000000E+00 -0.50000000000E+03  0.50000000000E+03  0.00000000000E+00 0.  1.
        -11    1    1    2    0    0 -0.72507430608E+01  0.65642484543E+01  0.46659620990E+03  0.46669870980E+03  0.00000000000E+00 0.  1.
         11    1    1    2    0    0  0.31035670585E+01 -0.78420373351E+01 -0.49835617494E+03  0.49842753413E+03  0.00000000000E+00 0.  1.
        -15    1    1    2    0    0 -0.19575099401E+01  0.21591856700E+01  0.26080669099E+02  0.26303097870E+02  0.17770000000E+01 0. -1.
         15    1    1    2    0    0  0.61046859424E+01 -0.88139678917E+00  0.56792959365E+01  0.85706582063E+01  0.17770000000E+01 0. -1.
</event>
<event>
 6    1  0.1782050E-003  0.4875698E+03  0.7546771E-02  0.9428061E-01
        -11   -1    0    0    0    0  0.00000000000E+00  0.00000000000E+00  0.50000000000E+03  0.50000000000E+03  0.00000000000E+00 0.  1.
         11   -1    0    0    0    0 -0.00000000000E+00 -0.00000000000E+00 -0.50000000000E+03  0.50000000000E+03  0.00000000000E+00 0.  1.
        -11    1    1    2    0    0 -0.46833111561E+01  0.66516649916E+01  0.48888827622E+03  0.48895595371E+03  0.00000000000E+00 0.  1.
         11    1    1    2    0    0 -0.11091370146E+01 -0.15200643071E+02 -0.48600363407E+03  0.48624255476E+03  0.00000000000E+00 0.  1.
        -15    1    1    2    0    0 -0.13325418080E+01  0.62793528498E+01  0.86644180452E+01  0.10928669130E+02  0.17770000000E+01 0. -1.
         15    1    1    2    0    0  0.71249899787E+01  0.22696252295E+01 -0.11549060190E+02  0.13872822393E+02  0.17770000000E+01 0.  1.
</event>
<event>
 6    1  0.1782050E-003  0.5223290E+03  0.7546771E-02  0.9351188E-01
        -11   -1    0    0    0    0  0.00000000000E+00  0.00000000000E+00  0.50000000000E+03  0.50000000000E+03  0.00000000000E+00 0.  1.
         11   -1    0    0    0    0 -0.00000000000E+00 -0.00000000000E+00 -0.50000000000E+03  0.50000000000E+03  0.00000000000E+00 0. -1.
        -11    1    1    2    0    0 -0.39312880901E+02  0.39138661658E+01  0.38200829386E+03  0.38404577530E+03  0.00000000000E+00 0.  1.
         11    1    1    2    0    0  0.69773446383E+01 -0.34640627889E+01 -0.47760750605E+03  0.47767103000E+03  0.00000000000E+00 0. -1.
        -15    1    1    2    0    0 -0.74929314849E+01  0.32191359873E+01 -0.16912735152E+02  0.18860148411E+02  0.17770000000E+01 0. -1.
         15    1    1    2    0    0  0.39828467748E+02 -0.36689393642E+01  0.11251194735E+03  0.11942304628E+03  0.17770000000E+01 0. -1.
</event>
<event>
 6    1  0.1782050E-003  0.5055757E+03  0.7546771E-02  0.9387419E-01
        -11   -1    0    0    0    0  0.00000000000E+00  0.00000000000E+00  0.50000000000E+03  0.50000000000E+03  0.00000000000E+00 0. -1.
         11   -1    0    0    0    0 -0.00000000000E+00 -0.00000000000E+00 -0.50000000000E+03  0.50000000000E+03  0.00000000000E+00 0. -1.
        -11    1    1    2    0    0 -0.11305255941E+00 -0.74721787289E+01  0.49436779251E+03  0.49442427176E+03  0.00000000000E+00 0. -1.
         11    1    1    2    0    0 -0.19077720635E+02 -0.83473004535E+00 -0.47550262193E+03  0.47588591034E+03  0.00000000000E+00 0. -1.
        -15    1    1    2    0    0  0.51133989791E+01  0.32498054222E+01 -0.11186203652E+01  0.64122636349E+01  0.17770000000E+01 0. -1.
         15    1    1    2    0    0  0.14077374215E+02  0.50571033521E+01 -0.17746550212E+02  0.23277554265E+02  0.17770000000E+01 0.  1.
</event>
<event>
 6    1  0.1782050E-003  0.5045658E+03  0.7546771E-02  0.9389651E-01
        -11   -1    0    0    0    0  0.00000000000E+00  0.00000000000E+00  0.50000000000E+03  0.50000000000E+03  0.00000000000E+00 0. -1.
         11   -1    0    0    0    0 -0.00000000000E+00 -0.00000000000E+00 -0.50000000000E+03  0.50000000000E+03  0.00000000000E+00 0. -1.
        -11    1    1    2    0    0 -0.76731856956E+01  0.16274231205E+02  0.43599976745E+03  0.43637085787E+03  0.00000000000E+00 0. -1.
         11    1    1    2    0    0  0.73960312018E+01 -0.11576505066E+01 -0.49537760540E+03  0.49543416653E+03  0.00000000000E+00 0. -1.
        -15    1    1    2    0    0 -0.44088777955E+01 -0.44733938690E+01 -0.10686888847E+01  0.66143239303E+01  0.17770000000E+01 0. -1.
         15    1    1    2    0    0  0.46860322894E+01 -0.10643186830E+02  0.60446526837E+02  0.61580651670E+02  0.17770000000E+01 0.  1.
</event>
<event>
 6    1  0.1782050E-003  0.5072415E+03  0.7546771E-02  0.9383750E-01
        -11   -1    0    0    0    0  0.00000000000E+00  0.00000000000E+00  0.50000000000E+03  0.50000000000E+03  0.00000000000E+00 0. -1.
         11   -1    0    0    0    0 -0.00000000000E+00 -0.00000000000E+00 -0.50000000000E+03  0.50000000000E+03  0.00000000000E+00 0. -1.
        -11    1    1    2    0    0  0.13858384079E+02  0.15251445143E+02  0.49232737223E+03  0.49275846297E+03  0.00000000000E+00 0. -1.
         11    1    1    2    0    0  0.82075924920E+01  0.15898782554E+01 -0.36679757267E+03  0.36689283395E+03  0.00000000000E+00 0. -1.
        -15    1    1    2    0    0 -0.16146954212E+02 -0.12436227405E+02 -0.70691514760E+01  0.21645196095E+02  0.17770000000E+01 0. -1.
         15    1    1    2    0    0 -0.59190223590E+01 -0.44050959930E+01 -0.11846064808E+03  0.11870350698E+03  0.17770000000E+01 0.  1.
</event>
<event>
 6    1  0.1782050E-003  0.5116587E+03  0.7546771E-02  0.9374094E-01
        -11   -1    0    0    0    0  0.00000000000E+00  0.00000000000E+00  0.50000000000E+03  0.50000000000E+03  0.00000000000E+00 0. -1.
         11   -1    0    0    0    0 -0.00000000000E+00 -0.00000000000E+00 -0.50000000000E+03  0.50000000000E+03  0.00000000000E+00 0. -1.
        -11    1    1    2    0    0 -0.84688081070E+01  0.14581033556E+02  0.47396026467E+03  0.47426011822E+03  0.00000000000E+00 0. -1.
         11    1    1    2    0    0 -0.41745613129E+00 -0.75174347642E+01 -0.48828329434E+03  0.48834133721E+03  0.00000000000E+00 0. -1.
        -15    1    1    2    0    0  0.11606008181E+01 -0.90171481939E+01 -0.88608342325E+01  0.12819050983E+02  0.17770000000E+01 0. -1.
         15    1    1    2    0    0  0.77256634202E+01  0.19535494018E+01  0.23183863907E+02  0.24579493591E+02  0.17770000000E+01 0.  1.
</event>
<event>
 6    1  0.1782050E-003  0.5018357E+03  0.7546771E-02  0.9395712E-01
        -11   -1    0    0    0    0  0.00000000000E+00  0.00000000000E+00  0.50000000000E+03  0.50000000000E+03  0.00000000000E+00 0.  1.
         11   -1    0    0    0    0 -0.00000000000E+00 -0.00000000000E+00 -0.50000000000E+03  0.50000000000E+03  0.00000000000E+00 0.  1.
        -11    1    1    2    0    0  0.62176141591E+01 -0.41179731279E-01  0.45379037984E+03  0.45383297506E+03  0.00000000000E+00 0.  1.
         11    1    1    2    0    0 -0.33303586400E+01 -0.12402215875E+02 -0.49799879433E+03  0.49816433574E+03  0.00000000000E+00 0.  1.
        -15    1    1    2    0    0 -0.80324820619E+01  0.66879925445E+01  0.21946214838E+02  0.24373019654E+02  0.17770000000E+01 0. -1.
         15    1    1    2    0    0  0.51452265428E+01  0.57554030615E+01  0.22262199650E+02  0.23629669546E+02  0.17770000000E+01 0.  1.
</event>
<event>
 6    1  0.1782050E-003  0.5145422E+03  0.7546771E-02  0.9367846E-01
        -11   -1    0    0    0    0  0.00000000000E+00  0.00000000000E+00  0.50000000000E+03  0.50000000000E+03  0.00000000000E+00 0. -1.
         11   -1    0    0    0    0 -0.00000000000E+00 -0.00000000000E+00 -0.50000000000E+03  0.50000000000E+03  0.00000000000E+00 0.  1.
        -11    1    1    2    0    0  0.48086107164E+01 -0.57314058345E+01  0.44573780116E+03  0.44580058225E+03  0.00000000000E+00 0. -1.
         11    1    1    2    0    0  0.99483720783E+01  0.20261750329E+02 -0.48493274829E+03  0.48545780352E+03  0.00000000000E+00 0.  1.
        -15    1    1    2    0    0 -0.33807456578E+01  0.15494493290E+00  0.47968814959E+02  0.48120872672E+02  0.17770000000E+01 0.  1.
         15    1    1    2    0    0 -0.11376237137E+02 -0.14685289427E+02 -0.87738678227E+01  0.20620741561E+02  0.17770000000E+01 0. -1.
</event>
<event>
 6    1  0.1782050E-003  0.5009205E+03  0.7546771E-02  0.9397752E-01
        -11   -1    0    0    0    0  0.00000000000E+00  0.00000000000E+00  0.50000000000E+03  0.50000000000E+03  0.00000000000E+00 0. -1.
         11   -1    0    0    0    0 -0.00000000000E+00 -0.00000000000E+00 -0.50000000000E+03  0.50000000000E+03  0.00000000000E+00 0.  1.
        -11    1    1    2    0    0  0.71726284992E+01 -0.20216870946E+00  0.38112956821E+03  0.38119710812E+03  0.00000000000E+00 0. -1.
         11    1    1    2    0    0  0.64714685703E+01  0.85488880934E+01 -0.49896428659E+03  0.49907947532E+03  0.00000000000E+00 0.  1.
        -15    1    1    2    0    0 -0.11003408202E+02 -0.89642723937E+01  0.55802037782E+02  0.57606061498E+02  0.17770000000E+01 0.  1.
         15    1    1    2    0    0 -0.26406888679E+01  0.61755300978E+00  0.62032680594E+02  0.62117355064E+02  0.17770000000E+01 0. -1.
</event>
<event>
 6    1  0.1782050E-003  0.5010853E+03  0.7546771E-02  0.9397385E-01
        -11   -1    0    0    0    0  0.00000000000E+00  0.00000000000E+00  0.50000000000E+03  0.50000000000E+03  0.00000000000E+00 0. -1.
         11   -1    0    0    0    0 -0.00000000000E+00 -0.00000000000E+00 -0.50000000000E+03  0.50000000000E+03  0.00000000000E+00 0. -1.
        -11    1    1    2    0    0 -0.11851932320E+00  0.41614623782E+01  0.15971708101E+03  0.15977132966E+03  0.00000000000E+00 0. -1.
         11    1    1    2    0    0 -0.80361401968E+01  0.80738845463E+01 -0.49878465954E+03  0.49891472593E+03  0.00000000000E+00 0. -1.
        -15    1    1    2    0    0  0.79890119996E+00 -0.68901577235E+01  0.11059714227E+02  0.13175261833E+02  0.17770000000E+01 0.  1.
         15    1    1    2    0    0  0.73557583201E+01 -0.53451892010E+01  0.32800786430E+03  0.32813868257E+03  0.17770000000E+01 0. -1.
</event>
<event>
 6    1  0.1782050E-003  0.5017795E+03  0.7546771E-02  0.9395837E-01
        -11   -1    0    0    0    0  0.00000000000E+00  0.00000000000E+00  0.50000000000E+03  0.50000000000E+03  0.00000000000E+00 0.  1.
         11   -1    0    0    0    0 -0.00000000000E+00 -0.00000000000E+00 -0.50000000000E+03  0.50000000000E+03  0.00000000000E+00 0.  1.
        -11    1    1    2    0    0 -0.16553420228E+01  0.66070589734E+01  0.40189257095E+03  0.40195028544E+03  0.00000000000E+00 0.  1.
         11    1    1    2    0    0  0.91650537448E+01  0.70918015675E+01 -0.49808574626E+03  0.49822053600E+03  0.00000000000E+00 0.  1.
        -15    1    1    2    0    0  0.52852372678E+01 -0.24153628441E+00  0.84623530706E+01  0.10137120954E+02  0.17770000000E+01 0. -1.
         15    1    1    2    0    0 -0.12794948990E+02 -0.13457324256E+02  0.87730822249E+02  0.89692057604E+02  0.17770000000E+01 0.  1.
</event>
<event>
 6    1  0.1782050E-003  0.5016797E+03  0.7546771E-02  0.9396059E-01
        -11   -1    0    0    0    0  0.00000000000E+00  0.00000000000E+00  0.50000000000E+03  0.50000000000E+03  0.00000000000E+00 0. -1.
         11   -1    0    0    0    0 -0.00000000000E+00 -0.00000000000E+00 -0.50000000000E+03  0.50000000000E+03  0.00000000000E+00 0.  1.
        -11    1    1    2    0    0  0.96822838684E+01 -0.45691945394E+01  0.31520607181E+03  0.31538784356E+03  0.00000000000E+00 0. -1.
         11    1    1    2    0    0  0.93919738328E+01 -0.68866740177E+01 -0.49818419361E+03  0.49832030484E+03  0.00000000000E+00 0.  1.
        -15    1    1    2    0    0 -0.19880497230E+02  0.38786437443E+01  0.66208808959E+02  0.69260682643E+02  0.17770000000E+01 0.  1.
         15    1    1    2    0    0  0.80623952871E+00  0.75772248128E+01  0.11676931284E+03  0.11703116896E+03  0.17770000000E+01 0. -1.
</event>
<event>
 6    1  0.1782050E-003  0.5019751E+03  0.7546771E-02  0.9395401E-01
        -11   -1    0    0    0    0  0.00000000000E+00  0.00000000000E+00  0.50000000000E+03  0.50000000000E+03  0.00000000000E+00 0.  1.
         11   -1    0    0    0    0 -0.00000000000E+00 -0.00000000000E+00 -0.50000000000E+03  0.50000000000E+03  0.00000000000E+00 0.  1.
        -11    1    1    2    0    0 -0.90755264384E+01 -0.44323066844E+01  0.25082874667E+03  0.25103201126E+03  0.00000000000E+00 0.  1.
         11    1    1    2    0    0  0.20576435200E+02 -0.20270017902E+01 -0.49759551370E+03  0.49802489262E+03  0.00000000000E+00 0.  1.
        -15    1    1    2    0    0 -0.21278581253E+02  0.60988424866E+01  0.23246828826E+03  0.23352652242E+03  0.17770000000E+01 0. -1.
         15    1    1    2    0    0  0.97776724912E+01  0.36046598798E+00  0.14298478766E+02  0.17416573690E+02  0.17770000000E+01 0.  1.
</event>
<event>
 6    1  0.1782050E-003  0.5190185E+03  0.7546771E-02  0.9358232E-01
        -11   -1    0    0    0    0  0.00000000000E+00  0.00000000000E+00  0.50000000000E+03  0.50000000000E+03  0.00000000000E+00 0. -1.
         11   -1    0    0    0    0 -0.00000000000E+00 -0.00000000000E+00 -0.50000000000E+03  0.50000000000E+03  0.00000000000E+00 0.  1.
        -11    1    1    2    0    0 -0.28286759432E+02  0.23712495928E+02  0.47956311969E+03  0.48098150587E+03  0.00000000000E+00 0. -1.
         11    1    1    2    0    0 -0.87183148610E+01 -0.15012836584E+02 -0.42225156567E+03  0.42260830445E+03  0.00000000000E+00 0.  1.
        -15    1    1    2    0    0  0.98354770254E+01  0.15364262590E+01  0.15214435002E+02  0.18268387323E+02  0.17770000000E+01 0. -1.
         15    1    1    2    0    0  0.27169597267E+02 -0.10236085602E+02 -0.72525989018E+02  0.78141802361E+02  0.17770000000E+01 0.  1.
</event>
<event>
 6    1  0.1782050E-003  0.5119171E+03  0.7546771E-02  0.9373532E-01
        -11   -1    0    0    0    0  0.00000000000E+00  0.00000000000E+00  0.50000000000E+03  0.50000000000E+03  0.00000000000E+00 0. -1.
         11   -1    0    0    0    0 -0.00000000000E+00 -0.00000000000E+00 -0.50000000000E+03  0.50000000000E+03  0.00000000000E+00 0.  1.
        -11    1    1    2    0    0  0.22734180268E+02  0.11351461970E+02  0.46170574187E+03  0.46240446658E+03  0.00000000000E+00 0. -1.
         11    1    1    2    0    0  0.82021511744E+01  0.33573501209E+00 -0.48801389648E+03  0.48808293471E+03  0.00000000000E+00 0.  1.
        -15    1    1    2    0    0 -0.54936034595E+01 -0.10335215821E+02  0.19940882585E+02  0.23190362057E+02  0.17770000000E+01 0.  1.
         15    1    1    2    0    0 -0.25442727983E+02 -0.13519811611E+01  0.63672720242E+01  0.26322236651E+02  0.17770000000E+01 0. -1.
</event>
<event>
 6    1  0.1782050E-003  0.4724145E+03  0.7546771E-02  0.9463742E-01
        -11   -1    0    0    0    0  0.00000000000E+00  0.00000000000E+00  0.50000000000E+03  0.50000000000E+03  0.00000000000E+00 0. -1.
         11   -1    0    0    0    0 -0.00000000000E+00 -0.00000000000E+00 -0.50000000000E+03  0.50000000000E+03  0.00000000000E+00 0.  1.
        -11    1    1    2    0    0  0.81336314355E+01  0.44895194228E+01  0.47768825887E+03  0.47777859350E+03  0.00000000000E+00 0. -1.
         11    1    1    2    0    0  0.19409995214E+02 -0.19761887540E+01 -0.46710699142E+03  0.46751427216E+03  0.00000000000E+00 0.  1.
        -15    1    1    2    0    0 -0.98842907543E+01  0.79302210722E+01 -0.26002011214E+02  0.28980164356E+02  0.17770000000E+01 0. -1.
         15    1    1    2    0    0 -0.17659335895E+02 -0.10443551741E+02  0.15420743770E+02  0.25726969986E+02  0.17770000000E+01 0.  1.
</event>
<event>
 6    1  0.1782050E-003  0.5089269E+03  0.7546771E-02  0.9380054E-01
        -11   -1    0    0    0    0  0.00000000000E+00  0.00000000000E+00  0.50000000000E+03  0.50000000000E+03  0.00000000000E+00 0.  1.
         11   -1    0    0    0    0 -0.00000000000E+00 -0.00000000000E+00 -0.50000000000E+03  0.50000000000E+03  0.00000000000E+00 0. -1.
        -11    1    1    2    0    0 -0.11956693306E+02  0.72449303993E+01  0.45146439665E+03  0.45168080873E+03  0.00000000000E+00 0.  1.
         11    1    1    2    0    0  0.14161691248E+02 -0.38581918925E+01 -0.49085367914E+03  0.49107308363E+03  0.00000000000E+00 0. -1.
        -15    1    1    2    0    0  0.91616913261E+01 -0.92145045599E+01  0.42076049247E+02  0.44072614303E+02  0.17770000000E+01 0. -1.
         15    1    1    2    0    0 -0.11366689269E+02  0.58277660531E+01 -0.26867667557E+01  0.13173493337E+02  0.17770000000E+01 0.  1.
</event>
<event>
 6    1  0.1782050E-003  0.4856446E+03  0.7546771E-02  0.9432516E-01
        -11   -1    0    0    0    0  0.00000000000E+00  0.00000000000E+00  0.50000000000E+03  0.50000000000E+03  0.00000000000E+00 0. -1.
         11   -1    0    0    0    0 -0.00000000000E+00 -0.00000000000E+00 -0.50000000000E+03  0.50000000000E+03  0.00000000000E+00 0.  1.
        -11    1    1    2    0    0  0.90466274980E+01 -0.84221906805E+00  0.48955929326E+03  0.48964359735E+03  0.00000000000E+00 0. -1.
         11    1    1    2    0    0 -0.12275069159E+02  0.16310245488E+02 -0.48137604749E+03  0.48180867626E+03  0.00000000000E+00 0.  1.
        -15    1    1    2    0    0  0.12081252194E+02 -0.13284032703E+02 -0.58646819100E+01  0.18972991391E+02  0.17770000000E+01 0. -1.
         15    1    1    2    0    0 -0.88528105330E+01 -0.21839937166E+01 -0.23185638669E+01  0.95747349986E+01  0.17770000000E+01 0.  1.
</event>
<event>
 6    1  0.1782050E-003  0.5369216E+03  0.7546771E-02  0.9320785E-01
        -11   -1    0    0    0    0  0.00000000000E+00  0.00000000000E+00  0.50000000000E+03  0.50000000000E+03  0.00000000000E+00 0.  1.
         11   -1    0    0    0    0 -0.00000000000E+00 -0.00000000000E+00 -0.50000000000E+03  0.50000000000E+03  0.00000000000E+00 0.  1.
        -11    1    1    2    0    0  0.15520880358E+02  0.48561422692E+02  0.46026355402E+03  0.46307844763E+03  0.00000000000E+00 0.  1.
         11    1    1    2    0    0 -0.22505953959E+02 -0.59449163057E+01 -0.41571859201E+03  0.41636979686E+03  0.00000000000E+00 0.  1.
        -15    1    1    2    0    0  0.20499712571E+02 -0.42288019414E+02  0.22500478804E+02  0.52133905252E+02  0.17770000000E+01 0.  1.
         15    1    1    2    0    0 -0.13514638970E+02 -0.32848697235E+00 -0.67045440812E+02  0.68417850250E+02  0.17770000000E+01 0. -1.
</event>
<event>
 6    1  0.1782050E-003  0.5031757E+03  0.7546771E-02  0.9392732E-01
        -11   -1    0    0    0    0  0.00000000000E+00  0.00000000000E+00  0.50000000000E+03  0.50000000000E+03  0.00000000000E+00 0.  1.
         11   -1    0    0    0    0 -0.00000000000E+00 -0.00000000000E+00 -0.50000000000E+03  0.50000000000E+03  0.00000000000E+00 0.  1.
        -11    1    1    2    0    0 -0.26297087424E+01 -0.93846891893E+01  0.49672873795E+03  0.49682434206E+03  0.00000000000E+00 0.  1.
         11    1    1    2    0    0 -0.11869741109E+01 -0.63368144425E+01 -0.46358380013E+03  0.46362862710E+03  0.00000000000E+00 0.  1.
        -15    1    1    2    0    0  0.54574537149E+01  0.74810470302E-01 -0.88946877873E+01  0.10585962285E+02  0.17770000000E+01 0.  1.
         15    1    1    2    0    0 -0.16407708616E+01  0.15646693161E+02 -0.24250250038E+02  0.28961068555E+02  0.17770000000E+01 0. -1.
</event>
<event>
 6    1  0.1782050E-003  0.5115144E+03  0.7546771E-02  0.9374408E-01
        -11   -1    0    0    0    0  0.00000000000E+00  0.00000000000E+00  0.50000000000E+03  0.50000000000E+03  0.00000000000E+00 0. -1.
         11   -1    0    0    0    0 -0.00000000000E+00 -0.00000000000E+00 -0.50000000000E+03  0.50000000000E+03  0.00000000000E+00 0.  1.
        -11    1    1    2    0    0  0.12525325236E+02 -0.82942031882E+01  0.48825451197E+03  0.48848556380E+03  0.00000000000E+00 0. -1.
         11    1    1    2    0    0  0.79189223505E+01  0.13692395834E+01 -0.34617100214E+03  0.34626427317E+03  0.00000000000E+00 0.  1.
        -15    1    1    2    0    0 -0.31062951714E+02  0.39005806912E+02 -0.94467688632E+02  0.10683474092E+03  0.17770000000E+01 0. -1.
         15    1    1    2    0    0  0.10618704127E+02 -0.32080843308E+02 -0.47615821195E+02  0.58415422122E+02  0.17770000000E+01 0.  1.
</event>
<event>
 6    1  0.1782050E-003  0.4888438E+03  0.7546771E-02  0.9425124E-01
        -11   -1    0    0    0    0  0.00000000000E+00  0.00000000000E+00  0.50000000000E+03  0.50000000000E+03  0.00000000000E+00 0.  1.
         11   -1    0    0    0    0 -0.00000000000E+00 -0.00000000000E+00 -0.50000000000E+03  0.50000000000E+03  0.00000000000E+00 0. -1.
        -11    1    1    2    0    0 -0.19319571630E+01  0.11092792732E+02  0.48807884061E+03  0.48820870246E+03  0.00000000000E+00 0.  1.
         11    1    1    2    0    0  0.76029974350E+01 -0.72790691550E+01 -0.48939050173E+03  0.48950368089E+03  0.00000000000E+00 0. -1.
        -15    1    1    2    0    0  0.13701440506E+01  0.72361512447E+01  0.43283116454E+01  0.87253189200E+01  0.17770000000E+01 0.  1.
         15    1    1    2    0    0 -0.70411843226E+01 -0.11049874822E+02 -0.30166505241E+01  0.13562297727E+02  0.17770000000E+01 0. -1.
</event>
<event>
 6    1  0.1782050E-003  0.5019285E+03  0.7546771E-02  0.9395505E-01
        -11   -1    0    0    0    0  0.00000000000E+00  0.00000000000E+00  0.50000000000E+03  0.50000000000E+03  0.00000000000E+00 0.  1.
         11   -1    0    0    0    0 -0.00000000000E+00 -0.00000000000E+00 -0.50000000000E+03  0.50000000000E+03  0.00000000000E+00 0.  1.
        -11    1    1    2    0    0 -0.10029472584E+02 -0.16753843510E+01  0.37428433860E+03  0.37442243970E+03  0.00000000000E+00 0.  1.
         11    1    1    2    0    0 -0.43666934699E+01 -0.13146987301E+02 -0.49787876800E+03  0.49807145964E+03  0.00000000000E+00 0.  1.
        -15    1    1    2    0    0  0.69986383877E+01  0.93813283867E+01  0.11193171776E+03  0.11255601908E+03  0.17770000000E+01 0.  1.
         15    1    1    2    0    0  0.73975276666E+01  0.54410432656E+01  0.11662711636E+02  0.14950081575E+02  0.17770000000E+01 0. -1.
</event>
<event>
 6    1  0.1782050E-003  0.5056415E+03  0.7546771E-02  0.9387274E-01
        -11   -1    0    0    0    0  0.00000000000E+00  0.00000000000E+00  0.50000000000E+03  0.50000000000E+03  0.00000000000E+00 0. -1.
         11   -1    0    0    0    0 -0.00000000000E+00 -0.00000000000E+00 -0.50000000000E+03  0.50000000000E+03  0.00000000000E+00 0.  1.
        -11    1    1    2    0    0 -0.74984160537E+01  0.94536570030E+01  0.45316276442E+03  0.45332338229E+03  0.00000000000E+00 0. -1.
         11    1    1    2    0    0  0.63445122365E+01  0.68497755042E+01 -0.49427032886E+03  0.49435850377E+03  0.00000000000E+00 0.  1.
        -15    1    1    2    0    0  0.69355514960E+01 -0.22170504734E+02  0.25220430044E+02  0.34334544927E+02  0.17770000000E+01 0. -1.
         15    1    1    2    0    0 -0.57816476788E+01  0.58670722271E+01  0.15887134388E+02  0.17983569014E+02  0.17770000000E+01 0.  1.
</event>
<event>
 6    1  0.1782050E-003  0.5439685E+03  0.7546771E-02  0.9306468E-01
        -11   -1    0    0    0    0  0.00000000000E+00  0.00000000000E+00  0.50000000000E+03  0.50000000000E+03  0.00000000000E+00 0. -1.
         11   -1    0    0    0    0 -0.00000000000E+00 -0.00000000000E+00 -0.50000000000E+03  0.50000000000E+03  0.00000000000E+00 0. -1.
        -11    1    1    2    0    0 -0.38746552421E+01 -0.99632815438E+01  0.45590620050E+03  0.45603151600E+03  0.00000000000E+00 0. -1.
         11    1    1    2    0    0  0.84884280785E+01  0.37040765798E+02 -0.36243888687E+03  0.36442560071E+03  0.00000000000E+00 0. -1.
        -15    1    1    2    0    0 -0.20387684866E+02 -0.36847275575E+00  0.38696357215E+02  0.43776240783E+02  0.17770000000E+01 0.  1.
         15    1    1    2    0    0  0.15773912029E+02 -0.26709011498E+02 -0.13216367085E+03  0.13576664250E+03  0.17770000000E+01 0. -1.
</event>
<event>
 6    1  0.1782050E-003  0.5001314E+03  0.7546771E-02  0.9399516E-01
        -11   -1    0    0    0    0  0.00000000000E+00  0.00000000000E+00  0.50000000000E+03  0.50000000000E+03  0.00000000000E+00 0.  1.
         11   -1    0    0    0    0 -0.00000000000E+00 -0.00000000000E+00 -0.50000000000E+03  0.50000000000E+03  0.00000000000E+00 0.  1.
        -11    1    1    2    0    0  0.13257576484E+01  0.17745453982E+01  0.46504272094E+02  0.46556996979E+02  0.00000000000E+00 0.  1.
         11    1    1    2    0    0  0.36423127245E+01 -0.64300813679E+01 -0.49981401095E+03  0.49986864067E+03  0.00000000000E+00 0.  1.
        -15    1    1    2    0    0 -0.90146316183E+01  0.25303029158E+01  0.36830889098E+03  0.36843216868E+03  0.17770000000E+01 0.  1.
         15    1    1    2    0    0  0.40465612454E+01  0.21252330538E+01  0.85000847873E+02  0.85142193662E+02  0.17770000000E+01 0.  1.
</event>
<event>
 6    1  0.1782050E-003  0.5096401E+03  0.7546771E-02  0.9378494E-01
        -11   -1    0    0    0    0  0.00000000000E+00  0.00000000000E+00  0.50000000000E+03  0.50000000000E+03  0.00000000000E+00 0. -1.
         11   -1    0    0    0    0 -0.00000000000E+00 -0.00000000000E+00 -0.50000000000E+03  0.50000000000E+03  0.00000000000E+00 0.  1.
        -11    1    1    2    0    0 -0.10848054494E+02  0.22182043163E+02  0.48973778278E+03  0.49035988743E+03  0.00000000000E+00 0. -1.
         11    1    1    2    0    0  0.11614856426E+02  0.93289009213E+01 -0.30268419599E+03  0.30305058288E+03  0.00000000000E+00 0.  1.
        -15    1    1    2    0    0  0.25584843729E+02 -0.93605640375E+01 -0.15067719088E+02  0.31183301224E+02  0.17770000000E+01 0. -1.
         15    1    1    2    0    0 -0.26351645661E+02 -0.22150380047E+02 -0.17198586770E+03  0.17540622846E+03  0.17770000000E+01 0.  1.
</event>
<event>
 6    1  0.1782050E-003  0.5022919E+03  0.7546771E-02  0.9394696E-01
        -11   -1    0    0    0    0  0.00000000000E+00  0.00000000000E+00  0.50000000000E+03  0.50000000000E+03  0.00000000000E+00 0. -1.
         11   -1    0    0    0    0 -0.00000000000E+00 -0.00000000000E+00 -0.50000000000E+03  0.50000000000E+03  0.00000000000E+00 0. -1.
        -11    1    1    2    0    0  0.97587965962E+01 -0.28720099075E+01  0.49760409931E+03  0.49770806926E+03  0.00000000000E+00 0. -1.
         11    1    1    2    0    0  0.22722540599E+00  0.78976113924E+01 -0.46168214191E+03  0.46174974181E+03  0.00000000000E+00 0. -1.
        -15    1    1    2    0    0 -0.38671604323E+01  0.35816166884E+01 -0.39441567697E+01  0.68188715735E+01  0.17770000000E+01 0. -1.
         15    1    1    2    0    0 -0.61188615699E+01 -0.86072181733E+01 -0.31977800631E+02  0.33723317360E+02  0.17770000000E+01 0.  1.
</event>
<event>
 6    1  0.1782050E-003  0.5076810E+03  0.7546771E-02  0.9382785E-01
        -11   -1    0    0    0    0  0.00000000000E+00  0.00000000000E+00  0.50000000000E+03  0.50000000000E+03  0.00000000000E+00 0.  1.
         11   -1    0    0    0    0 -0.00000000000E+00 -0.00000000000E+00 -0.50000000000E+03  0.50000000000E+03  0.00000000000E+00 0.  1.
        -11    1    1    2    0    0  0.24826426020E+02  0.15551992514E+02  0.49144662380E+03  0.49231900222E+03  0.00000000000E+00 0.  1.
         11    1    1    2    0    0 -0.70627563049E+01  0.40340858044E+01 -0.41159297753E+03  0.41167333594E+03  0.00000000000E+00 0.  1.
        -15    1    1    2    0    0 -0.20972498865E+02 -0.97490850038E+01 -0.82063708554E+02  0.85278956125E+02  0.17770000000E+01 0. -1.
         15    1    1    2    0    0  0.32088291500E+01 -0.98369933148E+01  0.22100622799E+01  0.10728705713E+02  0.17770000000E+01 0.  1.
</event>
<event>
 6    1  0.1782050E-003  0.5002561E+03  0.7546771E-02  0.9399237E-01
        -11   -1    0    0    0    0  0.00000000000E+00  0.00000000000E+00  0.50000000000E+03  0.50000000000E+03  0.00000000000E+00 0. -1.
         11   -1    0    0    0    0 -0.00000000000E+00 -0.00000000000E+00 -0.50000000000E+03  0.50000000000E+03  0.00000000000E+00 0. -1.
        -11    1    1    2    0    0  0.31310869123E+01 -0.39738398226E+00  0.11541517513E+03  0.11545832265E+03  0.00000000000E+00 0. -1.
         11    1    1    2    0    0  0.11257913205E+02  0.88604510676E-01 -0.49961711437E+03  0.49974394387E+03  0.00000000000E+00 0. -1.
        -15    1    1    2    0    0 -0.10343650309E+02 -0.66098822471E+00  0.98459076732E+02  0.99019066483E+02  0.17770000000E+01 0. -1.
         15    1    1    2    0    0 -0.40453498087E+01  0.96976769629E+00  0.28574286251E+03  0.28577866699E+03  0.17770000000E+01 0. -1.
</event>
<event>
 6    1  0.1782050E-003  0.5083819E+03  0.7546771E-02  0.9381247E-01
        -11   -1    0    0    0    0  0.00000000000E+00  0.00000000000E+00  0.50000000000E+03  0.50000000000E+03  0.00000000000E+00 0. -1.
         11   -1    0    0    0    0 -0.00000000000E+00 -0.00000000000E+00 -0.50000000000E+03  0.50000000000E+03  0.00000000000E+00 0.  1.
        -11    1    1    2    0    0 -0.29863124165E+01 -0.11803361840E+01  0.21967921951E+03  0.21970268715E+03  0.00000000000E+00 0. -1.
         11    1    1    2    0    0  0.16578508088E+02 -0.24542223016E+02 -0.49072518645E+03  0.49161812035E+03  0.00000000000E+00 0.  1.
        -15    1    1    2    0    0  0.23082628009E+02 -0.14159385266E+02  0.18500287192E+03  0.18698266298E+03  0.17770000000E+01 0. -1.
         15    1    1    2    0    0 -0.36674823680E+02  0.39881944466E+02  0.86043095016E+02  0.10169652951E+03  0.17770000000E+01 0.  1.
</event>
<event>
 6    1  0.1782050E-003  0.5007611E+03  0.7546771E-02  0.9398108E-01
        -11   -1    0    0    0    0  0.00000000000E+00  0.00000000000E+00  0.50000000000E+03  0.50000000000E+03  0.00000000000E+00 0.  1.
         11   -1    0    0    0    0 -0.00000000000E+00 -0.00000000000E+00 -0.50000000000E+03  0.50000000000E+03  0.00000000000E+00 0.  1.
        -11    1    1    2    0    0  0.97408036944E+01 -0.88208081782E+01  0.28142905792E+03  0.28173569982E+03  0.00000000000E+00 0.  1.
         11    1    1    2    0    0 -0.34315806709E+01  0.78038370452E+01 -0.49916614463E+03  0.49923893635E+03  0.00000000000E+00 0.  1.
        -15    1    1    2    0    0 -0.53690758284E+01 -0.21969802628E+01  0.21235802533E+03  0.21244468068E+03  0.17770000000E+01 0. -1.
         15    1    1    2    0    0 -0.94014719511E+00  0.32139513957E+01  0.53790613815E+01  0.65806831461E+01  0.17770000000E+01 0. -1.
</event>
<event>
 6    1  0.1782050E-003  0.5125602E+03  0.7546771E-02  0.9372136E-01
        -11   -1    0    0    0    0  0.00000000000E+00  0.00000000000E+00  0.50000000000E+03  0.50000000000E+03  0.00000000000E+00 0.  1.
         11   -1    0    0    0    0 -0.00000000000E+00 -0.00000000000E+00 -0.50000000000E+03  0.50000000000E+03  0.00000000000E+00 0. -1.
        -11    1    1    2    0    0  0.63673847319E+01 -0.46917449683E+01  0.48737558705E+03  0.48743975926E+03  0.00000000000E+00 0.  1.
         11    1    1    2    0    0  0.13388410885E+02 -0.10442514939E+02 -0.41032666248E+03  0.41067781241E+03  0.00000000000E+00 0. -1.
        -15    1    1    2    0    0 -0.14709082082E+02  0.15574005629E+02  0.29556540932E+01  0.21697934629E+02  0.17770000000E+01 0.  1.
         15    1    1    2    0    0 -0.50467135351E+01 -0.43974572159E+00 -0.80004578664E+02  0.80184493700E+02  0.17770000000E+01 0. -1.
</event>
<event>
 6    1  0.1782050E-003  0.5008838E+03  0.7546771E-02  0.9397834E-01
        -11   -1    0    0    0    0  0.00000000000E+00  0.00000000000E+00  0.50000000000E+03  0.50000000000E+03  0.00000000000E+00 0. -1.
         11   -1    0    0    0    0 -0.00000000000E+00 -0.00000000000E+00 -0.50000000000E+03  0.50000000000E+03  0.00000000000E+00 0. -1.
        -11    1    1    2    0    0  0.19598641843E+01  0.75015289133E+00  0.12117420932E+03  0.12119237930E+03  0.00000000000E+00 0. -1.
         11    1    1    2    0    0  0.30860667492E+01  0.14463596935E+02 -0.49889703298E+03  0.49911618783E+03  0.00000000000E+00 0. -1.
        -15    1    1    2    0    0  0.10789452218E+02 -0.12142473707E+02  0.87334060110E+02  0.88849579241E+02  0.17770000000E+01 0.  1.
         15    1    1    2    0    0 -0.15835383152E+02 -0.30712761189E+01  0.29038876355E+03  0.29084185363E+03  0.17770000000E+01 0. -1.
</event>
<event>
 6    1  0.1782050E-003  0.5008347E+03  0.7546771E-02  0.9397944E-01
        -11   -1    0    0    0    0  0.00000000000E+00  0.00000000000E+00  0.50000000000E+03  0.50000000000E+03  0.00000000000E+00 0. -1.
         11   -1    0    0    0    0 -0.00000000000E+00 -0.00000000000E+00 -0.50000000000E+03  0.50000000000E+03  0.00000000000E+00 0.  1.
        -11    1    1    2    0    0 -0.61085913066E+01 -0.13189649782E+01  0.37401339643E+03  0.37406560289E+03  0.00000000000E+00 0. -1.
         11    1    1    2    0    0 -0.50751493206E+01 -0.53441829038E+01 -0.49911091230E+03  0.49916532353E+03  0.00000000000E+00 0.  1.
        -15    1    1    2    0    0  0.97482968934E+01  0.62246904893E+01  0.40943227119E+02  0.42582644820E+02  0.17770000000E+01 0.  1.
         15    1    1    2    0    0  0.14354437338E+01  0.43845739266E+00  0.84154288751E+02  0.84186428762E+02  0.17770000000E+01 0. -1.
</event>
<event>
 6    1  0.1782050E-003  0.5153228E+03  0.7546771E-02  0.9366162E-01
        -11   -1    0    0    0    0  0.00000000000E+00  0.00000000000E+00  0.50000000000E+03  0.50000000000E+03  0.00000000000E+00 0.  1.
         11   -1    0    0    0    0 -0.00000000000E+00 -0.00000000000E+00 -0.50000000000E+03  0.50000000000E+03  0.00000000000E+00 0.  1.
        -11    1    1    2    0    0 -0.29403443779E+02 -0.43196394458E-01  0.47401590729E+03  0.47492698885E+03  0.00000000000E+00 0.  1.
         11    1    1    2    0    0  0.19088281313E+02  0.77438466431E+00 -0.48430058894E+03  0.48467723550E+03  0.00000000000E+00 0.  1.
        -15    1    1    2    0    0 -0.91819744416E+01 -0.13545546032E+01  0.17198372170E+02  0.19623588029E+02  0.17770000000E+01 0. -1.
         15    1    1    2    0    0  0.19497136908E+02  0.62336633337E+00 -0.69136905181E+01  0.20772187626E+02  0.17770000000E+01 0.  1.
</event>
<event>
 6    1  0.1782050E-003  0.5067583E+03  0.7546771E-02  0.9384813E-01
        -11   -1    0    0    0    0  0.00000000000E+00  0.00000000000E+00  0.50000000000E+03  0.50000000000E+03  0.00000000000E+00 0. -1.
         11   -1    0    0    0    0 -0.00000000000E+00 -0.00000000000E+00 -0.50000000000E+03  0.50000000000E+03  0.00000000000E+00 0.  1.
        -11    1    1    2    0    0 -0.14742755694E+01 -0.10993524072E+02  0.49311692366E+03  0.49324165625E+03  0.00000000000E+00 0. -1.
         11    1    1    2    0    0  0.24003138420E+01  0.16017499341E+02 -0.47969217576E+03  0.47996552509E+03  0.00000000000E+00 0.  1.
        -15    1    1    2    0    0  0.19936450567E+01  0.59754290220E+01  0.26130633373E+01  0.70474251762E+01  0.17770000000E+01 0.  1.
         15    1    1    2    0    0 -0.29196833292E+01 -0.10999404291E+02 -0.16037811242E+02  0.19745393486E+02  0.17770000000E+01 0. -1.
</event>
<event>
 6    1  0.1782050E-003  0.5024559E+03  0.7546771E-02  0.9394331E-01
        -11   -1    0    0    0    0  0.00000000000E+00  0.00000000000E+00  0.50000000000E+03  0.50000000000E+03  0.00000000000E+00 0. -1.
         11   -1    0    0    0    0 -0.00000000000E+00 -0.00000000000E+00 -0.50000000000E+03  0.50000000000E+03  0.00000000000E+00 0. -1.
        -11    1    1    2    0    0 -0.52449542731E+01  0.38934521895E+01  0.44874013628E+03  0.44878767633E+03  0.00000000000E+00 0. -1.
         11    1    1    2    0    0  0.73133232166E+01  0.40399713235E+00 -0.49749017613E+03  0.49754409177E+03  0.00000000000E+00 0. -1.
        -15    1    1    2    0    0  0.11408078651E+01 -0.67619310267E+01  0.48736766616E+02  0.49248911694E+02  0.17770000000E+01 0.  1.
         15    1    1    2    0    0 -0.32091768087E+01  0.24644817048E+01  0.13273233816E-01  0.44193202013E+01  0.17770000000E+01 0. -1.
</event>
<event>
 6    1  0.1782050E-003  0.5068808E+03  0.7546771E-02  0.9384544E-01
        -11   -1    0    0    0    0  0.00000000000E+00  0.00000000000E+00  0.50000000000E+03  0.50000000000E+03  0.00000000000E+00 0. -1.
         11   -1    0    0    0    0 -0.00000000000E+00 -0.00000000000E+00 -0.50000000000E+03  0.50000000000E+03  0.00000000000E+00 0. -1.
        -11    1    1    2    0    0 -0.20110134206E+02 -0.51436284001E+01  0.49268213284E+03  0.49311921320E+03  0.00000000000E+00 0. -1.
         11    1    1    2    0    0 -0.34130884556E+01 -0.19620818983E+01 -0.25362789604E+03  0.25365844868E+03  0.00000000000E+00 0. -1.
        -15    1    1    2    0    0  0.17795634835E+02  0.29437359923E+02 -0.22157526502E+03  0.22423647914E+03  0.17770000000E+01 0. -1.
         15    1    1    2    0    0  0.57275878268E+01 -0.22331649625E+02 -0.17478971784E+02  0.28985858982E+02  0.17770000000E+01 0.  1.
</event>
<event>
 6    1  0.1782050E-003  0.5284945E+03  0.7546771E-02  0.9338215E-01
        -11   -1    0    0    0    0  0.00000000000E+00  0.00000000000E+00  0.50000000000E+03  0.50000000000E+03  0.00000000000E+00 0. -1.
         11   -1    0    0    0    0 -0.00000000000E+00 -0.00000000000E+00 -0.50000000000E+03  0.50000000000E+03  0.00000000000E+00 0.  1.
        -11    1    1    2    0    0 -0.50280875385E+01 -0.18393214178E+02  0.47111979581E+03  0.47150551852E+03  0.00000000000E+00 0. -1.
         11    1    1    2    0    0  0.68292667110E+01 -0.11746028282E+01 -0.45803995830E+03  0.45809237276E+03  0.00000000000E+00 0.  1.
        -15    1    1    2    0    0  0.26423351185E+02 -0.79979861160E+01 -0.13773528336E+02  0.30903544806E+02  0.17770000000E+01 0.  1.
         15    1    1    2    0    0 -0.28224530357E+02  0.27565803123E+02  0.69369082886E+00  0.39498563919E+02  0.17770000000E+01 0. -1.
</event>
<event>
 6    1  0.1782050E-003  0.5008425E+03  0.7546771E-02  0.9397927E-01
        -11   -1    0    0    0    0  0.00000000000E+00  0.00000000000E+00  0.50000000000E+03  0.50000000000E+03  0.00000000000E+00 0. -1.
         11   -1    0    0    0    0 -0.00000000000E+00 -0.00000000000E+00 -0.50000000000E+03  0.50000000000E+03  0.00000000000E+00 0.  1.
        -11    1    1    2    0    0 -0.29295070618E+01  0.61859856946E+01  0.49911060780E+03  0.49915753751E+03  0.00000000000E+00 0. -1.
         11    1    1    2    0    0  0.72092552103E+00 -0.82412388393E+01 -0.44982500480E+03  0.44990106990E+03  0.00000000000E+00 0.  1.
        -15    1    1    2    0    0  0.56124453428E+01 -0.29344527135E+01 -0.24264280375E+02  0.25140079287E+02  0.17770000000E+01 0.  1.
         15    1    1    2    0    0 -0.34038638021E+01  0.49897058582E+01 -0.25021322627E+02  0.25801313307E+02  0.17770000000E+01 0. -1.
</event>
<event>
 6    1  0.1782050E-003  0.5291037E+03  0.7546771E-02  0.9336944E-01
        -11   -1    0    0    0    0  0.00000000000E+00  0.00000000000E+00  0.50000000000E+03  0.50000000000E+03  0.00000000000E+00 0. -1.
         11   -1    0    0    0    0 -0.00000000000E+00 -0.00000000000E+00 -0.50000000000E+03  0.50000000000E+03  0.00000000000E+00 0. -1.
        -11    1    1    2    0    0 -0.49640811301E+01 -0.74030328328E+01  0.45010844662E+03  0.45019669114E+03  0.00000000000E+00 0. -1.
         11    1    1    2    0    0 -0.88319912392E+00  0.67211110434E+01 -0.47084751206E+03  0.47089630810E+03  0.00000000000E+00 0. -1.
        -15    1    1    2    0    0  0.36438843834E+02  0.17572883611E+02  0.59862108230E+01  0.40933947127E+02  0.17770000000E+01 0. -1.
         15    1    1    2    0    0 -0.30591563580E+02 -0.16890961822E+02  0.14752854621E+02  0.37973053630E+02  0.17770000000E+01 0.  1.
</event>
<event>
 6    1  0.1782050E-003  0.5008368E+03  0.7546771E-02  0.9397939E-01
        -11   -1    0    0    0    0  0.00000000000E+00  0.00000000000E+00  0.50000000000E+03  0.50000000000E+03  0.00000000000E+00 0.  1.
         11   -1    0    0    0    0 -0.00000000000E+00 -0.00000000000E+00 -0.50000000000E+03  0.50000000000E+03  0.00000000000E+00 0. -1.
        -11    1    1    2    0    0 -0.26260507614E+01 -0.76312614999E+01  0.30996799856E+03  0.31007304370E+03  0.00000000000E+00 0.  1.
         11    1    1    2    0    0  0.21675832948E+02  0.23949901017E+01 -0.49868657494E+03  0.49916317746E+03  0.00000000000E+00 0. -1.
        -15    1    1    2    0    0 -0.13492211968E+02 -0.12640251019E+01  0.16359763947E+03  0.16416754525E+03  0.17770000000E+01 0. -1.
         15    1    1    2    0    0 -0.55575702187E+01  0.65002965002E+01  0.25120936900E+02  0.26596233588E+02  0.17770000000E+01 0.  1.
</event>
<event>
 6    1  0.1782050E-003  0.5024599E+03  0.7546771E-02  0.9394322E-01
        -11   -1    0    0    0    0  0.00000000000E+00  0.00000000000E+00  0.50000000000E+03  0.50000000000E+03  0.00000000000E+00 0.  1.
         11   -1    0    0    0    0 -0.00000000000E+00 -0.00000000000E+00 -0.50000000000E+03  0.50000000000E+03  0.00000000000E+00 0.  1.
        -11    1    1    2    0    0  0.69417217456E+01 -0.10599886184E+01  0.43253205107E+03  0.43258905012E+03  0.00000000000E+00 0.  1.
         11    1    1    2    0    0  0.33646247218E+01  0.13836167797E+02 -0.49733629407E+03  0.49754009852E+03  0.00000000000E+00 0.  1.
        -15    1    1    2    0    0 -0.11599529023E+02 -0.51686782651E+01  0.58091467022E+02  0.59489835925E+02  0.17770000000E+01 0. -1.
         15    1    1    2    0    0  0.12931825558E+01 -0.76075009136E+01  0.67127759691E+01  0.10381015436E+02  0.17770000000E+01 0.  1.
</event>
<event>
 6    1  0.1782050E-003  0.4393246E+03  0.7546771E-02  0.9546852E-01
        -11   -1    0    0    0    0  0.00000000000E+00  0.00000000000E+00  0.50000000000E+03  0.50000000000E+03  0.00000000000E+00 0.  1.
         11   -1    0    0    0    0 -0.00000000000E+00 -0.00000000000E+00 -0.50000000000E+03  0.50000000000E+03  0.00000000000E+00 0. -1.
        -11    1    1    2    0    0 -0.44487079651E+02 -0.31675061983E+02  0.43996245600E+03  0.44333889125E+03  0.00000000000E+00 0.  1.
         11    1    1    2    0    0 -0.90708172055E+01 -0.86322150221E+00 -0.43745102892E+03  0.43754591482E+03  0.00000000000E+00 0. -1.
        -15    1    1    2    0    0  0.40519818689E+02  0.23658446820E+02  0.47412361879E+02  0.66728311836E+02  0.17770000000E+01 0.  1.
         15    1    1    2    0    0  0.13038078167E+02  0.88798366662E+01 -0.49923788961E+02  0.52386882087E+02  0.17770000000E+01 0. -1.
</event>
<event>
 6    1  0.1782050E-003  0.5007462E+03  0.7546771E-02  0.9398142E-01
        -11   -1    0    0    0    0  0.00000000000E+00  0.00000000000E+00  0.50000000000E+03  0.50000000000E+03  0.00000000000E+00 0. -1.
         11   -1    0    0    0    0 -0.00000000000E+00 -0.00000000000E+00 -0.50000000000E+03  0.50000000000E+03  0.00000000000E+00 0.  1.
        -11    1    1    2    0    0  0.66027585405E+01 -0.86635505462E+01  0.19070857411E+03  0.19101940679E+03  0.00000000000E+00 0. -1.
         11    1    1    2    0    0  0.15104202626E+02 -0.44474996853E+01 -0.49900543167E+03  0.49925378118E+03  0.00000000000E+00 0.  1.
        -15    1    1    2    0    0  0.17563704055E+01  0.35225938423E+01  0.44908819713E+02  0.45115998508E+02  0.17770000000E+01 0. -1.
         15    1    1    2    0    0 -0.23463331572E+02  0.95884563892E+01  0.26338803784E+03  0.26461081352E+03  0.17770000000E+01 0.  1.
</event>
<event>
 6    1  0.1782050E-003  0.5045402E+03  0.7546771E-02  0.9389708E-01
        -11   -1    0    0    0    0  0.00000000000E+00  0.00000000000E+00  0.50000000000E+03  0.50000000000E+03  0.00000000000E+00 0.  1.
         11   -1    0    0    0    0 -0.00000000000E+00 -0.00000000000E+00 -0.50000000000E+03  0.50000000000E+03  0.00000000000E+00 0. -1.
        -11    1    1    2    0    0  0.72853816202E+01  0.39194222148E+01  0.48467449705E+03  0.48474509461E+03  0.00000000000E+00 0.  1.
         11    1    1    2    0    0 -0.55571924128E+01  0.78076791972E+01 -0.49536712050E+03  0.49545981301E+03  0.00000000000E+00 0. -1.
        -15    1    1    2    0    0  0.42261877014E+01 -0.49988024639E+01  0.74601377661E+01  0.10082662002E+02  0.17770000000E+01 0.  1.
         15    1    1    2    0    0 -0.59543769088E+01 -0.67282989482E+01  0.32324856801E+01  0.97124303745E+01  0.17770000000E+01 0. -1.
</event>
<event>
 6    1  0.1782050E-003  0.5249650E+03  0.7546771E-02  0.9345618E-01
        -11   -1    0    0    0    0  0.00000000000E+00  0.00000000000E+00  0.50000000000E+03  0.50000000000E+03  0.00000000000E+00 0.  1.
         11   -1    0    0    0    0 -0.00000000000E+00 -0.00000000000E+00 -0.50000000000E+03  0.50000000000E+03  0.00000000000E+00 0.  1.
        -11    1    1    2    0    0 -0.67512891866E+01  0.10327742151E+02  0.34631609549E+03  0.34653582810E+03  0.00000000000E+00 0.  1.
         11    1    1    2    0    0  0.43294229391E+02 -0.39887514750E+01 -0.47304117100E+03  0.47503499860E+03  0.00000000000E+00 0.  1.
        -15    1    1    2    0    0  0.38398406121E+02  0.16838101509E+02  0.69973010137E+02  0.81592518846E+02  0.17770000000E+01 0. -1.
         15    1    1    2    0    0 -0.74941346325E+02 -0.23177092185E+02  0.56752065376E+02  0.96836654448E+02  0.17770000000E+01 0.  1.
</event>
<event>
 6    1  0.1782050E-003  0.5015067E+03  0.7546771E-02  0.9396445E-01
        -11   -1    0    0    0    0  0.00000000000E+00  0.00000000000E+00  0.50000000000E+03  0.50000000000E+03  0.00000000000E+00 0.  1.
         11   -1    0    0    0    0 -0.00000000000E+00 -0.00000000000E+00 -0.50000000000E+03  0.50000000000E+03  0.00000000000E+00 0. -1.
        -11    1    1    2    0    0  0.53607153147E+01  0.68005455761E+01  0.34054444479E+03  0.34065452231E+03  0.00000000000E+00 0.  1.
         11    1    1    2    0    0  0.77125837538E+01 -0.19019381158E+01 -0.49843003039E+03  0.49849332645E+03  0.00000000000E+00 0. -1.
        -15    1    1    2    0    0 -0.11084261492E+02 -0.84236245107E+01  0.15486185733E+03  0.15549653015E+03  0.17770000000E+01 0.  1.
         15    1    1    2    0    0 -0.19890375765E+01  0.35250170504E+01  0.30237282709E+01  0.53556210977E+01  0.17770000000E+01 0. -1.
</event>
<event>
 6    1  0.1782050E-003  0.5007915E+03  0.7546771E-02  0.9398040E-01
        -11   -1    0    0    0    0  0.00000000000E+00  0.00000000000E+00  0.50000000000E+03  0.50000000000E+03  0.00000000000E+00 0. -1.
         11   -1    0    0    0    0 -0.00000000000E+00 -0.00000000000E+00 -0.50000000000E+03  0.50000000000E+03  0.00000000000E+00 0.  1.
        -11    1    1    2    0    0  0.63548972816E+01 -0.79857703335E+01  0.32611356811E+03  0.32627322378E+03  0.00000000000E+00 0. -1.
         11    1    1    2    0    0  0.26703252116E+01 -0.84937378132E+01 -0.49912908470E+03  0.49920849092E+03  0.00000000000E+00 0.  1.
        -15    1    1    2    0    0 -0.29478393171E+01  0.67950793237E+01  0.27259461231E+02  0.28303689075E+02  0.17770000000E+01 0. -1.
         15    1    1    2    0    0 -0.60773831760E+01  0.96844288230E+01  0.14575605535E+03  0.14621459622E+03  0.17770000000E+01 0.  1.
</event>
<event>
 6    1  0.1782050E-003  0.5013385E+03  0.7546771E-02  0.9396820E-01
        -11   -1    0    0    0    0  0.00000000000E+00  0.00000000000E+00  0.50000000000E+03  0.50000000000E+03  0.00000000000E+00 0. -1.
         11   -1    0    0    0    0 -0.00000000000E+00 -0.00000000000E+00 -0.50000000000E+03  0.50000000000E+03  0.00000000000E+00 0.  1.
        -11    1    1    2    0    0  0.11012963977E+02  0.49216238462E+01  0.42582375747E+03  0.42599457764E+03  0.00000000000E+00 0. -1.
         11    1    1    2    0    0 -0.17247448766E+02 -0.18754681985E+02 -0.49801009677E+03  0.49866147743E+03  0.00000000000E+00 0.  1.
        -15    1    1    2    0    0  0.25843334311E+01  0.12194771834E+01  0.19932760192E+01  0.39111100947E+01  0.17770000000E+01 0. -1.
         15    1    1    2    0    0  0.36501513581E+01  0.12613580955E+02  0.70193063285E+02  0.71432834830E+02  0.17770000000E+01 0.  1.
</event>
<event>
 6    1  0.1782050E-003  0.5491033E+03  0.7546771E-02  0.9296180E-01
        -11   -1    0    0    0    0  0.00000000000E+00  0.00000000000E+00  0.50000000000E+03  0.50000000000E+03  0.00000000000E+00 0.  1.
         11   -1    0    0    0    0 -0.00000000000E+00 -0.00000000000E+00 -0.50000000000E+03  0.50000000000E+03  0.00000000000E+00 0.  1.
        -11    1    1    2    0    0 -0.92295007012E+01 -0.61885355072E+01  0.45075971224E+03  0.45089666204E+03  0.00000000000E+00 0.  1.
         11    1    1    2    0    0  0.68519771611E+00  0.12162372863E+02 -0.38603893971E+03  0.38623109117E+03  0.00000000000E+00 0.  1.
        -15    1    1    2    0    0 -0.63687633492E+02 -0.12865919758E+02 -0.62626800463E+02  0.90260292578E+02  0.17770000000E+01 0.  1.
         15    1    1    2    0    0  0.72231936477E+02  0.68920824020E+01 -0.20939720680E+01  0.72611954216E+02  0.17770000000E+01 0. -1.
</event>
<event>
 6    1  0.1782050E-003  0.5011996E+03  0.7546771E-02  0.9397130E-01
        -11   -1    0    0    0    0  0.00000000000E+00  0.00000000000E+00  0.50000000000E+03  0.50000000000E+03  0.00000000000E+00 0. -1.
         11   -1    0    0    0    0 -0.00000000000E+00 -0.00000000000E+00 -0.50000000000E+03  0.50000000000E+03  0.00000000000E+00 0.  1.
        -11    1    1    2    0    0  0.89042325457E+01  0.32160303258E+01  0.49871058811E+03  0.49880043996E+03  0.00000000000E+00 0. -1.
         11    1    1    2    0    0 -0.33229227908E+01  0.48856219561E+01 -0.43617569516E+03  0.43621571288E+03  0.00000000000E+00 0.  1.
        -15    1    1    2    0    0  0.10169333819E+01  0.35582475029E+01 -0.12565333162E+02  0.13218948720E+02  0.17770000000E+01 0.  1.
         15    1    1    2    0    0 -0.65982431369E+01 -0.11659899785E+02 -0.49969559792E+02  0.51764898438E+02  0.17770000000E+01 0.  1.
</event>
<event>
 6    1  0.1782050E-003  0.5043359E+03  0.7546771E-02  0.9390160E-01
        -11   -1    0    0    0    0  0.00000000000E+00  0.00000000000E+00  0.50000000000E+03  0.50000000000E+03  0.00000000000E+00 0. -1.
         11   -1    0    0    0    0 -0.00000000000E+00 -0.00000000000E+00 -0.50000000000E+03  0.50000000000E+03  0.00000000000E+00 0. -1.
        -11    1    1    2    0    0 -0.83731847136E+01  0.32952486629E+01  0.49558243046E+03  0.49566411436E+03  0.00000000000E+00 0. -1.
         11    1    1    2    0    0 -0.26904253839E+01  0.58187298642E+01 -0.45743478428E+03  0.45747970215E+03  0.00000000000E+00 0. -1.
        -15    1    1    2    0    0  0.43677315194E+01 -0.30294297597E+01 -0.37163212601E+02  0.37583462096E+02  0.17770000000E+01 0. -1.
         15    1    1    2    0    0  0.66958785781E+01 -0.60845487674E+01 -0.98443357926E+00  0.92727213971E+01  0.17770000000E+01 0.  1.
</event>
<event>
 6    1  0.1782050E-003  0.4407425E+03  0.7546771E-02  0.9543133E-01
        -11   -1    0    0    0    0  0.00000000000E+00  0.00000000000E+00  0.50000000000E+03  0.50000000000E+03  0.00000000000E+00 0. -1.
         11   -1    0    0    0    0 -0.00000000000E+00 -0.00000000000E+00 -0.50000000000E+03  0.50000000000E+03  0.00000000000E+00 0.  1.
        -11    1    1    2    0    0 -0.62081918280E+01 -0.31864192841E+01  0.44606190461E+03  0.44611648440E+03  0.00000000000E+00 0. -1.
         11    1    1    2    0    0 -0.12545724779E+02 -0.17375931344E+02 -0.43534563499E+03  0.43587284856E+03  0.00000000000E+00 0.  1.
        -15    1    1    2    0    0  0.91967121364E+01  0.23912391382E+02 -0.61263340116E+02  0.66428431766E+02  0.17770000000E+01 0. -1.
         15    1    1    2    0    0  0.95572044703E+01 -0.33500407537E+01  0.50547070504E+02  0.51582235274E+02  0.17770000000E+01 0.  1.
</event>
<event>
 6    1  0.1782050E-003  0.5032657E+03  0.7546771E-02  0.9392532E-01
        -11   -1    0    0    0    0  0.00000000000E+00  0.00000000000E+00  0.50000000000E+03  0.50000000000E+03  0.00000000000E+00 0. -1.
         11   -1    0    0    0    0 -0.00000000000E+00 -0.00000000000E+00 -0.50000000000E+03  0.50000000000E+03  0.00000000000E+00 0.  1.
        -11    1    1    2    0    0 -0.60630754813E+01 -0.45167868648E+01  0.49667675100E+03  0.49673429239E+03  0.00000000000E+00 0. -1.
         11    1    1    2    0    0 -0.96512099712E+01  0.10081051583E+02 -0.44144429784E+03  0.44166485206E+03  0.00000000000E+00 0.  1.
        -15    1    1    2    0    0  0.28581899901E+01  0.48642341010E+00  0.10233669277E+01  0.35511782020E+01  0.17770000000E+01 0. -1.
         15    1    1    2    0    0  0.12856095462E+02 -0.60506881288E+01 -0.56255820090E+02  0.58049677349E+02  0.17770000000E+01 0.  1.
</event>
<event>
 6    1  0.1782050E-003  0.5097270E+03  0.7546771E-02  0.9378304E-01
        -11   -1    0    0    0    0  0.00000000000E+00  0.00000000000E+00  0.50000000000E+03  0.50000000000E+03  0.00000000000E+00 0. -1.
         11   -1    0    0    0    0 -0.00000000000E+00 -0.00000000000E+00 -0.50000000000E+03  0.50000000000E+03  0.00000000000E+00 0.  1.
        -11    1    1    2    0    0  0.16763627609E+02  0.43862295347E+00  0.42484593599E+03  0.42517676433E+03  0.00000000000E+00 0. -1.
         11    1    1    2    0    0 -0.68270450968E+01 -0.54666213495E+00 -0.49022511374E+03  0.49027295411E+03  0.00000000000E+00 0.  1.
        -15    1    1    2    0    0 -0.10415952445E+02 -0.21320053316E+02  0.11280566715E+02  0.26333356283E+02  0.17770000000E+01 0. -1.
         15    1    1    2    0    0  0.47936993234E+00  0.21428092498E+02  0.54098611035E+02  0.58216925275E+02  0.17770000000E+01 0.  1.
</event>
<event>
 6    1  0.1782050E-003  0.5222705E+03  0.7546771E-02  0.9351312E-01
        -11   -1    0    0    0    0  0.00000000000E+00  0.00000000000E+00  0.50000000000E+03  0.50000000000E+03  0.00000000000E+00 0. -1.
         11   -1    0    0    0    0 -0.00000000000E+00 -0.00000000000E+00 -0.50000000000E+03  0.50000000000E+03  0.00000000000E+00 0. -1.
        -11    1    1    2    0    0  0.16400171529E+02 -0.67022622934E+01  0.32782003746E+03  0.32829843573E+03  0.00000000000E+00 0. -1.
         11    1    1    2    0    0 -0.21147069541E+01 -0.11712591734E+02 -0.47758122217E+03  0.47772950565E+03  0.00000000000E+00 0. -1.
        -15    1    1    2    0    0 -0.28092453031E+01 -0.78023886809E+01 -0.20043199548E+02  0.21763655608E+02  0.17770000000E+01 0.  1.
         15    1    1    2    0    0 -0.11476219272E+02  0.26217242708E+02  0.16980438427E+03  0.17220840302E+03  0.17770000000E+01 0. -1.
</event>
<event>
 6    1  0.1782050E-003  0.5044209E+03  0.7546771E-02  0.9389972E-01
        -11   -1    0    0    0    0  0.00000000000E+00  0.00000000000E+00  0.50000000000E+03  0.50000000000E+03  0.00000000000E+00 0. -1.
         11   -1    0    0    0    0 -0.00000000000E+00 -0.00000000000E+00 -0.50000000000E+03  0.50000000000E+03  0.00000000000E+00 0.  1.
        -11    1    1    2    0    0 -0.63429432944E+01  0.48674738771E+00  0.40027493954E+03  0.40032548891E+03  0.00000000000E+00 0. -1.
         11    1    1    2    0    0 -0.11620756688E+02  0.96963287688E+01 -0.49534793515E+03  0.49557909322E+03  0.00000000000E+00 0.  1.
        -15    1    1    2    0    0  0.19709158468E+02 -0.22418234789E+02  0.66635915067E+02  0.73037874314E+02  0.17770000000E+01 0. -1.
         15    1    1    2    0    0 -0.17454584848E+01  0.12235158632E+02  0.28437080549E+02  0.31057543548E+02  0.17770000000E+01 0.  1.
</event>
<event>
 6    1  0.1782050E-003  0.5071983E+03  0.7546771E-02  0.9383846E-01
        -11   -1    0    0    0    0  0.00000000000E+00  0.00000000000E+00  0.50000000000E+03  0.50000000000E+03  0.00000000000E+00 0.  1.
         11   -1    0    0    0    0 -0.00000000000E+00 -0.00000000000E+00 -0.50000000000E+03  0.50000000000E+03  0.00000000000E+00 0.  1.
        -11    1    1    2    0    0 -0.13768666032E+02 -0.31249893213E+01  0.49259943502E+03  0.49280173002E+03  0.00000000000E+00 0.  1.
         11    1    1    2    0    0  0.21549226050E+02 -0.99047091986E+00 -0.48415056940E+03  0.48463091526E+03  0.00000000000E+00 0.  1.
        -15    1    1    2    0    0  0.49791575644E+01 -0.30756966430E+01 -0.32351238548E+01  0.69192250467E+01  0.17770000000E+01 0.  1.
         15    1    1    2    0    0 -0.12759717582E+02  0.71911568841E+01 -0.52137417680E+01  0.15648129675E+02  0.17770000000E+01 0. -1.
</event>
<event>
 6    1  0.1782050E-003  0.5004888E+03  0.7546771E-02  0.9398717E-01
        -11   -1    0    0    0    0  0.00000000000E+00  0.00000000000E+00  0.50000000000E+03  0.50000000000E+03  0.00000000000E+00 0.  1.
         11   -1    0    0    0    0 -0.00000000000E+00 -0.00000000000E+00 -0.50000000000E+03  0.50000000000E+03  0.00000000000E+00 0.  1.
        -11    1    1    2    0    0 -0.16780197124E+01 -0.91617094935E+00  0.76637699790E+02  0.76661542826E+02  0.00000000000E+00 0.  1.
         11    1    1    2    0    0 -0.64326689257E+01 -0.54907273257E+01 -0.49943958165E+03  0.49951118409E+03  0.00000000000E+00 0.  1.
        -15    1    1    2    0    0  0.28432267684E+01  0.29225267032E+01  0.96761312452E+01  0.10649429359E+02  0.17770000000E+01 0. -1.
         15    1    1    2    0    0  0.52674618698E+01  0.34843715719E+01  0.41312575061E+03  0.41317784373E+03  0.17770000000E+01 0.  1.
</event>
<event>
 6    1  0.1782050E-003  0.5009800E+03  0.7546771E-02  0.9397620E-01
        -11   -1    0    0    0    0  0.00000000000E+00  0.00000000000E+00  0.50000000000E+03  0.50000000000E+03  0.00000000000E+00 0. -1.
         11   -1    0    0    0    0 -0.00000000000E+00 -0.00000000000E+00 -0.50000000000E+03  0.50000000000E+03  0.00000000000E+00 0.  1.
        -11    1    1    2    0    0 -0.43674854762E+01 -0.56753314377E+01  0.41251763782E+03  0.41257979329E+03  0.00000000000E+00 0. -1.
         11    1    1    2    0    0 -0.74454569146E+01  0.33788188005E+01 -0.49895303627E+03  0.49902002330E+03  0.00000000000E+00 0.  1.
        -15    1    1    2    0    0  0.74310139028E+01  0.55893279521E+01  0.75000122279E+02  0.75595215626E+02  0.17770000000E+01 0.  1.
         15    1    1    2    0    0  0.43819284881E+01 -0.32928153149E+01  0.11435276169E+02  0.12804967787E+02  0.17770000000E+01 0. -1.
</event>
<event>
 6    1  0.1782050E-003  0.5011357E+03  0.7546771E-02  0.9397272E-01
        -11   -1    0    0    0    0  0.00000000000E+00  0.00000000000E+00  0.50000000000E+03  0.50000000000E+03  0.00000000000E+00 0.  1.
         11   -1    0    0    0    0 -0.00000000000E+00 -0.00000000000E+00 -0.50000000000E+03  0.50000000000E+03  0.00000000000E+00 0.  1.
        -11    1    1    2    0    0 -0.73738482881E+01 -0.11884477802E+01  0.49880835105E+03  0.49886426724E+03  0.00000000000E+00 0.  1.
         11    1    1    2    0    0  0.42976697560E+00 -0.71366052322E+01 -0.41361859682E+03  0.41368038323E+03  0.00000000000E+00 0.  1.
        -15    1    1    2    0    0  0.40915695665E+01 -0.44935225738E+01 -0.33558299208E+02  0.34150400604E+02  0.17770000000E+01 0. -1.
         15    1    1    2    0    0  0.28525117460E+01  0.12818575586E+02 -0.51631455023E+02  0.53304948927E+02  0.17770000000E+01 0.  1.
</event>
<event>
 6    1  0.1782050E-003  0.5006216E+03  0.7546771E-02  0.9398420E-01
        -11   -1    0    0    0    0  0.00000000000E+00  0.00000000000E+00  0.50000000000E+03  0.50000000000E+03  0.00000000000E+00 0.  1.
         11   -1    0    0    0    0 -0.00000000000E+00 -0.00000000000E+00 -0.50000000000E+03  0.50000000000E+03  0.00000000000E+00 0. -1.
        -11    1    1    2    0    0 -0.90998970697E+01  0.29012813609E+00  0.49929538214E+03  0.49937838452E+03  0.00000000000E+00 0.  1.
         11    1    1    2    0    0  0.18957844385E+01 -0.12304173519E+02 -0.26437887781E+03  0.26467183023E+03  0.00000000000E+00 0. -1.
        -15    1    1    2    0    0  0.51469550106E+01  0.96585702131E+01 -0.61214585198E+02  0.62210628469E+02  0.17770000000E+01 0.  1.
         15    1    1    2    0    0  0.20571576205E+01  0.23554751698E+01 -0.17370191913E+03  0.17373915678E+03  0.17770000000E+01 0. -1.
</event>
<event>
 6    1  0.1782050E-003  0.5001999E+03  0.7546771E-02  0.9399363E-01
        -11   -1    0    0    0    0  0.00000000000E+00  0.00000000000E+00  0.50000000000E+03  0.50000000000E+03  0.00000000000E+00 0. -1.
         11   -1    0    0    0    0 -0.00000000000E+00 -0.00000000000E+00 -0.50000000000E+03  0.50000000000E+03  0.00000000000E+00 0. -1.
        -11    1    1    2    0    0 -0.14712206374E+01 -0.27814317453E+01  0.98396470875E+02  0.98446769035E+02  0.00000000000E+00 0. -1.
         11    1    1    2    0    0  0.78334670666E+01  0.75139373773E+01 -0.49968226646E+03  0.49980014993E+03  0.00000000000E+00 0. -1.
        -15    1    1    2    0    0 -0.10168973610E+02 -0.68081080874E+01  0.35816987409E+03  0.35838327918E+03  0.17770000000E+01 0. -1.
         15    1    1    2    0    0  0.38067271811E+01  0.20756024553E+01  0.43115921491E+02  0.43369801849E+02  0.17770000000E+01 0. -1.
</event>
<event>
 6    1  0.1782050E-003  0.5150149E+03  0.7546771E-02  0.9366826E-01
        -11   -1    0    0    0    0  0.00000000000E+00  0.00000000000E+00  0.50000000000E+03  0.50000000000E+03  0.00000000000E+00 0.  1.
         11   -1    0    0    0    0 -0.00000000000E+00 -0.00000000000E+00 -0.50000000000E+03  0.50000000000E+03  0.00000000000E+00 0. -1.
        -11    1    1    2    0    0 -0.86539664086E+01  0.38211800820E+01  0.48489283867E+03  0.48498511064E+03  0.00000000000E+00 0.  1.
         11    1    1    2    0    0 -0.86521091548E+01  0.16934618127E+02 -0.41532586820E+03  0.41576100957E+03  0.00000000000E+00 0. -1.
        -15    1    1    2    0    0  0.51108153635E+01  0.16797149895E+02  0.17331039285E+01  0.17732062951E+02  0.17770000000E+01 0.  1.
         15    1    1    2    0    0  0.12195260200E+02 -0.37552948104E+02 -0.71300074393E+02  0.81521816835E+02  0.17770000000E+01 0. -1.
</event>
<event>
 6    1  0.1782050E-003  0.4817016E+03  0.7546771E-02  0.9441711E-01
        -11   -1    0    0    0    0  0.00000000000E+00  0.00000000000E+00  0.50000000000E+03  0.50000000000E+03  0.00000000000E+00 0. -1.
         11   -1    0    0    0    0 -0.00000000000E+00 -0.00000000000E+00 -0.50000000000E+03  0.50000000000E+03  0.00000000000E+00 0. -1.
        -11    1    1    2    0    0  0.10524909125E+02 -0.38120608599E+01  0.48610383091E+03  0.48623270144E+03  0.00000000000E+00 0. -1.
         11    1    1    2    0    0  0.44462821937E+01 -0.69551301685E+01 -0.47731564405E+03  0.47738702048E+03  0.00000000000E+00 0. -1.
        -15    1    1    2    0    0 -0.20853480832E+02  0.88471338209E+01  0.30290737732E+01  0.22923186004E+02  0.17770000000E+01 0. -1.
         15    1    1    2    0    0  0.58822895131E+01  0.19200572074E+01 -0.11817260630E+02  0.13457092085E+02  0.17770000000E+01 0.  1.
</event>
<event>
 6    1  0.3060393E-003  0.4185587E+03  0.7546771E-02  0.9603101E-01
        -11   -1    0    0    0    0  0.00000000000E+00  0.00000000000E+00  0.50000000000E+03  0.50000000000E+03  0.00000000000E+00 0. -1.
         11   -1    0    0    0    0 -0.00000000000E+00 -0.00000000000E+00 -0.50000000000E+03  0.50000000000E+03  0.00000000000E+00 0.  1.
        -11    1    1    2    0    0 -0.40941762973E+02  0.60543173923E+01  0.42461002900E+03  0.42662226787E+03  0.00000000000E+00 0. -1.
         11    1    1    2    0    0  0.20541855809E+02 -0.26628941081E+02 -0.40975028685E+03  0.41112816240E+03  0.00000000000E+00 0.  1.
        -15    1    1    2    0    0  0.19949100451E+02  0.60331077864E+01  0.71581269566E+02  0.74574800570E+02  0.17770000000E+01 0. -1.
         15    1    1    2    0    0  0.45080671309E+00  0.14541515902E+02 -0.86441011720E+02  0.87674769162E+02  0.17770000000E+01 0.  1.
</event>
<event>
 6    1  0.1782050E-003  0.5090968E+03  0.7546771E-02  0.9379682E-01
        -11   -1    0    0    0    0  0.00000000000E+00  0.00000000000E+00  0.50000000000E+03  0.50000000000E+03  0.00000000000E+00 0.  1.
         11   -1    0    0    0    0 -0.00000000000E+00 -0.00000000000E+00 -0.50000000000E+03  0.50000000000E+03  0.00000000000E+00 0. -1.
        -11    1    1    2    0    0 -0.44054322191E+01  0.49164640126E+01  0.44663872260E+03  0.44668750596E+03  0.00000000000E+00 0.  1.
         11    1    1    2    0    0 -0.86721323969E+00  0.14218834637E+02 -0.49069648718E+03  0.49090321842E+03  0.00000000000E+00 0. -1.
        -15    1    1    2    0    0 -0.10982660183E+01  0.85628482325E+01  0.28766663878E+02  0.30086662124E+02  0.17770000000E+01 0. -1.
         15    1    1    2    0    0  0.63709114771E+01 -0.27698146882E+02  0.15291100703E+02  0.32322613500E+02  0.17770000000E+01 0.  1.
</event>
<event>
 6    1  0.1782050E-003  0.5012914E+03  0.7546771E-02  0.9396925E-01
        -11   -1    0    0    0    0  0.00000000000E+00  0.00000000000E+00  0.50000000000E+03  0.50000000000E+03  0.00000000000E+00 0. -1.
         11   -1    0    0    0    0 -0.00000000000E+00 -0.00000000000E+00 -0.50000000000E+03  0.50000000000E+03  0.00000000000E+00 0. -1.
        -11    1    1    2    0    0  0.85638395387E+00 -0.30839384426E+01  0.17301725590E+03  0.17304685755E+03  0.00000000000E+00 0. -1.
         11    1    1    2    0    0 -0.15349108437E+02 -0.18112982814E+02 -0.49814316472E+03  0.49870862017E+03  0.00000000000E+00 0. -1.
        -15    1    1    2    0    0 -0.36976526528E+01 -0.47406461722E+01  0.15852511338E+03  0.15864903297E+03  0.17770000000E+01 0.  1.
         15    1    1    2    0    0  0.18190377136E+02  0.25937567429E+02  0.16660079544E+03  0.16959548931E+03  0.17770000000E+01 0. -1.
</event>
<event>
 6    1  0.1782050E-003  0.5005917E+03  0.7546771E-02  0.9398487E-01
        -11   -1    0    0    0    0  0.00000000000E+00  0.00000000000E+00  0.50000000000E+03  0.50000000000E+03  0.00000000000E+00 0.  1.
         11   -1    0    0    0    0 -0.00000000000E+00 -0.00000000000E+00 -0.50000000000E+03  0.50000000000E+03  0.00000000000E+00 0. -1.
        -11    1    1    2    0    0  0.38358178584E+00  0.18659691875E+01  0.13045220232E+03  0.13046611079E+03  0.00000000000E+00 0.  1.
         11    1    1    2    0    0  0.20092827063E+02  0.10773654625E+02 -0.49888765852E+03  0.49940833909E+03  0.00000000000E+00 0. -1.
        -15    1    1    2    0    0 -0.29751527367E+01  0.73923537045E+01  0.11576801209E+03  0.11605554179E+03  0.17770000000E+01 0. -1.
         15    1    1    2    0    0 -0.17501256112E+02 -0.20031977517E+02  0.25266744411E+03  0.25407000833E+03  0.17770000000E+01 0.  1.
</event>
<event>
 6    1  0.1782050E-003  0.5038695E+03  0.7546771E-02  0.9391193E-01
        -11   -1    0    0    0    0  0.00000000000E+00  0.00000000000E+00  0.50000000000E+03  0.50000000000E+03  0.00000000000E+00 0. -1.
         11   -1    0    0    0    0 -0.00000000000E+00 -0.00000000000E+00 -0.50000000000E+03  0.50000000000E+03  0.00000000000E+00 0.  1.
        -11    1    1    2    0    0 -0.55545211822E+01 -0.51789396998E+01  0.49607237953E+03  0.49613050688E+03  0.00000000000E+00 0. -1.
         11    1    1    2    0    0 -0.11606368374E+02 -0.54233594141E+01 -0.37654132122E+03  0.37675918993E+03  0.00000000000E+00 0.  1.
        -15    1    1    2    0    0  0.15326002869E+01  0.68860918136E+01 -0.10537344372E+03  0.10562427512E+03  0.17770000000E+01 0.  1.
         15    1    1    2    0    0  0.15628289270E+02  0.37162073003E+01 -0.14157614595E+02  0.21486028070E+02  0.17770000000E+01 0. -1.
</event>
<event>
 6    1  0.1782050E-003  0.5076163E+03  0.7546771E-02  0.9382927E-01
        -11   -1    0    0    0    0  0.00000000000E+00  0.00000000000E+00  0.50000000000E+03  0.50000000000E+03  0.00000000000E+00 0. -1.
         11   -1    0    0    0    0 -0.00000000000E+00 -0.00000000000E+00 -0.50000000000E+03  0.50000000000E+03  0.00000000000E+00 0. -1.
        -11    1    1    2    0    0  0.82355057509E+01 -0.14567427443E+02  0.49209925485E+03  0.49238370213E+03  0.00000000000E+00 0. -1.
         11    1    1    2    0    0  0.29967590091E+01 -0.35190700249E+01 -0.28245703827E+03  0.28249485462E+03  0.00000000000E+00 0. -1.
        -15    1    1    2    0    0 -0.95962511925E+01  0.16196313080E+02 -0.38387673396E+01  0.19295140788E+02  0.17770000000E+01 0.  1.
         15    1    1    2    0    0 -0.16360135675E+01  0.18901843878E+01 -0.20580344924E+03  0.20582630246E+03  0.17770000000E+01 0. -1.
</event>
<event>
 6    1  0.1782050E-003  0.5001407E+03  0.7546771E-02  0.9399495E-01
        -11   -1    0    0    0    0  0.00000000000E+00  0.00000000000E+00  0.50000000000E+03  0.50000000000E+03  0.00000000000E+00 0.  1.
         11   -1    0    0    0    0 -0.00000000000E+00 -0.00000000000E+00 -0.50000000000E+03  0.50000000000E+03  0.00000000000E+00 0.  1.
        -11    1    1    2    0    0  0.30986274314E+01 -0.56543181613E+01  0.16031239698E+03  0.16044200645E+03  0.00000000000E+00 0.  1.
         11    1    1    2    0    0 -0.13475247211E+02  0.11763439727E+00 -0.49967759159E+03  0.49985927186E+03  0.00000000000E+00 0.  1.
        -15    1    1    2    0    0  0.18045758010E+01  0.42449437866E+01  0.63687027421E+02  0.63878566298E+02  0.17770000000E+01 0. -1.
         15    1    1    2    0    0  0.85720439790E+01  0.12917399774E+01  0.27567816719E+03  0.27582015540E+03  0.17770000000E+01 0.  1.
</event>
<event>
 6    1  0.1782050E-003  0.5010683E+03  0.7546771E-02  0.9397423E-01
        -11   -1    0    0    0    0  0.00000000000E+00  0.00000000000E+00  0.50000000000E+03  0.50000000000E+03  0.00000000000E+00 0. -1.
         11   -1    0    0    0    0 -0.00000000000E+00 -0.00000000000E+00 -0.50000000000E+03  0.50000000000E+03  0.00000000000E+00 0. -1.
        -11    1    1    2    0    0  0.57248468339E+01  0.20014405505E+02  0.49849726387E+03  0.49893173119E+03  0.00000000000E+00 0. -1.
         11    1    1    2    0    0 -0.24207091741E+00  0.38815814170E+01 -0.14224995129E+03  0.14230310578E+03  0.00000000000E+00 0. -1.
        -15    1    1    2    0    0  0.17394562053E+01 -0.11329301963E+02 -0.31107550923E+03  0.31129167827E+03  0.17770000000E+01 0. -1.
         15    1    1    2    0    0 -0.72222321218E+01 -0.12566684959E+02 -0.45171803358E+02  0.47473484760E+02  0.17770000000E+01 0.  1.
</event>
<event>
 6    1  0.1782050E-003  0.5008924E+03  0.7546771E-02  0.9397815E-01
        -11   -1    0    0    0    0  0.00000000000E+00  0.00000000000E+00  0.50000000000E+03  0.50000000000E+03  0.00000000000E+00 0. -1.
         11   -1    0    0    0    0 -0.00000000000E+00 -0.00000000000E+00 -0.50000000000E+03  0.50000000000E+03  0.00000000000E+00 0. -1.
        -11    1    1    2    0    0 -0.19420014480E+01 -0.64200730952E+01  0.31064714312E+03  0.31071954595E+03  0.00000000000E+00 0. -1.
         11    1    1    2    0    0 -0.54274913272E+01  0.66652712961E+01 -0.49903356211E+03  0.49910758321E+03  0.00000000000E+00 0. -1.
        -15    1    1    2    0    0  0.67175725980E+01  0.11844702499E+02  0.94628732185E+02  0.95619963621E+02  0.17770000000E+01 0. -1.
         15    1    1    2    0    0  0.65192017723E+00 -0.12089900700E+02  0.93757686805E+02  0.94552907215E+02  0.17770000000E+01 0.  1.
</event>
<event>
 6    1  0.1782050E-003  0.5013162E+03  0.7546771E-02  0.9396869E-01
        -11   -1    0    0    0    0  0.00000000000E+00  0.00000000000E+00  0.50000000000E+03  0.50000000000E+03  0.00000000000E+00 0.  1.
         11   -1    0    0    0    0 -0.00000000000E+00 -0.00000000000E+00 -0.50000000000E+03  0.50000000000E+03  0.00000000000E+00 0.  1.
        -11    1    1    2    0    0  0.58899637041E+01 -0.10936766583E+02  0.38697256826E+03  0.38717189093E+03  0.00000000000E+00 0.  1.
         11    1    1    2    0    0 -0.52390799845E+01  0.20016930311E+02 -0.49825436625E+03  0.49868380658E+03  0.00000000000E+00 0.  1.
        -15    1    1    2    0    0 -0.35627402580E+01 -0.11319523410E+02  0.10860098780E+03  0.10926187353E+03  0.17770000000E+01 0.  1.
         15    1    1    2    0    0  0.29118565384E+01  0.22393596826E+01  0.26808101873E+01  0.48824289600E+01  0.17770000000E+01 0.  1.
</event>
<event>
 6    1  0.1782050E-003  0.4892663E+03  0.7546771E-02  0.9424153E-01
        -11   -1    0    0    0    0  0.00000000000E+00  0.00000000000E+00  0.50000000000E+03  0.50000000000E+03  0.00000000000E+00 0. -1.
         11   -1    0    0    0    0 -0.00000000000E+00 -0.00000000000E+00 -0.50000000000E+03  0.50000000000E+03  0.00000000000E+00 0.  1.
        -11    1    1    2    0    0 -0.62614595786E+01 -0.58313384249E+01  0.48897240877E+03  0.48904726451E+03  0.00000000000E+00 0. -1.
         11    1    1    2    0    0  0.47965732144E+01  0.18367608415E+02 -0.48919863329E+03  0.48956682789E+03  0.00000000000E+00 0.  1.
        -15    1    1    2    0    0  0.97741549362E+00 -0.67341931388E+01 -0.83193155797E+01  0.10893733933E+02  0.17770000000E+01 0. -1.
         15    1    1    2    0    0  0.48747087053E+00 -0.58020768512E+01  0.85455401055E+01  0.10492173670E+02  0.17770000000E+01 0.  1.
</event>
<event>
 6    1  0.1782050E-003  0.5002658E+03  0.7546771E-02  0.9399215E-01
        -11   -1    0    0    0    0  0.00000000000E+00  0.00000000000E+00  0.50000000000E+03  0.50000000000E+03  0.00000000000E+00 0. -1.
         11   -1    0    0    0    0 -0.00000000000E+00 -0.00000000000E+00 -0.50000000000E+03  0.50000000000E+03  0.00000000000E+00 0. -1.
        -11    1    1    2    0    0  0.67745388233E+01 -0.27286999087E+01  0.49968085917E+03  0.49973423057E+03  0.00000000000E+00 0. -1.
         11    1    1    2    0    0 -0.12259333227E+01 -0.54547237799E+00 -0.59865123937E+02  0.59880159624E+02  0.00000000000E+00 0. -1.
        -15    1    1    2    0    0 -0.59185967815E+01 -0.84737329425E+01 -0.21581332081E+03  0.21606800111E+03  0.17770000000E+01 0.  1.
         15    1    1    2    0    0  0.36999128093E+00  0.11747905229E+02 -0.22400241443E+03  0.22431760869E+03  0.17770000000E+01 0. -1.
</event>
<event>
 6    1  0.1782050E-003  0.5002007E+03  0.7546771E-02  0.9399361E-01
        -11   -1    0    0    0    0  0.00000000000E+00  0.00000000000E+00  0.50000000000E+03  0.50000000000E+03  0.00000000000E+00 0.  1.
         11   -1    0    0    0    0 -0.00000000000E+00 -0.00000000000E+00 -0.50000000000E+03  0.50000000000E+03  0.00000000000E+00 0.  1.
        -11    1    1    2    0    0 -0.33167204336E+01 -0.26981490375E+01  0.37819884696E+02  0.38060797694E+02  0.00000000000E+00 0.  1.
         11    1    1    2    0    0  0.10147158074E+02  0.52864336580E+01 -0.49966833031E+03  0.49979931123E+03  0.00000000000E+00 0.  1.
        -15    1    1    2    0    0 -0.40525285190E+01 -0.48807151560E+01  0.42847706137E+03  0.42852770531E+03  0.17770000000E+01 0.  1.
         15    1    1    2    0    0 -0.27779091212E+01  0.22924305355E+01  0.33371384240E+02  0.33612185766E+02  0.17770000000E+01 0.  1.
</event>
<event>
 6    1  0.1782050E-003  0.5009263E+03  0.7546771E-02  0.9397740E-01
        -11   -1    0    0    0    0  0.00000000000E+00  0.00000000000E+00  0.50000000000E+03  0.50000000000E+03  0.00000000000E+00 0. -1.
         11   -1    0    0    0    0 -0.00000000000E+00 -0.00000000000E+00 -0.50000000000E+03  0.50000000000E+03  0.00000000000E+00 0. -1.
        -11    1    1    2    0    0  0.21564160270E+01  0.79208159289E+01  0.46576458276E+03  0.46583691998E+03  0.00000000000E+00 0. -1.
         11    1    1    2    0    0 -0.63124609377E+01 -0.50839043028E+01 -0.49900792616E+03  0.49907374567E+03  0.00000000000E+00 0. -1.
        -15    1    1    2    0    0 -0.14418338058E+01  0.20602057783E+01  0.14918705461E+02  0.15233149189E+02  0.17770000000E+01 0. -1.
         15    1    1    2    0    0  0.55978787165E+01 -0.48971174043E+01  0.18324637934E+02  0.19856185167E+02  0.17770000000E+01 0.  1.
</event>
<event>
 6    1  0.1782050E-003  0.5069457E+03  0.7546771E-02  0.9384401E-01
        -11   -1    0    0    0    0  0.00000000000E+00  0.00000000000E+00  0.50000000000E+03  0.50000000000E+03  0.00000000000E+00 0.  1.
         11   -1    0    0    0    0 -0.00000000000E+00 -0.00000000000E+00 -0.50000000000E+03  0.50000000000E+03  0.00000000000E+00 0. -1.
        -11    1    1    2    0    0 -0.75332315530E+01  0.71747148636E+01  0.45973950834E+03  0.45985719701E+03  0.00000000000E+00 0.  1.
         11    1    1    2    0    0 -0.17056662374E+01 -0.98675746063E+01 -0.49295258415E+03  0.49305428560E+03  0.00000000000E+00 0. -1.
        -15    1    1    2    0    0  0.69636797353E+01  0.12848377969E+02  0.29203661511E+01  0.15008661477E+02  0.17770000000E+01 0. -1.
         15    1    1    2    0    0  0.22752180552E+01 -0.10155518226E+02  0.30292709663E+02  0.32079855913E+02  0.17770000000E+01 0.  1.
</event>
<event>
 6    1  0.1782050E-003  0.5042142E+03  0.7546771E-02  0.9390429E-01
        -11   -1    0    0    0    0  0.00000000000E+00  0.00000000000E+00  0.50000000000E+03  0.50000000000E+03  0.00000000000E+00 0.  1.
         11   -1    0    0    0    0 -0.00000000000E+00 -0.00000000000E+00 -0.50000000000E+03  0.50000000000E+03  0.00000000000E+00 0.  1.
        -11    1    1    2    0    0 -0.48932091139E+01 -0.13251252262E+02  0.49558454495E+03  0.49578582107E+03  0.00000000000E+00 0.  1.
         11    1    1    2    0    0 -0.52757254933E+01 -0.23379855290E+01 -0.21025443780E+03  0.21033361137E+03  0.00000000000E+00 0.  1.
        -15    1    1    2    0    0 -0.89961461044E+00  0.79556510311E+01  0.27111854055E-01  0.82012288000E+01  0.17770000000E+01 0. -1.
         15    1    1    2    0    0  0.11068549218E+02  0.76335867602E+01 -0.28535721900E+03  0.28567933876E+03  0.17770000000E+01 0.  1.
</event>
<event>
 6    1  0.1782050E-003  0.5534522E+03  0.7546771E-02  0.9287559E-01
        -11   -1    0    0    0    0  0.00000000000E+00  0.00000000000E+00  0.50000000000E+03  0.50000000000E+03  0.00000000000E+00 0. -1.
         11   -1    0    0    0    0 -0.00000000000E+00 -0.00000000000E+00 -0.50000000000E+03  0.50000000000E+03  0.00000000000E+00 0. -1.
        -11    1    1    2    0    0 -0.48601582890E+01  0.11163547930E+02  0.44638174184E+03  0.44654776383E+03  0.00000000000E+00 0. -1.
         11    1    1    2    0    0 -0.50613863684E+01 -0.89013988460E+01 -0.42040234628E+03  0.42052703277E+03  0.00000000000E+00 0. -1.
        -15    1    1    2    0    0 -0.52794196894E+02  0.28427025117E+02 -0.60419086425E+01  0.60290839866E+02  0.17770000000E+01 0. -1.
         15    1    1    2    0    0  0.62715741552E+02 -0.30689174201E+02 -0.19937486909E+02  0.72634363526E+02  0.17770000000E+01 0.  1.
</event>
<event>
 6    1  0.1782050E-003  0.5140782E+03  0.7546771E-02  0.9368848E-01
        -11   -1    0    0    0    0  0.00000000000E+00  0.00000000000E+00  0.50000000000E+03  0.50000000000E+03  0.00000000000E+00 0.  1.
         11   -1    0    0    0    0 -0.00000000000E+00 -0.00000000000E+00 -0.50000000000E+03  0.50000000000E+03  0.00000000000E+00 0.  1.
        -11    1    1    2    0    0  0.13694042645E+02  0.23581247725E+02  0.48515602958E+03  0.48592177878E+03  0.00000000000E+00 0.  1.
         11    1    1    2    0    0  0.75079328060E+01  0.21649639626E+01 -0.46509609573E+03  0.46516172928E+03  0.00000000000E+00 0.  1.
        -15    1    1    2    0    0 -0.12654344898E+02 -0.20415265737E+02  0.24324802962E+01  0.24207234648E+02  0.17770000000E+01 0. -1.
         15    1    1    2    0    0 -0.85476305533E+01 -0.53309459502E+01 -0.22492414154E+02  0.24709257299E+02  0.17770000000E+01 0.  1.
</event>
<event>
 6    1  0.1782050E-003  0.5047983E+03  0.7546771E-02  0.9389137E-01
        -11   -1    0    0    0    0  0.00000000000E+00  0.00000000000E+00  0.50000000000E+03  0.50000000000E+03  0.00000000000E+00 0. -1.
         11   -1    0    0    0    0 -0.00000000000E+00 -0.00000000000E+00 -0.50000000000E+03  0.50000000000E+03  0.00000000000E+00 0.  1.
        -11    1    1    2    0    0 -0.74112049994E+01 -0.80950400437E+01  0.49508004010E+03  0.49520167785E+03  0.00000000000E+00 0. -1.
         11    1    1    2    0    0 -0.11241687554E+02  0.36117588722E+00 -0.42496644471E+03  0.42511526097E+03  0.00000000000E+00 0.  1.
        -15    1    1    2    0    0  0.16186726827E+02  0.57743752396E+01 -0.11050050446E+02  0.20508897549E+02  0.17770000000E+01 0. -1.
         15    1    1    2    0    0  0.24661657259E+01  0.19594889169E+01 -0.59063544952E+02  0.59174163632E+02  0.17770000000E+01 0.  1.
</event>
<event>
 6    1  0.1782050E-003  0.5026636E+03  0.7546771E-02  0.9393869E-01
        -11   -1    0    0    0    0  0.00000000000E+00  0.00000000000E+00  0.50000000000E+03  0.50000000000E+03  0.00000000000E+00 0.  1.
         11   -1    0    0    0    0 -0.00000000000E+00 -0.00000000000E+00 -0.50000000000E+03  0.50000000000E+03  0.00000000000E+00 0.  1.
        -11    1    1    2    0    0  0.53029236535E+00 -0.88646421419E+01  0.49725709915E+03  0.49733639093E+03  0.00000000000E+00 0.  1.
         11    1    1    2    0    0 -0.25477690954E+01 -0.53220372618E+01 -0.42253578480E+03  0.42257698073E+03  0.00000000000E+00 0.  1.
        -15    1    1    2    0    0  0.56969909144E+00  0.10716498230E+02 -0.86852652350E+01  0.13919750449E+02  0.17770000000E+01 0. -1.
         15    1    1    2    0    0  0.14477776386E+01  0.34701811741E+01 -0.66036049113E+02  0.66166877884E+02  0.17770000000E+01 0.  1.
</event>
<event>
 6    1  0.1782050E-003  0.5062536E+03  0.7546771E-02  0.9385925E-01
        -11   -1    0    0    0    0  0.00000000000E+00  0.00000000000E+00  0.50000000000E+03  0.50000000000E+03  0.00000000000E+00 0.  1.
         11   -1    0    0    0    0 -0.00000000000E+00 -0.00000000000E+00 -0.50000000000E+03  0.50000000000E+03  0.00000000000E+00 0. -1.
        -11    1    1    2    0    0 -0.10614043679E+02  0.17594854765E+01  0.49362919942E+03  0.49374643313E+03  0.00000000000E+00 0.  1.
         11    1    1    2    0    0  0.37808478821E+01  0.14168819449E+02 -0.44834018231E+03  0.44857994753E+03  0.00000000000E+00 0. -1.
        -15    1    1    2    0    0  0.97031078823E+01 -0.70753758100E+01 -0.77699261966E+00  0.12164402655E+02  0.17770000000E+01 0. -1.
         15    1    1    2    0    0 -0.28699120855E+01 -0.88529291151E+01 -0.44512024490E+02  0.45509216676E+02  0.17770000000E+01 0.  1.
</event>
<event>
 6    1  0.1782050E-003  0.5537739E+03  0.7546771E-02  0.9286925E-01
        -11   -1    0    0    0    0  0.00000000000E+00  0.00000000000E+00  0.50000000000E+03  0.50000000000E+03  0.00000000000E+00 0.  1.
         11   -1    0    0    0    0 -0.00000000000E+00 -0.00000000000E+00 -0.50000000000E+03  0.50000000000E+03  0.00000000000E+00 0.  1.
        -11    1    1    2    0    0  0.21952011751E+02 -0.23441336771E+01  0.44567962873E+03  0.44622608311E+03  0.00000000000E+00 0.  1.
         11    1    1    2    0    0  0.12149866341E+02  0.74470381208E+01 -0.42424509520E+03  0.42448436771E+03  0.00000000000E+00 0.  1.
        -15    1    1    2    0    0 -0.27982533826E+02 -0.15788086577E+02  0.48529237713E+02  0.58228262202E+02  0.17770000000E+01 0. -1.
         15    1    1    2    0    0 -0.61193442659E+01  0.10685182133E+02 -0.69963771243E+02  0.71061286978E+02  0.17770000000E+01 0.  1.
</event>
<event>
 6    1  0.1782050E-003  0.5159254E+03  0.7546771E-02  0.9364864E-01
        -11   -1    0    0    0    0  0.00000000000E+00  0.00000000000E+00  0.50000000000E+03  0.50000000000E+03  0.00000000000E+00 0. -1.
         11   -1    0    0    0    0 -0.00000000000E+00 -0.00000000000E+00 -0.50000000000E+03  0.50000000000E+03  0.00000000000E+00 0. -1.
        -11    1    1    2    0    0  0.56475441071E+01  0.63408716035E+01  0.45091818717E+03  0.45099812963E+03  0.00000000000E+00 0. -1.
         11    1    1    2    0    0 -0.38440956989E+00  0.21466684220E+02 -0.48359819285E+03  0.48407455876E+03  0.00000000000E+00 0. -1.
        -15    1    1    2    0    0  0.61189319269E+01 -0.71786401764E+01  0.39247342330E+02  0.40404032121E+02  0.17770000000E+01 0. -1.
         15    1    1    2    0    0 -0.11382066464E+02 -0.20628915647E+02 -0.65673366434E+01  0.24523279498E+02  0.17770000000E+01 0.  1.
</event>
<event>
 6    1  0.1782050E-003  0.5011940E+03  0.7546771E-02  0.9397142E-01
        -11   -1    0    0    0    0  0.00000000000E+00  0.00000000000E+00  0.50000000000E+03  0.50000000000E+03  0.00000000000E+00 0.  1.
         11   -1    0    0    0    0 -0.00000000000E+00 -0.00000000000E+00 -0.50000000000E+03  0.50000000000E+03  0.00000000000E+00 0. -1.
        -11    1    1    2    0    0  0.27454176800E+01  0.93332134267E+01  0.49871111760E+03  0.49880599938E+03  0.00000000000E+00 0.  1.
         11    1    1    2    0    0  0.20523447788E+01  0.76628410436E+01 -0.32717951119E+03  0.32727566942E+03  0.00000000000E+00 0. -1.
        -15    1    1    2    0    0 -0.67495551543E+01 -0.99416265225E+01 -0.32711150789E+02  0.34893689224E+02  0.17770000000E+01 0. -1.
         15    1    1    2    0    0  0.19517926955E+01 -0.70544279477E+01 -0.13882045563E+03  0.13902464198E+03  0.17770000000E+01 0. -1.
</event>
<event>
 6    1  0.1782050E-003  0.4842624E+03  0.7546771E-02  0.9435729E-01
        -11   -1    0    0    0    0  0.00000000000E+00  0.00000000000E+00  0.50000000000E+03  0.50000000000E+03  0.00000000000E+00 0.  1.
         11   -1    0    0    0    0 -0.00000000000E+00 -0.00000000000E+00 -0.50000000000E+03  0.50000000000E+03  0.00000000000E+00 0.  1.
        -11    1    1    2    0    0 -0.12607500359E+02  0.52731798515E+01  0.48819958612E+03  0.48839081828E+03  0.00000000000E+00 0.  1.
         11    1    1    2    0    0 -0.78593518277E+01  0.20297591829E-01 -0.48033230244E+03  0.48039659719E+03  0.00000000000E+00 0.  1.
        -15    1    1    2    0    0  0.65509261115E+01 -0.23421319580E+00 -0.13626971003E+02  0.15225687388E+02  0.17770000000E+01 0.  1.
         15    1    1    2    0    0  0.13915926075E+02 -0.50592642475E+01  0.57596873224E+01  0.15986897144E+02  0.17770000000E+01 0. -1.
</event>
<event>
 6    1  0.1782050E-003  0.5041859E+03  0.7546771E-02  0.9390492E-01
        -11   -1    0    0    0    0  0.00000000000E+00  0.00000000000E+00  0.50000000000E+03  0.50000000000E+03  0.00000000000E+00 0. -1.
         11   -1    0    0    0    0 -0.00000000000E+00 -0.00000000000E+00 -0.50000000000E+03  0.50000000000E+03  0.00000000000E+00 0.  1.
        -11    1    1    2    0    0 -0.52097064884E+01 -0.41677137962E+01  0.47033844335E+03  0.47038575889E+03  0.00000000000E+00 0. -1.
         11    1    1    2    0    0 -0.54539486227E+01 -0.10384332026E+02 -0.49567532175E+03  0.49581408260E+03  0.00000000000E+00 0.  1.
        -15    1    1    2    0    0 -0.24181936576E+01  0.51491186009E+01  0.89404019044E+01  0.10744747468E+02  0.17770000000E+01 0. -1.
         15    1    1    2    0    0  0.13081848769E+02  0.94029272217E+01  0.16396476501E+02  0.23055411040E+02  0.17770000000E+01 0.  1.
</event>
<event>
 6    1  0.1782050E-003  0.5046093E+03  0.7546771E-02  0.9389555E-01
        -11   -1    0    0    0    0  0.00000000000E+00  0.00000000000E+00  0.50000000000E+03  0.50000000000E+03  0.00000000000E+00 0. -1.
         11   -1    0    0    0    0 -0.00000000000E+00 -0.00000000000E+00 -0.50000000000E+03  0.50000000000E+03  0.00000000000E+00 0. -1.
        -11    1    1    2    0    0  0.27711305957E+02  0.22971754742E+02  0.49408126362E+03  0.49539066711E+03  0.00000000000E+00 0. -1.
         11    1    1    2    0    0 -0.63367287919E+01  0.31020977396E+01 -0.16422492278E+03  0.16437640464E+03  0.00000000000E+00 0. -1.
        -15    1    1    2    0    0 -0.56003842124E+01 -0.93675186469E+01 -0.16049288208E+01  0.11173550664E+02  0.17770000000E+01 0.  1.
         15    1    1    2    0    0 -0.15774192953E+02 -0.16706333835E+02 -0.32825141203E+03  0.32905937759E+03  0.17770000000E+01 0. -1.
</event>
<event>
 6    1  0.1782050E-003  0.5033195E+03  0.7546771E-02  0.9392413E-01
        -11   -1    0    0    0    0  0.00000000000E+00  0.00000000000E+00  0.50000000000E+03  0.50000000000E+03  0.00000000000E+00 0. -1.
         11   -1    0    0    0    0 -0.00000000000E+00 -0.00000000000E+00 -0.50000000000E+03  0.50000000000E+03  0.00000000000E+00 0.  1.
        -11    1    1    2    0    0  0.52602795048E+01 -0.17158650861E+02  0.16251327062E+03  0.16350123231E+03  0.00000000000E+00 0. -1.
         11    1    1    2    0    0  0.12805630392E+02  0.94716182621E+01 -0.49642505945E+03  0.49668051640E+03  0.00000000000E+00 0.  1.
        -15    1    1    2    0    0 -0.72706227068E+01  0.16429874078E+02  0.31843217587E+03  0.31894358604E+03  0.17770000000E+01 0. -1.
         15    1    1    2    0    0 -0.10795287190E+02 -0.87428414793E+01  0.15479612966E+02  0.20874665248E+02  0.17770000000E+01 0.  1.
</event>
<event>
 6    1  0.1782050E-003  0.5035598E+03  0.7546771E-02  0.9391879E-01
        -11   -1    0    0    0    0  0.00000000000E+00  0.00000000000E+00  0.50000000000E+03  0.50000000000E+03  0.00000000000E+00 0.  1.
         11   -1    0    0    0    0 -0.00000000000E+00 -0.00000000000E+00 -0.50000000000E+03  0.50000000000E+03  0.00000000000E+00 0.  1.
        -11    1    1    2    0    0  0.10830178250E+01 -0.74579087809E+01  0.49638297264E+03  0.49644017651E+03  0.00000000000E+00 0.  1.
         11    1    1    2    0    0  0.12851484293E+02  0.26366934919E+01 -0.45227098694E+03  0.45246122312E+03  0.00000000000E+00 0.  1.
        -15    1    1    2    0    0 -0.90729438231E+01  0.76721651930E+01 -0.43533660858E+02  0.45161020638E+02  0.17770000000E+01 0.  1.
         15    1    1    2    0    0 -0.48615582945E+01 -0.28509499041E+01 -0.57832484268E+00  0.59375797283E+01  0.17770000000E+01 0. -1.
</event>
<event>
 6    1  0.1782050E-003  0.5008321E+03  0.7546771E-02  0.9397950E-01
        -11   -1    0    0    0    0  0.00000000000E+00  0.00000000000E+00  0.50000000000E+03  0.50000000000E+03  0.00000000000E+00 0. -1.
         11   -1    0    0    0    0 -0.00000000000E+00 -0.00000000000E+00 -0.50000000000E+03  0.50000000000E+03  0.00000000000E+00 0.  1.
        -11    1    1    2    0    0 -0.33281966640E+01  0.57381339848E+01  0.18627084554E+03  0.18638892396E+03  0.00000000000E+00 0. -1.
         11    1    1    2    0    0  0.82946739768E+01  0.10899191946E+02 -0.49897996110E+03  0.49916790319E+03  0.00000000000E+00 0.  1.
        -15    1    1    2    0    0  0.17854458732E+01  0.48688606959E+01  0.15753262932E+03  0.15762798181E+03  0.17770000000E+01 0. -1.
         15    1    1    2    0    0 -0.67519231860E+01 -0.21506186626E+02  0.15517648623E+03  0.15681519103E+03  0.17770000000E+01 0.  1.
</event>
<event>
 6    1  0.1782050E-003  0.5039701E+03  0.7546771E-02  0.9390970E-01
        -11   -1    0    0    0    0  0.00000000000E+00  0.00000000000E+00  0.50000000000E+03  0.50000000000E+03  0.00000000000E+00 0.  1.
         11   -1    0    0    0    0 -0.00000000000E+00 -0.00000000000E+00 -0.50000000000E+03  0.50000000000E+03  0.00000000000E+00 0. -1.
        -11    1    1    2    0    0  0.22980095890E+01 -0.14114242457E+02  0.49582372898E+03  0.49602990123E+03  0.00000000000E+00 0.  1.
         11    1    1    2    0    0 -0.12154333796E+02 -0.73583645343E+01 -0.36789112685E+03  0.36816539025E+03  0.00000000000E+00 0. -1.
        -15    1    1    2    0    0 -0.14383519649E+02  0.45193247576E+01 -0.32372935705E+02  0.35755763576E+02  0.17770000000E+01 0.  1.
         15    1    1    2    0    0  0.24239843856E+02  0.16953282234E+02 -0.95559666428E+02  0.10004894495E+03  0.17770000000E+01 0. -1.
</event>
<event>
 6    1  0.1782050E-003  0.5020929E+03  0.7546771E-02  0.9395139E-01
        -11   -1    0    0    0    0  0.00000000000E+00  0.00000000000E+00  0.50000000000E+03  0.50000000000E+03  0.00000000000E+00 0.  1.
         11   -1    0    0    0    0 -0.00000000000E+00 -0.00000000000E+00 -0.50000000000E+03  0.50000000000E+03  0.00000000000E+00 0. -1.
        -11    1    1    2    0    0 -0.35736322236E+01  0.91903561865E+01  0.44622575226E+03  0.44633468997E+03  0.00000000000E+00 0.  1.
         11    1    1    2    0    0 -0.10242006581E+02 -0.46461566593E+01 -0.49778003185E+03  0.49790706521E+03  0.00000000000E+00 0. -1.
        -15    1    1    2    0    0  0.73823532397E+01 -0.85256275843E+01  0.41550647225E+02  0.43090596177E+02  0.17770000000E+01 0.  1.
         15    1    1    2    0    0  0.64332855652E+01  0.39814280571E+01  0.10003632369E+02  0.12667648642E+02  0.17770000000E+01 0. -1.
</event>
<event>
 6    1  0.1782050E-003  0.5141566E+03  0.7546771E-02  0.9368679E-01
        -11   -1    0    0    0    0  0.00000000000E+00  0.00000000000E+00  0.50000000000E+03  0.50000000000E+03  0.00000000000E+00 0. -1.
         11   -1    0    0    0    0 -0.00000000000E+00 -0.00000000000E+00 -0.50000000000E+03  0.50000000000E+03  0.00000000000E+00 0.  1.
        -11    1    1    2    0    0 -0.51316848683E+01 -0.41478296678E+01  0.48579862215E+03  0.48584343154E+03  0.00000000000E+00 0. -1.
         11    1    1    2    0    0  0.32806522932E+00 -0.65045090910E+01 -0.47257541328E+03  0.47262028892E+03  0.00000000000E+00 0.  1.
        -15    1    1    2    0    0  0.93544505197E+01 -0.58686000519E+01  0.83282868817E+01  0.13945045804E+02  0.17770000000E+01 0.  1.
         15    1    1    2    0    0 -0.45508308807E+01  0.16520938811E+02 -0.21551495758E+02  0.27591233740E+02  0.17770000000E+01 0. -1.
</event>
<event>
 6    1  0.1782050E-003  0.5171986E+03  0.7546771E-02  0.9362128E-01
        -11   -1    0    0    0    0  0.00000000000E+00  0.00000000000E+00  0.50000000000E+03  0.50000000000E+03  0.00000000000E+00 0. -1.
         11   -1    0    0    0    0 -0.00000000000E+00 -0.00000000000E+00 -0.50000000000E+03  0.50000000000E+03  0.00000000000E+00 0. -1.
        -11    1    1    2    0    0 -0.51753740279E+01  0.12885547514E+02  0.48260166502E+03  0.48280139696E+03  0.00000000000E+00 0. -1.
         11    1    1    2    0    0 -0.11238543270E+02 -0.12827156693E+02 -0.45617162141E+03  0.45649029451E+03  0.00000000000E+00 0. -1.
        -15    1    1    2    0    0  0.24449436499E+02  0.15115503076E+02 -0.31535565918E+02  0.42707177677E+02  0.17770000000E+01 0. -1.
         15    1    1    2    0    0 -0.80355192011E+01 -0.15173893897E+02  0.51055223115E+01  0.18001130851E+02  0.17770000000E+01 0.  1.
</event>
<event>
 6    1  0.1782050E-003  0.5067572E+03  0.7546771E-02  0.9384816E-01
        -11   -1    0    0    0    0  0.00000000000E+00  0.00000000000E+00  0.50000000000E+03  0.50000000000E+03  0.00000000000E+00 0. -1.
         11   -1    0    0    0    0 -0.00000000000E+00 -0.00000000000E+00 -0.50000000000E+03  0.50000000000E+03  0.00000000000E+00 0.  1.
        -11    1    1    2    0    0 -0.14215595268E+02  0.82801154112E+00  0.49303718047E+03  0.49324276992E+03  0.00000000000E+00 0. -1.
         11    1    1    2    0    0  0.39499024110E+01 -0.57942978748E+01 -0.43759816926E+03  0.43765435375E+03  0.00000000000E+00 0.  1.
        -15    1    1    2    0    0 -0.13787256605E+02  0.93259705853E+01 -0.22895621184E+02  0.28362464111E+02  0.17770000000E+01 0.  1.
         15    1    1    2    0    0  0.24052949463E+02 -0.43596842516E+01 -0.32543390020E+02  0.40740412217E+02  0.17770000000E+01 0. -1.
</event>
<event>
 6    1  0.1782050E-003  0.4983260E+03  0.7546771E-02  0.9403563E-01
        -11   -1    0    0    0    0  0.00000000000E+00  0.00000000000E+00  0.50000000000E+03  0.50000000000E+03  0.00000000000E+00 0. -1.
         11   -1    0    0    0    0 -0.00000000000E+00 -0.00000000000E+00 -0.50000000000E+03  0.50000000000E+03  0.00000000000E+00 0.  1.
        -11    1    1    2    0    0  0.81890029775E+00 -0.11431747607E+01  0.31404596137E+01  0.34409203444E+01  0.00000000000E+00 0. -1.
         11    1    1    2    0    0 -0.18419995445E+01 -0.77139308738E+01 -0.49972867303E+03  0.49979160091E+03  0.00000000000E+00 0.  1.
        -15    1    1    2    0    0  0.29250250713E+01 -0.47048925534E-02  0.21643042054E+03  0.21645747956E+03  0.17770000000E+01 0.  1.
         15    1    1    2    0    0 -0.19019258246E+01  0.88618105271E+01  0.28015779288E+03  0.28030999919E+03  0.17770000000E+01 0. -1.
</event>
<event>
 6    1  0.1782050E-003  0.5032017E+03  0.7546771E-02  0.9392674E-01
        -11   -1    0    0    0    0  0.00000000000E+00  0.00000000000E+00  0.50000000000E+03  0.50000000000E+03  0.00000000000E+00 0. -1.
         11   -1    0    0    0    0 -0.00000000000E+00 -0.00000000000E+00 -0.50000000000E+03  0.50000000000E+03  0.00000000000E+00 0.  1.
        -11    1    1    2    0    0 -0.18708286817E+01  0.64286536050E+01  0.20817879404E+03  0.20828643228E+03  0.00000000000E+00 0. -1.
         11    1    1    2    0    0  0.21407219613E+02 -0.30904035309E+02 -0.49537379715E+03  0.49679827632E+03  0.00000000000E+00 0.  1.
        -15    1    1    2    0    0  0.25036784201E+01  0.41787318103E+01  0.23224074089E+03  0.23229862174E+03  0.17770000000E+01 0. -1.
         15    1    1    2    0    0 -0.22040069352E+02  0.20296649894E+02  0.54954262224E+02  0.62616669662E+02  0.17770000000E+01 0.  1.
</event>
<event>
 6    1  0.1782050E-003  0.5030682E+03  0.7546771E-02  0.9392970E-01
        -11   -1    0    0    0    0  0.00000000000E+00  0.00000000000E+00  0.50000000000E+03  0.50000000000E+03  0.00000000000E+00 0.  1.
         11   -1    0    0    0    0 -0.00000000000E+00 -0.00000000000E+00 -0.50000000000E+03  0.50000000000E+03  0.00000000000E+00 0. -1.
        -11    1    1    2    0    0  0.19442294087E+01  0.10726142812E+02  0.43885654495E+03  0.43899191019E+03  0.00000000000E+00 0.  1.
         11    1    1    2    0    0 -0.69074645597E+01 -0.30422740646E+01 -0.49687445754E+03  0.49693178108E+03  0.00000000000E+00 0. -1.
        -15    1    1    2    0    0  0.47145023844E+01  0.22724231299E+01  0.52025082993E+02  0.52317850004E+02  0.17770000000E+01 0.  1.
         15    1    1    2    0    0  0.24873276664E+00 -0.99562918770E+01  0.59928295897E+01  0.11758458718E+02  0.17770000000E+01 0. -1.
</event>
<event>
 6    1  0.1782050E-003  0.5013911E+03  0.7546771E-02  0.9396702E-01
        -11   -1    0    0    0    0  0.00000000000E+00  0.00000000000E+00  0.50000000000E+03  0.50000000000E+03  0.00000000000E+00 0. -1.
         11   -1    0    0    0    0 -0.00000000000E+00 -0.00000000000E+00 -0.50000000000E+03  0.50000000000E+03  0.00000000000E+00 0. -1.
        -11    1    1    2    0    0 -0.59190233832E+01  0.95456444284E+01  0.40077932372E+03  0.40093667890E+03  0.00000000000E+00 0. -1.
         11    1    1    2    0    0  0.70779258463E+01 -0.16217764850E+01 -0.49855600248E+03  0.49860887959E+03  0.00000000000E+00 0. -1.
        -15    1    1    2    0    0 -0.75551747379E+01 -0.71123164219E+01  0.22061824257E+02  0.24444785308E+02  0.17770000000E+01 0.  1.
         15    1    1    2    0    0  0.63962722748E+01 -0.81155152148E+00  0.75714854503E+02  0.76009656205E+02  0.17770000000E+01 0. -1.
</event>
<event>
 6    1  0.1782050E-003  0.5004382E+03  0.7546771E-02  0.9398830E-01
        -11   -1    0    0    0    0  0.00000000000E+00  0.00000000000E+00  0.50000000000E+03  0.50000000000E+03  0.00000000000E+00 0. -1.
         11   -1    0    0    0    0 -0.00000000000E+00 -0.00000000000E+00 -0.50000000000E+03  0.50000000000E+03  0.00000000000E+00 0. -1.
        -11    1    1    2    0    0 -0.18400481715E+01  0.87812343995E+01  0.38872017911E+03  0.38882370492E+03  0.00000000000E+00 0. -1.
         11    1    1    2    0    0  0.12107654223E+02 -0.65081640081E+01 -0.49937259722E+03  0.49956175029E+03  0.00000000000E+00 0. -1.
        -15    1    1    2    0    0  0.49015856090E+00 -0.18347509847E+01  0.43819249809E+02  0.43896366016E+02  0.17770000000E+01 0. -1.
         15    1    1    2    0    0 -0.10757764612E+02 -0.43831940666E+00  0.66833168303E+02  0.67718178783E+02  0.17770000000E+01 0.  1.
</event>
<event>
 6    1  0.1782050E-003  0.5026960E+03  0.7546771E-02  0.9393797E-01
        -11   -1    0    0    0    0  0.00000000000E+00  0.00000000000E+00  0.50000000000E+03  0.50000000000E+03  0.00000000000E+00 0.  1.
         11   -1    0    0    0    0 -0.00000000000E+00 -0.00000000000E+00 -0.50000000000E+03  0.50000000000E+03  0.00000000000E+00 0. -1.
        -11    1    1    2    0    0 -0.27323050741E+02 -0.87505719425E+01  0.49647575372E+03  0.49730402738E+03  0.00000000000E+00 0.  1.
         11    1    1    2    0    0 -0.16519317183E+01  0.65951571415E+01 -0.15478229474E+03  0.15493154534E+03  0.00000000000E+00 0. -1.
        -15    1    1    2    0    0  0.68303656333E+01 -0.17959412390E+01 -0.30213642350E+03  0.30222418076E+03  0.17770000000E+01 0. -1.
         15    1    1    2    0    0  0.22144616826E+02  0.39513560400E+01 -0.39557035480E+02  0.45540246529E+02  0.17770000000E+01 0.  1.
</event>
<event>
 6    1  0.1782050E-003  0.5018457E+03  0.7546771E-02  0.9395689E-01
        -11   -1    0    0    0    0  0.00000000000E+00  0.00000000000E+00  0.50000000000E+03  0.50000000000E+03  0.00000000000E+00 0. -1.
         11   -1    0    0    0    0 -0.00000000000E+00 -0.00000000000E+00 -0.50000000000E+03  0.50000000000E+03  0.00000000000E+00 0. -1.
        -11    1    1    2    0    0 -0.87171514701E+01  0.53873045765E+01  0.44406121112E+03  0.44417943559E+03  0.00000000000E+00 0. -1.
         11    1    1    2    0    0  0.35558256937E-01  0.10154300642E+02 -0.49805078761E+03  0.49815429149E+03  0.00000000000E+00 0. -1.
        -15    1    1    2    0    0 -0.50592981543E+00 -0.36509719889E+00  0.22136005490E+01  0.29063752912E+01  0.17770000000E+01 0.  1.
         15    1    1    2    0    0  0.91875230286E+01 -0.15176508019E+02  0.51775975938E+02  0.54759897630E+02  0.17770000000E+01 0. -1.
</event>
<event>
 6    1  0.1782050E-003  0.5008144E+03  0.7546771E-02  0.9397989E-01
        -11   -1    0    0    0    0  0.00000000000E+00  0.00000000000E+00  0.50000000000E+03  0.50000000000E+03  0.00000000000E+00 0. -1.
         11   -1    0    0    0    0 -0.00000000000E+00 -0.00000000000E+00 -0.50000000000E+03  0.50000000000E+03  0.00000000000E+00 0. -1.
        -11    1    1    2    0    0 -0.10440086460E+02  0.65208305797E-01  0.49907640814E+03  0.49918559757E+03  0.00000000000E+00 0. -1.
         11    1    1    2    0    0 -0.53271113405E+01 -0.62444824117E+01 -0.19313981537E+03  0.19331414836E+03  0.00000000000E+00 0. -1.
        -15    1    1    2    0    0  0.53461961461E+01 -0.26263507204E+01 -0.14978523256E+02  0.16217071846E+02  0.17770000000E+01 0.  1.
         15    1    1    2    0    0  0.10421001655E+02  0.88056248262E+01 -0.29095806951E+03  0.29128318223E+03  0.17770000000E+01 0. -1.
</event>
<event>
 6    1  0.1782050E-003  0.5039807E+03  0.7546771E-02  0.9390946E-01
        -11   -1    0    0    0    0  0.00000000000E+00  0.00000000000E+00  0.50000000000E+03  0.50000000000E+03  0.00000000000E+00 0.  1.
         11   -1    0    0    0    0 -0.00000000000E+00 -0.00000000000E+00 -0.50000000000E+03  0.50000000000E+03  0.00000000000E+00 0.  1.
        -11    1    1    2    0    0 -0.25476713327E+01 -0.99642852314E+01  0.49591264103E+03  0.49601927900E+03  0.00000000000E+00 0.  1.
         11    1    1    2    0    0 -0.13695636911E+01 -0.86644391453E+01 -0.42297687758E+03  0.42306782810E+03  0.00000000000E+00 0.  1.
        -15    1    1    2    0    0  0.35768491814E+01  0.13705371498E+02 -0.92474390304E+01  0.17008936345E+02  0.17770000000E+01 0.  1.
         15    1    1    2    0    0  0.34038584242E+00  0.49233528783E+01 -0.63688324423E+02  0.63903956551E+02  0.17770000000E+01 0.  1.
</event>
<event>
 6    1  0.1782050E-003  0.4812660E+03  0.7546771E-02  0.9442733E-01
        -11   -1    0    0    0    0  0.00000000000E+00  0.00000000000E+00  0.50000000000E+03  0.50000000000E+03  0.00000000000E+00 0. -1.
         11   -1    0    0    0    0 -0.00000000000E+00 -0.00000000000E+00 -0.50000000000E+03  0.50000000000E+03  0.00000000000E+00 0. -1.
        -11    1    1    2    0    0  0.96684697112E+01  0.18168421146E+02  0.48168432266E+03  0.48212379896E+03  0.00000000000E+00 0. -1.
         11    1    1    2    0    0 -0.79221192235E+01  0.41626403383E+01 -0.48058607592E+03  0.48066939149E+03  0.00000000000E+00 0. -1.
        -15    1    1    2    0    0  0.77525844838E+01  0.11127599008E+01 -0.75700695211E+01  0.11036506799E+02  0.17770000000E+01 0.  1.
         15    1    1    2    0    0 -0.94989349716E+01 -0.23443821385E+02  0.64718227830E+01  0.26170302747E+02  0.17770000000E+01 0. -1.
</event>
<event>
 6    1  0.1782050E-003  0.4989744E+03  0.7546771E-02  0.9402108E-01
        -11   -1    0    0    0    0  0.00000000000E+00  0.00000000000E+00  0.50000000000E+03  0.50000000000E+03  0.00000000000E+00 0.  1.
         11   -1    0    0    0    0 -0.00000000000E+00 -0.00000000000E+00 -0.50000000000E+03  0.50000000000E+03  0.00000000000E+00 0.  1.
        -11    1    1    2    0    0 -0.72057639386E+00 -0.30035098417E+00  0.21275711856E+01  0.22662745206E+01  0.00000000000E+00 0.  1.
         11    1    1    2    0    0 -0.10774518172E+01 -0.93980582585E+01 -0.49972798634E+03  0.49981751143E+03  0.00000000000E+00 0.  1.
        -15    1    1    2    0    0  0.51863407258E-01  0.60149192046E+01  0.46154351445E+03  0.46158613000E+03  0.17770000000E+01 0.  1.
         15    1    1    2    0    0  0.17461648038E+01  0.36834900381E+01  0.36056900701E+02  0.36330084056E+02  0.17770000000E+01 0. -1.
</event>
<event>
 6    1  0.1782050E-003  0.4701405E+03  0.7546771E-02  0.9469219E-01
        -11   -1    0    0    0    0  0.00000000000E+00  0.00000000000E+00  0.50000000000E+03  0.50000000000E+03  0.00000000000E+00 0.  1.
         11   -1    0    0    0    0 -0.00000000000E+00 -0.00000000000E+00 -0.50000000000E+03  0.50000000000E+03  0.00000000000E+00 0.  1.
        -11    1    1    2    0    0  0.72603336420E+01  0.13261709354E+02  0.46976338225E+03  0.47000661770E+03  0.00000000000E+00 0.  1.
         11    1    1    2    0    0 -0.21816243132E+02  0.10202707757E+02 -0.47006318279E+03  0.47067976324E+03  0.00000000000E+00 0.  1.
        -15    1    1    2    0    0 -0.33544552838E-01 -0.30134736241E+02  0.18169964218E+02  0.35233631409E+02  0.17770000000E+01 0.  1.
         15    1    1    2    0    0  0.14589454043E+02  0.66703191294E+01 -0.17870163671E+02  0.24079987649E+02  0.17770000000E+01 0. -1.
</event>
<event>
 6    1  0.1782050E-003  0.5044456E+03  0.7546771E-02  0.9389917E-01
        -11   -1    0    0    0    0  0.00000000000E+00  0.00000000000E+00  0.50000000000E+03  0.50000000000E+03  0.00000000000E+00 0. -1.
         11   -1    0    0    0    0 -0.00000000000E+00 -0.00000000000E+00 -0.50000000000E+03  0.50000000000E+03  0.00000000000E+00 0.  1.
        -11    1    1    2    0    0 -0.21036189961E+01  0.72104388017E+01  0.47117465153E+03  0.47123451475E+03  0.00000000000E+00 0. -1.
         11    1    1    2    0    0 -0.98852368099E+01  0.18662112996E+01 -0.49545226765E+03  0.49555438670E+03  0.00000000000E+00 0.  1.
        -15    1    1    2    0    0  0.70225295970E+01 -0.53043540351E+01  0.25115842059E+02  0.26672370442E+02  0.17770000000E+01 0.  1.
         15    1    1    2    0    0  0.49663262090E+01 -0.37722960662E+01 -0.83822594147E+00  0.65387281144E+01  0.17770000000E+01 0. -1.
</event>
<event>
 6    1  0.1782050E-003  0.5016740E+03  0.7546771E-02  0.9396072E-01
        -11   -1    0    0    0    0  0.00000000000E+00  0.00000000000E+00  0.50000000000E+03  0.50000000000E+03  0.00000000000E+00 0.  1.
         11   -1    0    0    0    0 -0.00000000000E+00 -0.00000000000E+00 -0.50000000000E+03  0.50000000000E+03  0.00000000000E+00 0.  1.
        -11    1    1    2    0    0 -0.77326370418E+01 -0.45722388047E+01  0.41121210548E+03  0.41131021716E+03  0.00000000000E+00 0.  1.
         11    1    1    2    0    0  0.49124505519E+01 -0.63461702339E+01 -0.49826139781E+03  0.49832602440E+03  0.00000000000E+00 0.  1.
        -15    1    1    2    0    0  0.84268645669E+01 -0.30155357691E+01  0.32849121521E+02  0.34092932055E+02  0.17770000000E+01 0.  1.
         15    1    1    2    0    0 -0.56066780771E+01  0.13933944808E+02  0.54200170809E+02  0.56270826381E+02  0.17770000000E+01 0. -1.
</event>
<event>
 6    1  0.1782050E-003  0.5115374E+03  0.7546771E-02  0.9374358E-01
        -11   -1    0    0    0    0  0.00000000000E+00  0.00000000000E+00  0.50000000000E+03  0.50000000000E+03  0.00000000000E+00 0. -1.
         11   -1    0    0    0    0 -0.00000000000E+00 -0.00000000000E+00 -0.50000000000E+03  0.50000000000E+03  0.00000000000E+00 0.  1.
        -11    1    1    2    0    0  0.29883238891E+02 -0.10298678491E+02  0.16655329435E+03  0.16952601749E+03  0.00000000000E+00 0. -1.
         11    1    1    2    0    0 -0.43264286788E+01  0.14173844236E+02 -0.48823776262E+03  0.48846261749E+03  0.00000000000E+00 0.  1.
        -15    1    1    2    0    0 -0.30287976008E+02  0.11930688481E+02  0.32366198801E+03  0.32529977410E+03  0.17770000000E+01 0. -1.
         15    1    1    2    0    0  0.47311657958E+01 -0.15805854227E+02 -0.19775197466E+01  0.16711590917E+02  0.17770000000E+01 0.  1.
</event>
<event>
 6    1  0.1782050E-003  0.5003088E+03  0.7546771E-02  0.9399119E-01
        -11   -1    0    0    0    0  0.00000000000E+00  0.00000000000E+00  0.50000000000E+03  0.50000000000E+03  0.00000000000E+00 0.  1.
         11   -1    0    0    0    0 -0.00000000000E+00 -0.00000000000E+00 -0.50000000000E+03  0.50000000000E+03  0.00000000000E+00 0.  1.
        -11    1    1    2    0    0  0.42470606501E+00  0.12173483031E+01  0.40381753191E+02  0.40402330414E+02  0.00000000000E+00 0.  1.
         11    1    1    2    0    0 -0.45516332164E+01  0.10684184033E+02 -0.49955627497E+03  0.49969124568E+03  0.00000000000E+00 0.  1.
        -15    1    1    2    0    0  0.28976475703E+01  0.40827574644E+01  0.26800508995E+03  0.26805773863E+03  0.17770000000E+01 0.  1.
         15    1    1    2    0    0  0.12292795811E+01 -0.15984289800E+02  0.19116943182E+03  0.19184868527E+03  0.17770000000E+01 0. -1.
</event>
<event>
 6    1  0.1782050E-003  0.5082321E+03  0.7546771E-02  0.9381576E-01
        -11   -1    0    0    0    0  0.00000000000E+00  0.00000000000E+00  0.50000000000E+03  0.50000000000E+03  0.00000000000E+00 0. -1.
         11   -1    0    0    0    0 -0.00000000000E+00 -0.00000000000E+00 -0.50000000000E+03  0.50000000000E+03  0.00000000000E+00 0.  1.
        -11    1    1    2    0    0  0.96278510112E+01  0.30503804738E+01  0.49166414000E+03  0.49176785874E+03  0.00000000000E+00 0. -1.
         11    1    1    2    0    0 -0.11082730451E+02  0.91819251499E+01 -0.44585494207E+03  0.44608717089E+03  0.00000000000E+00 0.  1.
        -15    1    1    2    0    0  0.17914813306E+02  0.42791545416E+01 -0.22462693255E+02  0.29102955462E+02  0.17770000000E+01 0. -1.
         15    1    1    2    0    0 -0.16459933866E+02 -0.16511460165E+02 -0.23346504672E+02  0.33042014906E+02  0.17770000000E+01 0.  1.
</event>
<event>
 6    1  0.1782050E-003  0.5196408E+03  0.7546771E-02  0.9356904E-01
        -11   -1    0    0    0    0  0.00000000000E+00  0.00000000000E+00  0.50000000000E+03  0.50000000000E+03  0.00000000000E+00 0.  1.
         11   -1    0    0    0    0 -0.00000000000E+00 -0.00000000000E+00 -0.50000000000E+03  0.50000000000E+03  0.00000000000E+00 0. -1.
        -11    1    1    2    0    0 -0.16413121596E+01  0.82036873105E+01  0.48028638305E+03  0.48035924487E+03  0.00000000000E+00 0.  1.
         11    1    1    2    0    0 -0.14465528236E+02 -0.11664895520E+02 -0.44523904687E+03  0.44562667128E+03  0.00000000000E+00 0. -1.
        -15    1    1    2    0    0  0.67398628420E+01  0.20941448137E+02 -0.46193490317E+02  0.51195373598E+02  0.17770000000E+01 0.  1.
         15    1    1    2    0    0  0.93669775531E+01 -0.17480239928E+02  0.11146154142E+02  0.22818710252E+02  0.17770000000E+01 0. -1.
</event>
<event>
 6    1  0.1782050E-003  0.5070207E+03  0.7546771E-02  0.9384236E-01
        -11   -1    0    0    0    0  0.00000000000E+00  0.00000000000E+00  0.50000000000E+03  0.50000000000E+03  0.00000000000E+00 0. -1.
         11   -1    0    0    0    0 -0.00000000000E+00 -0.00000000000E+00 -0.50000000000E+03  0.50000000000E+03  0.00000000000E+00 0.  1.
        -11    1    1    2    0    0  0.12840458234E+02 -0.61785202177E+01  0.46278042618E+03  0.46299975631E+03  0.00000000000E+00 0. -1.
         11    1    1    2    0    0  0.68408372991E+01 -0.40043608238E+00 -0.49293169544E+03  0.49297932388E+03  0.00000000000E+00 0.  1.
        -15    1    1    2    0    0  0.34583221713E+01  0.28956613902E+01  0.15707275611E+02  0.16438402697E+02  0.17770000000E+01 0. -1.
         15    1    1    2    0    0 -0.23139617704E+02  0.36832949099E+01  0.14443993647E+02  0.27582517115E+02  0.17770000000E+01 0.  1.
</event>
<event>
 6    1  0.1782050E-003  0.5173433E+03  0.7546771E-02  0.9361818E-01
        -11   -1    0    0    0    0  0.00000000000E+00  0.00000000000E+00  0.50000000000E+03  0.50000000000E+03  0.00000000000E+00 0. -1.
         11   -1    0    0    0    0 -0.00000000000E+00 -0.00000000000E+00 -0.50000000000E+03  0.50000000000E+03  0.00000000000E+00 0.  1.
        -11    1    1    2    0    0  0.12281685739E+02  0.21333457774E+01  0.43394301341E+03  0.43412202185E+03  0.00000000000E+00 0. -1.
         11    1    1    2    0    0  0.24382056399E+01 -0.15067332050E+02 -0.48241529859E+03  0.48265669958E+03  0.00000000000E+00 0.  1.
        -15    1    1    2    0    0 -0.61272392552E+01  0.25934187291E+02  0.58704661575E+02  0.64494342008E+02  0.17770000000E+01 0. -1.
         15    1    1    2    0    0 -0.85926521237E+01 -0.13000201019E+02 -0.10232376399E+02  0.18726936557E+02  0.17770000000E+01 0.  1.
</event>
<event>
 6    1  0.1782050E-003  0.5007037E+03  0.7546771E-02  0.9398237E-01
        -11   -1    0    0    0    0  0.00000000000E+00  0.00000000000E+00  0.50000000000E+03  0.50000000000E+03  0.00000000000E+00 0. -1.
         11   -1    0    0    0    0 -0.00000000000E+00 -0.00000000000E+00 -0.50000000000E+03  0.50000000000E+03  0.00000000000E+00 0. -1.
        -11    1    1    2    0    0 -0.65616708196E+01 -0.10225801300E+02  0.18630179306E+03  0.18669756461E+03  0.00000000000E+00 0. -1.
         11    1    1    2    0    0  0.97314824183E+01 -0.19018540353E+01 -0.49919786370E+03  0.49929633077E+03  0.00000000000E+00 0. -1.
        -15    1    1    2    0    0 -0.35773438197E+01  0.48026131854E+01  0.18749456899E+02  0.19762650258E+02  0.17770000000E+01 0.  1.
         15    1    1    2    0    0  0.40753222101E+00  0.73250421495E+01  0.29414661374E+03  0.29424345436E+03  0.17770000000E+01 0. -1.
</event>
<event>
 6    1  0.1782050E-003  0.5026773E+03  0.7546771E-02  0.9393839E-01
        -11   -1    0    0    0    0  0.00000000000E+00  0.00000000000E+00  0.50000000000E+03  0.50000000000E+03  0.00000000000E+00 0.  1.
         11   -1    0    0    0    0 -0.00000000000E+00 -0.00000000000E+00 -0.50000000000E+03  0.50000000000E+03  0.00000000000E+00 0. -1.
        -11    1    1    2    0    0 -0.59823954172E+01  0.17784539929E+01  0.35502653920E+03  0.35508139277E+03  0.00000000000E+00 0.  1.
         11    1    1    2    0    0 -0.21296549573E+02  0.10975319331E+02 -0.49674525862E+03  0.49732268460E+03  0.00000000000E+00 0. -1.
        -15    1    1    2    0    0  0.81598238951E+00  0.16926827265E+01 -0.10862390838E+00  0.25885382412E+01  0.17770000000E+01 0. -1.
         15    1    1    2    0    0  0.26462962601E+02 -0.14446456051E+02  0.14182734332E+03  0.14500738438E+03  0.17770000000E+01 0.  1.
</event>
<event>
 6    1  0.1782050E-003  0.5025049E+03  0.7546771E-02  0.9394222E-01
        -11   -1    0    0    0    0  0.00000000000E+00  0.00000000000E+00  0.50000000000E+03  0.50000000000E+03  0.00000000000E+00 0.  1.
         11   -1    0    0    0    0 -0.00000000000E+00 -0.00000000000E+00 -0.50000000000E+03  0.50000000000E+03  0.00000000000E+00 0.  1.
        -11    1    1    2    0    0  0.16053003229E+01 -0.71706991785E+01  0.49744078640E+03  0.49749505715E+03  0.00000000000E+00 0.  1.
         11    1    1    2    0    0 -0.93190494109E+01 -0.17974633009E+01 -0.44436417565E+03  0.44446551740E+03  0.00000000000E+00 0.  1.
        -15    1    1    2    0    0 -0.23099922520E+01  0.58811842825E+01 -0.42621470654E+02  0.43123913116E+02  0.17770000000E+01 0.  1.
         15    1    1    2    0    0  0.10023741340E+02  0.30869781969E+01 -0.10455140090E+02  0.14915512332E+02  0.17770000000E+01 0. -1.
</event>
<event>
 6    1  0.1782050E-003  0.5087241E+03  0.7546771E-02  0.9380498E-01
        -11   -1    0    0    0    0  0.00000000000E+00  0.00000000000E+00  0.50000000000E+03  0.50000000000E+03  0.00000000000E+00 0.  1.
         11   -1    0    0    0    0 -0.00000000000E+00 -0.00000000000E+00 -0.50000000000E+03  0.50000000000E+03  0.00000000000E+00 0.  1.
        -11    1    1    2    0    0 -0.82443473971E+01  0.24073504389E+01  0.49120086635E+03  0.49127594659E+03  0.00000000000E+00 0.  1.
         11    1    1    2    0    0 -0.18684902630E+02  0.13172290873E+02 -0.40297056390E+03  0.40361852064E+03  0.00000000000E+00 0.  1.
        -15    1    1    2    0    0  0.17661498492E+02 -0.27459492385E+02 -0.82747819118E+02  0.88973656488E+02  0.17770000000E+01 0. -1.
         15    1    1    2    0    0  0.92677515350E+01  0.11879851073E+02 -0.54824833307E+01  0.16131876286E+02  0.17770000000E+01 0.  1.
</event>
<event>
 6    1  0.1782050E-003  0.5123755E+03  0.7546771E-02  0.9372537E-01
        -11   -1    0    0    0    0  0.00000000000E+00  0.00000000000E+00  0.50000000000E+03  0.50000000000E+03  0.00000000000E+00 0. -1.
         11   -1    0    0    0    0 -0.00000000000E+00 -0.00000000000E+00 -0.50000000000E+03  0.50000000000E+03  0.00000000000E+00 0.  1.
        -11    1    1    2    0    0 -0.23969123100E+02 -0.78919297341E+01  0.46195169870E+03  0.46264043636E+03  0.00000000000E+00 0. -1.
         11    1    1    2    0    0 -0.76134436003E+01 -0.41624874887E+01 -0.48754728072E+03  0.48762448848E+03  0.00000000000E+00 0.  1.
        -15    1    1    2    0    0  0.29147124093E+02  0.18467997200E+02  0.24952109300E+02  0.42619094911E+02  0.17770000000E+01 0. -1.
         15    1    1    2    0    0  0.24354426076E+01 -0.64135799774E+01  0.64347271805E+00  0.71159802530E+01  0.17770000000E+01 0.  1.
</event>
<event>
 6    1  0.1782050E-003  0.5040392E+03  0.7546771E-02  0.9390817E-01
        -11   -1    0    0    0    0  0.00000000000E+00  0.00000000000E+00  0.50000000000E+03  0.50000000000E+03  0.00000000000E+00 0.  1.
         11   -1    0    0    0    0 -0.00000000000E+00 -0.00000000000E+00 -0.50000000000E+03  0.50000000000E+03  0.00000000000E+00 0.  1.
        -11    1    1    2    0    0  0.57661884703E+01 -0.11021220992E+02  0.49580475862E+03  0.49596075945E+03  0.00000000000E+00 0.  1.
         11    1    1    2    0    0 -0.16828318976E+01 -0.58640978556E+01 -0.41992598615E+03  0.41997030063E+03  0.00000000000E+00 0.  1.
        -15    1    1    2    0    0 -0.43957901290E+01  0.92816209465E+01 -0.31027985214E+01  0.10874582563E+02  0.17770000000E+01 0. -1.
         15    1    1    2    0    0  0.31243355621E+00  0.76036979015E+01 -0.72775973946E+02  0.73194357359E+02  0.17770000000E+01 0. -1.
</event>
<event>
 6    1  0.1782050E-003  0.5012683E+03  0.7546771E-02  0.9396976E-01
        -11   -1    0    0    0    0  0.00000000000E+00  0.00000000000E+00  0.50000000000E+03  0.50000000000E+03  0.00000000000E+00 0.  1.
         11   -1    0    0    0    0 -0.00000000000E+00 -0.00000000000E+00 -0.50000000000E+03  0.50000000000E+03  0.00000000000E+00 0.  1.
        -11    1    1    2    0    0  0.60684200860E+01  0.70721914889E+01  0.49864458250E+03  0.49873165257E+03  0.00000000000E+00 0.  1.
         11    1    1    2    0    0  0.41578228877E+01 -0.73538100919E+01 -0.41849417507E+03  0.41857943163E+03  0.00000000000E+00 0.  1.
        -15    1    1    2    0    0 -0.91166579973E+01 -0.41962098936E+01 -0.21107567864E+02  0.23439470570E+02  0.17770000000E+01 0.  1.
         15    1    1    2    0    0 -0.11095849763E+01  0.44778284967E+01 -0.59042839568E+02  0.59249445230E+02  0.17770000000E+01 0. -1.
</event>
<event>
 6    1  0.1782050E-003  0.5081241E+03  0.7546771E-02  0.9381813E-01
        -11   -1    0    0    0    0  0.00000000000E+00  0.00000000000E+00  0.50000000000E+03  0.50000000000E+03  0.00000000000E+00 0.  1.
         11   -1    0    0    0    0 -0.00000000000E+00 -0.00000000000E+00 -0.50000000000E+03  0.50000000000E+03  0.00000000000E+00 0.  1.
        -11    1    1    2    0    0 -0.35560149854E+01 -0.59925601377E+01  0.49182657122E+03  0.49187593169E+03  0.00000000000E+00 0.  1.
         11    1    1    2    0    0 -0.49632176972E+00 -0.13524975074E+01 -0.10386534596E+03  0.10387533719E+03  0.00000000000E+00 0.  1.
        -15    1    1    2    0    0 -0.11406021391E+02  0.37969809195E+02 -0.46794615690E+02  0.61357130970E+02  0.17770000000E+01 0. -1.
         15    1    1    2    0    0  0.15458358146E+02 -0.30624751549E+02 -0.34116660956E+03  0.34289160015E+03  0.17770000000E+01 0.  1.
</event>
<event>
 6    1  0.1782050E-003  0.4696950E+03  0.7546771E-02  0.9470295E-01
        -11   -1    0    0    0    0  0.00000000000E+00  0.00000000000E+00  0.50000000000E+03  0.50000000000E+03  0.00000000000E+00 0. -1.
         11   -1    0    0    0    0 -0.00000000000E+00 -0.00000000000E+00 -0.50000000000E+03  0.50000000000E+03  0.00000000000E+00 0. -1.
        -11    1    1    2    0    0  0.41363468321E+02 -0.36780049747E+02  0.46258562366E+03  0.46588535907E+03  0.00000000000E+00 0. -1.
         11    1    1    2    0    0 -0.76327422833E+01  0.89528582436E+01 -0.47445091839E+03  0.47459676188E+03  0.00000000000E+00 0. -1.
        -15    1    1    2    0    0 -0.34191047320E+01 -0.94601044905E+01  0.27044581724E+01  0.10566724996E+02  0.17770000000E+01 0.  1.
         15    1    1    2    0    0 -0.30311621306E+02  0.37287295994E+02  0.91608365485E+01  0.48951154062E+02  0.17770000000E+01 0. -1.
</event>
<event>
 6    1  0.1782050E-003  0.5034679E+03  0.7546771E-02  0.9392083E-01
        -11   -1    0    0    0    0  0.00000000000E+00  0.00000000000E+00  0.50000000000E+03  0.50000000000E+03  0.00000000000E+00 0. -1.
         11   -1    0    0    0    0 -0.00000000000E+00 -0.00000000000E+00 -0.50000000000E+03  0.50000000000E+03  0.00000000000E+00 0. -1.
        -11    1    1    2    0    0  0.91171971987E+01 -0.35010780299E+01  0.44204801392E+03  0.44215588591E+03  0.00000000000E+00 0. -1.
         11    1    1    2    0    0 -0.13775903754E+02  0.55758897545E+01 -0.49630962344E+03  0.49653208193E+03  0.00000000000E+00 0. -1.
        -15    1    1    2    0    0  0.14715106867E+02 -0.34568229996E+01  0.44826903178E+02  0.47340183491E+02  0.17770000000E+01 0. -1.
         15    1    1    2    0    0 -0.10056400312E+02  0.13820112749E+01  0.94347063412E+01  0.13971848666E+02  0.17770000000E+01 0.  1.
</event>
<event>
 6    1  0.1782050E-003  0.4448237E+03  0.7546771E-02  0.9532510E-01
        -11   -1    0    0    0    0  0.00000000000E+00  0.00000000000E+00  0.50000000000E+03  0.50000000000E+03  0.00000000000E+00 0. -1.
         11   -1    0    0    0    0 -0.00000000000E+00 -0.00000000000E+00 -0.50000000000E+03  0.50000000000E+03  0.00000000000E+00 0.  1.
        -11    1    1    2    0    0  0.30598275347E+02  0.50944082564E+02  0.43183482434E+03  0.43590465645E+03  0.00000000000E+00 0. -1.
         11    1    1    2    0    0  0.44391926780E+01  0.26199565184E+02 -0.45736137583E+03  0.45813267920E+03  0.00000000000E+00 0.  1.
        -15    1    1    2    0    0  0.24592236402E+01 -0.10532191736E+02 -0.15660033303E+02  0.19114633549E+02  0.17770000000E+01 0. -1.
         15    1    1    2    0    0 -0.37496691665E+02 -0.66611456011E+02  0.41186584790E+02  0.86848030798E+02  0.17770000000E+01 0.  1.
</event>
<event>
 6    1  0.1782050E-003  0.5004532E+03  0.7546771E-02  0.9398796E-01
        -11   -1    0    0    0    0  0.00000000000E+00  0.00000000000E+00  0.50000000000E+03  0.50000000000E+03  0.00000000000E+00 0. -1.
         11   -1    0    0    0    0 -0.00000000000E+00 -0.00000000000E+00 -0.50000000000E+03  0.50000000000E+03  0.00000000000E+00 0.  1.
        -11    1    1    2    0    0 -0.39303704078E+01 -0.14894682514E+01  0.17162288158E+03  0.17167434232E+03  0.00000000000E+00 0. -1.
         11    1    1    2    0    0 -0.51250610287E+01 -0.45321616390E+01 -0.49949990960E+03  0.49954676100E+03  0.00000000000E+00 0.  1.
        -15    1    1    2    0    0  0.13858983384E+02 -0.26885152081E+01  0.19399096831E+03  0.19451208972E+03  0.17770000000E+01 0.  1.
         15    1    1    2    0    0 -0.48035519475E+01  0.87101450984E+01  0.13388605970E+03  0.13426680696E+03  0.17770000000E+01 0. -1.
</event>
<event>
 6    1  0.1782050E-003  0.5016958E+03  0.7546771E-02  0.9396023E-01
        -11   -1    0    0    0    0  0.00000000000E+00  0.00000000000E+00  0.50000000000E+03  0.50000000000E+03  0.00000000000E+00 0.  1.
         11   -1    0    0    0    0 -0.00000000000E+00 -0.00000000000E+00 -0.50000000000E+03  0.50000000000E+03  0.00000000000E+00 0.  1.
        -11    1    1    2    0    0  0.12954255846E+02 -0.41037127910E-01  0.49813577598E+03  0.49830418997E+03  0.00000000000E+00 0.  1.
         11    1    1    2    0    0 -0.42140057690E+01 -0.79143542464E+01 -0.45835758742E+03  0.45844527786E+03  0.00000000000E+00 0.  1.
        -15    1    1    2    0    0 -0.10841293181E+02  0.47500892683E+01 -0.34328696065E+02  0.36355385962E+02  0.17770000000E+01 0. -1.
         15    1    1    2    0    0  0.21010431041E+01  0.32053021060E+01 -0.54494924989E+01  0.68951462067E+01  0.17770000000E+01 0.  1.
</event>
<event>
 6    1  0.1782050E-003  0.5017068E+03  0.7546771E-02  0.9395999E-01
        -11   -1    0    0    0    0  0.00000000000E+00  0.00000000000E+00  0.50000000000E+03  0.50000000000E+03  0.00000000000E+00 0. -1.
         11   -1    0    0    0    0 -0.00000000000E+00 -0.00000000000E+00 -0.50000000000E+03  0.50000000000E+03  0.00000000000E+00 0. -1.
        -11    1    1    2    0    0  0.32029949854E+02 -0.76520587405E+00  0.49726211491E+03  0.49829320099E+03  0.00000000000E+00 0. -1.
         11    1    1    2    0    0  0.45373603228E+01 -0.18191794611E+00 -0.20765961308E+03  0.20770925747E+03  0.00000000000E+00 0. -1.
        -15    1    1    2    0    0 -0.10844182834E+01  0.93725512719E+01 -0.23254768986E+02  0.25158749769E+02  0.17770000000E+01 0.  1.
         15    1    1    2    0    0 -0.35482891894E+02 -0.84254274517E+01 -0.26634773284E+03  0.26883879178E+03  0.17770000000E+01 0. -1.
</event>
<event>
 6    1  0.1782050E-003  0.5069236E+03  0.7546771E-02  0.9384450E-01
        -11   -1    0    0    0    0  0.00000000000E+00  0.00000000000E+00  0.50000000000E+03  0.50000000000E+03  0.00000000000E+00 0.  1.
         11   -1    0    0    0    0 -0.00000000000E+00 -0.00000000000E+00 -0.50000000000E+03  0.50000000000E+03  0.00000000000E+00 0. -1.
        -11    1    1    2    0    0 -0.44825520105E+01 -0.69213821655E+01  0.41924377146E+03  0.41932486059E+03  0.00000000000E+00 0.  1.
         11    1    1    2    0    0 -0.10561864049E+02  0.19808566332E+02 -0.49256513904E+03  0.49307641240E+03  0.00000000000E+00 0. -1.
        -15    1    1    2    0    0 -0.21228587688E+00  0.57357531555E+01  0.59458640272E+02  0.59761455484E+02  0.17770000000E+01 0.  1.
         15    1    1    2    0    0  0.15256701937E+02 -0.18622937322E+02  0.13862727305E+02  0.27837271522E+02  0.17770000000E+01 0. -1.
</event>
<event>
 6    1  0.1782050E-003  0.5029921E+03  0.7546771E-02  0.9393140E-01
        -11   -1    0    0    0    0  0.00000000000E+00  0.00000000000E+00  0.50000000000E+03  0.50000000000E+03  0.00000000000E+00 0. -1.
         11   -1    0    0    0    0 -0.00000000000E+00 -0.00000000000E+00 -0.50000000000E+03  0.50000000000E+03  0.00000000000E+00 0.  1.
        -11    1    1    2    0    0  0.13662854358E+02 -0.11097971530E+02  0.49669614248E+03  0.49700794412E+03  0.00000000000E+00 0. -1.
         11    1    1    2    0    0 -0.18046327485E+02  0.93077406446E+01 -0.44796697396E+03  0.44842693243E+03  0.00000000000E+00 0.  1.
        -15    1    1    2    0    0  0.96760839280E+01 -0.27008036610E+01 -0.73590844630E+01  0.12579141216E+02  0.17770000000E+01 0.  1.
         15    1    1    2    0    0 -0.52926108013E+01  0.44910345465E+01 -0.41370084054E+02  0.41985982233E+02  0.17770000000E+01 0. -1.
</event>
<event>
 6    1  0.1782050E-003  0.4823115E+03  0.7546771E-02  0.9440283E-01
        -11   -1    0    0    0    0  0.00000000000E+00  0.00000000000E+00  0.50000000000E+03  0.50000000000E+03  0.00000000000E+00 0.  1.
         11   -1    0    0    0    0 -0.00000000000E+00 -0.00000000000E+00 -0.50000000000E+03  0.50000000000E+03  0.00000000000E+00 0.  1.
        -11    1    1    2    0    0 -0.58369991186E+01  0.39714709259E+01  0.47843521279E+03  0.47848729970E+03  0.00000000000E+00 0.  1.
         11    1    1    2    0    0 -0.12736302061E+02 -0.25534024489E+00 -0.48618601950E+03  0.48635288027E+03  0.00000000000E+00 0.  1.
        -15    1    1    2    0    0  0.17966355132E+02 -0.50345620585E+01 -0.71671487434E+01  0.20066451654E+02  0.17770000000E+01 0. -1.
         15    1    1    2    0    0  0.60694604751E+00  0.13184313774E+01  0.14917955459E+02  0.15093368374E+02  0.17770000000E+01 0.  1.
</event>
<event>
 6    1  0.1782050E-003  0.5005157E+03  0.7546771E-02  0.9398657E-01
        -11   -1    0    0    0    0  0.00000000000E+00  0.00000000000E+00  0.50000000000E+03  0.50000000000E+03  0.00000000000E+00 0. -1.
         11   -1    0    0    0    0 -0.00000000000E+00 -0.00000000000E+00 -0.50000000000E+03  0.50000000000E+03  0.00000000000E+00 0. -1.
        -11    1    1    2    0    0 -0.41328936333E+01 -0.75429273969E+01  0.49941022988E+03  0.49948428831E+03  0.00000000000E+00 0. -1.
         11    1    1    2    0    0  0.39179276237E+01 -0.60238295451E+01 -0.21292999160E+03  0.21305120981E+03  0.00000000000E+00 0. -1.
        -15    1    1    2    0    0  0.66849783385E+01  0.81972860257E+01 -0.23707051276E+03  0.23731302152E+03  0.17770000000E+01 0. -1.
         15    1    1    2    0    0 -0.64700123289E+01  0.53694709162E+01 -0.49409725513E+02  0.50151480354E+02  0.17770000000E+01 0.  1.
</event>
<event>
 6    1  0.1782050E-003  0.5227633E+03  0.7546771E-02  0.9350268E-01
        -11   -1    0    0    0    0  0.00000000000E+00  0.00000000000E+00  0.50000000000E+03  0.50000000000E+03  0.00000000000E+00 0.  1.
         11   -1    0    0    0    0 -0.00000000000E+00 -0.00000000000E+00 -0.50000000000E+03  0.50000000000E+03  0.00000000000E+00 0.  1.
        -11    1    1    2    0    0 -0.64316355923E+01 -0.91645767339E+01  0.47710537408E+03  0.47723672677E+03  0.00000000000E+00 0.  1.
         11    1    1    2    0    0 -0.97765414350E+01 -0.43197027028E+01 -0.43896192606E+03  0.43909203264E+03  0.00000000000E+00 0.  1.
        -15    1    1    2    0    0  0.84794429974E+01  0.45865250203E+01 -0.58913934290E+02  0.59723919394E+02  0.17770000000E+01 0.  1.
         15    1    1    2    0    0  0.77287340299E+01  0.88977544163E+01  0.20770486275E+02  0.23947321195E+02  0.17770000000E+01 0.  1.
</event>
<event>
 6    1  0.1782050E-003  0.4851985E+03  0.7546771E-02  0.9433552E-01
        -11   -1    0    0    0    0  0.00000000000E+00  0.00000000000E+00  0.50000000000E+03  0.50000000000E+03  0.00000000000E+00 0.  1.
         11   -1    0    0    0    0 -0.00000000000E+00 -0.00000000000E+00 -0.50000000000E+03  0.50000000000E+03  0.00000000000E+00 0.  1.
        -11    1    1    2    0    0 -0.93085329287E+01 -0.42952329481E+01  0.48667979556E+03  0.48678775788E+03  0.00000000000E+00 0.  1.
         11    1    1    2    0    0 -0.57688124682E+01 -0.14750281446E+02 -0.48365865261E+03  0.48391790858E+03  0.00000000000E+00 0.  1.
        -15    1    1    2    0    0  0.86509290015E+01  0.18344969282E+02 -0.69620900555E+01  0.21517548594E+02  0.17770000000E+01 0. -1.
         15    1    1    2    0    0  0.64264163954E+01  0.70054511181E+00  0.39409471013E+01  0.77767849524E+01  0.17770000000E+01 0.  1.
</event>
<event>
 6    1  0.1782050E-003  0.5004771E+03  0.7546771E-02  0.9398743E-01
        -11   -1    0    0    0    0  0.00000000000E+00  0.00000000000E+00  0.50000000000E+03  0.50000000000E+03  0.00000000000E+00 0. -1.
         11   -1    0    0    0    0 -0.00000000000E+00 -0.00000000000E+00 -0.50000000000E+03  0.50000000000E+03  0.00000000000E+00 0.  1.
        -11    1    1    2    0    0 -0.10883570436E+01  0.75240175987E+01  0.49946507023E+03  0.49952292414E+03  0.00000000000E+00 0. -1.
         11    1    1    2    0    0 -0.18490799602E+01  0.20083720683E+01 -0.10241933995E+03  0.10245571653E+03  0.00000000000E+00 0.  1.
        -15    1    1    2    0    0  0.42806555276E+00 -0.50987515884E+01 -0.38198354235E+03  0.38202194291E+03  0.17770000000E+01 0.  1.
         15    1    1    2    0    0  0.25093714510E+01 -0.44336380785E+01 -0.15062187927E+02  0.15999416422E+02  0.17770000000E+01 0. -1.
</event>
<event>
 6    1  0.1782050E-003  0.5052038E+03  0.7546771E-02  0.9388240E-01
        -11   -1    0    0    0    0  0.00000000000E+00  0.00000000000E+00  0.50000000000E+03  0.50000000000E+03  0.00000000000E+00 0.  1.
         11   -1    0    0    0    0 -0.00000000000E+00 -0.00000000000E+00 -0.50000000000E+03  0.50000000000E+03  0.00000000000E+00 0. -1.
        -11    1    1    2    0    0 -0.72265059671E+00 -0.11512478301E+02  0.49466169153E+03  0.49479616859E+03  0.00000000000E+00 0.  1.
         11    1    1    2    0    0 -0.18041526372E+01  0.58463457165E+01 -0.35969775199E+03  0.35974978459E+03  0.00000000000E+00 0. -1.
        -15    1    1    2    0    0 -0.10698962948E+01  0.23280023002E+02 -0.25828199434E+02  0.34833285290E+02  0.17770000000E+01 0.  1.
         15    1    1    2    0    0  0.35966995287E+01 -0.17613890417E+02 -0.10913574011E+03  0.11062076153E+03  0.17770000000E+01 0. -1.
</event>
<event>
 6    1  0.1782050E-003  0.5582977E+03  0.7546771E-02  0.9278052E-01
        -11   -1    0    0    0    0  0.00000000000E+00  0.00000000000E+00  0.50000000000E+03  0.50000000000E+03  0.00000000000E+00 0. -1.
         11   -1    0    0    0    0 -0.00000000000E+00 -0.00000000000E+00 -0.50000000000E+03  0.50000000000E+03  0.00000000000E+00 0. -1.
        -11    1    1    2    0    0 -0.43446045050E+01  0.71128881192E+01  0.29974294276E+03  0.29985880093E+03  0.00000000000E+00 0. -1.
         11    1    1    2    0    0 -0.70275155806E+01 -0.68388054025E+01 -0.44159339392E+03  0.44170225355E+03  0.00000000000E+00 0. -1.
        -15    1    1    2    0    0  0.25941648565E+02  0.65676831890E+01  0.19809877421E+03  0.19990594205E+03  0.17770000000E+01 0. -1.
         15    1    1    2    0    0 -0.14569528479E+02 -0.68417659056E+01 -0.56248323044E+02  0.58533003469E+02  0.17770000000E+01 0.  1.
</event>
<event>
 6    1  0.1782050E-003  0.5006530E+03  0.7546771E-02  0.9398350E-01
        -11   -1    0    0    0    0  0.00000000000E+00  0.00000000000E+00  0.50000000000E+03  0.50000000000E+03  0.00000000000E+00 0. -1.
         11   -1    0    0    0    0 -0.00000000000E+00 -0.00000000000E+00 -0.50000000000E+03  0.50000000000E+03  0.00000000000E+00 0. -1.
        -11    1    1    2    0    0 -0.25702147364E+01 -0.28447377583E+02  0.49852944854E+03  0.49934704401E+03  0.00000000000E+00 0. -1.
         11    1    1    2    0    0 -0.32293512595E+01  0.41830881455E+01 -0.19663915767E+03  0.19671015547E+03  0.00000000000E+00 0. -1.
        -15    1    1    2    0    0  0.68855907158E+01 -0.30745937535E+01 -0.57603778964E+02  0.58122435996E+02  0.17770000000E+01 0.  1.
         15    1    1    2    0    0 -0.10860247199E+01  0.27338883191E+02 -0.24428651191E+03  0.24582036452E+03  0.17770000000E+01 0. -1.
</event>
<event>
 6    1  0.1782050E-003  0.5001658E+03  0.7546771E-02  0.9399439E-01
        -11   -1    0    0    0    0  0.00000000000E+00  0.00000000000E+00  0.50000000000E+03  0.50000000000E+03  0.00000000000E+00 0.  1.
         11   -1    0    0    0    0 -0.00000000000E+00 -0.00000000000E+00 -0.50000000000E+03  0.50000000000E+03  0.00000000000E+00 0. -1.
        -11    1    1    2    0    0 -0.46906735181E+01  0.52318934605E+01  0.49978485594E+03  0.49983424988E+03  0.00000000000E+00 0.  1.
         11    1    1    2    0    0 -0.13666523473E+01 -0.74215741597E+01 -0.22742147320E+03  0.22754664131E+03  0.00000000000E+00 0. -1.
        -15    1    1    2    0    0  0.40585896599E+01  0.57534309145E+01 -0.18444632980E+03  0.18458922077E+03  0.17770000000E+01 0. -1.
         15    1    1    2    0    0  0.19987362055E+01 -0.35637502154E+01 -0.87917052938E+02  0.88029888040E+02  0.17770000000E+01 0.  1.
</event>
<event>
 6    1  0.1782050E-003  0.5043531E+03  0.7546771E-02  0.9390122E-01
        -11   -1    0    0    0    0  0.00000000000E+00  0.00000000000E+00  0.50000000000E+03  0.50000000000E+03  0.00000000000E+00 0.  1.
         11   -1    0    0    0    0 -0.00000000000E+00 -0.00000000000E+00 -0.50000000000E+03  0.50000000000E+03  0.00000000000E+00 0.  1.
        -11    1    1    2    0    0 -0.84028302548E+01 -0.50482554593E+01  0.44759175486E+03  0.44769908584E+03  0.00000000000E+00 0.  1.
         11    1    1    2    0    0 -0.92151932033E+01  0.15432349877E+01 -0.49555887172E+03  0.49564694763E+03  0.00000000000E+00 0.  1.
        -15    1    1    2    0    0  0.63235876299E+01 -0.33333596719E+01  0.53376860672E+00  0.73852342645E+01  0.17770000000E+01 0. -1.
         15    1    1    2    0    0  0.11294435828E+02  0.68383801435E+01  0.47433348250E+02  0.49268732264E+02  0.17770000000E+01 0.  1.
</event>
<event>
 6    1  0.1782050E-003  0.5050652E+03  0.7546771E-02  0.9388547E-01
        -11   -1    0    0    0    0  0.00000000000E+00  0.00000000000E+00  0.50000000000E+03  0.50000000000E+03  0.00000000000E+00 0.  1.
         11   -1    0    0    0    0 -0.00000000000E+00 -0.00000000000E+00 -0.50000000000E+03  0.50000000000E+03  0.00000000000E+00 0. -1.
        -11    1    1    2    0    0 -0.90831862125E+01 -0.72777421202E+01  0.49479793492E+03  0.49493481006E+03  0.00000000000E+00 0.  1.
         11    1    1    2    0    0 -0.10370258105E+02 -0.18619313838E+01 -0.46496347704E+03  0.46508283565E+03  0.00000000000E+00 0. -1.
        -15    1    1    2    0    0  0.13274252512E+02  0.94396249878E+01 -0.29240600782E+02  0.33518394394E+02  0.17770000000E+01 0.  1.
         15    1    1    2    0    0  0.61791918055E+01 -0.29995148379E+00 -0.59385710739E+00  0.64639598952E+01  0.17770000000E+01 0. -1.
</event>
<event>
 6    1  0.1782050E-003  0.5058445E+03  0.7546771E-02  0.9386826E-01
        -11   -1    0    0    0    0  0.00000000000E+00  0.00000000000E+00  0.50000000000E+03  0.50000000000E+03  0.00000000000E+00 0. -1.
         11   -1    0    0    0    0 -0.00000000000E+00 -0.00000000000E+00 -0.50000000000E+03  0.50000000000E+03  0.00000000000E+00 0.  1.
        -11    1    1    2    0    0 -0.23329435301E+01  0.99942403650E+01  0.49404888773E+03  0.49415547243E+03  0.00000000000E+00 0. -1.
         11    1    1    2    0    0 -0.47187197409E+01  0.76291845540E+01 -0.35493932010E+03  0.35505266049E+03  0.00000000000E+00 0.  1.
        -15    1    1    2    0    0  0.40331188057E+00 -0.14587932021E+02 -0.36817051239E+01  0.15155299493E+02  0.17770000000E+01 0.  1.
         15    1    1    2    0    0  0.66483513904E+01 -0.30354928984E+01 -0.13542786251E+03  0.13563656758E+03  0.17770000000E+01 0. -1.
</event>
<event>
 6    1  0.1782050E-003  0.5365940E+03  0.7546771E-02  0.9321456E-01
        -11   -1    0    0    0    0  0.00000000000E+00  0.00000000000E+00  0.50000000000E+03  0.50000000000E+03  0.00000000000E+00 0. -1.
         11   -1    0    0    0    0 -0.00000000000E+00 -0.00000000000E+00 -0.50000000000E+03  0.50000000000E+03  0.00000000000E+00 0.  1.
        -11    1    1    2    0    0 -0.13753127624E+02  0.40628316018E+02  0.40458015211E+03  0.40684752435E+03  0.00000000000E+00 0. -1.
         11    1    1    2    0    0 -0.87520850765E+01 -0.29353547182E+01 -0.46331406936E+03  0.46340602302E+03  0.00000000000E+00 0.  1.
        -15    1    1    2    0    0 -0.87737443444E+01  0.55145527958E+01 -0.26877992994E+02  0.28861273685E+02  0.17770000000E+01 0.  1.
         15    1    1    2    0    0  0.31278957045E+02 -0.43207514095E+02  0.85611910241E+02  0.10088517895E+03  0.17770000000E+01 0. -1.
</event>
<event>
 6    1  0.1782050E-003  0.5022896E+03  0.7546771E-02  0.9394701E-01
        -11   -1    0    0    0    0  0.00000000000E+00  0.00000000000E+00  0.50000000000E+03  0.50000000000E+03  0.00000000000E+00 0. -1.
         11   -1    0    0    0    0 -0.00000000000E+00 -0.00000000000E+00 -0.50000000000E+03  0.50000000000E+03  0.00000000000E+00 0. -1.
        -11    1    1    2    0    0 -0.39750568480E+01  0.78186474982E+01  0.40827208014E+03  0.40836628626E+03  0.00000000000E+00 0. -1.
         11    1    1    2    0    0  0.16739751071E+02  0.64024734450E+00 -0.49742835658E+03  0.49771035664E+03  0.00000000000E+00 0. -1.
        -15    1    1    2    0    0 -0.39389629931E+01  0.85098733842E+01  0.20195189982E+02  0.22336893291E+02  0.17770000000E+01 0. -1.
         15    1    1    2    0    0 -0.88257312298E+01 -0.16968768227E+02  0.68961086454E+02  0.71586463809E+02  0.17770000000E+01 0.  1.
</event>
<event>
 6    1  0.1782050E-003  0.5113988E+03  0.7546771E-02  0.9374659E-01
        -11   -1    0    0    0    0  0.00000000000E+00  0.00000000000E+00  0.50000000000E+03  0.50000000000E+03  0.00000000000E+00 0. -1.
         11   -1    0    0    0    0 -0.00000000000E+00 -0.00000000000E+00 -0.50000000000E+03  0.50000000000E+03  0.00000000000E+00 0. -1.
        -11    1    1    2    0    0 -0.11138039570E+02  0.82630146270E+01  0.42799053305E+03  0.42821516754E+03  0.00000000000E+00 0. -1.
         11    1    1    2    0    0 -0.15888307089E+02 -0.48340144804E+01 -0.48831883413E+03  0.48860115612E+03  0.00000000000E+00 0. -1.
        -15    1    1    2    0    0  0.12665424826E+02  0.59287796286E+01 -0.55040400024E+01  0.15133261355E+02  0.17770000000E+01 0.  1.
         15    1    1    2    0    0  0.14360921833E+02 -0.93577797753E+01  0.65832341083E+02  0.68050414985E+02  0.17770000000E+01 0. -1.
</event>
<event>
 6    1  0.1782050E-003  0.5031600E+03  0.7546771E-02  0.9392767E-01
        -11   -1    0    0    0    0  0.00000000000E+00  0.00000000000E+00  0.50000000000E+03  0.50000000000E+03  0.00000000000E+00 0. -1.
         11   -1    0    0    0    0 -0.00000000000E+00 -0.00000000000E+00 -0.50000000000E+03  0.50000000000E+03  0.00000000000E+00 0. -1.
        -11    1    1    2    0    0  0.55896054780E+01 -0.87871015249E+01  0.49673081324E+03  0.49683997188E+03  0.00000000000E+00 0. -1.
         11    1    1    2    0    0 -0.34381564916E+01 -0.52239182529E+01 -0.44264249873E+03  0.44268667466E+03  0.00000000000E+00 0. -1.
        -15    1    1    2    0    0 -0.37853604288E+01  0.71994739654E+01 -0.52393133829E+02  0.53050537984E+02  0.17770000000E+01 0. -1.
         15    1    1    2    0    0  0.16339114424E+01  0.68115458125E+01 -0.16951806787E+01  0.74228154692E+01  0.17770000000E+01 0.  1.
</event>
<event>
 6    1  0.1782050E-003  0.5157994E+03  0.7546771E-02  0.9365135E-01
        -11   -1    0    0    0    0  0.00000000000E+00  0.00000000000E+00  0.50000000000E+03  0.50000000000E+03  0.00000000000E+00 0.  1.
         11   -1    0    0    0    0 -0.00000000000E+00 -0.00000000000E+00 -0.50000000000E+03  0.50000000000E+03  0.00000000000E+00 0.  1.
        -11    1    1    2    0    0 -0.43044395565E+01 -0.54557893499E+01  0.35044583466E+03  0.35051473131E+03  0.00000000000E+00 0.  1.
         11    1    1    2    0    0 -0.29934753850E+01 -0.80516660635E+01 -0.48412438915E+03  0.48420059313E+03  0.00000000000E+00 0.  1.
        -15    1    1    2    0    0  0.21481079561E+00 -0.14666543491E+02  0.13532870510E+03  0.13613291224E+03  0.17770000000E+01 0.  1.
         15    1    1    2    0    0  0.70831041459E+01  0.28173998904E+02 -0.16501506128E+01  0.29151763319E+02  0.17770000000E+01 0. -1.
</event>
<event>
 6    1  0.1782050E-003  0.5022471E+03  0.7546771E-02  0.9394796E-01
        -11   -1    0    0    0    0  0.00000000000E+00  0.00000000000E+00  0.50000000000E+03  0.50000000000E+03  0.00000000000E+00 0.  1.
         11   -1    0    0    0    0 -0.00000000000E+00 -0.00000000000E+00 -0.50000000000E+03  0.50000000000E+03  0.00000000000E+00 0. -1.
        -11    1    1    2    0    0 -0.84062516846E+01 -0.35761393765E+01  0.43592080592E+03  0.43601651674E+03  0.00000000000E+00 0.  1.
         11    1    1    2    0    0  0.22757377236E+01 -0.69947688048E+01 -0.49769854559E+03  0.49775289859E+03  0.00000000000E+00 0. -1.
        -15    1    1    2    0    0  0.75741174519E+00  0.67418765161E+01  0.40473832340E+01  0.80972595088E+01  0.17770000000E+01 0. -1.
         15    1    1    2    0    0  0.53731022158E+01  0.38290316652E+01  0.57730356438E+02  0.58133325162E+02  0.17770000000E+01 0. -1.
</event>
<event>
 6    1  0.1782050E-003  0.5123315E+03  0.7546771E-02  0.9372632E-01
        -11   -1    0    0    0    0  0.00000000000E+00  0.00000000000E+00  0.50000000000E+03  0.50000000000E+03  0.00000000000E+00 0. -1.
         11   -1    0    0    0    0 -0.00000000000E+00 -0.00000000000E+00 -0.50000000000E+03  0.50000000000E+03  0.00000000000E+00 0.  1.
        -11    1    1    2    0    0 -0.65398187447E+01  0.90604492782E+01  0.48754050377E+03  0.48766853886E+03  0.00000000000E+00 0. -1.
         11    1    1    2    0    0  0.52024059955E+01 -0.42099560132E+01 -0.47847330342E+03  0.47852010495E+03  0.00000000000E+00 0.  1.
        -15    1    1    2    0    0 -0.10659147241E+01 -0.12869647648E+02  0.75901447190E+01  0.15084164897E+02  0.17770000000E+01 0. -1.
         15    1    1    2    0    0  0.24033274733E+01  0.80191543835E+01 -0.16657345069E+02  0.18727191293E+02  0.17770000000E+01 0.  1.
</event>
<event>
 6    1  0.1782050E-003  0.5078430E+03  0.7546771E-02  0.9382429E-01
        -11   -1    0    0    0    0  0.00000000000E+00  0.00000000000E+00  0.50000000000E+03  0.50000000000E+03  0.00000000000E+00 0. -1.
         11   -1    0    0    0    0 -0.00000000000E+00 -0.00000000000E+00 -0.50000000000E+03  0.50000000000E+03  0.00000000000E+00 0. -1.
        -11    1    1    2    0    0 -0.29540856214E+02  0.18528698917E+02  0.49092011160E+03  0.49215701848E+03  0.00000000000E+00 0. -1.
         11    1    1    2    0    0 -0.62613282908E+01  0.21064984134E+01 -0.42431710906E+03  0.42436853159E+03  0.00000000000E+00 0. -1.
        -15    1    1    2    0    0  0.89853068922E+01  0.90032863460E+00 -0.36789053913E+02  0.37922797213E+02  0.17770000000E+01 0. -1.
         15    1    1    2    0    0  0.26816877612E+02 -0.21535525965E+02 -0.29813948627E+02  0.45551652716E+02  0.17770000000E+01 0.  1.
</event>
<event>
 6    1  0.1782050E-003  0.5004799E+03  0.7546771E-02  0.9398737E-01
        -11   -1    0    0    0    0  0.00000000000E+00  0.00000000000E+00  0.50000000000E+03  0.50000000000E+03  0.00000000000E+00 0. -1.
         11   -1    0    0    0    0 -0.00000000000E+00 -0.00000000000E+00 -0.50000000000E+03  0.50000000000E+03  0.00000000000E+00 0.  1.
        -11    1    1    2    0    0 -0.30695660214E+01 -0.56433329530E+01  0.41211272228E+03  0.41216278982E+03  0.00000000000E+00 0. -1.
         11    1    1    2    0    0  0.37017330519E+01 -0.63139313208E+01 -0.49946652147E+03  0.49952014436E+03  0.00000000000E+00 0.  1.
        -15    1    1    2    0    0 -0.93383967974E+00  0.34287097710E+01  0.37179065557E+02  0.37390757574E+02  0.17770000000E+01 0. -1.
         15    1    1    2    0    0  0.30167264929E+00  0.85285545028E+01  0.50174733629E+02  0.50926308250E+02  0.17770000000E+01 0.  1.
</event>
<event>
 6    1  0.1782050E-003  0.5121898E+03  0.7546771E-02  0.9372940E-01
        -11   -1    0    0    0    0  0.00000000000E+00  0.00000000000E+00  0.50000000000E+03  0.50000000000E+03  0.00000000000E+00 0.  1.
         11   -1    0    0    0    0 -0.00000000000E+00 -0.00000000000E+00 -0.50000000000E+03  0.50000000000E+03  0.00000000000E+00 0. -1.
        -11    1    1    2    0    0  0.67692328621E+01  0.89406470257E+00  0.48776242182E+03  0.48781021105E+03  0.00000000000E+00 0.  1.
         11    1    1    2    0    0  0.40645050497E+01  0.15095122902E+02 -0.36880550645E+03  0.36913667459E+03  0.00000000000E+00 0. -1.
        -15    1    1    2    0    0 -0.30397560113E+01 -0.17064745866E+02 -0.12900029190E+03  0.13017172776E+03  0.17770000000E+01 0.  1.
         15    1    1    2    0    0 -0.77939819004E+01  0.10755582618E+01  0.10043376536E+02  0.12881386598E+02  0.17770000000E+01 0.  1.
</event>
<event>
 6    1  0.1782050E-003  0.5033178E+03  0.7546771E-02  0.9392416E-01
        -11   -1    0    0    0    0  0.00000000000E+00  0.00000000000E+00  0.50000000000E+03  0.50000000000E+03  0.00000000000E+00 0. -1.
         11   -1    0    0    0    0 -0.00000000000E+00 -0.00000000000E+00 -0.50000000000E+03  0.50000000000E+03  0.00000000000E+00 0.  1.
        -11    1    1    2    0    0 -0.63164572578E+01 -0.25560451735E+01  0.33264495289E+03  0.33271473619E+03  0.00000000000E+00 0. -1.
         11    1    1    2    0    0  0.14640354926E+02  0.71413707539E+01 -0.49641505988E+03  0.49668224333E+03  0.00000000000E+00 0.  1.
        -15    1    1    2    0    0 -0.16850326512E+02 -0.90850235046E+01  0.25249162927E+02  0.31735612696E+02  0.17770000000E+01 0. -1.
         15    1    1    2    0    0  0.85264288441E+01  0.44996979242E+01  0.13852094406E+03  0.13886740778E+03  0.17770000000E+01 0. -1.
</event>
<event>
 6    1  0.1782050E-003  0.5002772E+03  0.7546771E-02  0.9399190E-01
        -11   -1    0    0    0    0  0.00000000000E+00  0.00000000000E+00  0.50000000000E+03  0.50000000000E+03  0.00000000000E+00 0.  1.
         11   -1    0    0    0    0 -0.00000000000E+00 -0.00000000000E+00 -0.50000000000E+03  0.50000000000E+03  0.00000000000E+00 0.  1.
        -11    1    1    2    0    0 -0.73786088561E+01 -0.33008671803E+01  0.49965741281E+03  0.49972279293E+03  0.00000000000E+00 0.  1.
         11    1    1    2    0    0  0.13053706970E+01  0.52686294921E+01 -0.34583325612E+03  0.34587584982E+03  0.00000000000E+00 0.  1.
        -15    1    1    2    0    0  0.98502972164E+00 -0.60402334401E+01 -0.61094650296E+02  0.61426124144E+02  0.17770000000E+01 0.  1.
         15    1    1    2    0    0  0.50882084374E+01  0.40724711282E+01 -0.92729506399E+02  0.92975233112E+02  0.17770000000E+01 0. -1.
</event>
<event>
 6    1  0.1782050E-003  0.5249248E+03  0.7546771E-02  0.9345703E-01
        -11   -1    0    0    0    0  0.00000000000E+00  0.00000000000E+00  0.50000000000E+03  0.50000000000E+03  0.00000000000E+00 0. -1.
         11   -1    0    0    0    0 -0.00000000000E+00 -0.00000000000E+00 -0.50000000000E+03  0.50000000000E+03  0.00000000000E+00 0. -1.
        -11    1    1    2    0    0 -0.12458599555E+02  0.60759298336E+01  0.47487292535E+03  0.47507518232E+03  0.00000000000E+00 0. -1.
         11    1    1    2    0    0 -0.16695880020E+02  0.10958002903E+02 -0.44310852240E+03  0.44355833084E+03  0.00000000000E+00 0. -1.
        -15    1    1    2    0    0  0.35346445495E+02 -0.36750258614E+02 -0.32705191936E+02  0.60603135446E+02  0.17770000000E+01 0. -1.
         15    1    1    2    0    0 -0.61919659198E+01  0.19716325877E+02  0.94078897768E+00  0.20763351390E+02  0.17770000000E+01 0.  1.
</event>
<event>
 6    1  0.1782050E-003  0.5012106E+03  0.7546771E-02  0.9397105E-01
        -11   -1    0    0    0    0  0.00000000000E+00  0.00000000000E+00  0.50000000000E+03  0.50000000000E+03  0.00000000000E+00 0. -1.
         11   -1    0    0    0    0 -0.00000000000E+00 -0.00000000000E+00 -0.50000000000E+03  0.50000000000E+03  0.00000000000E+00 0. -1.
        -11    1    1    2    0    0  0.52104553877E+01 -0.14550219547E+01  0.11401469149E+03  0.11414296215E+03  0.00000000000E+00 0. -1.
         11    1    1    2    0    0  0.48480841604E+01  0.11657924942E+02 -0.49862953497E+03  0.49878935863E+03  0.00000000000E+00 0. -1.
        -15    1    1    2    0    0 -0.13606789052E+02 -0.24134181754E+02  0.29330374528E+03  0.29461474532E+03  0.17770000000E+01 0.  1.
         15    1    1    2    0    0  0.35482495041E+01  0.13931278767E+02  0.91311098203E+02  0.92452933900E+02  0.17770000000E+01 0. -1.
</event>
<event>
 6    1  0.1782050E-003  0.5142236E+03  0.7546771E-02  0.9368534E-01
        -11   -1    0    0    0    0  0.00000000000E+00  0.00000000000E+00  0.50000000000E+03  0.50000000000E+03  0.00000000000E+00 0. -1.
         11   -1    0    0    0    0 -0.00000000000E+00 -0.00000000000E+00 -0.50000000000E+03  0.50000000000E+03  0.00000000000E+00 0.  1.
        -11    1    1    2    0    0 -0.21470934903E+02  0.12675201382E+02  0.38096984813E+03  0.38178487000E+03  0.00000000000E+00 0. -1.
         11    1    1    2    0    0 -0.53349968101E+01  0.10898167196E+02 -0.48562481012E+03  0.48577637699E+03  0.00000000000E+00 0.  1.
        -15    1    1    2    0    0  0.48382505553E+02 -0.23458294905E+02  0.94005531814E+02  0.10831138529E+03  0.17770000000E+01 0.  1.
         15    1    1    2    0    0 -0.21576573840E+02 -0.11507367397E+00  0.10649430177E+02  0.24127367712E+02  0.17770000000E+01 0. -1.
</event>
<event>
 6    1  0.1782050E-003  0.5068951E+03  0.7546771E-02  0.9384512E-01
        -11   -1    0    0    0    0  0.00000000000E+00  0.00000000000E+00  0.50000000000E+03  0.50000000000E+03  0.00000000000E+00 0.  1.
         11   -1    0    0    0    0 -0.00000000000E+00 -0.00000000000E+00 -0.50000000000E+03  0.50000000000E+03  0.00000000000E+00 0. -1.
        -11    1    1    2    0    0  0.98196510537E+01 -0.93394711454E+00  0.19375243092E+03  0.19400335639E+03  0.00000000000E+00 0.  1.
         11    1    1    2    0    0  0.28932865843E+02 -0.63659453028E+00 -0.49225493757E+03  0.49310489710E+03  0.00000000000E+00 0. -1.
        -15    1    1    2    0    0 -0.57169204840E+01 -0.51304057716E+00  0.26730029803E+03  0.26736782425E+03  0.17770000000E+01 0.  1.
         15    1    1    2    0    0 -0.33035596412E+02  0.20835822220E+01  0.31202208625E+02  0.45523922253E+02  0.17770000000E+01 0.  1.
</event>
<event>
 6    1  0.1782050E-003  0.6285098E+03  0.7546771E-02  0.9150795E-01
        -11   -1    0    0    0    0  0.00000000000E+00  0.00000000000E+00  0.50000000000E+03  0.50000000000E+03  0.00000000000E+00 0.  1.
         11   -1    0    0    0    0 -0.00000000000E+00 -0.00000000000E+00 -0.50000000000E+03  0.50000000000E+03  0.00000000000E+00 0. -1.
        -11    1    1    2    0    0  0.93088931159E+01  0.10241210841E+02  0.37123228579E+03  0.37149017201E+03  0.00000000000E+00 0.  1.
         11    1    1    2    0    0 -0.93698072775E-01 -0.86245641323E+01 -0.34014013177E+03  0.34024946896E+03  0.00000000000E+00 0. -1.
        -15    1    1    2    0    0  0.11376542388E+03  0.79555404200E+02 -0.76628510417E+01  0.13904499640E+03  0.17770000000E+01 0.  1.
         15    1    1    2    0    0 -0.12298061892E+03 -0.81172050909E+02 -0.23429302976E+02  0.14921536263E+03  0.17770000000E+01 0. -1.
</event>
<event>
 6    1  0.1782050E-003  0.5008262E+03  0.7546771E-02  0.9397963E-01
        -11   -1    0    0    0    0  0.00000000000E+00  0.00000000000E+00  0.50000000000E+03  0.50000000000E+03  0.00000000000E+00 0. -1.
         11   -1    0    0    0    0 -0.00000000000E+00 -0.00000000000E+00 -0.50000000000E+03  0.50000000000E+03  0.00000000000E+00 0.  1.
        -11    1    1    2    0    0 -0.29334414922E+01  0.55065045469E+01  0.27589880873E+03  0.27596934491E+03  0.00000000000E+00 0. -1.
         11    1    1    2    0    0  0.72997973320E+01 -0.33574148991E+01 -0.49910914822E+03  0.49917381854E+03  0.00000000000E+00 0.  1.
        -15    1    1    2    0    0 -0.65055818902E+01 -0.77431494848E+01  0.20992492710E+03  0.21017590658E+03  0.17770000000E+01 0.  1.
         15    1    1    2    0    0  0.21392260505E+01  0.55940598369E+01  0.13285412382E+02  0.14680929968E+02  0.17770000000E+01 0. -1.
</event>
<event>
 6    1  0.1782050E-003  0.5046041E+03  0.7546771E-02  0.9389566E-01
        -11   -1    0    0    0    0  0.00000000000E+00  0.00000000000E+00  0.50000000000E+03  0.50000000000E+03  0.00000000000E+00 0.  1.
         11   -1    0    0    0    0 -0.00000000000E+00 -0.00000000000E+00 -0.50000000000E+03  0.50000000000E+03  0.00000000000E+00 0. -1.
        -11    1    1    2    0    0  0.17158132945E+02  0.13196107838E+02  0.20515024190E+03  0.20628902186E+03  0.00000000000E+00 0.  1.
         11    1    1    2    0    0 -0.19234251254E+02 -0.18132401220E+02 -0.49469014404E+03  0.49539588109E+03  0.00000000000E+00 0. -1.
        -15    1    1    2    0    0 -0.96819853021E+01 -0.30564905444E+02  0.17148666806E+03  0.17446715833E+03  0.17770000000E+01 0.  1.
         15    1    1    2    0    0  0.11758103611E+02  0.35501198826E+02  0.11805323408E+03  0.12384793872E+03  0.17770000000E+01 0. -1.
</event>
<event>
 6    1  0.1782050E-003  0.5048319E+03  0.7546771E-02  0.9389062E-01
        -11   -1    0    0    0    0  0.00000000000E+00  0.00000000000E+00  0.50000000000E+03  0.50000000000E+03  0.00000000000E+00 0.  1.
         11   -1    0    0    0    0 -0.00000000000E+00 -0.00000000000E+00 -0.50000000000E+03  0.50000000000E+03  0.00000000000E+00 0. -1.
        -11    1    1    2    0    0  0.81404027720E+01 -0.11565717471E+02  0.49496605973E+03  0.49516808486E+03  0.00000000000E+00 0.  1.
         11    1    1    2    0    0  0.39728587487E+01  0.46874763941E+01 -0.41161577068E+03  0.41166163133E+03  0.00000000000E+00 0. -1.
        -15    1    1    2    0    0 -0.67282834450E+01  0.57353177541E+01  0.58415856760E+00  0.90367382439E+01  0.17770000000E+01 0.  1.
         15    1    1    2    0    0 -0.53849780758E+01  0.11429233232E+01 -0.83934447623E+02  0.84133545565E+02  0.17770000000E+01 0. -1.
</event>
<event>
 6    1  0.1782050E-003  0.4842324E+03  0.7546771E-02  0.9435799E-01
        -11   -1    0    0    0    0  0.00000000000E+00  0.00000000000E+00  0.50000000000E+03  0.50000000000E+03  0.00000000000E+00 0.  1.
         11   -1    0    0    0    0 -0.00000000000E+00 -0.00000000000E+00 -0.50000000000E+03  0.50000000000E+03  0.00000000000E+00 0. -1.
        -11    1    1    2    0    0  0.20173887061E+01  0.71033436485E+01  0.48346747702E+03  0.48352386568E+03  0.00000000000E+00 0.  1.
         11    1    1    2    0    0  0.65741333384E+01  0.91968146148E+01 -0.48498557735E+03  0.48511731660E+03  0.00000000000E+00 0. -1.
        -15    1    1    2    0    0 -0.31058208474E+01 -0.19731222144E+02  0.84053240454E+01  0.21743377193E+02  0.17770000000E+01 0.  1.
         15    1    1    2    0    0 -0.54857011971E+01  0.34310638808E+01 -0.68872237134E+01  0.96154405233E+01  0.17770000000E+01 0. -1.
</event>
<event>
 6    1  0.1782050E-003  0.5011147E+03  0.7546771E-02  0.9397319E-01
        -11   -1    0    0    0    0  0.00000000000E+00  0.00000000000E+00  0.50000000000E+03  0.50000000000E+03  0.00000000000E+00 0. -1.
         11   -1    0    0    0    0 -0.00000000000E+00 -0.00000000000E+00 -0.50000000000E+03  0.50000000000E+03  0.00000000000E+00 0.  1.
        -11    1    1    2    0    0  0.71312087666E+01 -0.60834015325E+01  0.39424725463E+03  0.39435866884E+03  0.00000000000E+00 0. -1.
         11    1    1    2    0    0 -0.49023623229E+01 -0.57397259352E+01 -0.49882818730E+03  0.49888529548E+03  0.00000000000E+00 0.  1.
        -15    1    1    2    0    0 -0.32766235176E+01  0.69962540225E+01  0.98082640501E+02  0.98402469119E+02  0.17770000000E+01 0. -1.
         15    1    1    2    0    0  0.10477770739E+01  0.48268734452E+01  0.64982921689E+01  0.83535665536E+01  0.17770000000E+01 0.  1.
</event>
<event>
 6    1  0.1782050E-003  0.4064270E+03  0.7546771E-02  0.9637599E-01
        -11   -1    0    0    0    0  0.00000000000E+00  0.00000000000E+00  0.50000000000E+03  0.50000000000E+03  0.00000000000E+00 0.  1.
         11   -1    0    0    0    0 -0.00000000000E+00 -0.00000000000E+00 -0.50000000000E+03  0.50000000000E+03  0.00000000000E+00 0. -1.
        -11    1    1    2    0    0  0.24906432712E+02  0.42797231927E+02  0.39846704218E+03  0.40153196281E+03  0.00000000000E+00 0.  1.
         11    1    1    2    0    0  0.18472174169E+01  0.57249165845E+01 -0.41329950425E+03  0.41334327997E+03  0.00000000000E+00 0. -1.
        -15    1    1    2    0    0 -0.24119333735E+02 -0.46411991547E+02  0.93080068298E+02  0.10678423134E+03  0.17770000000E+01 0.  1.
         15    1    1    2    0    0 -0.26343163941E+01 -0.21101569646E+01 -0.78247606229E+02  0.78340525878E+02  0.17770000000E+01 0. -1.
</event>
<event>
 6    1  0.1782050E-003  0.5000905E+03  0.7546771E-02  0.9399607E-01
        -11   -1    0    0    0    0  0.00000000000E+00  0.00000000000E+00  0.50000000000E+03  0.50000000000E+03  0.00000000000E+00 0.  1.
         11   -1    0    0    0    0 -0.00000000000E+00 -0.00000000000E+00 -0.50000000000E+03  0.50000000000E+03  0.00000000000E+00 0.  1.
        -11    1    1    2    0    0 -0.12459076540E+01  0.79092081363E-01  0.17783723163E+02  0.17827488634E+02  0.00000000000E+00 0.  1.
         11    1    1    2    0    0 -0.12540365110E+02 -0.70000514154E+01 -0.49970317562E+03  0.49990951701E+03  0.00000000000E+00 0.  1.
        -15    1    1    2    0    0  0.98850049009E+01  0.70379836805E+01  0.24688103855E+03  0.24718545964E+03  0.17770000000E+01 0.  1.
         15    1    1    2    0    0  0.39012678631E+01 -0.11702434647E+00  0.23503841390E+03  0.23507753471E+03  0.17770000000E+01 0. -1.
</event>
<event>
 6    1  0.1782050E-003  0.5064492E+03  0.7546771E-02  0.9385494E-01
        -11   -1    0    0    0    0  0.00000000000E+00  0.00000000000E+00  0.50000000000E+03  0.50000000000E+03  0.00000000000E+00 0. -1.
         11   -1    0    0    0    0 -0.00000000000E+00 -0.00000000000E+00 -0.50000000000E+03  0.50000000000E+03  0.00000000000E+00 0.  1.
        -11    1    1    2    0    0  0.59009768402E+01 -0.14352880376E+02  0.45825015353E+03  0.45851284596E+03  0.00000000000E+00 0. -1.
         11    1    1    2    0    0 -0.98080325427E+01  0.19904314854E+00 -0.49345326231E+03  0.49355076659E+03  0.00000000000E+00 0.  1.
        -15    1    1    2    0    0 -0.72829597575E+01  0.94759263893E+01  0.33435420302E+02  0.35551648957E+02  0.17770000000E+01 0.  1.
         15    1    1    2    0    0  0.11190015460E+02  0.46779108378E+01  0.17676884780E+01  0.12384738486E+02  0.17770000000E+01 0. -1.
</event>
<event>
 6    1  0.1782050E-003  0.5310951E+03  0.7546771E-02  0.9332800E-01
        -11   -1    0    0    0    0  0.00000000000E+00  0.00000000000E+00  0.50000000000E+03  0.50000000000E+03  0.00000000000E+00 0. -1.
         11   -1    0    0    0    0 -0.00000000000E+00 -0.00000000000E+00 -0.50000000000E+03  0.50000000000E+03  0.00000000000E+00 0.  1.
        -11    1    1    2    0    0  0.24734744356E+01  0.33561645477E+02  0.46769575729E+03  0.46890491947E+03  0.00000000000E+00 0. -1.
         11    1    1    2    0    0  0.54253405546E+01 -0.29824393124E+01 -0.31891281511E+03  0.31897290309E+03  0.00000000000E+00 0.  1.
        -15    1    1    2    0    0 -0.16757488016E+01 -0.27408286029E+02  0.25603929799E+02  0.37586450049E+02  0.17770000000E+01 0. -1.
         15    1    1    2    0    0 -0.62230661886E+01 -0.31709201353E+01 -0.17438687198E+03  0.17453572739E+03  0.17770000000E+01 0.  1.
</event>
<event>
 6    1  0.1782050E-003  0.5007990E+03  0.7546771E-02  0.9398024E-01
        -11   -1    0    0    0    0  0.00000000000E+00  0.00000000000E+00  0.50000000000E+03  0.50000000000E+03  0.00000000000E+00 0. -1.
         11   -1    0    0    0    0 -0.00000000000E+00 -0.00000000000E+00 -0.50000000000E+03  0.50000000000E+03  0.00000000000E+00 0.  1.
        -11    1    1    2    0    0 -0.88409030675E+01 -0.71458176149E+00  0.49912221681E+03  0.49920102114E+03  0.00000000000E+00 0. -1.
         11    1    1    2    0    0  0.64013410048E+01 -0.43311773939E+01 -0.42942457787E+03  0.42949412609E+03  0.00000000000E+00 0.  1.
        -15    1    1    2    0    0 -0.50782930202E+01  0.17706874128E+01 -0.41517715943E+02  0.41902301369E+02  0.17770000000E+01 0.  1.
         15    1    1    2    0    0  0.75178550830E+01  0.32750717426E+01 -0.28179922994E+02  0.29402551402E+02  0.17770000000E+01 0. -1.
</event>
<event>
 6    1  0.1782050E-003  0.5115774E+03  0.7546771E-02  0.9374271E-01
        -11   -1    0    0    0    0  0.00000000000E+00  0.00000000000E+00  0.50000000000E+03  0.50000000000E+03  0.00000000000E+00 0. -1.
         11   -1    0    0    0    0 -0.00000000000E+00 -0.00000000000E+00 -0.50000000000E+03  0.50000000000E+03  0.00000000000E+00 0. -1.
        -11    1    1    2    0    0  0.65547416728E+01 -0.35516260994E+01  0.48836573492E+03  0.48842263433E+03  0.00000000000E+00 0. -1.
         11    1    1    2    0    0 -0.11585320407E+02  0.14767274345E+02 -0.43866964510E+03  0.43907100744E+03  0.00000000000E+00 0. -1.
        -15    1    1    2    0    0  0.40370788771E+01 -0.11001942456E+02 -0.60428715015E+02  0.61580257153E+02  0.17770000000E+01 0. -1.
         15    1    1    2    0    0  0.99349985758E+00 -0.21370578956E+00  0.10732625197E+02  0.10926101078E+02  0.17770000000E+01 0.  1.
</event>
<event>
 6    1  0.1782050E-003  0.5000650E+03  0.7546771E-02  0.9399664E-01
        -11   -1    0    0    0    0  0.00000000000E+00  0.00000000000E+00  0.50000000000E+03  0.50000000000E+03  0.00000000000E+00 0. -1.
         11   -1    0    0    0    0 -0.00000000000E+00 -0.00000000000E+00 -0.50000000000E+03  0.50000000000E+03  0.00000000000E+00 0.  1.
        -11    1    1    2    0    0 -0.83417876467E+01 -0.12820141243E+01  0.49986370736E+03  0.49993495069E+03  0.00000000000E+00 0. -1.
         11    1    1    2    0    0  0.10778763260E+01  0.28883548147E+01 -0.16993637255E+03  0.16996433486E+03  0.00000000000E+00 0.  1.
        -15    1    1    2    0    0 -0.81578199292E+00 -0.54400664909E+00 -0.37911244617E+02  0.37965532275E+02  0.17770000000E+01 0.  1.
         15    1    1    2    0    0  0.80796933136E+01 -0.10623340413E+01 -0.29201609020E+03  0.29213518217E+03  0.17770000000E+01 0.  1.
</event>
<event>
 6    1  0.1782050E-003  0.4906178E+03  0.7546771E-02  0.9421051E-01
        -11   -1    0    0    0    0  0.00000000000E+00  0.00000000000E+00  0.50000000000E+03  0.50000000000E+03  0.00000000000E+00 0. -1.
         11   -1    0    0    0    0 -0.00000000000E+00 -0.00000000000E+00 -0.50000000000E+03  0.50000000000E+03  0.00000000000E+00 0. -1.
        -11    1    1    2    0    0 -0.30505231608E+01  0.22286143689E+01  0.19711293174E+02  0.20070064578E+02  0.00000000000E+00 0. -1.
         11    1    1    2    0    0 -0.13099600617E+02 -0.18539734826E+02 -0.49851643209E+03  0.49903301931E+03  0.00000000000E+00 0. -1.
        -15    1    1    2    0    0 -0.40633819764E+01  0.88853655149E+01  0.36037306076E+03  0.36050986317E+03  0.17770000000E+01 0. -1.
         15    1    1    2    0    0  0.20213505755E+02  0.74257549418E+01  0.11843207815E+03  0.12038705294E+03  0.17770000000E+01 0.  1.
</event>
<event>
 6    1  0.1782050E-003  0.5016457E+03  0.7546771E-02  0.9396135E-01
        -11   -1    0    0    0    0  0.00000000000E+00  0.00000000000E+00  0.50000000000E+03  0.50000000000E+03  0.00000000000E+00 0. -1.
         11   -1    0    0    0    0 -0.00000000000E+00 -0.00000000000E+00 -0.50000000000E+03  0.50000000000E+03  0.00000000000E+00 0. -1.
        -11    1    1    2    0    0  0.63113836089E+01  0.91366996659E+01  0.49823056002E+03  0.49835429544E+03  0.00000000000E+00 0. -1.
         11    1    1    2    0    0 -0.11540085072E+01 -0.65521122345E+01 -0.44575411502E+03  0.44580376060E+03  0.00000000000E+00 0. -1.
        -15    1    1    2    0    0  0.21606569020E+01 -0.57453728515E+01 -0.63884835991E+01  0.90359393063E+01  0.17770000000E+01 0. -1.
         15    1    1    2    0    0 -0.73180320037E+01  0.31607854201E+01 -0.46087961400E+02  0.46806004656E+02  0.17770000000E+01 0.  1.
</event>
<event>
 6    1  0.1782050E-003  0.5034691E+03  0.7546771E-02  0.9392081E-01
        -11   -1    0    0    0    0  0.00000000000E+00  0.00000000000E+00  0.50000000000E+03  0.50000000000E+03  0.00000000000E+00 0. -1.
         11   -1    0    0    0    0 -0.00000000000E+00 -0.00000000000E+00 -0.50000000000E+03  0.50000000000E+03  0.00000000000E+00 0. -1.
        -11    1    1    2    0    0  0.23308154874E+01 -0.12044204095E+02  0.17304256862E+03  0.17347687485E+03  0.00000000000E+00 0. -1.
         11    1    1    2    0    0  0.27460074560E+02 -0.44393238935E+01 -0.49575106889E+03  0.49653085060E+03  0.00000000000E+00 0. -1.
        -15    1    1    2    0    0 -0.22673963603E+02  0.36467650919E+01  0.34971390852E+02  0.41875570781E+02  0.17770000000E+01 0.  1.
         15    1    1    2    0    0 -0.71169264441E+01  0.12836762897E+02  0.28773710942E+03  0.28811670376E+03  0.17770000000E+01 0. -1.
</event>
<event>
 6    1  0.1782050E-003  0.5099939E+03  0.7546771E-02  0.9377721E-01
        -11   -1    0    0    0    0  0.00000000000E+00  0.00000000000E+00  0.50000000000E+03  0.50000000000E+03  0.00000000000E+00 0. -1.
         11   -1    0    0    0    0 -0.00000000000E+00 -0.00000000000E+00 -0.50000000000E+03  0.50000000000E+03  0.00000000000E+00 0. -1.
        -11    1    1    2    0    0 -0.88549257724E+01  0.11326976421E+02  0.48979512841E+03  0.49000609988E+03  0.00000000000E+00 0. -1.
         11    1    1    2    0    0  0.48571679089E+01 -0.71238767315E+01 -0.46743528133E+03  0.46751479541E+03  0.00000000000E+00 0. -1.
        -15    1    1    2    0    0  0.55473525330E+01 -0.55545527974E+01  0.83800329251E+01  0.11619331208E+02  0.17770000000E+01 0.  1.
         15    1    1    2    0    0 -0.15495946696E+01  0.13514531081E+01 -0.30739880004E+02  0.30859773506E+02  0.17770000000E+01 0. -1.
</event>
<event>
 6    1  0.1782050E-003  0.4893386E+03  0.7546771E-02  0.9423987E-01
        -11   -1    0    0    0    0  0.00000000000E+00  0.00000000000E+00  0.50000000000E+03  0.50000000000E+03  0.00000000000E+00 0.  1.
         11   -1    0    0    0    0 -0.00000000000E+00 -0.00000000000E+00 -0.50000000000E+03  0.50000000000E+03  0.00000000000E+00 0. -1.
        -11    1    1    2    0    0  0.49051621665E+01 -0.52305504702E+01  0.49265051486E+03  0.49270269846E+03  0.00000000000E+00 0.  1.
         11    1    1    2    0    0  0.55818180630E+01 -0.43961551302E+01 -0.48604839401E+03  0.48610032318E+03  0.00000000000E+00 0. -1.
        -15    1    1    2    0    0 -0.60069957182E+01  0.10807208737E+01  0.33806742221E+01  0.71999057189E+01  0.17770000000E+01 0. -1.
         15    1    1    2    0    0 -0.44799845113E+01  0.85459847267E+01 -0.99827950759E+01  0.13997072647E+02  0.17770000000E+01 0.  1.
</event>
<event>
 6    1  0.1782050E-003  0.5108665E+03  0.7546771E-02  0.9375818E-01
        -11   -1    0    0    0    0  0.00000000000E+00  0.00000000000E+00  0.50000000000E+03  0.50000000000E+03  0.00000000000E+00 0. -1.
         11   -1    0    0    0    0 -0.00000000000E+00 -0.00000000000E+00 -0.50000000000E+03  0.50000000000E+03  0.00000000000E+00 0.  1.
        -11    1    1    2    0    0 -0.10582365080E+02  0.14212955977E+02  0.48881239107E+03  0.48913346669E+03  0.00000000000E+00 0. -1.
         11    1    1    2    0    0 -0.11530435962E+02  0.38551049330E+01 -0.43704595121E+03  0.43721502291E+03  0.00000000000E+00 0.  1.
        -15    1    1    2    0    0  0.29845305646E+02 -0.23260793105E+02 -0.25339065487E+02  0.45574474586E+02  0.17770000000E+01 0. -1.
         15    1    1    2    0    0 -0.77325046036E+01  0.51927321949E+01 -0.26427374369E+02  0.28077035815E+02  0.17770000000E+01 0.  1.
</event>
<event>
 6    1  0.1782050E-003  0.5256892E+03  0.7546771E-02  0.9344094E-01
        -11   -1    0    0    0    0  0.00000000000E+00  0.00000000000E+00  0.50000000000E+03  0.50000000000E+03  0.00000000000E+00 0.  1.
         11   -1    0    0    0    0 -0.00000000000E+00 -0.00000000000E+00 -0.50000000000E+03  0.50000000000E+03  0.00000000000E+00 0.  1.
        -11    1    1    2    0    0  0.14997649216E+02 -0.17726669505E+02  0.41983316838E+03  0.42047479540E+03  0.00000000000E+00 0.  1.
         11    1    1    2    0    0  0.11104474862E+00 -0.19628117286E+02 -0.47390443510E+03  0.47431075143E+03  0.00000000000E+00 0.  1.
        -15    1    1    2    0    0  0.29699592498E+02  0.64982972156E+01  0.37511390561E+02  0.48317241354E+02  0.17770000000E+01 0.  1.
         15    1    1    2    0    0 -0.44808286463E+02  0.30856489575E+02  0.16559876159E+02  0.56897211813E+02  0.17770000000E+01 0. -1.
</event>
<event>
 6    1  0.1782050E-003  0.5250691E+03  0.7546771E-02  0.9345399E-01
        -11   -1    0    0    0    0  0.00000000000E+00  0.00000000000E+00  0.50000000000E+03  0.50000000000E+03  0.00000000000E+00 0.  1.
         11   -1    0    0    0    0 -0.00000000000E+00 -0.00000000000E+00 -0.50000000000E+03  0.50000000000E+03  0.00000000000E+00 0. -1.
        -11    1    1    2    0    0  0.19204803506E+02  0.92150628413E+01  0.42753550062E+03  0.42806581988E+03  0.00000000000E+00 0.  1.
         11    1    1    2    0    0  0.49768261322E+01 -0.93721489388E+01 -0.47481232643E+03  0.47493089108E+03  0.00000000000E+00 0. -1.
        -15    1    1    2    0    0 -0.11981811556E+02 -0.10036279044E+02  0.68580956490E+02  0.70361893290E+02  0.17770000000E+01 0.  1.
         15    1    1    2    0    0 -0.12199818081E+02  0.10193365142E+02 -0.21304130678E+02  0.26641395742E+02  0.17770000000E+01 0. -1.
</event>
<event>
 6    1  0.1782050E-003  0.5068925E+03  0.7546771E-02  0.9384518E-01
        -11   -1    0    0    0    0  0.00000000000E+00  0.00000000000E+00  0.50000000000E+03  0.50000000000E+03  0.00000000000E+00 0.  1.
         11   -1    0    0    0    0 -0.00000000000E+00 -0.00000000000E+00 -0.50000000000E+03  0.50000000000E+03  0.00000000000E+00 0.  1.
        -11    1    1    2    0    0  0.15281725631E+02 -0.93460067650E+01  0.49278203139E+03  0.49310750292E+03  0.00000000000E+00 0.  1.
         11    1    1    2    0    0  0.11242308636E+01  0.70840981934E+01 -0.46170020496E+03  0.46175591778E+03  0.00000000000E+00 0.  1.
        -15    1    1    2    0    0 -0.16313559451E+02  0.10324231092E+02 -0.86428159810E+01  0.21226821869E+02  0.17770000000E+01 0.  1.
         15    1    1    2    0    0 -0.92397043603E-01 -0.80623225207E+01 -0.22439010445E+02  0.23909757430E+02  0.17770000000E+01 0.  1.
</event>
<event>
 6    1  0.1782050E-003  0.5123135E+03  0.7546771E-02  0.9372671E-01
        -11   -1    0    0    0    0  0.00000000000E+00  0.00000000000E+00  0.50000000000E+03  0.50000000000E+03  0.00000000000E+00 0. -1.
         11   -1    0    0    0    0 -0.00000000000E+00 -0.00000000000E+00 -0.50000000000E+03  0.50000000000E+03  0.00000000000E+00 0. -1.
        -11    1    1    2    0    0 -0.78153696402E+01 -0.21226207423E+02  0.48716167319E+03  0.48768650557E+03  0.00000000000E+00 0. -1.
         11    1    1    2    0    0  0.92614668340E+01  0.21442112644E+02 -0.23330863958E+03  0.23447486063E+03  0.00000000000E+00 0. -1.
        -15    1    1    2    0    0 -0.16179002070E+02 -0.47543825482E+02 -0.62687866176E+02  0.80343647815E+02  0.17770000000E+01 0.  1.
         15    1    1    2    0    0  0.14732904876E+02  0.47327920261E+02 -0.19116516743E+03  0.19749498599E+03  0.17770000000E+01 0. -1.
</event>
<event>
 6    1  0.1782050E-003  0.5008057E+03  0.7546771E-02  0.9398009E-01
        -11   -1    0    0    0    0  0.00000000000E+00  0.00000000000E+00  0.50000000000E+03  0.50000000000E+03  0.00000000000E+00 0. -1.
         11   -1    0    0    0    0 -0.00000000000E+00 -0.00000000000E+00 -0.50000000000E+03  0.50000000000E+03  0.00000000000E+00 0.  1.
        -11    1    1    2    0    0  0.14410296418E+02 -0.12980678930E+00  0.49898627201E+03  0.49919432403E+03  0.00000000000E+00 0. -1.
         11    1    1    2    0    0 -0.31305582838E+01  0.48517650259E+01 -0.25312247433E+03  0.25318832325E+03  0.00000000000E+00 0.  1.
        -15    1    1    2    0    0  0.40671587381E+01 -0.54332045404E+01 -0.19461318282E+02  0.20687245589E+02  0.17770000000E+01 0.  1.
         15    1    1    2    0    0 -0.15346896872E+02  0.71124630384E+00 -0.22640247940E+03  0.22693010713E+03  0.17770000000E+01 0. -1.
</event>
<event>
 6    1  0.1782050E-003  0.5007757E+03  0.7546771E-02  0.9398076E-01
        -11   -1    0    0    0    0  0.00000000000E+00  0.00000000000E+00  0.50000000000E+03  0.50000000000E+03  0.00000000000E+00 0. -1.
         11   -1    0    0    0    0 -0.00000000000E+00 -0.00000000000E+00 -0.50000000000E+03  0.50000000000E+03  0.00000000000E+00 0. -1.
        -11    1    1    2    0    0 -0.25702596113E+02 -0.35776409579E+00  0.49856205275E+03  0.49922427013E+03  0.00000000000E+00 0. -1.
         11    1    1    2    0    0  0.33956655359E+01  0.44704556460E+01 -0.94778536247E+02  0.94944649408E+02  0.00000000000E+00 0. -1.
        -15    1    1    2    0    0  0.30959720269E+02 -0.59029713243E+01 -0.32709899150E+03  0.32861871115E+03  0.17770000000E+01 0. -1.
         15    1    1    2    0    0 -0.86527896923E+01  0.17902797740E+01 -0.76684525004E+02  0.77212369315E+02  0.17770000000E+01 0.  1.
</event>
<event>
 6    1  0.1782050E-003  0.4827725E+03  0.7546771E-02  0.9439205E-01
        -11   -1    0    0    0    0  0.00000000000E+00  0.00000000000E+00  0.50000000000E+03  0.50000000000E+03  0.00000000000E+00 0. -1.
         11   -1    0    0    0    0 -0.00000000000E+00 -0.00000000000E+00 -0.50000000000E+03  0.50000000000E+03  0.00000000000E+00 0.  1.
        -11    1    1    2    0    0 -0.12327614509E+02 -0.29527672583E+01  0.48116372357E+03  0.48133067406E+03  0.00000000000E+00 0. -1.
         11    1    1    2    0    0  0.85917729896E+00 -0.14562001903E+02 -0.48422636029E+03  0.48444603217E+03  0.00000000000E+00 0.  1.
        -15    1    1    2    0    0  0.76441144297E+01  0.11856084575E+02 -0.11338680347E+02  0.18185780926E+02  0.17770000000E+01 0. -1.
         15    1    1    2    0    0  0.38243227804E+01  0.56586845863E+01  0.14401317066E+02  0.16037512844E+02  0.17770000000E+01 0.  1.
</event>
<event>
 6    1  0.1782050E-003  0.5307763E+03  0.7546771E-02  0.9333462E-01
        -11   -1    0    0    0    0  0.00000000000E+00  0.00000000000E+00  0.50000000000E+03  0.50000000000E+03  0.00000000000E+00 0.  1.
         11   -1    0    0    0    0 -0.00000000000E+00 -0.00000000000E+00 -0.50000000000E+03  0.50000000000E+03  0.00000000000E+00 0.  1.
        -11    1    1    2    0    0  0.46542420601E+02 -0.42423965883E+02  0.46497840642E+03  0.46922372940E+03  0.00000000000E+00 0.  1.
         11    1    1    2    0    0 -0.19271675840E+02 -0.49874867616E+01 -0.36446999600E+03  0.36501321962E+03  0.00000000000E+00 0.  1.
        -15    1    1    2    0    0 -0.59080810661E+02 -0.27380330439E+01 -0.13979420950E+02  0.60799843358E+02  0.17770000000E+01 0. -1.
         15    1    1    2    0    0  0.31810065899E+02  0.50149485689E+02 -0.86528989468E+02  0.10496320762E+03  0.17770000000E+01 0.  1.
</event>
<event>
 6    1  0.1782050E-003  0.5007605E+03  0.7546771E-02  0.9398110E-01
        -11   -1    0    0    0    0  0.00000000000E+00  0.00000000000E+00  0.50000000000E+03  0.50000000000E+03  0.00000000000E+00 0.  1.
         11   -1    0    0    0    0 -0.00000000000E+00 -0.00000000000E+00 -0.50000000000E+03  0.50000000000E+03  0.00000000000E+00 0. -1.
        -11    1    1    2    0    0 -0.39394341494E+02 -0.79578756710E+01  0.49761921564E+03  0.49923954741E+03  0.00000000000E+00 0.  1.
         11    1    1    2    0    0  0.68102393787E+01  0.28966035515E+01 -0.14722010506E+03  0.14740600057E+03  0.00000000000E+00 0. -1.
        -15    1    1    2    0    0 -0.60990982736E+01  0.19551983669E+01 -0.43104632401E+02  0.43614090199E+02  0.17770000000E+01 0.  1.
         15    1    1    2    0    0  0.38683200389E+02  0.31060737526E+01 -0.30729447818E+03  0.30974036182E+03  0.17770000000E+01 0. -1.
</event>
<event>
 6    1  0.1782050E-003  0.5090340E+03  0.7546771E-02  0.9379819E-01
        -11   -1    0    0    0    0  0.00000000000E+00  0.00000000000E+00  0.50000000000E+03  0.50000000000E+03  0.00000000000E+00 0.  1.
         11   -1    0    0    0    0 -0.00000000000E+00 -0.00000000000E+00 -0.50000000000E+03  0.50000000000E+03  0.00000000000E+00 0. -1.
        -11    1    1    2    0    0 -0.13017446395E+01  0.66422866004E+01  0.48338255521E+03  0.48342994239E+03  0.00000000000E+00 0.  1.
         11    1    1    2    0    0 -0.14860714617E+01 -0.75596406817E+01 -0.49090556101E+03  0.49096601349E+03  0.00000000000E+00 0. -1.
        -15    1    1    2    0    0  0.77968529826E+01  0.99637360707E+01  0.14369150807E+00  0.12776749554E+02  0.17770000000E+01 0. -1.
         15    1    1    2    0    0 -0.50090368814E+01 -0.90463819894E+01  0.73793142854E+01  0.12827294567E+02  0.17770000000E+01 0.  1.
</event>
<event>
 6    1  0.1782050E-003  0.5300909E+03  0.7546771E-02  0.9334887E-01
        -11   -1    0    0    0    0  0.00000000000E+00  0.00000000000E+00  0.50000000000E+03  0.50000000000E+03  0.00000000000E+00 0.  1.
         11   -1    0    0    0    0 -0.00000000000E+00 -0.00000000000E+00 -0.50000000000E+03  0.50000000000E+03  0.00000000000E+00 0.  1.
        -11    1    1    2    0    0  0.24458090883E+01  0.73484454372E+01  0.32533928043E+03  0.32543145058E+03  0.00000000000E+00 0.  1.
         11    1    1    2    0    0 -0.46268760936E+01  0.39270522932E+02 -0.46824248342E+03  0.46990914572E+03  0.00000000000E+00 0.  1.
        -15    1    1    2    0    0  0.31186575016E+02 -0.17879499043E+02 -0.16864169112E+02  0.39747161862E+02  0.17770000000E+01 0. -1.
         15    1    1    2    0    0 -0.29005508010E+02 -0.28739469326E+02  0.15976737210E+03  0.16491224184E+03  0.17770000000E+01 0.  1.
</event>
<event>
 6    1  0.1782050E-003  0.5011931E+03  0.7546771E-02  0.9397144E-01
        -11   -1    0    0    0    0  0.00000000000E+00  0.00000000000E+00  0.50000000000E+03  0.50000000000E+03  0.00000000000E+00 0. -1.
         11   -1    0    0    0    0 -0.00000000000E+00 -0.00000000000E+00 -0.50000000000E+03  0.50000000000E+03  0.00000000000E+00 0. -1.
        -11    1    1    2    0    0  0.12603846814E+01  0.78432843858E+01  0.49874362298E+03  0.49880688362E+03  0.00000000000E+00 0. -1.
         11    1    1    2    0    0  0.40642826981E+01  0.38319095721E+01 -0.22077228636E+03  0.22084294046E+03  0.00000000000E+00 0. -1.
        -15    1    1    2    0    0  0.22267436217E+01 -0.89270229034E+01 -0.18402560309E+02  0.20650958331E+02  0.17770000000E+01 0.  1.
         15    1    1    2    0    0 -0.75514110012E+01 -0.27481710545E+01 -0.25956877631E+03  0.25969921759E+03  0.17770000000E+01 0. -1.
</event>
<event>
 6    1  0.1782050E-003  0.5236783E+03  0.7546771E-02  0.9348333E-01
        -11   -1    0    0    0    0  0.00000000000E+00  0.00000000000E+00  0.50000000000E+03  0.50000000000E+03  0.00000000000E+00 0. -1.
         11   -1    0    0    0    0 -0.00000000000E+00 -0.00000000000E+00 -0.50000000000E+03  0.50000000000E+03  0.00000000000E+00 0. -1.
        -11    1    1    2    0    0 -0.50643109656E+01 -0.90879712004E+01  0.47620803999E+03  0.47632167263E+03  0.00000000000E+00 0. -1.
         11    1    1    2    0    0 -0.99539186099E+01 -0.12372822759E+02 -0.38813399629E+03  0.38845870606E+03  0.00000000000E+00 0. -1.
        -15    1    1    2    0    0  0.73884940185E+01 -0.19557434637E+01  0.21505588021E+02  0.22892418428E+02  0.17770000000E+01 0.  1.
         15    1    1    2    0    0  0.76297355570E+01  0.23416537423E+02 -0.10957963173E+03  0.11232720288E+03  0.17770000000E+01 0. -1.
</event>
<event>
 6    1  0.1782050E-003  0.5045949E+03  0.7546771E-02  0.9389587E-01
        -11   -1    0    0    0    0  0.00000000000E+00  0.00000000000E+00  0.50000000000E+03  0.50000000000E+03  0.00000000000E+00 0.  1.
         11   -1    0    0    0    0 -0.00000000000E+00 -0.00000000000E+00 -0.50000000000E+03  0.50000000000E+03  0.00000000000E+00 0.  1.
        -11    1    1    2    0    0  0.11797452434E+02 -0.10736114979E+02  0.40160568723E+03  0.40192234581E+03  0.00000000000E+00 0.  1.
         11    1    1    2    0    0 -0.12063877055E+02  0.54880558506E+01 -0.49522776601E+03  0.49540508285E+03  0.00000000000E+00 0.  1.
        -15    1    1    2    0    0  0.75269284477E+01  0.12685230197E+02  0.89457785968E+01  0.17342272075E+02  0.17770000000E+01 0. -1.
         15    1    1    2    0    0 -0.72605038260E+01 -0.74371710689E+01  0.84676300188E+02  0.85330299260E+02  0.17770000000E+01 0.  1.
</event>
<event>
 6    1  0.1782050E-003  0.5007726E+03  0.7546771E-02  0.9398083E-01
        -11   -1    0    0    0    0  0.00000000000E+00  0.00000000000E+00  0.50000000000E+03  0.50000000000E+03  0.00000000000E+00 0. -1.
         11   -1    0    0    0    0 -0.00000000000E+00 -0.00000000000E+00 -0.50000000000E+03  0.50000000000E+03  0.00000000000E+00 0.  1.
        -11    1    1    2    0    0 -0.80763162872E+01  0.19937405507E+01  0.31034512793E+03  0.31045659973E+03  0.00000000000E+00 0. -1.
         11    1    1    2    0    0  0.58663021810E+01  0.10833007302E+02 -0.49907540618E+03  0.49922743174E+03  0.00000000000E+00 0.  1.
        -15    1    1    2    0    0  0.26266535176E+01 -0.18385676775E+02  0.14153622978E+03  0.14276061953E+03  0.17770000000E+01 0. -1.
         15    1    1    2    0    0 -0.41663941139E+00  0.55589289215E+01  0.47194048462E+02  0.47555348999E+02  0.17770000000E+01 0. -1.
</event>
<event>
 6    1  0.1782050E-003  0.5045312E+03  0.7546771E-02  0.9389727E-01
        -11   -1    0    0    0    0  0.00000000000E+00  0.00000000000E+00  0.50000000000E+03  0.50000000000E+03  0.00000000000E+00 0. -1.
         11   -1    0    0    0    0 -0.00000000000E+00 -0.00000000000E+00 -0.50000000000E+03  0.50000000000E+03  0.00000000000E+00 0.  1.
        -11    1    1    2    0    0  0.12738766283E+02  0.49705853198E+01  0.40658026072E+03  0.40681014158E+03  0.00000000000E+00 0. -1.
         11    1    1    2    0    0  0.94308603893E+01 -0.24198078877E+01 -0.49537310192E+03  0.49546877470E+03  0.00000000000E+00 0.  1.
        -15    1    1    2    0    0 -0.20615798260E+01  0.10253549122E+02  0.56808955207E+02  0.57791007101E+02  0.17770000000E+01 0. -1.
         15    1    1    2    0    0 -0.20108046846E+02 -0.12804326554E+02  0.31983885998E+02  0.39930076622E+02  0.17770000000E+01 0.  1.
</event>
<event>
 6    1  0.1782050E-003  0.5115884E+03  0.7546771E-02  0.9374247E-01
        -11   -1    0    0    0    0  0.00000000000E+00  0.00000000000E+00  0.50000000000E+03  0.50000000000E+03  0.00000000000E+00 0.  1.
         11   -1    0    0    0    0 -0.00000000000E+00 -0.00000000000E+00 -0.50000000000E+03  0.50000000000E+03  0.00000000000E+00 0.  1.
        -11    1    1    2    0    0 -0.38478431575E+01 -0.50541121388E+01  0.40138927077E+03  0.40143953049E+03  0.00000000000E+00 0.  1.
         11    1    1    2    0    0 -0.24168627009E+02  0.97566208415E+01 -0.48771566170E+03  0.48841158959E+03  0.00000000000E+00 0.  1.
        -15    1    1    2    0    0 -0.10616523967E+02  0.12004104150E+02  0.55908802244E+02  0.58187292383E+02  0.17770000000E+01 0.  1.
         15    1    1    2    0    0  0.38632994133E+02 -0.16706612852E+02  0.30417588684E+02  0.51961587533E+02  0.17770000000E+01 0. -1.
</event>
<event>
 6    1  0.1782050E-003  0.5066932E+03  0.7546771E-02  0.9384956E-01
        -11   -1    0    0    0    0  0.00000000000E+00  0.00000000000E+00  0.50000000000E+03  0.50000000000E+03  0.00000000000E+00 0. -1.
         11   -1    0    0    0    0 -0.00000000000E+00 -0.00000000000E+00 -0.50000000000E+03  0.50000000000E+03  0.00000000000E+00 0. -1.
        -11    1    1    2    0    0  0.88839174620E+01  0.11541701825E+02  0.49309174916E+03  0.49330680915E+03  0.00000000000E+00 0. -1.
         11    1    1    2    0    0 -0.11973019093E+02  0.69140760940E+00 -0.29017897588E+03  0.29042670206E+03  0.00000000000E+00 0. -1.
        -15    1    1    2    0    0  0.38145426572E+02 -0.25183677343E+01 -0.11024277442E+03  0.11669637006E+03  0.17770000000E+01 0. -1.
         15    1    1    2    0    0 -0.35056324941E+02 -0.97147417005E+01 -0.92669998864E+02  0.99570118726E+02  0.17770000000E+01 0.  1.
</event>
<event>
 6    1  0.1782050E-003  0.4885271E+03  0.7546771E-02  0.9425853E-01
        -11   -1    0    0    0    0  0.00000000000E+00  0.00000000000E+00  0.50000000000E+03  0.50000000000E+03  0.00000000000E+00 0. -1.
         11   -1    0    0    0    0 -0.00000000000E+00 -0.00000000000E+00 -0.50000000000E+03  0.50000000000E+03  0.00000000000E+00 0.  1.
        -11    1    1    2    0    0 -0.49515354126E+02 -0.65577074765E+01  0.48667567417E+03  0.48923203661E+03  0.00000000000E+00 0. -1.
         11    1    1    2    0    0 -0.21150296696E+01  0.10451361919E+01 -0.42064391754E+02  0.42130496245E+02  0.00000000000E+00 0.  1.
        -15    1    1    2    0    0 -0.19431922659E+01 -0.30675807585E+02 -0.36394658536E+03  0.36524656862E+03  0.17770000000E+01 0.  1.
         15    1    1    2    0    0  0.53573576062E+02  0.36188378869E+02 -0.80664697051E+02  0.10339089852E+03  0.17770000000E+01 0. -1.
</event>
<event>
 6    1  0.1782050E-003  0.5207753E+03  0.7546771E-02  0.9354487E-01
        -11   -1    0    0    0    0  0.00000000000E+00  0.00000000000E+00  0.50000000000E+03  0.50000000000E+03  0.00000000000E+00 0. -1.
         11   -1    0    0    0    0 -0.00000000000E+00 -0.00000000000E+00 -0.50000000000E+03  0.50000000000E+03  0.00000000000E+00 0. -1.
        -11    1    1    2    0    0  0.16665446290E+01  0.71678639215E+01  0.33363654273E+03  0.33371769251E+03  0.00000000000E+00 0. -1.
         11    1    1    2    0    0  0.64101877014E+01 -0.16541996177E+02 -0.47889618282E+03  0.47922466763E+03  0.00000000000E+00 0. -1.
        -15    1    1    2    0    0 -0.43375663871E+02  0.46533241957E+02  0.59428902603E+02  0.87073204930E+02  0.17770000000E+01 0. -1.
         15    1    1    2    0    0  0.35298931540E+02 -0.37159109701E+02  0.85830737488E+02  0.99984434931E+02  0.17770000000E+01 0.  1.
</event>
<event>
 6    1  0.1782050E-003  0.5350098E+03  0.7546771E-02  0.9324709E-01
        -11   -1    0    0    0    0  0.00000000000E+00  0.00000000000E+00  0.50000000000E+03  0.50000000000E+03  0.00000000000E+00 0. -1.
         11   -1    0    0    0    0 -0.00000000000E+00 -0.00000000000E+00 -0.50000000000E+03  0.50000000000E+03  0.00000000000E+00 0.  1.
        -11    1    1    2    0    0  0.48645192520E+01 -0.45065143990E+01  0.46494290548E+03  0.46499019084E+03  0.00000000000E+00 0. -1.
         11    1    1    2    0    0 -0.10683930059E+02  0.72266504946E+01 -0.41901524013E+03  0.41921371912E+03  0.00000000000E+00 0.  1.
        -15    1    1    2    0    0  0.10329429254E+02 -0.52065527417E+01 -0.80222286946E+02  0.81071439805E+02  0.17770000000E+01 0. -1.
         15    1    1    2    0    0 -0.45100184468E+01  0.24864166461E+01  0.34294621600E+02  0.34724650234E+02  0.17770000000E+01 0. -1.
</event>
<event>
 6    1  0.1782050E-003  0.5032495E+03  0.7546771E-02  0.9392568E-01
        -11   -1    0    0    0    0  0.00000000000E+00  0.00000000000E+00  0.50000000000E+03  0.50000000000E+03  0.00000000000E+00 0.  1.
         11   -1    0    0    0    0 -0.00000000000E+00 -0.00000000000E+00 -0.50000000000E+03  0.50000000000E+03  0.00000000000E+00 0.  1.
        -11    1    1    2    0    0  0.10728133583E+02 -0.27142744329E+01  0.49662724382E+03  0.49675052032E+03  0.00000000000E+00 0.  1.
         11    1    1    2    0    0  0.67858142681E+01  0.11493310474E+02 -0.36777086140E+03  0.36801297526E+03  0.00000000000E+00 0.  1.
        -15    1    1    2    0    0 -0.66241781964E+01  0.11457081835E+02 -0.20567717522E+02  0.24522096036E+02  0.17770000000E+01 0.  1.
         15    1    1    2    0    0 -0.10889769654E+02 -0.20236117876E+02 -0.10828866490E+03  0.11071440839E+03  0.17770000000E+01 0. -1.
</event>
<event>
 6    1  0.1782050E-003  0.5002249E+03  0.7546771E-02  0.9399307E-01
        -11   -1    0    0    0    0  0.00000000000E+00  0.00000000000E+00  0.50000000000E+03  0.50000000000E+03  0.00000000000E+00 0.  1.
         11   -1    0    0    0    0 -0.00000000000E+00 -0.00000000000E+00 -0.50000000000E+03  0.50000000000E+03  0.00000000000E+00 0.  1.
        -11    1    1    2    0    0 -0.11733402725E+01 -0.44265103538E+01  0.91881336704E+02  0.91995384426E+02  0.00000000000E+00 0.  1.
         11    1    1    2    0    0 -0.10883286983E+02  0.17235043602E+02 -0.49935920078E+03  0.49977505347E+03  0.00000000000E+00 0.  1.
        -15    1    1    2    0    0  0.60257185789E+01 -0.16332198514E+02  0.30070728892E+03  0.30121600444E+03  0.17770000000E+01 0.  1.
         15    1    1    2    0    0  0.60309086764E+01  0.35236652660E+01  0.10677057516E+03  0.10701355767E+03  0.17770000000E+01 0. -1.
</event>
<event>
 6    1  0.1782050E-003  0.5013336E+03  0.7546771E-02  0.9396831E-01
        -11   -1    0    0    0    0  0.00000000000E+00  0.00000000000E+00  0.50000000000E+03  0.50000000000E+03  0.00000000000E+00 0.  1.
         11   -1    0    0    0    0 -0.00000000000E+00 -0.00000000000E+00 -0.50000000000E+03  0.50000000000E+03  0.00000000000E+00 0. -1.
        -11    1    1    2    0    0 -0.35037107783E+01 -0.65503837450E+01  0.24714688206E+03  0.24725849799E+03  0.00000000000E+00 0.  1.
         11    1    1    2    0    0 -0.12238784006E+02  0.32670014205E+01 -0.49850551942E+03  0.49866643564E+03  0.00000000000E+00 0. -1.
        -15    1    1    2    0    0  0.53113604998E+01  0.73228200953E+00  0.52050790657E+01  0.76809741818E+01  0.17770000000E+01 0. -1.
         15    1    1    2    0    0  0.10431134284E+02  0.25511003149E+01  0.24615355830E+03  0.24639409219E+03  0.17770000000E+01 0.  1.
</event>
<event>
 6    1  0.1782050E-003  0.5352011E+03  0.7546771E-02  0.9324316E-01
        -11   -1    0    0    0    0  0.00000000000E+00  0.00000000000E+00  0.50000000000E+03  0.50000000000E+03  0.00000000000E+00 0.  1.
         11   -1    0    0    0    0 -0.00000000000E+00 -0.00000000000E+00 -0.50000000000E+03  0.50000000000E+03  0.00000000000E+00 0.  1.
        -11    1    1    2    0    0  0.25869275319E+02 -0.10446862643E+03  0.45216707426E+03  0.46479885580E+03  0.00000000000E+00 0.  1.
         11    1    1    2    0    0 -0.83603881671E+01 -0.34461279667E+01 -0.26849341625E+03  0.26864565223E+03  0.00000000000E+00 0.  1.
        -15    1    1    2    0    0  0.30198645727E+02  0.67645913354E+02 -0.16557018842E+01  0.74120353986E+02  0.17770000000E+01 0.  1.
         15    1    1    2    0    0 -0.47707532878E+02  0.40268841042E+02 -0.18201795612E+03  0.19243513798E+03  0.17770000000E+01 0. -1.
</event>
<event>
 6    1  0.1782050E-003  0.5003422E+03  0.7546771E-02  0.9399044E-01
        -11   -1    0    0    0    0  0.00000000000E+00  0.00000000000E+00  0.50000000000E+03  0.50000000000E+03  0.00000000000E+00 0. -1.
         11   -1    0    0    0    0 -0.00000000000E+00 -0.00000000000E+00 -0.50000000000E+03  0.50000000000E+03  0.00000000000E+00 0. -1.
        -11    1    1    2    0    0 -0.12873686797E+01 -0.67523904116E+01  0.30950726176E+03  0.30958358674E+03  0.00000000000E+00 0. -1.
         11    1    1    2    0    0 -0.66803568766E+01  0.22614892837E+01 -0.49960805056E+03  0.49965782860E+03  0.00000000000E+00 0. -1.
        -15    1    1    2    0    0  0.50109447248E+01 -0.32931553757E+01  0.11634986638E+03  0.11651782514E+03  0.17770000000E+01 0. -1.
         15    1    1    2    0    0  0.29567808316E+01  0.77840565036E+01  0.73750922416E+02  0.74240759524E+02  0.17770000000E+01 0.  1.
</event>
<event>
 6    1  0.1782050E-003  0.5175558E+03  0.7546771E-02  0.9361362E-01
        -11   -1    0    0    0    0  0.00000000000E+00  0.00000000000E+00  0.50000000000E+03  0.50000000000E+03  0.00000000000E+00 0.  1.
         11   -1    0    0    0    0 -0.00000000000E+00 -0.00000000000E+00 -0.50000000000E+03  0.50000000000E+03  0.00000000000E+00 0.  1.
        -11    1    1    2    0    0  0.51019448116E+01 -0.19133921393E+01  0.40428476151E+03  0.40432148013E+03  0.00000000000E+00 0.  1.
         11    1    1    2    0    0  0.41914760828E+01  0.64004320599E+01 -0.48238351813E+03  0.48244418596E+03  0.00000000000E+00 0.  1.
        -15    1    1    2    0    0 -0.18527688456E+02 -0.10480101147E+02 -0.10594089619E+02  0.23843242720E+02  0.17770000000E+01 0.  1.
         15    1    1    2    0    0  0.92342675611E+01  0.59930612269E+01  0.88692846243E+02  0.89391091189E+02  0.17770000000E+01 0. -1.
</event>
<event>
 6    1  0.1782050E-003  0.5076385E+03  0.7546771E-02  0.9382878E-01
        -11   -1    0    0    0    0  0.00000000000E+00  0.00000000000E+00  0.50000000000E+03  0.50000000000E+03  0.00000000000E+00 0. -1.
         11   -1    0    0    0    0 -0.00000000000E+00 -0.00000000000E+00 -0.50000000000E+03  0.50000000000E+03  0.00000000000E+00 0. -1.
        -11    1    1    2    0    0  0.70123074060E+01 -0.24544916329E+01  0.49230544920E+03  0.49236150571E+03  0.00000000000E+00 0. -1.
         11    1    1    2    0    0 -0.46280434828E+01  0.17928743279E+02 -0.47111397116E+03  0.47147771150E+03  0.00000000000E+00 0. -1.
        -15    1    1    2    0    0 -0.66870350127E+01 -0.67110419291E+01  0.29328204998E+01  0.10075400048E+02  0.17770000000E+01 0.  1.
         15    1    1    2    0    0  0.43027710896E+01 -0.87632097173E+01 -0.24124298543E+02  0.26085382742E+02  0.17770000000E+01 0. -1.
</event>
<event>
 6    1  0.1782050E-003  0.5015998E+03  0.7546771E-02  0.9396237E-01
        -11   -1    0    0    0    0  0.00000000000E+00  0.00000000000E+00  0.50000000000E+03  0.50000000000E+03  0.00000000000E+00 0. -1.
         11   -1    0    0    0    0 -0.00000000000E+00 -0.00000000000E+00 -0.50000000000E+03  0.50000000000E+03  0.00000000000E+00 0. -1.
        -11    1    1    2    0    0  0.12592386527E+01  0.15249576066E+02  0.13611933971E+03  0.13697667647E+03  0.00000000000E+00 0. -1.
         11    1    1    2    0    0  0.22477199444E+02  0.11414008532E+02 -0.49776225438E+03  0.49840020663E+03  0.00000000000E+00 0. -1.
        -15    1    1    2    0    0 -0.30086187075E+02 -0.22070663249E+02  0.26097259695E+03  0.26363259836E+03  0.17770000000E+01 0. -1.
         15    1    1    2    0    0  0.63497489790E+01 -0.45929213486E+01  0.10067031771E+03  0.10099051854E+03  0.17770000000E+01 0.  1.
</event>
<event>
 6    1  0.1782050E-003  0.5007017E+03  0.7546771E-02  0.9398241E-01
        -11   -1    0    0    0    0  0.00000000000E+00  0.00000000000E+00  0.50000000000E+03  0.50000000000E+03  0.00000000000E+00 0.  1.
         11   -1    0    0    0    0 -0.00000000000E+00 -0.00000000000E+00 -0.50000000000E+03  0.50000000000E+03  0.00000000000E+00 0. -1.
        -11    1    1    2    0    0  0.57486852330E+01  0.62088259392E+01  0.49922654807E+03  0.49929825075E+03  0.00000000000E+00 0.  1.
         11    1    1    2    0    0  0.39647940674E+01  0.76911371781E+01 -0.37694850801E+03  0.37704780980E+03  0.00000000000E+00 0. -1.
        -15    1    1    2    0    0  0.93679952440E-01 -0.38378850211E+01 -0.28886809007E+02  0.29194924233E+02  0.17770000000E+01 0.  1.
         15    1    1    2    0    0 -0.98071592528E+01 -0.10062078096E+02 -0.93391231054E+02  0.94459015213E+02  0.17770000000E+01 0. -1.
</event>
<event>
 6    1  0.1782050E-003  0.5027851E+03  0.7546771E-02  0.9393599E-01
        -11   -1    0    0    0    0  0.00000000000E+00  0.00000000000E+00  0.50000000000E+03  0.50000000000E+03  0.00000000000E+00 0.  1.
         11   -1    0    0    0    0 -0.00000000000E+00 -0.00000000000E+00 -0.50000000000E+03  0.50000000000E+03  0.00000000000E+00 0. -1.
        -11    1    1    2    0    0  0.90834278274E+01  0.65734082041E+00  0.49713146009E+03  0.49721487243E+03  0.00000000000E+00 0.  1.
         11    1    1    2    0    0  0.26621278031E+01 -0.41304696439E+01 -0.27204636152E+03  0.27209073950E+03  0.00000000000E+00 0. -1.
        -15    1    1    2    0    0  0.69242621430E+01  0.84809034459E+01 -0.10631803965E+02  0.15364378088E+02  0.17770000000E+01 0.  1.
         15    1    1    2    0    0 -0.18669817773E+02 -0.50077746224E+01 -0.21445329460E+03  0.21533000998E+03  0.17770000000E+01 0. -1.
</event>
<event>
 6    1  0.1782050E-003  0.5022398E+03  0.7546771E-02  0.9394812E-01
        -11   -1    0    0    0    0  0.00000000000E+00  0.00000000000E+00  0.50000000000E+03  0.50000000000E+03  0.00000000000E+00 0.  1.
         11   -1    0    0    0    0 -0.00000000000E+00 -0.00000000000E+00 -0.50000000000E+03  0.50000000000E+03  0.00000000000E+00 0.  1.
        -11    1    1    2    0    0 -0.13935392476E+02 -0.12583506235E+02  0.49740591258E+03  0.49776016480E+03  0.00000000000E+00 0.  1.
         11    1    1    2    0    0  0.15435049115E+02  0.58450521791E+01 -0.30129083642E+03  0.30174256161E+03  0.00000000000E+00 0.  1.
        -15    1    1    2    0    0  0.18465900003E+02  0.13134802106E+01 -0.12621843798E+03  0.12758121535E+03  0.17770000000E+01 0.  1.
         15    1    1    2    0    0 -0.19965556641E+02  0.54249738451E+01 -0.69896638169E+02  0.72916058242E+02  0.17770000000E+01 0. -1.
</event>
<event>
 6    1  0.1782050E-003  0.5022652E+03  0.7546771E-02  0.9394755E-01
        -11   -1    0    0    0    0  0.00000000000E+00  0.00000000000E+00  0.50000000000E+03  0.50000000000E+03  0.00000000000E+00 0. -1.
         11   -1    0    0    0    0 -0.00000000000E+00 -0.00000000000E+00 -0.50000000000E+03  0.50000000000E+03  0.00000000000E+00 0. -1.
        -11    1    1    2    0    0 -0.41674404970E+01  0.58683670882E+01  0.49768277719E+03  0.49773482097E+03  0.00000000000E+00 0. -1.
         11    1    1    2    0    0 -0.16062297557E+01 -0.10637730455E+02 -0.41372329104E+03  0.41386314505E+03  0.00000000000E+00 0. -1.
        -15    1    1    2    0    0 -0.95800153190E+01  0.69970407775E+01 -0.39390669809E+02  0.41176666574E+02  0.17770000000E+01 0. -1.
         15    1    1    2    0    0  0.15353685572E+02 -0.22276774104E+01 -0.44568816345E+02  0.47225367406E+02  0.17770000000E+01 0.  1.
</event>
<event>
 6    1  0.1782050E-003  0.5011883E+03  0.7546771E-02  0.9397155E-01
        -11   -1    0    0    0    0  0.00000000000E+00  0.00000000000E+00  0.50000000000E+03  0.50000000000E+03  0.00000000000E+00 0.  1.
         11   -1    0    0    0    0 -0.00000000000E+00 -0.00000000000E+00 -0.50000000000E+03  0.50000000000E+03  0.00000000000E+00 0. -1.
        -11    1    1    2    0    0  0.68749452686E+01  0.16026411517E+01  0.44763007639E+03  0.44768573645E+03  0.00000000000E+00 0.  1.
         11    1    1    2    0    0 -0.43046300411E+00  0.69493810728E+01 -0.49876305773E+03  0.49881165479E+03  0.00000000000E+00 0. -1.
        -15    1    1    2    0    0 -0.46972930166E+01 -0.67441392139E+01  0.14663253597E+02  0.16903156819E+02  0.17770000000E+01 0.  1.
         15    1    1    2    0    0 -0.17471892478E+01 -0.18078830106E+01  0.36469727744E+02  0.36599451935E+02  0.17770000000E+01 0. -1.
</event>
<event>
 6    1  0.1782050E-003  0.5114204E+03  0.7546771E-02  0.9374612E-01
        -11   -1    0    0    0    0  0.00000000000E+00  0.00000000000E+00  0.50000000000E+03  0.50000000000E+03  0.00000000000E+00 0. -1.
         11   -1    0    0    0    0 -0.00000000000E+00 -0.00000000000E+00 -0.50000000000E+03  0.50000000000E+03  0.00000000000E+00 0. -1.
        -11    1    1    2    0    0  0.32293949183E+01  0.10574144930E+02  0.48845444120E+03  0.48857955612E+03  0.00000000000E+00 0. -1.
         11    1    1    2    0    0 -0.17840617285E+01  0.63480416527E+01 -0.44872399284E+03  0.44877243928E+03  0.00000000000E+00 0. -1.
        -15    1    1    2    0    0 -0.90015252981E+01 -0.56646703310E+01 -0.46256193050E+02  0.47496411150E+02  0.17770000000E+01 0. -1.
         15    1    1    2    0    0  0.75561921082E+01 -0.11257516251E+02  0.65257446910E+01  0.15151593451E+02  0.17770000000E+01 0.  1.
</event>
<event>
 6    1  0.1872630E-003  0.2641877E+03  0.7546771E-02  0.1017340E+00
        -11   -1    0    0    0    0  0.00000000000E+00  0.00000000000E+00  0.50000000000E+03  0.50000000000E+03  0.00000000000E+00 0.  1.
         11   -1    0    0    0    0 -0.00000000000E+00 -0.00000000000E+00 -0.50000000000E+03  0.50000000000E+03  0.00000000000E+00 0. -1.
        -11    1    1    2    0    0  0.78927483294E+01 -0.19784702777E+02  0.25799510997E+03  0.25887295476E+03  0.00000000000E+00 0.  1.
         11    1    1    2    0    0  0.27798594152E+00  0.68155590397E+01 -0.28957827328E+03  0.28965860160E+03  0.00000000000E+00 0. -1.
        -15    1    1    2    0    0  0.41794566658E+01  0.21997760933E+02  0.24071979721E+03  0.24176548108E+03  0.17770000000E+01 0.  1.
         15    1    1    2    0    0 -0.12350190937E+02 -0.90286171952E+01 -0.20913663389E+03  0.20970296257E+03  0.17770000000E+01 0. -1.
</event>
<event>
 6    1  0.1782050E-003  0.5019631E+03  0.7546771E-02  0.9395428E-01
        -11   -1    0    0    0    0  0.00000000000E+00  0.00000000000E+00  0.50000000000E+03  0.50000000000E+03  0.00000000000E+00 0.  1.
         11   -1    0    0    0    0 -0.00000000000E+00 -0.00000000000E+00 -0.50000000000E+03  0.50000000000E+03  0.00000000000E+00 0. -1.
        -11    1    1    2    0    0  0.76915112798E+01  0.32677547887E+01  0.49796673824E+03  0.49803685603E+03  0.00000000000E+00 0.  1.
         11    1    1    2    0    0 -0.76492447780E+01  0.35480533588E+01 -0.40358003092E+03  0.40366810747E+03  0.00000000000E+00 0. -1.
        -15    1    1    2    0    0 -0.79419493460E+01 -0.14267820042E+02 -0.57937230447E+02  0.60220641387E+02  0.17770000000E+01 0. -1.
         15    1    1    2    0    0  0.78996828442E+01  0.74520118946E+01 -0.36449476872E+02  0.38074395118E+02  0.17770000000E+01 0.  1.
</event>
<event>
 6    1  0.1782050E-003  0.4270329E+03  0.7546771E-02  0.9579736E-01
        -11   -1    0    0    0    0  0.00000000000E+00  0.00000000000E+00  0.50000000000E+03  0.50000000000E+03  0.00000000000E+00 0. -1.
         11   -1    0    0    0    0 -0.00000000000E+00 -0.00000000000E+00 -0.50000000000E+03  0.50000000000E+03  0.00000000000E+00 0.  1.
        -11    1    1    2    0    0 -0.60273603572E+01 -0.53215240966E+01  0.42750490513E+03  0.42758050891E+03  0.00000000000E+00 0. -1.
         11    1    1    2    0    0  0.41096991485E+02  0.47382591329E+01 -0.42520047503E+03  0.42720821360E+03  0.00000000000E+00 0.  1.
        -15    1    1    2    0    0 -0.37732082395E+02 -0.39138582409E+02 -0.56180802292E+02  0.78198330864E+02  0.17770000000E+01 0.  1.
         15    1    1    2    0    0  0.26624512673E+01  0.39721847373E+02  0.53876372185E+02  0.67012946617E+02  0.17770000000E+01 0. -1.
</event>
<event>
 6    1  0.1782050E-003  0.5007363E+03  0.7546771E-02  0.9398164E-01
        -11   -1    0    0    0    0  0.00000000000E+00  0.00000000000E+00  0.50000000000E+03  0.50000000000E+03  0.00000000000E+00 0.  1.
         11   -1    0    0    0    0 -0.00000000000E+00 -0.00000000000E+00 -0.50000000000E+03  0.50000000000E+03  0.00000000000E+00 0.  1.
        -11    1    1    2    0    0 -0.42339171692E+01 -0.68598670455E+01  0.31237703548E+03  0.31248103323E+03  0.00000000000E+00 0.  1.
         11    1    1    2    0    0 -0.86568108656E+01  0.11645521922E+01 -0.49918729136E+03  0.49926370628E+03  0.00000000000E+00 0.  1.
        -15    1    1    2    0    0  0.15326340145E+02 -0.14064723879E+01  0.11754078174E+03  0.11855744585E+03  0.17770000000E+01 0. -1.
         15    1    1    2    0    0 -0.24356121098E+01  0.71017872412E+01  0.69269474140E+02  0.69697814636E+02  0.17770000000E+01 0.  1.
</event>
<event>
 6    1  0.1782050E-003  0.5005561E+03  0.7546771E-02  0.9398566E-01
        -11   -1    0    0    0    0  0.00000000000E+00  0.00000000000E+00  0.50000000000E+03  0.50000000000E+03  0.00000000000E+00 0. -1.
         11   -1    0    0    0    0 -0.00000000000E+00 -0.00000000000E+00 -0.50000000000E+03  0.50000000000E+03  0.00000000000E+00 0. -1.
        -11    1    1    2    0    0 -0.15462055621E+02  0.57269896593E+01  0.49917166684E+03  0.49944391733E+03  0.00000000000E+00 0. -1.
         11    1    1    2    0    0 -0.17792184817E+01 -0.81750277670E+01 -0.23809585840E+03  0.23824280573E+03  0.00000000000E+00 0. -1.
        -15    1    1    2    0    0  0.93124598122E+00  0.29001111245E+01 -0.14903379366E+03  0.14907550853E+03  0.17770000000E+01 0. -1.
         15    1    1    2    0    0  0.16310028122E+02 -0.45207301685E+00 -0.11204201479E+03  0.11323776841E+03  0.17770000000E+01 0. -1.
</event>
<event>
 6    1  0.1782050E-003  0.5011910E+03  0.7546771E-02  0.9397149E-01
        -11   -1    0    0    0    0  0.00000000000E+00  0.00000000000E+00  0.50000000000E+03  0.50000000000E+03  0.00000000000E+00 0.  1.
         11   -1    0    0    0    0 -0.00000000000E+00 -0.00000000000E+00 -0.50000000000E+03  0.50000000000E+03  0.00000000000E+00 0.  1.
        -11    1    1    2    0    0  0.50280061287E+01 -0.49070197700E+01  0.49875953342E+03  0.49880901342E+03  0.00000000000E+00 0.  1.
         11    1    1    2    0    0  0.70255431370E+01 -0.44947425265E+01 -0.13830061808E+03  0.13855187450E+03  0.00000000000E+00 0.  1.
        -15    1    1    2    0    0 -0.75357008957E+01  0.10629761307E+02 -0.35495310180E+03  0.35519662276E+03  0.17770000000E+01 0.  1.
         15    1    1    2    0    0 -0.45178483700E+01 -0.12279990105E+01 -0.55058135429E+01  0.74424893170E+01  0.17770000000E+01 0. -1.
</event>
<event>
 6    1  0.1782050E-003  0.5098449E+03  0.7546771E-02  0.9378046E-01
        -11   -1    0    0    0    0  0.00000000000E+00  0.00000000000E+00  0.50000000000E+03  0.50000000000E+03  0.00000000000E+00 0.  1.
         11   -1    0    0    0    0 -0.00000000000E+00 -0.00000000000E+00 -0.50000000000E+03  0.50000000000E+03  0.00000000000E+00 0.  1.
        -11    1    1    2    0    0 -0.84927944906E+01 -0.26050156343E+01  0.49007457431E+03  0.49015507959E+03  0.00000000000E+00 0.  1.
         11    1    1    2    0    0 -0.53613016674E+01 -0.77384493329E+01 -0.19770667568E+03  0.19793068676E+03  0.00000000000E+00 0.  1.
        -15    1    1    2    0    0  0.68170822391E+01  0.26636139233E+01  0.82153689006E+01  0.11145288895E+02  0.17770000000E+01 0. -1.
         15    1    1    2    0    0  0.70370139189E+01  0.76798510439E+01 -0.30058326753E+03  0.30076894475E+03  0.17770000000E+01 0.  1.
</event>
<event>
 6    1  0.1782050E-003  0.4872954E+03  0.7546771E-02  0.9428695E-01
        -11   -1    0    0    0    0  0.00000000000E+00  0.00000000000E+00  0.50000000000E+03  0.50000000000E+03  0.00000000000E+00 0. -1.
         11   -1    0    0    0    0 -0.00000000000E+00 -0.00000000000E+00 -0.50000000000E+03  0.50000000000E+03  0.00000000000E+00 0.  1.
        -11    1    1    2    0    0  0.68171105342E+01 -0.52209322990E+01  0.48822252006E+03  0.48829802399E+03  0.00000000000E+00 0. -1.
         11    1    1    2    0    0  0.64564042292E+01 -0.75932159570E+01 -0.48636694393E+03  0.48646905989E+03  0.00000000000E+00 0.  1.
        -15    1    1    2    0    0 -0.85205384184E+01  0.89169779946E+01 -0.92025303175E+01  0.15490524999E+02  0.17770000000E+01 0. -1.
         15    1    1    2    0    0 -0.47529763450E+01  0.38971702614E+01  0.73469541792E+01  0.97423911282E+01  0.17770000000E+01 0.  1.
</event>
<event>
 6    1  0.1782050E-003  0.5058975E+03  0.7546771E-02  0.9386710E-01
        -11   -1    0    0    0    0  0.00000000000E+00  0.00000000000E+00  0.50000000000E+03  0.50000000000E+03  0.00000000000E+00 0. -1.
         11   -1    0    0    0    0 -0.00000000000E+00 -0.00000000000E+00 -0.50000000000E+03  0.50000000000E+03  0.00000000000E+00 0. -1.
        -11    1    1    2    0    0  0.45987815031E+01  0.65767805192E+01  0.44766378721E+03  0.44773571358E+03  0.00000000000E+00 0. -1.
         11    1    1    2    0    0 -0.18167503951E+02  0.56514876024E+01 -0.49373608940E+03  0.49410254350E+03  0.00000000000E+00 0. -1.
        -15    1    1    2    0    0 -0.89064958779E+00 -0.14516205352E+02  0.66856407566E+01  0.16104937002E+02  0.17770000000E+01 0. -1.
         15    1    1    2    0    0  0.14459372036E+02  0.22879372301E+01  0.39386661436E+02  0.42056805924E+02  0.17770000000E+01 0.  1.
</event>
<event>
 6    1  0.1782050E-003  0.5009784E+03  0.7546771E-02  0.9397623E-01
        -11   -1    0    0    0    0  0.00000000000E+00  0.00000000000E+00  0.50000000000E+03  0.50000000000E+03  0.00000000000E+00 0.  1.
         11   -1    0    0    0    0 -0.00000000000E+00 -0.00000000000E+00 -0.50000000000E+03  0.50000000000E+03  0.00000000000E+00 0.  1.
        -11    1    1    2    0    0  0.70093759356E+01  0.58170392594E+01  0.49893850841E+03  0.49902164730E+03  0.00000000000E+00 0.  1.
         11    1    1    2    0    0 -0.36233920305E+01  0.87069729100E+00 -0.20167425019E+03  0.20170867674E+03  0.00000000000E+00 0.  1.
        -15    1    1    2    0    0 -0.11091013491E+02  0.52782026019E+01 -0.23690178113E+03  0.23722664613E+03  0.17770000000E+01 0.  1.
         15    1    1    2    0    0  0.77050295864E+01 -0.11965939152E+02 -0.60362477096E+02  0.62043029833E+02  0.17770000000E+01 0. -1.
</event>
<event>
 6    1  0.1782050E-003  0.5136224E+03  0.7546771E-02  0.9369834E-01
        -11   -1    0    0    0    0  0.00000000000E+00  0.00000000000E+00  0.50000000000E+03  0.50000000000E+03  0.00000000000E+00 0.  1.
         11   -1    0    0    0    0 -0.00000000000E+00 -0.00000000000E+00 -0.50000000000E+03  0.50000000000E+03  0.00000000000E+00 0. -1.
        -11    1    1    2    0    0  0.39726608050E+02 -0.30939911562E+02  0.34840740509E+03  0.35202727371E+03  0.00000000000E+00 0.  1.
         11    1    1    2    0    0 -0.14289665936E+02  0.83673028228E+01 -0.48609558884E+03  0.48637755685E+03  0.00000000000E+00 0. -1.
        -15    1    1    2    0    0  0.14249906128E+02 -0.21115980297E+02  0.41885268801E+02  0.49055865297E+02  0.17770000000E+01 0. -1.
         15    1    1    2    0    0 -0.39686848241E+02  0.43688589036E+02  0.95802914950E+02  0.11253930414E+03  0.17770000000E+01 0.  1.
</event>
<event>
 6    1  0.1782050E-003  0.4855848E+03  0.7546771E-02  0.9432655E-01
        -11   -1    0    0    0    0  0.00000000000E+00  0.00000000000E+00  0.50000000000E+03  0.50000000000E+03  0.00000000000E+00 0. -1.
         11   -1    0    0    0    0 -0.00000000000E+00 -0.00000000000E+00 -0.50000000000E+03  0.50000000000E+03  0.00000000000E+00 0.  1.
        -11    1    1    2    0    0  0.10979255788E+02  0.92137320354E+01  0.48409540587E+03  0.48430754578E+03  0.00000000000E+00 0. -1.
         11    1    1    2    0    0 -0.58254652322E+01  0.33097871143E+01 -0.48691441918E+03  0.48696051415E+03  0.00000000000E+00 0.  1.
        -15    1    1    2    0    0  0.47160300825E+01  0.55204304178E+01  0.30855745142E+01  0.80866922051E+01  0.17770000000E+01 0. -1.
         15    1    1    2    0    0 -0.98698206380E+01 -0.18043949567E+02 -0.26656120147E+00  0.20645247862E+02  0.17770000000E+01 0.  1.
</event>
<event>
 6    1  0.1782050E-003  0.5005296E+03  0.7546771E-02  0.9398626E-01
        -11   -1    0    0    0    0  0.00000000000E+00  0.00000000000E+00  0.50000000000E+03  0.50000000000E+03  0.00000000000E+00 0. -1.
         11   -1    0    0    0    0 -0.00000000000E+00 -0.00000000000E+00 -0.50000000000E+03  0.50000000000E+03  0.00000000000E+00 0. -1.
        -11    1    1    2    0    0 -0.55851900028E+01 -0.21813028718E+00  0.26139383550E+03  0.26145358893E+03  0.00000000000E+00 0. -1.
         11    1    1    2    0    0 -0.83299378265E+01 -0.27932338823E+01 -0.49939313716E+03  0.49947041500E+03  0.00000000000E+00 0. -1.
        -15    1    1    2    0    0  0.97468456572E+00  0.63681405311E+01  0.13921980177E+03  0.13938010675E+03  0.17770000000E+01 0.  1.
         15    1    1    2    0    0  0.12940443264E+02 -0.33567763616E+01  0.98779499887E+02  0.99695889315E+02  0.17770000000E+01 0. -1.
</event>
<event>
 6    1  0.1782050E-003  0.5298779E+03  0.7546771E-02  0.9335330E-01
        -11   -1    0    0    0    0  0.00000000000E+00  0.00000000000E+00  0.50000000000E+03  0.50000000000E+03  0.00000000000E+00 0. -1.
         11   -1    0    0    0    0 -0.00000000000E+00 -0.00000000000E+00 -0.50000000000E+03  0.50000000000E+03  0.00000000000E+00 0.  1.
        -11    1    1    2    0    0 -0.68517828668E+01 -0.60201319467E+01  0.40722439085E+03  0.40732651942E+03  0.00000000000E+00 0. -1.
         11    1    1    2    0    0 -0.55679418480E+02 -0.34114110301E+02 -0.46556503088E+03  0.47012207792E+03  0.00000000000E+00 0.  1.
        -15    1    1    2    0    0  0.73994731673E+02  0.41305071541E+02  0.66987016871E+02  0.10803586168E+03  0.17770000000E+01 0. -1.
         15    1    1    2    0    0 -0.11463530326E+02 -0.11708292931E+01 -0.86463768358E+01  0.14515540987E+02  0.17770000000E+01 0.  1.
</event>
<event>
 6    1  0.1782050E-003  0.5024573E+03  0.7546771E-02  0.9394328E-01
        -11   -1    0    0    0    0  0.00000000000E+00  0.00000000000E+00  0.50000000000E+03  0.50000000000E+03  0.00000000000E+00 0.  1.
         11   -1    0    0    0    0 -0.00000000000E+00 -0.00000000000E+00 -0.50000000000E+03  0.50000000000E+03  0.00000000000E+00 0. -1.
        -11    1    1    2    0    0  0.11215726573E+01  0.69791251223E+01  0.49749249937E+03  0.49754271479E+03  0.00000000000E+00 0.  1.
         11    1    1    2    0    0  0.65634656909E+01  0.46479529258E+01 -0.40713597790E+03  0.40721540620E+03  0.00000000000E+00 0. -1.
        -15    1    1    2    0    0 -0.11820976423E+02 -0.78511157692E+01 -0.87585989170E+02  0.88745922331E+02  0.17770000000E+01 0. -1.
         15    1    1    2    0    0  0.41359380745E+01 -0.37759622789E+01 -0.27705323070E+01  0.64959566771E+01  0.17770000000E+01 0.  1.
</event>
<event>
 6    1  0.1782050E-003  0.5007708E+03  0.7546771E-02  0.9398087E-01
        -11   -1    0    0    0    0  0.00000000000E+00  0.00000000000E+00  0.50000000000E+03  0.50000000000E+03  0.00000000000E+00 0.  1.
         11   -1    0    0    0    0 -0.00000000000E+00 -0.00000000000E+00 -0.50000000000E+03  0.50000000000E+03  0.00000000000E+00 0.  1.
        -11    1    1    2    0    0 -0.10273684379E+02 -0.43949605252E+00  0.49912330946E+03  0.49922922570E+03  0.00000000000E+00 0.  1.
         11    1    1    2    0    0  0.13941335391E+01  0.95160685486E+00 -0.39747374856E+02  0.39783199618E+02  0.00000000000E+00 0.  1.
        -15    1    1    2    0    0 -0.95649224020E+01 -0.13596830991E+01 -0.34316472523E+03  0.34330529103E+03  0.17770000000E+01 0.  1.
         15    1    1    2    0    0  0.18444473242E+02  0.84757229677E+00 -0.11621120937E+03  0.11768228365E+03  0.17770000000E+01 0. -1.
</event>
<event>
 6    1  0.1782050E-003  0.4526572E+03  0.7546771E-02  0.9512457E-01
        -11   -1    0    0    0    0  0.00000000000E+00  0.00000000000E+00  0.50000000000E+03  0.50000000000E+03  0.00000000000E+00 0. -1.
         11   -1    0    0    0    0 -0.00000000000E+00 -0.00000000000E+00 -0.50000000000E+03  0.50000000000E+03  0.00000000000E+00 0. -1.
        -11    1    1    2    0    0  0.83373831598E+01 -0.71477691533E+01  0.44901713676E+03  0.44915141285E+03  0.00000000000E+00 0. -1.
         11    1    1    2    0    0 -0.12461938525E+02 -0.22802135254E+02 -0.45595438694E+03  0.45669425249E+03  0.00000000000E+00 0. -1.
        -15    1    1    2    0    0 -0.13462023138E+02  0.12644797211E+02  0.45047849722E+02  0.48719436132E+02  0.17770000000E+01 0. -1.
         15    1    1    2    0    0  0.17586578503E+02  0.17305107196E+02 -0.38110599539E+02  0.45434898533E+02  0.17770000000E+01 0.  1.
</event>
<event>
 6    1  0.1782050E-003  0.5046682E+03  0.7546771E-02  0.9389424E-01
        -11   -1    0    0    0    0  0.00000000000E+00  0.00000000000E+00  0.50000000000E+03  0.50000000000E+03  0.00000000000E+00 0. -1.
         11   -1    0    0    0    0 -0.00000000000E+00 -0.00000000000E+00 -0.50000000000E+03  0.50000000000E+03  0.00000000000E+00 0. -1.
        -11    1    1    2    0    0  0.52066725642E+01  0.23651529328E+01  0.33813635902E+03  0.33818471384E+03  0.00000000000E+00 0. -1.
         11    1    1    2    0    0 -0.54764967242E+01 -0.40797967682E+02 -0.49361839910E+03  0.49533179800E+03  0.00000000000E+00 0. -1.
        -15    1    1    2    0    0  0.32380120082E+01  0.44774231140E+02  0.89858332164E+02  0.10046339674E+03  0.17770000000E+01 0. -1.
         15    1    1    2    0    0 -0.29681878482E+01 -0.63414163911E+01  0.65623707916E+02  0.66020091416E+02  0.17770000000E+01 0.  1.
</event>
<event>
 6    1  0.1782050E-003  0.5214278E+03  0.7546771E-02  0.9353100E-01
        -11   -1    0    0    0    0  0.00000000000E+00  0.00000000000E+00  0.50000000000E+03  0.50000000000E+03  0.00000000000E+00 0.  1.
         11   -1    0    0    0    0 -0.00000000000E+00 -0.00000000000E+00 -0.50000000000E+03  0.50000000000E+03  0.00000000000E+00 0.  1.
        -11    1    1    2    0    0 -0.21195120139E+01 -0.13193765058E+02  0.39759136958E+03  0.39781586812E+03  0.00000000000E+00 0.  1.
         11    1    1    2    0    0  0.11184328902E+02  0.93305897984E+01 -0.47835053426E+03  0.47857223357E+03  0.00000000000E+00 0.  1.
        -15    1    1    2    0    0 -0.10436068839E+02 -0.71509907882E+01 -0.19178603129E+02  0.23043974246E+02  0.17770000000E+01 0. -1.
         15    1    1    2    0    0  0.13712519512E+01  0.11014166048E+02  0.99937767814E+02  0.10056792406E+03  0.17770000000E+01 0.  1.
</event>
<event>
 6    1  0.1782050E-003  0.5053229E+03  0.7546771E-02  0.9387977E-01
        -11   -1    0    0    0    0  0.00000000000E+00  0.00000000000E+00  0.50000000000E+03  0.50000000000E+03  0.00000000000E+00 0. -1.
         11   -1    0    0    0    0 -0.00000000000E+00 -0.00000000000E+00 -0.50000000000E+03  0.50000000000E+03  0.00000000000E+00 0.  1.
        -11    1    1    2    0    0  0.42551972419E+01  0.54860552424E+01  0.47013031646E+03  0.47018157978E+03  0.00000000000E+00 0. -1.
         11    1    1    2    0    0  0.56710858434E+00  0.69262720809E+01 -0.49462827781E+03  0.49467709475E+03  0.00000000000E+00 0.  1.
        -15    1    1    2    0    0 -0.67128568829E+01 -0.11527221531E+02  0.34188857978E+01  0.13884732365E+02  0.17770000000E+01 0. -1.
         15    1    1    2    0    0  0.18905510566E+01 -0.88510579266E+00  0.21079075552E+02  0.21256593111E+02  0.17770000000E+01 0.  1.
</event>
<event>
 6    1  0.1782050E-003  0.5009098E+03  0.7546771E-02  0.9397776E-01
        -11   -1    0    0    0    0  0.00000000000E+00  0.00000000000E+00  0.50000000000E+03  0.50000000000E+03  0.00000000000E+00 0.  1.
         11   -1    0    0    0    0 -0.00000000000E+00 -0.00000000000E+00 -0.50000000000E+03  0.50000000000E+03  0.00000000000E+00 0.  1.
        -11    1    1    2    0    0  0.60912335771E+01 -0.60929721177E+01  0.49901580890E+03  0.49909017719E+03  0.00000000000E+00 0.  1.
         11    1    1    2    0    0 -0.27093708063E+01  0.91933210495E+01 -0.42598999376E+03  0.42609779702E+03  0.00000000000E+00 0.  1.
        -15    1    1    2    0    0 -0.34268048576E+01 -0.11097406504E+01 -0.37821957711E+01  0.55169964378E+01  0.17770000000E+01 0. -1.
         15    1    1    2    0    0  0.44942086885E-01 -0.19906082813E+01 -0.69243619363E+02  0.69295029350E+02  0.17770000000E+01 0.  1.
</event>
<event>
 6    1  0.1782050E-003  0.5007035E+03  0.7546771E-02  0.9398237E-01
        -11   -1    0    0    0    0  0.00000000000E+00  0.00000000000E+00  0.50000000000E+03  0.50000000000E+03  0.00000000000E+00 0. -1.
         11   -1    0    0    0    0 -0.00000000000E+00 -0.00000000000E+00 -0.50000000000E+03  0.50000000000E+03  0.00000000000E+00 0. -1.
        -11    1    1    2    0    0 -0.19473254470E+01 -0.61466245780E+01  0.37370622589E+03  0.37376184442E+03  0.00000000000E+00 0. -1.
         11    1    1    2    0    0  0.45372516775E+01  0.10468904340E+02 -0.49916613019E+03  0.49929651525E+03  0.00000000000E+00 0. -1.
        -15    1    1    2    0    0 -0.10891088087E+01  0.70819601935E+01  0.37974543448E+02  0.38685449426E+02  0.17770000000E+01 0.  1.
         15    1    1    2    0    0 -0.15008174219E+01 -0.11404239956E+02  0.87485360847E+02  0.88256190907E+02  0.17770000000E+01 0. -1.
</event>
<event>
 6    1  0.1782050E-003  0.5073039E+03  0.7546771E-02  0.9383613E-01
        -11   -1    0    0    0    0  0.00000000000E+00  0.00000000000E+00  0.50000000000E+03  0.50000000000E+03  0.00000000000E+00 0. -1.
         11   -1    0    0    0    0 -0.00000000000E+00 -0.00000000000E+00 -0.50000000000E+03  0.50000000000E+03  0.00000000000E+00 0.  1.
        -11    1    1    2    0    0  0.67442944834E+01  0.55915186199E+01  0.41073332891E+03  0.41082674945E+03  0.00000000000E+00 0. -1.
         11    1    1    2    0    0  0.67413007508E+01  0.52577357728E+01 -0.49262189303E+03  0.49269607104E+03  0.00000000000E+00 0.  1.
        -15    1    1    2    0    0 -0.88111094406E+01  0.29697747363E+01 -0.33039318079E+01  0.10026410422E+02  0.17770000000E+01 0. -1.
         15    1    1    2    0    0 -0.46744857936E+01 -0.13819029129E+02  0.85192495931E+02  0.86450769086E+02  0.17770000000E+01 0.  1.
</event>
<event>
 6    1  0.1782050E-003  0.5034280E+03  0.7546771E-02  0.9392172E-01
        -11   -1    0    0    0    0  0.00000000000E+00  0.00000000000E+00  0.50000000000E+03  0.50000000000E+03  0.00000000000E+00 0. -1.
         11   -1    0    0    0    0 -0.00000000000E+00 -0.00000000000E+00 -0.50000000000E+03  0.50000000000E+03  0.00000000000E+00 0. -1.
        -11    1    1    2    0    0  0.24201972237E+02  0.35608530192E+02  0.49470195088E+03  0.49657197171E+03  0.00000000000E+00 0. -1.
         11    1    1    2    0    0  0.52162594899E+01  0.50249264735E+01 -0.14457663608E+03  0.14475794606E+03  0.00000000000E+00 0. -1.
        -15    1    1    2    0    0 -0.40761993241E+01  0.65510113570E+01 -0.18283165905E+03  0.18300301755E+03  0.17770000000E+01 0. -1.
         15    1    1    2    0    0 -0.25342032403E+02 -0.47184468023E+02 -0.16729365575E+03  0.17566706468E+03  0.17770000000E+01 0.  1.
</event>
<event>
 6    1  0.1782050E-003  0.5018629E+03  0.7546771E-02  0.9395651E-01
        -11   -1    0    0    0    0  0.00000000000E+00  0.00000000000E+00  0.50000000000E+03  0.50000000000E+03  0.00000000000E+00 0.  1.
         11   -1    0    0    0    0 -0.00000000000E+00 -0.00000000000E+00 -0.50000000000E+03  0.50000000000E+03  0.00000000000E+00 0. -1.
        -11    1    1    2    0    0 -0.29350587235E+01 -0.79508236241E+01  0.47909852334E+03  0.47917348135E+03  0.00000000000E+00 0.  1.
         11    1    1    2    0    0  0.67935262155E+01  0.24136354505E+01 -0.49808494106E+03  0.49813711581E+03  0.00000000000E+00 0. -1.
        -15    1    1    2    0    0  0.47239169751E+00  0.67680704993E+01  0.14419501881E+02  0.16034640492E+02  0.17770000000E+01 0.  1.
         15    1    1    2    0    0 -0.43308591895E+01 -0.12308823256E+01  0.45669158377E+01  0.66547623465E+01  0.17770000000E+01 0. -1.
</event>
<event>
 6    1  0.1782050E-003  0.5056502E+03  0.7546771E-02  0.9387255E-01
        -11   -1    0    0    0    0  0.00000000000E+00  0.00000000000E+00  0.50000000000E+03  0.50000000000E+03  0.00000000000E+00 0. -1.
         11   -1    0    0    0    0 -0.00000000000E+00 -0.00000000000E+00 -0.50000000000E+03  0.50000000000E+03  0.00000000000E+00 0. -1.
        -11    1    1    2    0    0  0.95602725745E+00  0.12819742515E+02  0.47491668995E+03  0.47509064627E+03  0.00000000000E+00 0. -1.
         11    1    1    2    0    0 -0.76523027870E+01 -0.10585793337E+01 -0.49428946880E+03  0.49434983290E+03  0.00000000000E+00 0. -1.
        -15    1    1    2    0    0  0.21330120636E+01 -0.11982343415E+02  0.21844767667E+02  0.25069461454E+02  0.17770000000E+01 0. -1.
         15    1    1    2    0    0  0.45632634659E+01  0.22118023324E+00 -0.24719888174E+01  0.54900593684E+01  0.17770000000E+01 0.  1.
</event>
<event>
 6    1  0.1782050E-003  0.3325220E+03  0.7546771E-02  0.9879912E-01
        -11   -1    0    0    0    0  0.00000000000E+00  0.00000000000E+00  0.50000000000E+03  0.50000000000E+03  0.00000000000E+00 0.  1.
         11   -1    0    0    0    0 -0.00000000000E+00 -0.00000000000E+00 -0.50000000000E+03  0.50000000000E+03  0.00000000000E+00 0. -1.
        -11    1    1    2    0    0  0.72506689227E+01 -0.43991509791E+01  0.45522208493E+03  0.45530107768E+03  0.00000000000E+00 0.  1.
         11    1    1    2    0    0  0.31933191499E+02  0.25633460634E+02 -0.58750757627E+02  0.71613228842E+02  0.00000000000E+00 0. -1.
        -15    1    1    2    0    0 -0.59404780336E+02  0.10957867434E+03 -0.17079177935E+03  0.21144598227E+03  0.17770000000E+01 0.  1.
         15    1    1    2    0    0  0.20220919914E+02 -0.13081298400E+03 -0.22567954796E+03  0.26163971120E+03  0.17770000000E+01 0. -1.
</event>
<event>
 6    1  0.1782050E-003  0.5038640E+03  0.7546771E-02  0.9391205E-01
        -11   -1    0    0    0    0  0.00000000000E+00  0.00000000000E+00  0.50000000000E+03  0.50000000000E+03  0.00000000000E+00 0. -1.
         11   -1    0    0    0    0 -0.00000000000E+00 -0.00000000000E+00 -0.50000000000E+03  0.50000000000E+03  0.00000000000E+00 0. -1.
        -11    1    1    2    0    0 -0.85969998870E+01  0.11795932580E+01  0.47194285150E+03  0.47202262120E+03  0.00000000000E+00 0. -1.
         11    1    1    2    0    0 -0.10391147784E+01 -0.79392968640E+01 -0.49607139734E+03  0.49613601306E+03  0.00000000000E+00 0. -1.
        -15    1    1    2    0    0  0.46349241614E+01 -0.17442035303E+01 -0.46639910007E+00  0.52820474304E+01  0.17770000000E+01 0. -1.
         15    1    1    2    0    0  0.50011905040E+01  0.85039071362E+01  0.24594944947E+02  0.26559318308E+02  0.17770000000E+01 0.  1.
</event>
<event>
 6    1  0.1782050E-003  0.5010530E+03  0.7546771E-02  0.9397457E-01
        -11   -1    0    0    0    0  0.00000000000E+00  0.00000000000E+00  0.50000000000E+03  0.50000000000E+03  0.00000000000E+00 0.  1.
         11   -1    0    0    0    0 -0.00000000000E+00 -0.00000000000E+00 -0.50000000000E+03  0.50000000000E+03  0.00000000000E+00 0.  1.
        -11    1    1    2    0    0  0.37796216600E+01  0.59245603461E+01  0.47083484337E+03  0.47088728554E+03  0.00000000000E+00 0.  1.
         11    1    1    2    0    0 -0.41022008407E+00 -0.69123216185E+01 -0.49889899434E+03  0.49894704631E+03  0.00000000000E+00 0.  1.
        -15    1    1    2    0    0  0.15989529793E+01 -0.32332225327E+01  0.13940838767E+02  0.14509138262E+02  0.17770000000E+01 0. -1.
         15    1    1    2    0    0 -0.49683545553E+01  0.42209838051E+01  0.14123312204E+02  0.15656529880E+02  0.17770000000E+01 0.  1.
</event>
<event>
 6    1  0.1782050E-003  0.5228906E+03  0.7546771E-02  0.9349998E-01
        -11   -1    0    0    0    0  0.00000000000E+00  0.00000000000E+00  0.50000000000E+03  0.50000000000E+03  0.00000000000E+00 0. -1.
         11   -1    0    0    0    0 -0.00000000000E+00 -0.00000000000E+00 -0.50000000000E+03  0.50000000000E+03  0.00000000000E+00 0. -1.
        -11    1    1    2    0    0  0.44713814878E+01 -0.64709482928E+01  0.44144614896E+03  0.44151621584E+03  0.00000000000E+00 0. -1.
         11    1    1    2    0    0  0.41408381846E+01  0.24773048986E+02 -0.47644783617E+03  0.47710941207E+03  0.00000000000E+00 0. -1.
        -15    1    1    2    0    0 -0.14128387516E+02  0.97756657133E+01  0.47167322926E+02  0.50230359893E+02  0.17770000000E+01 0.  1.
         15    1    1    2    0    0  0.55161678439E+01 -0.28077766407E+02 -0.12165635716E+02  0.31144012192E+02  0.17770000000E+01 0. -1.
</event>
<event>
 6    1  0.1782050E-003  0.5072740E+03  0.7546771E-02  0.9383679E-01
        -11   -1    0    0    0    0  0.00000000000E+00  0.00000000000E+00  0.50000000000E+03  0.50000000000E+03  0.00000000000E+00 0. -1.
         11   -1    0    0    0    0 -0.00000000000E+00 -0.00000000000E+00 -0.50000000000E+03  0.50000000000E+03  0.00000000000E+00 0.  1.
        -11    1    1    2    0    0  0.61516948121E+01 -0.61750737293E+01  0.46455440938E+03  0.46463617397E+03  0.00000000000E+00 0. -1.
         11    1    1    2    0    0 -0.73802872480E+01 -0.71051912673E+01 -0.49261948174E+03  0.49272599503E+03  0.00000000000E+00 0.  1.
        -15    1    1    2    0    0 -0.30939151654E+01  0.24654306210E+01 -0.55352452584E+01  0.70318794264E+01  0.17770000000E+01 0. -1.
         15    1    1    2    0    0  0.43225076013E+01  0.10814834376E+02  0.33600317619E+02  0.35605951576E+02  0.17770000000E+01 0.  1.
</event>
<event>
 6    1  0.1782050E-003  0.5031370E+03  0.7546771E-02  0.9392818E-01
        -11   -1    0    0    0    0  0.00000000000E+00  0.00000000000E+00  0.50000000000E+03  0.50000000000E+03  0.00000000000E+00 0.  1.
         11   -1    0    0    0    0 -0.00000000000E+00 -0.00000000000E+00 -0.50000000000E+03  0.50000000000E+03  0.00000000000E+00 0. -1.
        -11    1    1    2    0    0 -0.69935343401E+01 -0.12067949397E+01  0.49681234769E+03  0.49686303414E+03  0.00000000000E+00 0.  1.
         11    1    1    2    0    0 -0.53004120962E+01  0.11583616863E+01 -0.28603062642E+03  0.28608207812E+03  0.00000000000E+00 0. -1.
        -15    1    1    2    0    0  0.95254015358E+01  0.53580646398E+01 -0.68342627992E+01  0.13011802646E+02  0.17770000000E+01 0.  1.
         15    1    1    2    0    0  0.27685449005E+01 -0.53096313864E+01 -0.20394745847E+03  0.20404308509E+03  0.17770000000E+01 0.  1.
</event>
<event>
 6    1  0.1782050E-003  0.5054218E+03  0.7546771E-02  0.9387759E-01
        -11   -1    0    0    0    0  0.00000000000E+00  0.00000000000E+00  0.50000000000E+03  0.50000000000E+03  0.00000000000E+00 0. -1.
         11   -1    0    0    0    0 -0.00000000000E+00 -0.00000000000E+00 -0.50000000000E+03  0.50000000000E+03  0.00000000000E+00 0.  1.
        -11    1    1    2    0    0 -0.10014664589E+02 -0.10905156568E+02  0.49435653332E+03  0.49457820209E+03  0.00000000000E+00 0. -1.
         11    1    1    2    0    0 -0.35532968303E+01  0.11323481741E+02 -0.46209423911E+03  0.46224661488E+03  0.00000000000E+00 0.  1.
        -15    1    1    2    0    0  0.14713066733E+02  0.94769168840E+01 -0.14780531283E+02  0.22976251224E+02  0.17770000000E+01 0. -1.
         15    1    1    2    0    0 -0.11451053135E+01 -0.98952420575E+01 -0.17481762933E+02  0.20198931799E+02  0.17770000000E+01 0.  1.
</event>
<event>
 6    1  0.1782050E-003  0.5141323E+03  0.7546771E-02  0.9368731E-01
        -11   -1    0    0    0    0  0.00000000000E+00  0.00000000000E+00  0.50000000000E+03  0.50000000000E+03  0.00000000000E+00 0.  1.
         11   -1    0    0    0    0 -0.00000000000E+00 -0.00000000000E+00 -0.50000000000E+03  0.50000000000E+03  0.00000000000E+00 0.  1.
        -11    1    1    2    0    0  0.14963476824E+02  0.27531361309E+02  0.48485615903E+03  0.48586765322E+03  0.00000000000E+00 0.  1.
         11    1    1    2    0    0  0.90995446897E+01  0.10304841191E+01 -0.45128656895E+03  0.45137947552E+03  0.00000000000E+00 0.  1.
        -15    1    1    2    0    0 -0.21474413675E+02 -0.14590583528E+02  0.25263838414E+00  0.26024164262E+02  0.17770000000E+01 0.  1.
         15    1    1    2    0    0 -0.25886078391E+01 -0.13971261900E+02 -0.33822228473E+02  0.36728706995E+02  0.17770000000E+01 0. -1.
</event>
<event>
 6    1  0.1782050E-003  0.4700309E+03  0.7546771E-02  0.9469484E-01
        -11   -1    0    0    0    0  0.00000000000E+00  0.00000000000E+00  0.50000000000E+03  0.50000000000E+03  0.00000000000E+00 0.  1.
         11   -1    0    0    0    0 -0.00000000000E+00 -0.00000000000E+00 -0.50000000000E+03  0.50000000000E+03  0.00000000000E+00 0. -1.
        -11    1    1    2    0    0  0.81258379368E+01  0.55535963697E+01  0.47205483839E+03  0.47215743362E+03  0.00000000000E+00 0.  1.
         11    1    1    2    0    0 -0.46034518618E+01  0.12038384480E+02 -0.46790723047E+03  0.46808470473E+03  0.00000000000E+00 0. -1.
        -15    1    1    2    0    0 -0.23982220083E+02 -0.11014920235E+02  0.15438534785E+02  0.30626482547E+02  0.17770000000E+01 0. -1.
         15    1    1    2    0    0  0.20459834008E+02 -0.65770606147E+01 -0.19586142698E+02  0.29131379108E+02  0.17770000000E+01 0.  1.
</event>
<event>
 6    1  0.1782050E-003  0.5052389E+03  0.7546771E-02  0.9388163E-01
        -11   -1    0    0    0    0  0.00000000000E+00  0.00000000000E+00  0.50000000000E+03  0.50000000000E+03  0.00000000000E+00 0. -1.
         11   -1    0    0    0    0 -0.00000000000E+00 -0.00000000000E+00 -0.50000000000E+03  0.50000000000E+03  0.00000000000E+00 0. -1.
        -11    1    1    2    0    0 -0.18381831556E+02  0.23563447380E+02  0.49385767224E+03  0.49476108196E+03  0.00000000000E+00 0. -1.
         11    1    1    2    0    0  0.46981640224E+00  0.22647075426E+01 -0.63504726198E+02  0.63546832157E+02  0.00000000000E+00 0. -1.
        -15    1    1    2    0    0 -0.67670993991E+01  0.50649273628E+01 -0.36626634592E+03  0.36636817685E+03  0.17770000000E+01 0. -1.
         15    1    1    2    0    0  0.24679114553E+02 -0.30893082285E+02 -0.64086600125E+02  0.75323909038E+02  0.17770000000E+01 0.  1.
</event>
<event>
 6    1  0.1782050E-003  0.2561572E+03  0.7546771E-02  0.1021414E+00
        -11   -1    0    0    0    0  0.00000000000E+00  0.00000000000E+00  0.50000000000E+03  0.50000000000E+03  0.00000000000E+00 0. -1.
         11   -1    0    0    0    0 -0.00000000000E+00 -0.00000000000E+00 -0.50000000000E+03  0.50000000000E+03  0.00000000000E+00 0. -1.
        -11    1    1    2    0    0 -0.53549139097E+01 -0.98009441779E+00  0.36385162726E+03  0.36389234995E+03  0.00000000000E+00 0. -1.
         11    1    1    2    0    0  0.69802749655E+00 -0.14816017432E+02 -0.25535036355E+03  0.25578078462E+03  0.00000000000E+00 0. -1.
        -15    1    1    2    0    0  0.34262789413E+02 -0.14556191177E+03 -0.14924672656E+03  0.21128168878E+03  0.17770000000E+01 0.  1.
         15    1    1    2    0    0 -0.29605903000E+02  0.16135802362E+03  0.40745462845E+02  0.16904517666E+03  0.17770000000E+01 0. -1.
</event>
<event>
 6    1  0.1782050E-003  0.5004610E+03  0.7546771E-02  0.9398779E-01
        -11   -1    0    0    0    0  0.00000000000E+00  0.00000000000E+00  0.50000000000E+03  0.50000000000E+03  0.00000000000E+00 0.  1.
         11   -1    0    0    0    0 -0.00000000000E+00 -0.00000000000E+00 -0.50000000000E+03  0.50000000000E+03  0.00000000000E+00 0.  1.
        -11    1    1    2    0    0  0.73589109449E+01  0.38288779398E+01  0.22843017803E+03  0.22858075183E+03  0.00000000000E+00 0.  1.
         11    1    1    2    0    0  0.66910193469E+01 -0.24260727113E+01 -0.49948827960E+03  0.49953898449E+03  0.00000000000E+00 0.  1.
        -15    1    1    2    0    0 -0.47901553128E+01 -0.64022790590E+01  0.60511842546E+02  0.61063701021E+02  0.17770000000E+01 0. -1.
         15    1    1    2    0    0 -0.92597749789E+01  0.49994738306E+01  0.21054625903E+03  0.21081656266E+03  0.17770000000E+01 0.  1.
</event>
<event>
 6    1  0.1782050E-003  0.5181565E+03  0.7546771E-02  0.9360075E-01
        -11   -1    0    0    0    0  0.00000000000E+00  0.00000000000E+00  0.50000000000E+03  0.50000000000E+03  0.00000000000E+00 0.  1.
         11   -1    0    0    0    0 -0.00000000000E+00 -0.00000000000E+00 -0.50000000000E+03  0.50000000000E+03  0.00000000000E+00 0. -1.
        -11    1    1    2    0    0 -0.12085788968E+02 -0.73293682069E+01  0.45515446946E+03  0.45537388705E+03  0.00000000000E+00 0.  1.
         11    1    1    2    0    0 -0.52278594615E+01  0.21664103021E+02 -0.48132784680E+03  0.48184350155E+03  0.00000000000E+00 0. -1.
        -15    1    1    2    0    0  0.18239544446E+01  0.11149026597E+02  0.30520819307E+02  0.32593032140E+02  0.17770000000E+01 0.  1.
         15    1    1    2    0    0  0.15489693985E+02 -0.25483761411E+02 -0.43474419665E+01  0.30189579263E+02  0.17770000000E+01 0. -1.
</event>
<event>
 6    1  0.1782050E-003  0.5018058E+03  0.7546771E-02  0.9395778E-01
        -11   -1    0    0    0    0  0.00000000000E+00  0.00000000000E+00  0.50000000000E+03  0.50000000000E+03  0.00000000000E+00 0. -1.
         11   -1    0    0    0    0 -0.00000000000E+00 -0.00000000000E+00 -0.50000000000E+03  0.50000000000E+03  0.00000000000E+00 0. -1.
        -11    1    1    2    0    0  0.56277156129E+01  0.72417168156E+01  0.49810976551E+03  0.49819419119E+03  0.00000000000E+00 0. -1.
         11    1    1    2    0    0 -0.48087927169E+00  0.66928590521E+01 -0.44112723470E+03  0.44117826646E+03  0.00000000000E+00 0. -1.
        -15    1    1    2    0    0 -0.14905958589E+01 -0.12218650617E+02 -0.21236815312E+02  0.24610513048E+02  0.17770000000E+01 0.  1.
         15    1    1    2    0    0 -0.36562404823E+01 -0.17159252509E+01 -0.35745715498E+02  0.36017029297E+02  0.17770000000E+01 0.  1.
</event>
<event>
 6    1  0.1782050E-003  0.5053251E+03  0.7546771E-02  0.9387973E-01
        -11   -1    0    0    0    0  0.00000000000E+00  0.00000000000E+00  0.50000000000E+03  0.50000000000E+03  0.00000000000E+00 0. -1.
         11   -1    0    0    0    0 -0.00000000000E+00 -0.00000000000E+00 -0.50000000000E+03  0.50000000000E+03  0.00000000000E+00 0. -1.
        -11    1    1    2    0    0 -0.61352963401E+01 -0.63054157270E+01  0.49459666296E+03  0.49467490247E+03  0.00000000000E+00 0. -1.
         11    1    1    2    0    0  0.76795709604E+01 -0.70532001513E+01 -0.47725241477E+03  0.47736630678E+03  0.00000000000E+00 0. -1.
        -15    1    1    2    0    0  0.36725716605E+01 -0.21577142580E+01 -0.74049280678E+01  0.87254915111E+01  0.17770000000E+01 0.  1.
         15    1    1    2    0    0 -0.52168462808E+01  0.15516330136E+02 -0.99393201168E+01  0.19233299233E+02  0.17770000000E+01 0. -1.
</event>
<event>
 6    1  0.1782050E-003  0.5144332E+03  0.7546771E-02  0.9368081E-01
        -11   -1    0    0    0    0  0.00000000000E+00  0.00000000000E+00  0.50000000000E+03  0.50000000000E+03  0.00000000000E+00 0.  1.
         11   -1    0    0    0    0 -0.00000000000E+00 -0.00000000000E+00 -0.50000000000E+03  0.50000000000E+03  0.00000000000E+00 0.  1.
        -11    1    1    2    0    0 -0.12864153379E+02  0.51522142385E+00  0.48539610084E+03  0.48556680962E+03  0.00000000000E+00 0.  1.
         11    1    1    2    0    0  0.63655891223E+01 -0.30343136376E+01 -0.36150753725E+03  0.36157630905E+03  0.00000000000E+00 0.  1.
        -15    1    1    2    0    0 -0.16623155335E+02  0.95468493795E+01 -0.12697817113E+03  0.12842930078E+03  0.17770000000E+01 0. -1.
         15    1    1    2    0    0  0.23121719592E+02 -0.70277571657E+01  0.30896075317E+01  0.24427580547E+02  0.17770000000E+01 0.  1.
</event>
<event>
 6    1  0.1782050E-003  0.5246195E+03  0.7546771E-02  0.9346346E-01
        -11   -1    0    0    0    0  0.00000000000E+00  0.00000000000E+00  0.50000000000E+03  0.50000000000E+03  0.00000000000E+00 0.  1.
         11   -1    0    0    0    0 -0.00000000000E+00 -0.00000000000E+00 -0.50000000000E+03  0.50000000000E+03  0.00000000000E+00 0.  1.
        -11    1    1    2    0    0  0.16215207639E+02 -0.37043844523E+02  0.47365751421E+03  0.47538050038E+03  0.00000000000E+00 0.  1.
         11    1    1    2    0    0 -0.45852922682E+01  0.36164427058E+01 -0.42172852824E+03  0.42176895938E+03  0.00000000000E+00 0.  1.
        -15    1    1    2    0    0 -0.12429544520E+02  0.46328411291E+02  0.13285322118E+01  0.48018100718E+02  0.17770000000E+01 0.  1.
         15    1    1    2    0    0  0.79962914877E+00 -0.12901009474E+02 -0.53257518184E+02  0.54832439525E+02  0.17770000000E+01 0. -1.
</event>
<event>
 6    1  0.1782050E-003  0.5119965E+03  0.7546771E-02  0.9373360E-01
        -11   -1    0    0    0    0  0.00000000000E+00  0.00000000000E+00  0.50000000000E+03  0.50000000000E+03  0.00000000000E+00 0. -1.
         11   -1    0    0    0    0 -0.00000000000E+00 -0.00000000000E+00 -0.50000000000E+03  0.50000000000E+03  0.00000000000E+00 0.  1.
        -11    1    1    2    0    0  0.27910351216E+01 -0.70673206394E+01  0.47577161321E+03  0.47583228646E+03  0.00000000000E+00 0. -1.
         11    1    1    2    0    0  0.85860540598E+01  0.21699264231E+02 -0.48744521718E+03  0.48800350219E+03  0.00000000000E+00 0.  1.
        -15    1    1    2    0    0 -0.65659705240E+01 -0.68244600653E+01  0.20912642346E+02  0.23025671825E+02  0.17770000000E+01 0. -1.
         15    1    1    2    0    0 -0.48111186574E+01 -0.78074835268E+01 -0.92390383776E+01  0.13138539527E+02  0.17770000000E+01 0.  1.
</event>
<event>
 6    1  0.1782050E-003  0.5020489E+03  0.7546771E-02  0.9395237E-01
        -11   -1    0    0    0    0  0.00000000000E+00  0.00000000000E+00  0.50000000000E+03  0.50000000000E+03  0.00000000000E+00 0.  1.
         11   -1    0    0    0    0 -0.00000000000E+00 -0.00000000000E+00 -0.50000000000E+03  0.50000000000E+03  0.00000000000E+00 0.  1.
        -11    1    1    2    0    0 -0.81057145828E+01  0.10696551860E-01  0.42891173623E+03  0.42898832175E+03  0.00000000000E+00 0.  1.
         11    1    1    2    0    0  0.74618820078E+00 -0.81250403180E+01 -0.49788422195E+03  0.49795107344E+03  0.00000000000E+00 0.  1.
        -15    1    1    2    0    0 -0.71350137967E+01  0.29018833830E+01  0.15703908431E+02  0.17581234828E+02  0.17770000000E+01 0.  1.
         15    1    1    2    0    0  0.14494540179E+02  0.52124603832E+01  0.53268577290E+02  0.55479369983E+02  0.17770000000E+01 0. -1.
</event>
<event>
 6    1  0.1782050E-003  0.5019186E+03  0.7546771E-02  0.9395527E-01
        -11   -1    0    0    0    0  0.00000000000E+00  0.00000000000E+00  0.50000000000E+03  0.50000000000E+03  0.00000000000E+00 0.  1.
         11   -1    0    0    0    0 -0.00000000000E+00 -0.00000000000E+00 -0.50000000000E+03  0.50000000000E+03  0.00000000000E+00 0. -1.
        -11    1    1    2    0    0 -0.13099594698E+02  0.18731304983E+01  0.49790553682E+03  0.49808135038E+03  0.00000000000E+00 0.  1.
         11    1    1    2    0    0 -0.89424208372E+00  0.68226635689E+01 -0.36461357270E+03  0.36467849650E+03  0.00000000000E+00 0. -1.
        -15    1    1    2    0    0  0.11212787671E+02  0.69334472687E+01 -0.92163212774E+02  0.93118284006E+02  0.17770000000E+01 0. -1.
         15    1    1    2    0    0  0.27810491101E+01 -0.15629241336E+02 -0.41128751339E+02  0.44121869120E+02  0.17770000000E+01 0.  1.
</event>
<event>
 6    1  0.1782050E-003  0.5021284E+03  0.7546771E-02  0.9395060E-01
        -11   -1    0    0    0    0  0.00000000000E+00  0.00000000000E+00  0.50000000000E+03  0.50000000000E+03  0.00000000000E+00 0. -1.
         11   -1    0    0    0    0 -0.00000000000E+00 -0.00000000000E+00 -0.50000000000E+03  0.50000000000E+03  0.00000000000E+00 0. -1.
        -11    1    1    2    0    0 -0.77509413744E+01 -0.18275085638E+01  0.49780795145E+03  0.49787164351E+03  0.00000000000E+00 0. -1.
         11    1    1    2    0    0  0.12719469375E+02  0.12470575986E+02 -0.38209926063E+03  0.38251424175E+03  0.00000000000E+00 0. -1.
        -15    1    1    2    0    0  0.74164071999E+01 -0.36889211718E+01 -0.10765142194E+02  0.13698804715E+02  0.17770000000E+01 0.  1.
         15    1    1    2    0    0 -0.12384935201E+02 -0.69541462503E+01 -0.10494354863E+03  0.10591531002E+03  0.17770000000E+01 0. -1.
</event>
<event>
 6    1  0.1782050E-003  0.5073601E+03  0.7546771E-02  0.9383490E-01
        -11   -1    0    0    0    0  0.00000000000E+00  0.00000000000E+00  0.50000000000E+03  0.50000000000E+03  0.00000000000E+00 0. -1.
         11   -1    0    0    0    0 -0.00000000000E+00 -0.00000000000E+00 -0.50000000000E+03  0.50000000000E+03  0.00000000000E+00 0. -1.
        -11    1    1    2    0    0 -0.13332247130E+02 -0.43902102656E+01  0.49243992008E+03  0.49263992698E+03  0.00000000000E+00 0. -1.
         11    1    1    2    0    0 -0.40423755356E+01 -0.59052717572E+01 -0.42795952327E+03  0.42801935305E+03  0.00000000000E+00 0. -1.
        -15    1    1    2    0    0  0.28062063997E+02  0.40969274713E+01 -0.24706172705E+02  0.37653910145E+02  0.17770000000E+01 0. -1.
         15    1    1    2    0    0 -0.10687441332E+02  0.61985545515E+01 -0.39774224113E+02  0.41686809827E+02  0.17770000000E+01 0.  1.
</event>
<event>
 6    1  0.1782050E-003  0.5212547E+03  0.7546771E-02  0.9353468E-01
        -11   -1    0    0    0    0  0.00000000000E+00  0.00000000000E+00  0.50000000000E+03  0.50000000000E+03  0.00000000000E+00 0. -1.
         11   -1    0    0    0    0 -0.00000000000E+00 -0.00000000000E+00 -0.50000000000E+03  0.50000000000E+03  0.00000000000E+00 0.  1.
        -11    1    1    2    0    0  0.24937079085E+01 -0.52995577564E+01  0.40515703922E+03  0.40519937108E+03  0.00000000000E+00 0. -1.
         11    1    1    2    0    0  0.55795306816E+01  0.19536498758E+02 -0.47831396905E+03  0.47874529652E+03  0.00000000000E+00 0.  1.
        -15    1    1    2    0    0  0.19895029585E+01 -0.11729815377E+02 -0.19440930382E+02  0.22861631480E+02  0.17770000000E+01 0.  1.
         15    1    1    2    0    0 -0.10062741549E+02 -0.25071256242E+01  0.92597860213E+02  0.93193700921E+02  0.17770000000E+01 0. -1.
</event>
<event>
 6    1  0.1782050E-003  0.5034852E+03  0.7546771E-02  0.9392045E-01
        -11   -1    0    0    0    0  0.00000000000E+00  0.00000000000E+00  0.50000000000E+03  0.50000000000E+03  0.00000000000E+00 0. -1.
         11   -1    0    0    0    0 -0.00000000000E+00 -0.00000000000E+00 -0.50000000000E+03  0.50000000000E+03  0.00000000000E+00 0.  1.
        -11    1    1    2    0    0  0.31021569306E+01 -0.76932804466E+01  0.49644545550E+03  0.49651475329E+03  0.00000000000E+00 0. -1.
         11    1    1    2    0    0 -0.76386165999E+01 -0.49960949347E+01 -0.47384517498E+03  0.47393307469E+03  0.00000000000E+00 0.  1.
        -15    1    1    2    0    0  0.57941651171E+01  0.78778561240E+00 -0.38046643529E+01  0.71990385061E+01  0.17770000000E+01 0.  1.
         15    1    1    2    0    0 -0.12577054478E+01  0.11901589769E+02 -0.18795616166E+02  0.22353133518E+02  0.17770000000E+01 0. -1.
</event>
<event>
 6    1  0.1782050E-003  0.5079619E+03  0.7546771E-02  0.9382169E-01
        -11   -1    0    0    0    0  0.00000000000E+00  0.00000000000E+00  0.50000000000E+03  0.50000000000E+03  0.00000000000E+00 0.  1.
         11   -1    0    0    0    0 -0.00000000000E+00 -0.00000000000E+00 -0.50000000000E+03  0.50000000000E+03  0.00000000000E+00 0. -1.
        -11    1    1    2    0    0 -0.10307623966E+02  0.81480457471E+00  0.49192946242E+03  0.49203811541E+03  0.00000000000E+00 0.  1.
         11    1    1    2    0    0  0.50561266693E+01 -0.49438085939E+01 -0.47458118980E+03  0.47463387086E+03  0.00000000000E+00 0. -1.
        -15    1    1    2    0    0  0.45004824337E+00 -0.41325709815E+01 -0.22065893129E+02  0.22524254814E+02  0.17770000000E+01 0.  1.
         15    1    1    2    0    0  0.48014490536E+01  0.82615750007E+01  0.47176205075E+01  0.10803758918E+02  0.17770000000E+01 0. -1.
</event>
<event>
 6    1  0.1782050E-003  0.5108008E+03  0.7546771E-02  0.9375961E-01
        -11   -1    0    0    0    0  0.00000000000E+00  0.00000000000E+00  0.50000000000E+03  0.50000000000E+03  0.00000000000E+00 0. -1.
         11   -1    0    0    0    0 -0.00000000000E+00 -0.00000000000E+00 -0.50000000000E+03  0.50000000000E+03  0.00000000000E+00 0.  1.
        -11    1    1    2    0    0 -0.17098833944E+02  0.17612222261E+02  0.20581399878E+03  0.20727267690E+03  0.00000000000E+00 0. -1.
         11    1    1    2    0    0  0.26737606733E+01 -0.85444959627E+01 -0.48911726908E+03  0.48919920310E+03  0.00000000000E+00 0.  1.
        -15    1    1    2    0    0 -0.42336531817E+02  0.13302577198E+02  0.15840837283E+03  0.16451659733E+03  0.17770000000E+01 0. -1.
         15    1    1    2    0    0  0.56761605087E+02 -0.22370303496E+02  0.12489489747E+03  0.13901152266E+03  0.17770000000E+01 0.  1.
</event>
<event>
 6    1  0.1782050E-003  0.5051970E+03  0.7546771E-02  0.9388256E-01
        -11   -1    0    0    0    0  0.00000000000E+00  0.00000000000E+00  0.50000000000E+03  0.50000000000E+03  0.00000000000E+00 0.  1.
         11   -1    0    0    0    0 -0.00000000000E+00 -0.00000000000E+00 -0.50000000000E+03  0.50000000000E+03  0.00000000000E+00 0. -1.
        -11    1    1    2    0    0 -0.24944410629E-01 -0.15606589779E+02  0.44710992316E+03  0.44738221875E+03  0.00000000000E+00 0.  1.
         11    1    1    2    0    0 -0.91673833734E+01 -0.23770789834E+01 -0.49471238437E+03  0.49480302613E+03  0.00000000000E+00 0. -1.
        -15    1    1    2    0    0  0.57111737053E+01  0.37194253795E+01 -0.90624135951E+00  0.71014528547E+01  0.17770000000E+01 0.  1.
         15    1    1    2    0    0  0.34811540787E+01  0.14264243383E+02  0.48508702562E+02  0.50713302262E+02  0.17770000000E+01 0. -1.
</event>
<event>
 6    1  0.1782050E-003  0.3865795E+03  0.7546771E-02  0.9696907E-01
        -11   -1    0    0    0    0  0.00000000000E+00  0.00000000000E+00  0.50000000000E+03  0.50000000000E+03  0.00000000000E+00 0. -1.
         11   -1    0    0    0    0 -0.00000000000E+00 -0.00000000000E+00 -0.50000000000E+03  0.50000000000E+03  0.00000000000E+00 0.  1.
        -11    1    1    2    0    0  0.38558559228E+02  0.37778138375E+02  0.37318248334E+03  0.37706646112E+03  0.00000000000E+00 0. -1.
         11    1    1    2    0    0  0.53513671358E+02 -0.39410545967E+02 -0.66109549981E+02  0.93741008925E+02  0.00000000000E+00 0.  1.
        -15    1    1    2    0    0 -0.89371627927E+02 -0.19072313321E+02  0.91932538130E+02  0.12963714865E+03  0.17770000000E+01 0. -1.
         15    1    1    2    0    0 -0.27006026590E+01  0.20704720913E+02 -0.39900547149E+03  0.39955538131E+03  0.17770000000E+01 0.  1.
</event>
<event>
 6    1  0.1782050E-003  0.5021004E+03  0.7546771E-02  0.9395122E-01
        -11   -1    0    0    0    0  0.00000000000E+00  0.00000000000E+00  0.50000000000E+03  0.50000000000E+03  0.00000000000E+00 0.  1.
         11   -1    0    0    0    0 -0.00000000000E+00 -0.00000000000E+00 -0.50000000000E+03  0.50000000000E+03  0.00000000000E+00 0. -1.
        -11    1    1    2    0    0  0.20463640373E+01 -0.60677220833E+01  0.43971006535E+03  0.43975669003E+03  0.00000000000E+00 0.  1.
         11    1    1    2    0    0  0.63029655074E+01  0.97147794003E+01 -0.49776486826E+03  0.49789955653E+03  0.00000000000E+00 0. -1.
        -15    1    1    2    0    0 -0.96380595765E+00 -0.63837699429E+01  0.42380187538E+01  0.79246433715E+01  0.17770000000E+01 0. -1.
         15    1    1    2    0    0 -0.73855235871E+01  0.27367126259E+01  0.53816784161E+02  0.54419110072E+02  0.17770000000E+01 0.  1.
</event>
<event>
 6    1  0.1782050E-003  0.5071445E+03  0.7546771E-02  0.9383964E-01
        -11   -1    0    0    0    0  0.00000000000E+00  0.00000000000E+00  0.50000000000E+03  0.50000000000E+03  0.00000000000E+00 0.  1.
         11   -1    0    0    0    0 -0.00000000000E+00 -0.00000000000E+00 -0.50000000000E+03  0.50000000000E+03  0.00000000000E+00 0.  1.
        -11    1    1    2    0    0 -0.13543350311E+02 -0.62911653166E+01  0.49262922004E+03  0.49285550573E+03  0.00000000000E+00 0.  1.
         11    1    1    2    0    0 -0.52653695444E+01 -0.85320082891E+01 -0.43740166815E+03  0.43751655807E+03  0.00000000000E+00 0.  1.
        -15    1    1    2    0    0 -0.47989259549E+01  0.41997578174E+01 -0.37787670846E+02  0.38363178349E+02  0.17770000000E+01 0. -1.
         15    1    1    2    0    0  0.23607645810E+02  0.10623415788E+02 -0.17439881037E+02  0.31264757848E+02  0.17770000000E+01 0.  1.
</event>
<event>
 6    1  0.1782050E-003  0.5052672E+03  0.7546771E-02  0.9388100E-01
        -11   -1    0    0    0    0  0.00000000000E+00  0.00000000000E+00  0.50000000000E+03  0.50000000000E+03  0.00000000000E+00 0.  1.
         11   -1    0    0    0    0 -0.00000000000E+00 -0.00000000000E+00 -0.50000000000E+03  0.50000000000E+03  0.00000000000E+00 0. -1.
        -11    1    1    2    0    0 -0.61631754366E+01  0.51215178648E+01  0.49076675214E+03  0.49083217058E+03  0.00000000000E+00 0.  1.
         11    1    1    2    0    0  0.21690079832E+00 -0.72799338525E+01 -0.49467914213E+03  0.49473275427E+03  0.00000000000E+00 0. -1.
        -15    1    1    2    0    0  0.67656515666E+01  0.59248939675E+01  0.43895571845E+01  0.10163874799E+02  0.17770000000E+01 0.  1.
         15    1    1    2    0    0 -0.81937692836E+00 -0.37664779798E+01 -0.47716718718E+00  0.42712003521E+01  0.17770000000E+01 0. -1.
</event>
<event>
 6    1  0.1782050E-003  0.5158534E+03  0.7546771E-02  0.9365019E-01
        -11   -1    0    0    0    0  0.00000000000E+00  0.00000000000E+00  0.50000000000E+03  0.50000000000E+03  0.00000000000E+00 0.  1.
         11   -1    0    0    0    0 -0.00000000000E+00 -0.00000000000E+00 -0.50000000000E+03  0.50000000000E+03  0.00000000000E+00 0.  1.
        -11    1    1    2    0    0  0.11787536640E+02  0.68270723781E+01  0.48395490186E+03  0.48414657075E+03  0.00000000000E+00 0.  1.
         11    1    1    2    0    0  0.68027360391E+01  0.10271818739E+01 -0.44449498383E+03  0.44454822345E+03  0.00000000000E+00 0.  1.
        -15    1    1    2    0    0 -0.28215138884E+02 -0.10206780978E+02  0.53608784861E+00  0.30061895472E+02  0.17770000000E+01 0.  1.
         15    1    1    2    0    0  0.96248662047E+01  0.23525267265E+01 -0.39996005878E+02  0.41243310326E+02  0.17770000000E+01 0. -1.
</event>
<event>
 6    1  0.1782050E-003  0.5047068E+03  0.7546771E-02  0.9389339E-01
        -11   -1    0    0    0    0  0.00000000000E+00  0.00000000000E+00  0.50000000000E+03  0.50000000000E+03  0.00000000000E+00 0.  1.
         11   -1    0    0    0    0 -0.00000000000E+00 -0.00000000000E+00 -0.50000000000E+03  0.50000000000E+03  0.00000000000E+00 0. -1.
        -11    1    1    2    0    0  0.41673583826E+01  0.61427939781E+01  0.49523755786E+03  0.49529318541E+03  0.00000000000E+00 0.  1.
         11    1    1    2    0    0 -0.24653242658E+01  0.12198350450E+02 -0.39190768634E+03  0.39210523101E+03  0.00000000000E+00 0. -1.
        -15    1    1    2    0    0 -0.11292043387E+02  0.83580422240E+01 -0.52364503560E+02  0.54245424468E+02  0.17770000000E+01 0. -1.
         15    1    1    2    0    0  0.95900092701E+01 -0.26699186652E+02 -0.50965367962E+02  0.58356159111E+02  0.17770000000E+01 0.  1.
</event>
<event>
 6    1  0.1782050E-003  0.5022998E+03  0.7546771E-02  0.9394678E-01
        -11   -1    0    0    0    0  0.00000000000E+00  0.00000000000E+00  0.50000000000E+03  0.50000000000E+03  0.00000000000E+00 0. -1.
         11   -1    0    0    0    0 -0.00000000000E+00 -0.00000000000E+00 -0.50000000000E+03  0.50000000000E+03  0.00000000000E+00 0.  1.
        -11    1    1    2    0    0 -0.72835955724E+01  0.12248680654E+01  0.49764536267E+03  0.49770016883E+03  0.00000000000E+00 0. -1.
         11    1    1    2    0    0 -0.30615215965E+01  0.91109035367E+01 -0.40212196681E+03  0.40223681789E+03  0.00000000000E+00 0.  1.
        -15    1    1    2    0    0  0.67925241876E+01 -0.76324761589E+01 -0.94604343132E+02  0.95171069898E+02  0.17770000000E+01 0. -1.
         15    1    1    2    0    0  0.35525929813E+01 -0.27032954432E+01 -0.91905272552E+00  0.48919433824E+01  0.17770000000E+01 0.  1.
</event>
<event>
 6    1  0.1782050E-003  0.5039376E+03  0.7546771E-02  0.9391042E-01
        -11   -1    0    0    0    0  0.00000000000E+00  0.00000000000E+00  0.50000000000E+03  0.50000000000E+03  0.00000000000E+00 0. -1.
         11   -1    0    0    0    0 -0.00000000000E+00 -0.00000000000E+00 -0.50000000000E+03  0.50000000000E+03  0.00000000000E+00 0. -1.
        -11    1    1    2    0    0 -0.55428904299E+01 -0.32985364741E+01  0.45018263751E+03  0.45022884302E+03  0.00000000000E+00 0. -1.
         11    1    1    2    0    0  0.71112189052E+01 -0.18271087753E+02 -0.49567474562E+03  0.49606235045E+03  0.00000000000E+00 0. -1.
        -15    1    1    2    0    0  0.45563315613E+01  0.15497306131E+02  0.15524847024E+02  0.22474546908E+02  0.17770000000E+01 0.  1.
         15    1    1    2    0    0 -0.61246600365E+01  0.60723180969E+01  0.29967261094E+02  0.31234259622E+02  0.17770000000E+01 0. -1.
</event>
<event>
 6    1  0.1782050E-003  0.5008720E+03  0.7546771E-02  0.9397861E-01
        -11   -1    0    0    0    0  0.00000000000E+00  0.00000000000E+00  0.50000000000E+03  0.50000000000E+03  0.00000000000E+00 0. -1.
         11   -1    0    0    0    0 -0.00000000000E+00 -0.00000000000E+00 -0.50000000000E+03  0.50000000000E+03  0.00000000000E+00 0.  1.
        -11    1    1    2    0    0  0.42413689761E+00  0.15801181771E+02  0.37896698117E+03  0.37929649360E+03  0.00000000000E+00 0. -1.
         11    1    1    2    0    0 -0.66049010291E+01 -0.47755978441E+01 -0.49906147231E+03  0.49912802385E+03  0.00000000000E+00 0.  1.
        -15    1    1    2    0    0  0.35632453827E+00 -0.73384812971E+01  0.99473877775E+02  0.99760665412E+02  0.17770000000E+01 0. -1.
         15    1    1    2    0    0  0.58244395932E+01 -0.36871026296E+01  0.20620613362E+02  0.21814817139E+02  0.17770000000E+01 0.  1.
</event>
<event>
 6    1  0.1782050E-003  0.5312780E+03  0.7546771E-02  0.9332420E-01
        -11   -1    0    0    0    0  0.00000000000E+00  0.00000000000E+00  0.50000000000E+03  0.50000000000E+03  0.00000000000E+00 0.  1.
         11   -1    0    0    0    0 -0.00000000000E+00 -0.00000000000E+00 -0.50000000000E+03  0.50000000000E+03  0.00000000000E+00 0.  1.
        -11    1    1    2    0    0  0.49725224781E+01 -0.22285313156E+02  0.46816551989E+03  0.46872200202E+03  0.00000000000E+00 0.  1.
         11    1    1    2    0    0 -0.31983661525E+01  0.69006135594E+01 -0.39084807455E+03  0.39092207074E+03  0.00000000000E+00 0.  1.
        -15    1    1    2    0    0 -0.17981691348E+02  0.24022600973E+02  0.23317601286E+02  0.38043328456E+02  0.17770000000E+01 0.  1.
         15    1    1    2    0    0  0.16207535023E+02 -0.86379013772E+01 -0.10063504663E+03  0.10231259879E+03  0.17770000000E+01 0. -1.
</event>
<event>
 6    1  0.1782050E-003  0.4865711E+03  0.7546771E-02  0.9430370E-01
        -11   -1    0    0    0    0  0.00000000000E+00  0.00000000000E+00  0.50000000000E+03  0.50000000000E+03  0.00000000000E+00 0.  1.
         11   -1    0    0    0    0 -0.00000000000E+00 -0.00000000000E+00 -0.50000000000E+03  0.50000000000E+03  0.00000000000E+00 0. -1.
        -11    1    1    2    0    0 -0.67408492467E+01 -0.66388198889E+01  0.48920328006E+03  0.48929476004E+03  0.00000000000E+00 0.  1.
         11    1    1    2    0    0 -0.74530069291E+01 -0.30455794248E+01 -0.48394643622E+03  0.48401340477E+03  0.00000000000E+00 0. -1.
        -15    1    1    2    0    0  0.11668916919E+01  0.98676074320E+01  0.37345086589E+01  0.10762694671E+02  0.17770000000E+01 0. -1.
         15    1    1    2    0    0  0.13026964484E+02 -0.18320811832E+00 -0.89913525014E+01  0.15929140519E+02  0.17770000000E+01 0.  1.
</event>
<event>
 6    1  0.1782050E-003  0.5004480E+03  0.7546771E-02  0.9398808E-01
        -11   -1    0    0    0    0  0.00000000000E+00  0.00000000000E+00  0.50000000000E+03  0.50000000000E+03  0.00000000000E+00 0. -1.
         11   -1    0    0    0    0 -0.00000000000E+00 -0.00000000000E+00 -0.50000000000E+03  0.50000000000E+03  0.00000000000E+00 0. -1.
        -11    1    1    2    0    0 -0.73134366725E+01  0.17680207440E+01  0.20716633837E+03  0.20730292812E+03  0.00000000000E+00 0. -1.
         11    1    1    2    0    0  0.71524968552E+01 -0.13122400966E+02 -0.49932837265E+03  0.49955197863E+03  0.00000000000E+00 0. -1.
        -15    1    1    2    0    0  0.41299178550E+01 -0.12756817639E+01  0.16217939960E+02  0.16877881709E+02  0.17770000000E+01 0. -1.
         15    1    1    2    0    0 -0.39689780377E+01  0.12630061986E+02  0.27594409432E+03  0.27626721154E+03  0.17770000000E+01 0.  1.
</event>
<event>
 6    1  0.1782050E-003  0.5002831E+03  0.7546771E-02  0.9399177E-01
        -11   -1    0    0    0    0  0.00000000000E+00  0.00000000000E+00  0.50000000000E+03  0.50000000000E+03  0.00000000000E+00 0.  1.
         11   -1    0    0    0    0 -0.00000000000E+00 -0.00000000000E+00 -0.50000000000E+03  0.50000000000E+03  0.00000000000E+00 0. -1.
        -11    1    1    2    0    0 -0.96752890858E+01  0.61044501715E+01  0.49958594890E+03  0.49971691573E+03  0.00000000000E+00 0.  1.
         11    1    1    2    0    0  0.49001513668E+00 -0.39402458049E+01 -0.17069030152E+03  0.17073647732E+03  0.00000000000E+00 0. -1.
        -15    1    1    2    0    0  0.11392413782E+02 -0.64904713809E+01 -0.15182858565E+03  0.15240403689E+03  0.17770000000E+01 0.  1.
         15    1    1    2    0    0 -0.22071398329E+01  0.43262670143E+01 -0.17706706172E+03  0.17714257006E+03  0.17770000000E+01 0. -1.
</event>
<event>
 6    1  0.1782050E-003  0.5005926E+03  0.7546771E-02  0.9398485E-01
        -11   -1    0    0    0    0  0.00000000000E+00  0.00000000000E+00  0.50000000000E+03  0.50000000000E+03  0.00000000000E+00 0.  1.
         11   -1    0    0    0    0 -0.00000000000E+00 -0.00000000000E+00 -0.50000000000E+03  0.50000000000E+03  0.00000000000E+00 0.  1.
        -11    1    1    2    0    0  0.46772822486E+01  0.91929021091E+00  0.21588989081E+03  0.21594250859E+03  0.00000000000E+00 0.  1.
         11    1    1    2    0    0  0.17158538868E+02 -0.86449144825E+01 -0.49903767943E+03  0.49940740433E+03  0.00000000000E+00 0.  1.
        -15    1    1    2    0    0 -0.80755122009E+01  0.75874421456E+01  0.20301165354E+03  0.20332159841E+03  0.17770000000E+01 0. -1.
         15    1    1    2    0    0 -0.13760308915E+02  0.13818212599E+00  0.80136135079E+02  0.81328488675E+02  0.17770000000E+01 0.  1.
</event>
<event>
 6    1  0.1782050E-003  0.4534407E+03  0.7546771E-02  0.9510475E-01
        -11   -1    0    0    0    0  0.00000000000E+00  0.00000000000E+00  0.50000000000E+03  0.50000000000E+03  0.00000000000E+00 0. -1.
         11   -1    0    0    0    0 -0.00000000000E+00 -0.00000000000E+00 -0.50000000000E+03  0.50000000000E+03  0.00000000000E+00 0.  1.
        -11    1    1    2    0    0  0.27758364229E+01 -0.17084674202E+01  0.13317770696E+03  0.13321758803E+03  0.00000000000E+00 0. -1.
         11    1    1    2    0    0 -0.89055259978E+01  0.10990412862E+02 -0.47036135702E+03  0.47057401516E+03  0.00000000000E+00 0.  1.
        -15    1    1    2    0    0  0.77315764531E+02  0.67528774936E+02  0.18255008401E+03  0.20944105088E+03  0.17770000000E+01 0. -1.
         15    1    1    2    0    0 -0.71186074956E+02 -0.76810720377E+02  0.15463356604E+03  0.18676734593E+03  0.17770000000E+01 0.  1.
</event>
<event>
 6    1  0.1782050E-003  0.5007332E+03  0.7546771E-02  0.9398171E-01
        -11   -1    0    0    0    0  0.00000000000E+00  0.00000000000E+00  0.50000000000E+03  0.50000000000E+03  0.00000000000E+00 0. -1.
         11   -1    0    0    0    0 -0.00000000000E+00 -0.00000000000E+00 -0.50000000000E+03  0.50000000000E+03  0.00000000000E+00 0. -1.
        -11    1    1    2    0    0 -0.78320078894E+01  0.42359945017E+01  0.49918737979E+03  0.49926678654E+03  0.00000000000E+00 0. -1.
         11    1    1    2    0    0  0.12410969727E+01  0.13665136113E+02 -0.18372563736E+03  0.18423730917E+03  0.00000000000E+00 0. -1.
        -15    1    1    2    0    0  0.21312091828E+01 -0.14272888362E+02 -0.28870194391E+03  0.28906785975E+03  0.17770000000E+01 0. -1.
         15    1    1    2    0    0  0.44597017339E+01 -0.36282422528E+01 -0.26759798520E+02  0.27428044539E+02  0.17770000000E+01 0.  1.
</event>
<event>
 6    1  0.1782050E-003  0.5137222E+03  0.7546771E-02  0.9369618E-01
        -11   -1    0    0    0    0  0.00000000000E+00  0.00000000000E+00  0.50000000000E+03  0.50000000000E+03  0.00000000000E+00 0. -1.
         11   -1    0    0    0    0 -0.00000000000E+00 -0.00000000000E+00 -0.50000000000E+03  0.50000000000E+03  0.00000000000E+00 0. -1.
        -11    1    1    2    0    0  0.25905101604E+01 -0.25530042668E+02  0.48560021739E+03  0.48627776522E+03  0.00000000000E+00 0. -1.
         11    1    1    2    0    0 -0.11554341294E+02  0.28994467283E+01 -0.29707660780E+03  0.29731535530E+03  0.00000000000E+00 0. -1.
        -15    1    1    2    0    0 -0.55736672093E+01  0.18864927429E+02  0.65035313217E+01  0.20794347831E+02  0.17770000000E+01 0.  1.
         15    1    1    2    0    0  0.14537498342E+02  0.37656685108E+01 -0.19502714091E+03  0.19561253165E+03  0.17770000000E+01 0. -1.
</event>
<event>
 6    1  0.1782050E-003  0.5008065E+03  0.7546771E-02  0.9398007E-01
        -11   -1    0    0    0    0  0.00000000000E+00  0.00000000000E+00  0.50000000000E+03  0.50000000000E+03  0.00000000000E+00 0. -1.
         11   -1    0    0    0    0 -0.00000000000E+00 -0.00000000000E+00 -0.50000000000E+03  0.50000000000E+03  0.00000000000E+00 0.  1.
        -11    1    1    2    0    0 -0.95115216870E+01  0.11783379837E+02  0.49896374823E+03  0.49919348867E+03  0.00000000000E+00 0. -1.
         11    1    1    2    0    0 -0.12432171007E+01 -0.29195293984E+01 -0.13828709411E+03  0.13832349634E+03  0.00000000000E+00 0.  1.
        -15    1    1    2    0    0 -0.57375016259E+01 -0.13822498489E+02 -0.89992672180E+02  0.91245926838E+02  0.17770000000E+01 0. -1.
         15    1    1    2    0    0  0.16492240414E+02  0.49586480508E+01 -0.27068398194E+03  0.27123708815E+03  0.17770000000E+01 0.  1.
</event>
<event>
 6    1  0.1782050E-003  0.5002015E+03  0.7546771E-02  0.9399359E-01
        -11   -1    0    0    0    0  0.00000000000E+00  0.00000000000E+00  0.50000000000E+03  0.50000000000E+03  0.00000000000E+00 0. -1.
         11   -1    0    0    0    0 -0.00000000000E+00 -0.00000000000E+00 -0.50000000000E+03  0.50000000000E+03  0.00000000000E+00 0.  1.
        -11    1    1    2    0    0 -0.72480858909E+01 -0.39606568517E+01  0.49973029002E+03  0.49979854374E+03  0.00000000000E+00 0. -1.
         11    1    1    2    0    0 -0.59162056993E+01  0.75171066910E+00 -0.14280597129E+03  0.14293044461E+03  0.00000000000E+00 0.  1.
        -15    1    1    2    0    0  0.11327377437E+02  0.42413855519E+01 -0.23707578902E+03  0.23739078815E+03  0.17770000000E+01 0.  1.
         15    1    1    2    0    0  0.18369141533E+01 -0.10324393693E+01 -0.11984852971E+03  0.11988022351E+03  0.17770000000E+01 0. -1.
</event>
<event>
 6    1  0.1782050E-003  0.4773526E+03  0.7546771E-02  0.9451961E-01
        -11   -1    0    0    0    0  0.00000000000E+00  0.00000000000E+00  0.50000000000E+03  0.50000000000E+03  0.00000000000E+00 0. -1.
         11   -1    0    0    0    0 -0.00000000000E+00 -0.00000000000E+00 -0.50000000000E+03  0.50000000000E+03  0.00000000000E+00 0. -1.
        -11    1    1    2    0    0 -0.14894611403E+01  0.22797748773E+02  0.48143152512E+03  0.48197330758E+03  0.00000000000E+00 0. -1.
         11    1    1    2    0    0 -0.72989553520E+01  0.17352264800E+01 -0.47306470707E+03  0.47312419389E+03  0.00000000000E+00 0. -1.
        -15    1    1    2    0    0  0.35383158723E+01 -0.29305790668E+02  0.46849730382E+01  0.29940870850E+02  0.17770000000E+01 0. -1.
         15    1    1    2    0    0  0.52501006200E+01  0.47728154146E+01 -0.13051791082E+02  0.14961627683E+02  0.17770000000E+01 0.  1.
</event>
<event>
 6    1  0.1782050E-003  0.4719287E+03  0.7546771E-02  0.9464909E-01
        -11   -1    0    0    0    0  0.00000000000E+00  0.00000000000E+00  0.50000000000E+03  0.50000000000E+03  0.00000000000E+00 0. -1.
         11   -1    0    0    0    0 -0.00000000000E+00 -0.00000000000E+00 -0.50000000000E+03  0.50000000000E+03  0.00000000000E+00 0. -1.
        -11    1    1    2    0    0 -0.12724532775E+02 -0.37228792012E+01  0.47236089817E+03  0.47254692009E+03  0.00000000000E+00 0. -1.
         11    1    1    2    0    0 -0.95468257359E+01  0.52229256865E+01 -0.47144926244E+03  0.47157483806E+03  0.00000000000E+00 0. -1.
        -15    1    1    2    0    0  0.24868292945E+02  0.63083372344E+01  0.20488952736E+02  0.32881332484E+02  0.17770000000E+01 0.  1.
         15    1    1    2    0    0 -0.25969344346E+01 -0.78083837197E+01 -0.21400588466E+02  0.22996909368E+02  0.17770000000E+01 0. -1.
</event>
<event>
 6    1  0.1782050E-003  0.5043969E+03  0.7546771E-02  0.9390025E-01
        -11   -1    0    0    0    0  0.00000000000E+00  0.00000000000E+00  0.50000000000E+03  0.50000000000E+03  0.00000000000E+00 0. -1.
         11   -1    0    0    0    0 -0.00000000000E+00 -0.00000000000E+00 -0.50000000000E+03  0.50000000000E+03  0.00000000000E+00 0. -1.
        -11    1    1    2    0    0  0.82591061519E+01  0.31863349674E+01  0.49552403940E+03  0.49560310651E+03  0.00000000000E+00 0. -1.
         11    1    1    2    0    0  0.69594113983E+01 -0.11830457602E+01 -0.47188740619E+03  0.47194020503E+03  0.00000000000E+00 0. -1.
        -15    1    1    2    0    0 -0.12865131387E+02  0.30466428958E+01 -0.22981032060E+02  0.26572150874E+02  0.17770000000E+01 0. -1.
         15    1    1    2    0    0 -0.23533861636E+01 -0.50499321029E+01 -0.65560114749E+00  0.58845375811E+01  0.17770000000E+01 0.  1.
</event>
<event>
 6    1  0.2839590E-003  0.5455450E+03  0.7546771E-02  0.9303297E-01
        -11   -1    0    0    0    0  0.00000000000E+00  0.00000000000E+00  0.50000000000E+03  0.50000000000E+03  0.00000000000E+00 0.  1.
         11   -1    0    0    0    0 -0.00000000000E+00 -0.00000000000E+00 -0.50000000000E+03  0.50000000000E+03  0.00000000000E+00 0.  1.
        -11    1    1    2    0    0 -0.15767143987E+02 -0.14012813443E+02  0.41367242009E+03  0.41420988992E+03  0.00000000000E+00 0.  1.
         11    1    1    2    0    0  0.68556178818E+01 -0.31961814778E+01 -0.45439207270E+03  0.45445502617E+03  0.00000000000E+00 0.  1.
        -15    1    1    2    0    0  0.94492990686E+01  0.20431541367E+02  0.84465322989E+02  0.87431605567E+02  0.17770000000E+01 0. -1.
         15    1    1    2    0    0 -0.53777296298E+00 -0.32225464468E+01 -0.43745670371E+02  0.43903478343E+02  0.17770000000E+01 0.  1.
</event>
<event>
 6    1  0.1782050E-003  0.5005949E+03  0.7546771E-02  0.9398480E-01
        -11   -1    0    0    0    0  0.00000000000E+00  0.00000000000E+00  0.50000000000E+03  0.50000000000E+03  0.00000000000E+00 0.  1.
         11   -1    0    0    0    0 -0.00000000000E+00 -0.00000000000E+00 -0.50000000000E+03  0.50000000000E+03  0.00000000000E+00 0. -1.
        -11    1    1    2    0    0  0.47820393695E+01 -0.23135738082E+01  0.37007806646E+03  0.37011619230E+03  0.00000000000E+00 0.  1.
         11    1    1    2    0    0 -0.62339779981E+01  0.45251717550E+01 -0.49934568089E+03  0.49940509478E+03  0.00000000000E+00 0. -1.
        -15    1    1    2    0    0  0.64708418836E+01 -0.22405957962E+01  0.22670484626E+02  0.23748698204E+02  0.17770000000E+01 0.  1.
         15    1    1    2    0    0 -0.50189032550E+01  0.28997849428E-01  0.10659712980E+03  0.10673001472E+03  0.17770000000E+01 0. -1.
</event>
<event>
 6    1  0.1782050E-003  0.5226146E+03  0.7546771E-02  0.9350583E-01
        -11   -1    0    0    0    0  0.00000000000E+00  0.00000000000E+00  0.50000000000E+03  0.50000000000E+03  0.00000000000E+00 0.  1.
         11   -1    0    0    0    0 -0.00000000000E+00 -0.00000000000E+00 -0.50000000000E+03  0.50000000000E+03  0.00000000000E+00 0. -1.
        -11    1    1    2    0    0  0.49279211824E+01 -0.18934238038E+02  0.41395271481E+03  0.41441481619E+03  0.00000000000E+00 0.  1.
         11    1    1    2    0    0 -0.11730735274E+02  0.70848746249E+01 -0.47718863060E+03  0.47738537344E+03  0.00000000000E+00 0. -1.
        -15    1    1    2    0    0 -0.16698919067E+02  0.16803101610E+02  0.76916563035E+02  0.80501636752E+02  0.17770000000E+01 0.  1.
         15    1    1    2    0    0  0.23501733159E+02 -0.49537381972E+01 -0.13680647249E+02  0.27698173618E+02  0.17770000000E+01 0. -1.
</event>
<event>
 6    1  0.1782050E-003  0.5064669E+03  0.7546771E-02  0.9385455E-01
        -11   -1    0    0    0    0  0.00000000000E+00  0.00000000000E+00  0.50000000000E+03  0.50000000000E+03  0.00000000000E+00 0.  1.
         11   -1    0    0    0    0 -0.00000000000E+00 -0.00000000000E+00 -0.50000000000E+03  0.50000000000E+03  0.00000000000E+00 0.  1.
        -11    1    1    2    0    0 -0.19921566120E+02 -0.27639575249E+02  0.26129471663E+03  0.26350662962E+03  0.00000000000E+00 0.  1.
         11    1    1    2    0    0  0.80810316005E+01  0.21664713608E+02 -0.49299111246E+03  0.49353307878E+03  0.00000000000E+00 0.  1.
        -15    1    1    2    0    0 -0.23459085632E+01  0.92477358009E+01  0.22749690581E+03  0.22770380714E+03  0.17770000000E+01 0.  1.
         15    1    1    2    0    0  0.14186443083E+02 -0.32728741601E+01  0.41994900143E+01  0.15256484457E+02  0.17770000000E+01 0. -1.
</event>
<event>
 6    1  0.1782050E-003  0.5033803E+03  0.7546771E-02  0.9392278E-01
        -11   -1    0    0    0    0  0.00000000000E+00  0.00000000000E+00  0.50000000000E+03  0.50000000000E+03  0.00000000000E+00 0. -1.
         11   -1    0    0    0    0 -0.00000000000E+00 -0.00000000000E+00 -0.50000000000E+03  0.50000000000E+03  0.00000000000E+00 0. -1.
        -11    1    1    2    0    0 -0.10752801623E+02 -0.26372795275E+01  0.49649622787E+03  0.49661965554E+03  0.00000000000E+00 0. -1.
         11    1    1    2    0    0  0.48095858434E+01 -0.69018882980E+01 -0.28056576585E+03  0.28069185443E+03  0.00000000000E+00 0. -1.
        -15    1    1    2    0    0 -0.68658971097E+01  0.86169807189E+01 -0.20614137021E+03  0.20644324920E+03  0.17770000000E+01 0.  1.
         15    1    1    2    0    0  0.12809112889E+02  0.92218710665E+00 -0.97890918069E+01  0.16245240825E+02  0.17770000000E+01 0.  1.
</event>
<event>
 6    1  0.1782050E-003  0.5091938E+03  0.7546771E-02  0.9379470E-01
        -11   -1    0    0    0    0  0.00000000000E+00  0.00000000000E+00  0.50000000000E+03  0.50000000000E+03  0.00000000000E+00 0.  1.
         11   -1    0    0    0    0 -0.00000000000E+00 -0.00000000000E+00 -0.50000000000E+03  0.50000000000E+03  0.00000000000E+00 0.  1.
        -11    1    1    2    0    0 -0.67697051194E+01 -0.11292559734E+02  0.49062953523E+03  0.49080616505E+03  0.00000000000E+00 0.  1.
         11    1    1    2    0    0 -0.72024388000E+01  0.21477421690E+02 -0.43935418528E+03  0.43993778525E+03  0.00000000000E+00 0.  1.
        -15    1    1    2    0    0  0.19270213996E+02 -0.24398251729E+02 -0.31827938387E+02  0.44528543945E+02  0.17770000000E+01 0. -1.
         15    1    1    2    0    0 -0.52980700768E+01  0.14213389774E+02 -0.19447411556E+02  0.24727505750E+02  0.17770000000E+01 0.  1.
</event>
<event>
 6    1  0.1782050E-003  0.5749140E+03  0.7546771E-02  0.9246211E-01
        -11   -1    0    0    0    0  0.00000000000E+00  0.00000000000E+00  0.50000000000E+03  0.50000000000E+03  0.00000000000E+00 0.  1.
         11   -1    0    0    0    0 -0.00000000000E+00 -0.00000000000E+00 -0.50000000000E+03  0.50000000000E+03  0.00000000000E+00 0.  1.
        -11    1    1    2    0    0  0.36399032430E+02 -0.10795648321E+02  0.42338713726E+03  0.42508599551E+03  0.00000000000E+00 0.  1.
         11    1    1    2    0    0 -0.27523686713E+01  0.39752266273E+01 -0.22764500046E+03  0.22769634207E+03  0.00000000000E+00 0.  1.
        -15    1    1    2    0    0  0.24186265915E+01 -0.15923013109E+02 -0.26520164963E+03  0.26569618890E+03  0.17770000000E+01 0.  1.
         15    1    1    2    0    0 -0.36065290351E+02  0.22743434803E+02  0.69459512822E+02  0.81521473522E+02  0.17770000000E+01 0. -1.
</event>
<event>
 6    1  0.1782050E-003  0.5088247E+03  0.7546771E-02  0.9380278E-01
        -11   -1    0    0    0    0  0.00000000000E+00  0.00000000000E+00  0.50000000000E+03  0.50000000000E+03  0.00000000000E+00 0. -1.
         11   -1    0    0    0    0 -0.00000000000E+00 -0.00000000000E+00 -0.50000000000E+03  0.50000000000E+03  0.00000000000E+00 0. -1.
        -11    1    1    2    0    0 -0.30066195378E+01 -0.88592054409E+00  0.13416813962E+03  0.13420474770E+03  0.00000000000E+00 0. -1.
         11    1    1    2    0    0 -0.22121625044E+02 -0.37561375532E+02 -0.48923715180E+03  0.49117533929E+03  0.00000000000E+00 0. -1.
        -15    1    1    2    0    0  0.45325685918E+02 -0.12451499161E+02  0.70017688241E+02  0.84351004919E+02  0.17770000000E+01 0.  1.
         15    1    1    2    0    0 -0.20197441337E+02  0.50898795237E+02  0.28505132395E+03  0.29026890809E+03  0.17770000000E+01 0. -1.
</event>
<event>
 6    1  0.1782050E-003  0.5083263E+03  0.7546771E-02  0.9381369E-01
        -11   -1    0    0    0    0  0.00000000000E+00  0.00000000000E+00  0.50000000000E+03  0.50000000000E+03  0.00000000000E+00 0.  1.
         11   -1    0    0    0    0 -0.00000000000E+00 -0.00000000000E+00 -0.50000000000E+03  0.50000000000E+03  0.00000000000E+00 0.  1.
        -11    1    1    2    0    0 -0.21240032868E+01  0.20438780985E+02  0.49124415039E+03  0.49167374391E+03  0.00000000000E+00 0.  1.
         11    1    1    2    0    0 -0.19765599321E+01  0.44249941915E+01 -0.23552675434E+03  0.23557661041E+03  0.00000000000E+00 0.  1.
        -15    1    1    2    0    0 -0.20742301321E+02 -0.25253062465E+02 -0.24221495154E+03  0.24441604020E+03  0.17770000000E+01 0.  1.
         15    1    1    2    0    0  0.24842864540E+02  0.38928728816E+00 -0.13502444515E+02  0.28333605489E+02  0.17770000000E+01 0. -1.
</event>
<event>
 6    1  0.1782050E-003  0.5045739E+03  0.7546771E-02  0.9389633E-01
        -11   -1    0    0    0    0  0.00000000000E+00  0.00000000000E+00  0.50000000000E+03  0.50000000000E+03  0.00000000000E+00 0.  1.
         11   -1    0    0    0    0 -0.00000000000E+00 -0.00000000000E+00 -0.50000000000E+03  0.50000000000E+03  0.00000000000E+00 0. -1.
        -11    1    1    2    0    0 -0.13082500181E+02  0.39132534750E+01  0.43898348676E+03  0.43919581852E+03  0.00000000000E+00 0.  1.
         11    1    1    2    0    0 -0.10123996602E+02  0.13452408299E+01 -0.49532080003E+03  0.49542607917E+03  0.00000000000E+00 0. -1.
        -15    1    1    2    0    0  0.10882751601E+02  0.44343400088E+01  0.43325031457E+02  0.44925646723E+02  0.17770000000E+01 0. -1.
         15    1    1    2    0    0  0.12323745181E+02 -0.96928343136E+01  0.13012281818E+02  0.20452455584E+02  0.17770000000E+01 0.  1.
</event>
<event>
 6    1  0.1782050E-003  0.5038765E+03  0.7546771E-02  0.9391177E-01
        -11   -1    0    0    0    0  0.00000000000E+00  0.00000000000E+00  0.50000000000E+03  0.50000000000E+03  0.00000000000E+00 0. -1.
         11   -1    0    0    0    0 -0.00000000000E+00 -0.00000000000E+00 -0.50000000000E+03  0.50000000000E+03  0.00000000000E+00 0.  1.
        -11    1    1    2    0    0 -0.82190799860E+01  0.15028648297E+01  0.49605310679E+03  0.49612346915E+03  0.00000000000E+00 0. -1.
         11    1    1    2    0    0 -0.63419992521E+01 -0.14907655030E+02 -0.44463639399E+03  0.44493143516E+03  0.00000000000E+00 0.  1.
        -15    1    1    2    0    0  0.78516487865E+01  0.99401076847E+01 -0.85579632339E+01  0.15389951045E+02  0.17770000000E+01 0. -1.
         15    1    1    2    0    0  0.67094304517E+01  0.34646825160E+01 -0.42858749571E+02  0.43555144652E+02  0.17770000000E+01 0.  1.
</event>
<event>
 6    1  0.1782050E-003  0.5079167E+03  0.7546771E-02  0.9382268E-01
        -11   -1    0    0    0    0  0.00000000000E+00  0.00000000000E+00  0.50000000000E+03  0.50000000000E+03  0.00000000000E+00 0. -1.
         11   -1    0    0    0    0 -0.00000000000E+00 -0.00000000000E+00 -0.50000000000E+03  0.50000000000E+03  0.00000000000E+00 0.  1.
        -11    1    1    2    0    0  0.11993680907E+02 -0.17355831582E+01  0.49193402033E+03  0.49208326632E+03  0.00000000000E+00 0. -1.
         11    1    1    2    0    0 -0.85206196859E+01 -0.14153664471E+01 -0.47093969161E+03  0.47101889278E+03  0.00000000000E+00 0.  1.
        -15    1    1    2    0    0  0.82530270364E+01  0.37995784340E+01  0.33218720527E+01  0.98357416840E+01  0.17770000000E+01 0.  1.
         15    1    1    2    0    0 -0.11726088258E+02 -0.64862882874E+00 -0.24316200773E+02  0.27062099220E+02  0.17770000000E+01 0. -1.
</event>
<event>
 6    1  0.1782050E-003  0.5029914E+03  0.7546771E-02  0.9393141E-01
        -11   -1    0    0    0    0  0.00000000000E+00  0.00000000000E+00  0.50000000000E+03  0.50000000000E+03  0.00000000000E+00 0. -1.
         11   -1    0    0    0    0 -0.00000000000E+00 -0.00000000000E+00 -0.50000000000E+03  0.50000000000E+03  0.00000000000E+00 0.  1.
        -11    1    1    2    0    0 -0.86504428673E+01 -0.73424363129E+01  0.41748927738E+03  0.41764343436E+03  0.00000000000E+00 0. -1.
         11    1    1    2    0    0 -0.89169645847E+01 -0.15535261949E+01 -0.49692618243E+03  0.49700860806E+03  0.00000000000E+00 0.  1.
        -15    1    1    2    0    0  0.55364821191E+01  0.15677162534E+02  0.35163906271E+02  0.38936924540E+02  0.17770000000E+01 0.  1.
         15    1    1    2    0    0  0.12030925333E+02 -0.67812000265E+01  0.44272998780E+02  0.46411033043E+02  0.17770000000E+01 0. -1.
</event>
<event>
 6    1  0.1782050E-003  0.4862812E+03  0.7546771E-02  0.9431041E-01
        -11   -1    0    0    0    0  0.00000000000E+00  0.00000000000E+00  0.50000000000E+03  0.50000000000E+03  0.00000000000E+00 0. -1.
         11   -1    0    0    0    0 -0.00000000000E+00 -0.00000000000E+00 -0.50000000000E+03  0.50000000000E+03  0.00000000000E+00 0.  1.
        -11    1    1    2    0    0 -0.80744421744E+01  0.63623798579E+01  0.48905352053E+03  0.48916155045E+03  0.00000000000E+00 0. -1.
         11    1    1    2    0    0 -0.43086445253E+01 -0.61811600917E+01 -0.48343722974E+03  0.48349594234E+03  0.00000000000E+00 0.  1.
        -15    1    1    2    0    0  0.13135602559E+02  0.57937137412E+01  0.47473721518E+01  0.15225191126E+02  0.17770000000E+01 0. -1.
         15    1    1    2    0    0 -0.75251585890E+00 -0.59749335075E+01 -0.10363662942E+02  0.12117316086E+02  0.17770000000E+01 0.  1.
</event>
<event>
 6    1  0.1782050E-003  0.5084263E+03  0.7546771E-02  0.9381150E-01
        -11   -1    0    0    0    0  0.00000000000E+00  0.00000000000E+00  0.50000000000E+03  0.50000000000E+03  0.00000000000E+00 0.  1.
         11   -1    0    0    0    0 -0.00000000000E+00 -0.00000000000E+00 -0.50000000000E+03  0.50000000000E+03  0.00000000000E+00 0. -1.
        -11    1    1    2    0    0 -0.11004873313E+02 -0.65800833801E+01  0.47822667078E+03  0.47839852987E+03  0.00000000000E+00 0.  1.
         11    1    1    2    0    0 -0.26082265444E+01 -0.71310950490E+01 -0.49151501451E+03  0.49157366167E+03  0.00000000000E+00 0. -1.
        -15    1    1    2    0    0  0.13278974896E+02  0.40821820789E+01  0.62827542524E+00  0.14019552198E+02  0.17770000000E+01 0. -1.
         15    1    1    2    0    0  0.33412496067E+00  0.96289963502E+01  0.12660068299E+02  0.16008256261E+02  0.17770000000E+01 0.  1.
</event>
<event>
 6    1  0.1782050E-003  0.3445659E+03  0.7546771E-02  0.9836054E-01
        -11   -1    0    0    0    0  0.00000000000E+00  0.00000000000E+00  0.50000000000E+03  0.50000000000E+03  0.00000000000E+00 0.  1.
         11   -1    0    0    0    0 -0.00000000000E+00 -0.00000000000E+00 -0.50000000000E+03  0.50000000000E+03  0.00000000000E+00 0.  1.
        -11    1    1    2    0    0  0.20151092619E+01 -0.57116654807E+01  0.37884919634E+03  0.37889760801E+03  0.00000000000E+00 0.  1.
         11    1    1    2    0    0  0.57952536408E+01  0.19768899548E+01 -0.12207212772E+03  0.12222560053E+03  0.00000000000E+00 0.  1.
        -15    1    1    2    0    0  0.15280682022E+03  0.23847646689E+02 -0.29451284723E+03  0.33265539146E+03  0.17770000000E+01 0.  1.
         15    1    1    2    0    0 -0.16061718312E+03 -0.20112871163E+02  0.37735778613E+02  0.16622140000E+03  0.17770000000E+01 0. -1.
</event>
<event>
 6    1  0.1782050E-003  0.5099733E+03  0.7546771E-02  0.9377766E-01
        -11   -1    0    0    0    0  0.00000000000E+00  0.00000000000E+00  0.50000000000E+03  0.50000000000E+03  0.00000000000E+00 0. -1.
         11   -1    0    0    0    0 -0.00000000000E+00 -0.00000000000E+00 -0.50000000000E+03  0.50000000000E+03  0.00000000000E+00 0. -1.
        -11    1    1    2    0    0 -0.54389061081E+01 -0.11087603529E+02  0.42088269853E+03  0.42106384619E+03  0.00000000000E+00 0. -1.
         11    1    1    2    0    0  0.96792646061E+01 -0.47679347980E+01 -0.48990794336E+03  0.49002674859E+03  0.00000000000E+00 0. -1.
        -15    1    1    2    0    0 -0.87305383526E-01 -0.18504431486E+02  0.11831964485E+02  0.22035760014E+02  0.17770000000E+01 0. -1.
         15    1    1    2    0    0 -0.41530531145E+01  0.34359969813E+02  0.57193280354E+02  0.66873645200E+02  0.17770000000E+01 0.  1.
</event>
<event>
 6    1  0.1782050E-003  0.5033808E+03  0.7546771E-02  0.9392276E-01
        -11   -1    0    0    0    0  0.00000000000E+00  0.00000000000E+00  0.50000000000E+03  0.50000000000E+03  0.00000000000E+00 0. -1.
         11   -1    0    0    0    0 -0.00000000000E+00 -0.00000000000E+00 -0.50000000000E+03  0.50000000000E+03  0.00000000000E+00 0. -1.
        -11    1    1    2    0    0  0.39945920071E+01 -0.64521692553E+01  0.49656117288E+03  0.49661915555E+03  0.00000000000E+00 0. -1.
         11    1    1    2    0    0 -0.99360767233E+01 -0.11349090032E+02 -0.44412226287E+03  0.44437834312E+03  0.00000000000E+00 0. -1.
        -15    1    1    2    0    0  0.86145682711E+01  0.20507138461E+02 -0.47764282801E+02  0.52719426731E+02  0.17770000000E+01 0. -1.
         15    1    1    2    0    0 -0.26730835549E+01 -0.27058791737E+01 -0.46746272093E+01  0.62830745929E+01  0.17770000000E+01 0.  1.
</event>
<event>
 6    1  0.1782050E-003  0.5142038E+03  0.7546771E-02  0.9368577E-01
        -11   -1    0    0    0    0  0.00000000000E+00  0.00000000000E+00  0.50000000000E+03  0.50000000000E+03  0.00000000000E+00 0.  1.
         11   -1    0    0    0    0 -0.00000000000E+00 -0.00000000000E+00 -0.50000000000E+03  0.50000000000E+03  0.00000000000E+00 0. -1.
        -11    1    1    2    0    0  0.60928929436E+01 -0.25631492584E+01  0.48575127449E+03  0.48579624715E+03  0.00000000000E+00 0.  1.
         11    1    1    2    0    0 -0.13994567063E+02 -0.14485760405E+01 -0.46788871853E+03  0.46810020210E+03  0.00000000000E+00 0. -1.
        -15    1    1    2    0    0 -0.80082702781E+01 -0.12305197816E+02  0.30749539797E+01  0.15105077197E+02  0.17770000000E+01 0. -1.
         15    1    1    2    0    0  0.15909944397E+02  0.16316923115E+02 -0.20937509943E+02  0.30998473548E+02  0.17770000000E+01 0.  1.
</event>
<event>
 6    1  0.1782050E-003  0.5114528E+03  0.7546771E-02  0.9374542E-01
        -11   -1    0    0    0    0  0.00000000000E+00  0.00000000000E+00  0.50000000000E+03  0.50000000000E+03  0.00000000000E+00 0.  1.
         11   -1    0    0    0    0 -0.00000000000E+00 -0.00000000000E+00 -0.50000000000E+03  0.50000000000E+03  0.00000000000E+00 0.  1.
        -11    1    1    2    0    0  0.16128335048E+02 -0.16469976921E+02  0.15743528774E+03  0.15911396279E+03  0.00000000000E+00 0.  1.
         11    1    1    2    0    0  0.95563337680E+01 -0.48919427583E+01 -0.48842918077E+03  0.48854715151E+03  0.00000000000E+00 0.  1.
        -15    1    1    2    0    0 -0.60989525467E+02  0.18402643384E+02  0.29498949869E+03  0.30179519805E+03  0.17770000000E+01 0.  1.
         15    1    1    2    0    0  0.35304856651E+02  0.29592762951E+01  0.36004394348E+02  0.50543687645E+02  0.17770000000E+01 0. -1.
</event>
<event>
 6    1  0.1782050E-003  0.4895898E+03  0.7546771E-02  0.9423409E-01
        -11   -1    0    0    0    0  0.00000000000E+00  0.00000000000E+00  0.50000000000E+03  0.50000000000E+03  0.00000000000E+00 0.  1.
         11   -1    0    0    0    0 -0.00000000000E+00 -0.00000000000E+00 -0.50000000000E+03  0.50000000000E+03  0.00000000000E+00 0.  1.
        -11    1    1    2    0    0  0.21764722679E+01  0.88309986584E+01  0.48810342658E+03  0.48818815902E+03  0.00000000000E+00 0.  1.
         11    1    1    2    0    0 -0.96881242613E+01 -0.57562513648E+01 -0.49089974149E+03  0.49102907284E+03  0.00000000000E+00 0.  1.
        -15    1    1    2    0    0 -0.19432486342E+01 -0.79595976387E+01  0.50124028914E+01  0.97679742818E+01  0.17770000000E+01 0. -1.
         15    1    1    2    0    0  0.94549006276E+01  0.48848503452E+01 -0.22160879814E+01  0.11014793857E+02  0.17770000000E+01 0. -1.
</event>
<event>
 6    1  0.1782050E-003  0.4891020E+03  0.7546771E-02  0.9424530E-01
        -11   -1    0    0    0    0  0.00000000000E+00  0.00000000000E+00  0.50000000000E+03  0.50000000000E+03  0.00000000000E+00 0. -1.
         11   -1    0    0    0    0 -0.00000000000E+00 -0.00000000000E+00 -0.50000000000E+03  0.50000000000E+03  0.00000000000E+00 0. -1.
        -11    1    1    2    0    0 -0.13983924463E+01  0.80108413184E+01  0.49336719311E+03  0.49343420668E+03  0.00000000000E+00 0. -1.
         11    1    1    2    0    0  0.55194369811E+01  0.69377510328E+01 -0.48484873315E+03  0.48492977906E+03  0.00000000000E+00 0. -1.
        -15    1    1    2    0    0 -0.34782404613E+01 -0.62590728925E+01 -0.10197234157E+02  0.12586320496E+02  0.17770000000E+01 0.  1.
         15    1    1    2    0    0 -0.64280407348E+00 -0.86895194587E+01  0.16787741980E+01  0.90496937688E+01  0.17770000000E+01 0. -1.
</event>
<event>
 6    1  0.1782050E-003  0.5127411E+03  0.7546771E-02  0.9371743E-01
        -11   -1    0    0    0    0  0.00000000000E+00  0.00000000000E+00  0.50000000000E+03  0.50000000000E+03  0.00000000000E+00 0. -1.
         11   -1    0    0    0    0 -0.00000000000E+00 -0.00000000000E+00 -0.50000000000E+03  0.50000000000E+03  0.00000000000E+00 0.  1.
        -11    1    1    2    0    0  0.81073395580E+01 -0.50456997305E+01  0.44202582876E+03  0.44212896459E+03  0.00000000000E+00 0. -1.
         11    1    1    2    0    0  0.43811486170E+01 -0.14225845026E+02 -0.48703145832E+03  0.48725887424E+03  0.00000000000E+00 0.  1.
        -15    1    1    2    0    0 -0.48454477629E+01 -0.36294612168E+01  0.45954407419E+02  0.46385521911E+02  0.17770000000E+01 0. -1.
         15    1    1    2    0    0 -0.76430404121E+01  0.22901005974E+02 -0.94877785450E+00  0.24226639259E+02  0.17770000000E+01 0.  1.
</event>
<event>
 6    1  0.1782050E-003  0.5209958E+03  0.7546771E-02  0.9354018E-01
        -11   -1    0    0    0    0  0.00000000000E+00  0.00000000000E+00  0.50000000000E+03  0.50000000000E+03  0.00000000000E+00 0. -1.
         11   -1    0    0    0    0 -0.00000000000E+00 -0.00000000000E+00 -0.50000000000E+03  0.50000000000E+03  0.00000000000E+00 0. -1.
        -11    1    1    2    0    0  0.24579183829E+01  0.12411476735E+01  0.84680795375E+02  0.84725550548E+02  0.00000000000E+00 0. -1.
         11    1    1    2    0    0  0.69748258763E+01 -0.90243183622E+01 -0.47886835260E+03  0.47900416036E+03  0.00000000000E+00 0. -1.
        -15    1    1    2    0    0  0.32346207958E+02  0.28575211585E+02  0.38654173172E+03  0.38894792451E+03  0.17770000000E+01 0. -1.
         15    1    1    2    0    0 -0.41778952217E+02 -0.20792040896E+02  0.76458255059E+01  0.47322364582E+02  0.17770000000E+01 0.  1.
</event>
<event>
 6    1  0.1782050E-003  0.5006931E+03  0.7546771E-02  0.9398260E-01
        -11   -1    0    0    0    0  0.00000000000E+00  0.00000000000E+00  0.50000000000E+03  0.50000000000E+03  0.00000000000E+00 0.  1.
         11   -1    0    0    0    0 -0.00000000000E+00 -0.00000000000E+00 -0.50000000000E+03  0.50000000000E+03  0.00000000000E+00 0. -1.
        -11    1    1    2    0    0  0.13747594730E+02  0.13284278127E+02  0.49894074985E+03  0.49930685982E+03  0.00000000000E+00 0.  1.
         11    1    1    2    0    0  0.12995794533E+01  0.73240666185E+00 -0.67894367270E+02  0.67910753443E+02  0.00000000000E+00 0. -1.
        -15    1    1    2    0    0  0.50915449293E+01 -0.33387732460E+01 -0.27468885893E+03  0.27476207560E+03  0.17770000000E+01 0. -1.
         15    1    1    2    0    0 -0.20138719112E+02 -0.10677911543E+02 -0.15635752365E+03  0.15802031114E+03  0.17770000000E+01 0.  1.
</event>
<event>
 6    1  0.1782050E-003  0.5037697E+03  0.7546771E-02  0.9391414E-01
        -11   -1    0    0    0    0  0.00000000000E+00  0.00000000000E+00  0.50000000000E+03  0.50000000000E+03  0.00000000000E+00 0. -1.
         11   -1    0    0    0    0 -0.00000000000E+00 -0.00000000000E+00 -0.50000000000E+03  0.50000000000E+03  0.00000000000E+00 0.  1.
        -11    1    1    2    0    0 -0.50188404134E+01  0.47813635491E+01  0.49618186898E+03  0.49623028656E+03  0.00000000000E+00 0. -1.
         11    1    1    2    0    0 -0.15289170504E+02  0.66385270480E+01 -0.41582719708E+03  0.41616113058E+03  0.00000000000E+00 0.  1.
        -15    1    1    2    0    0 -0.59686095475E+01 -0.96466400972E+00 -0.19208651430E+02  0.20215956453E+02  0.17770000000E+01 0. -1.
         15    1    1    2    0    0  0.26276620465E+02 -0.10455226587E+02 -0.61146020468E+02  0.67392626408E+02  0.17770000000E+01 0.  1.
</event>
<event>
 6    1  0.1782050E-003  0.5052196E+03  0.7546771E-02  0.9388206E-01
        -11   -1    0    0    0    0  0.00000000000E+00  0.00000000000E+00  0.50000000000E+03  0.50000000000E+03  0.00000000000E+00 0. -1.
         11   -1    0    0    0    0 -0.00000000000E+00 -0.00000000000E+00 -0.50000000000E+03  0.50000000000E+03  0.00000000000E+00 0. -1.
        -11    1    1    2    0    0  0.97654784843E+01 -0.41936065118E+01  0.45190296874E+03  0.45202792398E+03  0.00000000000E+00 0. -1.
         11    1    1    2    0    0 -0.10406679463E+02  0.28251198102E+00 -0.49467086922E+03  0.49478040346E+03  0.00000000000E+00 0. -1.
        -15    1    1    2    0    0 -0.61113421755E+01 -0.13483359344E+01  0.43897852920E+02  0.44377311015E+02  0.17770000000E+01 0. -1.
         15    1    1    2    0    0  0.67525431546E+01  0.52594304652E+01 -0.11299524361E+01  0.88143615413E+01  0.17770000000E+01 0.  1.
</event>
<event>
 6    1  0.1782050E-003  0.5044893E+03  0.7546771E-02  0.9389820E-01
        -11   -1    0    0    0    0  0.00000000000E+00  0.00000000000E+00  0.50000000000E+03  0.50000000000E+03  0.00000000000E+00 0. -1.
         11   -1    0    0    0    0 -0.00000000000E+00 -0.00000000000E+00 -0.50000000000E+03  0.50000000000E+03  0.00000000000E+00 0. -1.
        -11    1    1    2    0    0  0.15651440918E+01  0.11540406588E+02  0.49537385760E+03  0.49551073596E+03  0.00000000000E+00 0. -1.
         11    1    1    2    0    0 -0.10515804096E+02  0.78160479093E+01 -0.43044820052E+03  0.43064756596E+03  0.00000000000E+00 0. -1.
        -15    1    1    2    0    0  0.15978921358E+02 -0.12778923536E+02 -0.58826315598E+02  0.62308265506E+02  0.17770000000E+01 0. -1.
         15    1    1    2    0    0 -0.70282613546E+01 -0.65775309613E+01 -0.60993414867E+01  0.11533432567E+02  0.17770000000E+01 0.  1.
</event>
<event>
 6    1  0.1782050E-003  0.5232078E+03  0.7546771E-02  0.9349327E-01
        -11   -1    0    0    0    0  0.00000000000E+00  0.00000000000E+00  0.50000000000E+03  0.50000000000E+03  0.00000000000E+00 0. -1.
         11   -1    0    0    0    0 -0.00000000000E+00 -0.00000000000E+00 -0.50000000000E+03  0.50000000000E+03  0.00000000000E+00 0. -1.
        -11    1    1    2    0    0 -0.10964328832E+02 -0.82829408800E+01  0.47659414500E+03  0.47679220071E+03  0.00000000000E+00 0. -1.
         11    1    1    2    0    0  0.40696277236E+01  0.57532000623E+01 -0.46936941525E+03  0.46942231429E+03  0.00000000000E+00 0. -1.
        -15    1    1    2    0    0 -0.35981689044E+01 -0.98641197339E+01  0.19641425287E+02  0.22342582525E+02  0.17770000000E+01 0. -1.
         15    1    1    2    0    0  0.10492870013E+02  0.12393860552E+02 -0.26866155035E+02  0.31442902472E+02  0.17770000000E+01 0. -1.
</event>
<event>
 6    1  0.2052656E-003  0.5255894E+03  0.7546771E-02  0.9344304E-01
        -11   -1    0    0    0    0  0.00000000000E+00  0.00000000000E+00  0.50000000000E+03  0.50000000000E+03  0.00000000000E+00 0. -1.
         11   -1    0    0    0    0 -0.00000000000E+00 -0.00000000000E+00 -0.50000000000E+03  0.50000000000E+03  0.00000000000E+00 0. -1.
        -11    1    1    2    0    0 -0.42943459821E+02 -0.21201675108E+02  0.42484867820E+03  0.42753953167E+03  0.00000000000E+00 0. -1.
         11    1    1    2    0    0 -0.44647264455E+01  0.50729131212E+01 -0.47436245456E+03  0.47441058855E+03  0.00000000000E+00 0. -1.
        -15    1    1    2    0    0  0.22579803514E+01 -0.54929660256E+01 -0.15082711981E+02  0.16306964179E+02  0.17770000000E+01 0.  1.
         15    1    1    2    0    0  0.45150205915E+02  0.21621728012E+02  0.64596488343E+02  0.81742915605E+02  0.17770000000E+01 0. -1.
</event>
<event>
 6    1  0.1782050E-003  0.5068492E+03  0.7546771E-02  0.9384613E-01
        -11   -1    0    0    0    0  0.00000000000E+00  0.00000000000E+00  0.50000000000E+03  0.50000000000E+03  0.00000000000E+00 0.  1.
         11   -1    0    0    0    0 -0.00000000000E+00 -0.00000000000E+00 -0.50000000000E+03  0.50000000000E+03  0.00000000000E+00 0. -1.
        -11    1    1    2    0    0  0.19139277040E+02  0.35048626978E+01  0.49276682495E+03  0.49315082861E+03  0.00000000000E+00 0.  1.
         11    1    1    2    0    0  0.22990676568E+02 -0.96745307034E+01 -0.39346787219E+03  0.39425770025E+03  0.00000000000E+00 0. -1.
        -15    1    1    2    0    0 -0.42412016874E+02  0.28189720305E+01 -0.62551265507E+02  0.75647500448E+02  0.17770000000E+01 0. -1.
         15    1    1    2    0    0  0.28206326593E+00  0.33506959751E+01 -0.36747687252E+02  0.36943970693E+02  0.17770000000E+01 0.  1.
</event>
<event>
 6    1  0.1782050E-003  0.5018565E+03  0.7546771E-02  0.9395665E-01
        -11   -1    0    0    0    0  0.00000000000E+00  0.00000000000E+00  0.50000000000E+03  0.50000000000E+03  0.00000000000E+00 0. -1.
         11   -1    0    0    0    0 -0.00000000000E+00 -0.00000000000E+00 -0.50000000000E+03  0.50000000000E+03  0.00000000000E+00 0.  1.
        -11    1    1    2    0    0  0.37240416655E+01 -0.34851887219E+00  0.19933085397E+03  0.19936594317E+03  0.00000000000E+00 0. -1.
         11    1    1    2    0    0 -0.59433391183E+00 -0.10405488134E+02 -0.49803444940E+03  0.49814349359E+03  0.00000000000E+00 0.  1.
        -15    1    1    2    0    0  0.34432771084E+01  0.21870505922E+02  0.70525162757E+02  0.73940053404E+02  0.17770000000E+01 0.  1.
         15    1    1    2    0    0 -0.65729848620E+01 -0.11116498915E+02  0.22817843268E+03  0.22855050984E+03  0.17770000000E+01 0. -1.
</event>
<event>
 6    1  0.1782050E-003  0.5015017E+03  0.7546771E-02  0.9396456E-01
        -11   -1    0    0    0    0  0.00000000000E+00  0.00000000000E+00  0.50000000000E+03  0.50000000000E+03  0.00000000000E+00 0.  1.
         11   -1    0    0    0    0 -0.00000000000E+00 -0.00000000000E+00 -0.50000000000E+03  0.50000000000E+03  0.00000000000E+00 0. -1.
        -11    1    1    2    0    0 -0.10989973570E+02  0.69667001901E+01  0.45837271269E+03  0.45855736628E+03  0.00000000000E+00 0.  1.
         11    1    1    2    0    0  0.69643066680E+01  0.20699474710E+01 -0.49844532301E+03  0.49849827109E+03  0.00000000000E+00 0. -1.
        -15    1    1    2    0    0  0.69774867717E+01 -0.49842541716E+01  0.32706380023E+02  0.33858427821E+02  0.17770000000E+01 0. -1.
         15    1    1    2    0    0 -0.29518198702E+01 -0.40523934894E+01  0.73662303018E+01  0.90859348115E+01  0.17770000000E+01 0.  1.
</event>
<event>
 6    1  0.1782050E-003  0.5012608E+03  0.7546771E-02  0.9396993E-01
        -11   -1    0    0    0    0  0.00000000000E+00  0.00000000000E+00  0.50000000000E+03  0.50000000000E+03  0.00000000000E+00 0.  1.
         11   -1    0    0    0    0 -0.00000000000E+00 -0.00000000000E+00 -0.50000000000E+03  0.50000000000E+03  0.00000000000E+00 0.  1.
        -11    1    1    2    0    0 -0.10045789929E+02 -0.15872124009E+02  0.49838532044E+03  0.49873918018E+03  0.00000000000E+00 0.  1.
         11    1    1    2    0    0 -0.31004869937E+01  0.14847012248E+02 -0.39704662113E+03  0.39733621297E+03  0.00000000000E+00 0.  1.
        -15    1    1    2    0    0  0.12246800680E+02  0.71145358575E+01 -0.44679669802E+02  0.46904492002E+02  0.17770000000E+01 0.  1.
         15    1    1    2    0    0  0.89947624290E+00 -0.60894240969E+01 -0.56659029508E+02  0.57020114847E+02  0.17770000000E+01 0. -1.
</event>
<event>
 6    1  0.1782050E-003  0.5019999E+03  0.7546771E-02  0.9395346E-01
        -11   -1    0    0    0    0  0.00000000000E+00  0.00000000000E+00  0.50000000000E+03  0.50000000000E+03  0.00000000000E+00 0. -1.
         11   -1    0    0    0    0 -0.00000000000E+00 -0.00000000000E+00 -0.50000000000E+03  0.50000000000E+03  0.00000000000E+00 0. -1.
        -11    1    1    2    0    0 -0.99323286655E+01 -0.75110574154E-01  0.34849244047E+03  0.34863395970E+03  0.00000000000E+00 0. -1.
         11    1    1    2    0    0 -0.67163197902E+01  0.11745036966E+02 -0.49781626232E+03  0.49800008622E+03  0.00000000000E+00 0. -1.
        -15    1    1    2    0    0  0.12786064094E+02 -0.66389790958E+01  0.14443597491E+03  0.14516359067E+03  0.17770000000E+01 0. -1.
         15    1    1    2    0    0  0.38625843613E+01 -0.50309472960E+01  0.48878469414E+01  0.82023634013E+01  0.17770000000E+01 0.  1.
</event>
<event>
 6    1  0.1782050E-003  0.4861903E+03  0.7546771E-02  0.9431251E-01
        -11   -1    0    0    0    0  0.00000000000E+00  0.00000000000E+00  0.50000000000E+03  0.50000000000E+03  0.00000000000E+00 0. -1.
         11   -1    0    0    0    0 -0.00000000000E+00 -0.00000000000E+00 -0.50000000000E+03  0.50000000000E+03  0.00000000000E+00 0. -1.
        -11    1    1    2    0    0 -0.52806749778E+01 -0.58520897501E+01  0.48715114345E+03  0.48721491054E+03  0.00000000000E+00 0. -1.
         11    1    1    2    0    0 -0.60308848594E+01  0.83975926920E+01 -0.48512669765E+03  0.48523685341E+03  0.00000000000E+00 0. -1.
        -15    1    1    2    0    0 -0.18085822099E+01 -0.10343763980E+01 -0.11095199212E+02  0.11428126648E+02  0.17770000000E+01 0.  1.
         15    1    1    2    0    0  0.13120142047E+02 -0.15111265440E+01  0.90707534092E+01  0.16120109403E+02  0.17770000000E+01 0. -1.
</event>
<event>
 6    1  0.1782050E-003  0.5187198E+03  0.7546771E-02  0.9358870E-01
        -11   -1    0    0    0    0  0.00000000000E+00  0.00000000000E+00  0.50000000000E+03  0.50000000000E+03  0.00000000000E+00 0. -1.
         11   -1    0    0    0    0 -0.00000000000E+00 -0.00000000000E+00 -0.50000000000E+03  0.50000000000E+03  0.00000000000E+00 0.  1.
        -11    1    1    2    0    0 -0.86653301946E+01 -0.15516660807E+02  0.48095197979E+03  0.48128023185E+03  0.00000000000E+00 0. -1.
         11    1    1    2    0    0  0.29032952401E+01  0.63948005763E+01 -0.37623685680E+03  0.37630239836E+03  0.00000000000E+00 0.  1.
        -15    1    1    2    0    0 -0.36734180720E+02  0.56582101959E+00 -0.88952877786E+02  0.96257427671E+02  0.17770000000E+01 0. -1.
         15    1    1    2    0    0  0.42496215674E+02  0.85560392108E+01 -0.15762245200E+02  0.46159942118E+02  0.17770000000E+01 0.  1.
</event>
<event>
 6    1  0.1782050E-003  0.4914062E+03  0.7546771E-02  0.9419247E-01
        -11   -1    0    0    0    0  0.00000000000E+00  0.00000000000E+00  0.50000000000E+03  0.50000000000E+03  0.00000000000E+00 0. -1.
         11   -1    0    0    0    0 -0.00000000000E+00 -0.00000000000E+00 -0.50000000000E+03  0.50000000000E+03  0.00000000000E+00 0. -1.
        -11    1    1    2    0    0  0.59436295884E+01  0.65717900858E+01  0.49110530270E+03  0.49118523339E+03  0.00000000000E+00 0. -1.
         11    1    1    2    0    0 -0.39565906337E+00  0.75603776597E+01 -0.49168627696E+03  0.49174455850E+03  0.00000000000E+00 0. -1.
        -15    1    1    2    0    0 -0.23496161395E+01 -0.89363767512E+01  0.35489867108E+01  0.10056468621E+02  0.17770000000E+01 0. -1.
         15    1    1    2    0    0 -0.31983543855E+01 -0.51957909943E+01 -0.29680124477E+01  0.70137394962E+01  0.17770000000E+01 0.  1.
</event>
<event>
 6    1  0.1782050E-003  0.5005570E+03  0.7546771E-02  0.9398564E-01
        -11   -1    0    0    0    0  0.00000000000E+00  0.00000000000E+00  0.50000000000E+03  0.50000000000E+03  0.00000000000E+00 0.  1.
         11   -1    0    0    0    0 -0.00000000000E+00 -0.00000000000E+00 -0.50000000000E+03  0.50000000000E+03  0.00000000000E+00 0. -1.
        -11    1    1    2    0    0  0.10306049481E+02  0.32376867201E+01  0.49932615164E+03  0.49944299272E+03  0.00000000000E+00 0.  1.
         11    1    1    2    0    0 -0.25876731008E+01 -0.15827950401E+01 -0.12855129647E+03  0.12858707990E+03  0.00000000000E+00 0. -1.
        -15    1    1    2    0    0  0.75599108609E+01  0.64871788297E+01 -0.74458507436E+02  0.75142949104E+02  0.17770000000E+01 0.  1.
         15    1    1    2    0    0 -0.15278287241E+02 -0.81420705097E+01 -0.29631634773E+03  0.29682697828E+03  0.17770000000E+01 0. -1.
</event>
<event>
 6    1  0.1782050E-003  0.5026035E+03  0.7546771E-02  0.9394003E-01
        -11   -1    0    0    0    0  0.00000000000E+00  0.00000000000E+00  0.50000000000E+03  0.50000000000E+03  0.00000000000E+00 0.  1.
         11   -1    0    0    0    0 -0.00000000000E+00 -0.00000000000E+00 -0.50000000000E+03  0.50000000000E+03  0.00000000000E+00 0.  1.
        -11    1    1    2    0    0 -0.39633065141E+01 -0.68127430527E+01  0.49733409604E+03  0.49739654638E+03  0.00000000000E+00 0.  1.
         11    1    1    2    0    0  0.60363509716E+01 -0.44710519341E+01 -0.39631123636E+03  0.39638242128E+03  0.00000000000E+00 0.  1.
        -15    1    1    2    0    0  0.87389522133E+01  0.25801231988E+01 -0.83144403871E+01  0.12462502536E+02  0.17770000000E+01 0. -1.
         15    1    1    2    0    0 -0.10811996671E+02  0.87036717881E+01 -0.92708419291E+02  0.93758529805E+02  0.17770000000E+01 0.  1.
</event>
<event>
 6    1  0.1782050E-003  0.5098545E+03  0.7546771E-02  0.9378026E-01
        -11   -1    0    0    0    0  0.00000000000E+00  0.00000000000E+00  0.50000000000E+03  0.50000000000E+03  0.00000000000E+00 0. -1.
         11   -1    0    0    0    0 -0.00000000000E+00 -0.00000000000E+00 -0.50000000000E+03  0.50000000000E+03  0.00000000000E+00 0. -1.
        -11    1    1    2    0    0  0.27423298790E+02 -0.11570779050E+02  0.32710911341E+03  0.32846048821E+03  0.00000000000E+00 0. -1.
         11    1    1    2    0    0 -0.19623552412E+02 -0.34590945767E+02 -0.48852940683E+03  0.49014548726E+03  0.00000000000E+00 0. -1.
        -15    1    1    2    0    0 -0.70552451533E+01  0.23822197379E+02  0.15645890533E+03  0.15842922823E+03  0.17770000000E+01 0.  1.
         15    1    1    2    0    0 -0.74450122504E+00  0.22339527438E+02  0.49613881015E+01  0.22964796301E+02  0.17770000000E+01 0. -1.
</event>
<event>
 6    1  0.1782050E-003  0.5146669E+03  0.7546771E-02  0.9367577E-01
        -11   -1    0    0    0    0  0.00000000000E+00  0.00000000000E+00  0.50000000000E+03  0.50000000000E+03  0.00000000000E+00 0. -1.
         11   -1    0    0    0    0 -0.00000000000E+00 -0.00000000000E+00 -0.50000000000E+03  0.50000000000E+03  0.00000000000E+00 0.  1.
        -11    1    1    2    0    0  0.20025306387E+02 -0.11943825157E+02  0.48477269483E+03  0.48533311602E+03  0.00000000000E+00 0. -1.
         11    1    1    2    0    0 -0.20843013881E+02  0.17223772987E+02 -0.42185956742E+03  0.42272518757E+03  0.00000000000E+00 0.  1.
        -15    1    1    2    0    0  0.30905448149E+02  0.42986601198E+01 -0.47246880803E+02  0.56648483464E+02  0.17770000000E+01 0. -1.
         15    1    1    2    0    0 -0.30087740655E+02 -0.95786079498E+01 -0.15666246612E+02  0.35293212944E+02  0.17770000000E+01 0.  1.
</event>
<event>
 6    1  0.1782050E-003  0.5368530E+03  0.7546771E-02  0.9320926E-01
        -11   -1    0    0    0    0  0.00000000000E+00  0.00000000000E+00  0.50000000000E+03  0.50000000000E+03  0.00000000000E+00 0.  1.
         11   -1    0    0    0    0 -0.00000000000E+00 -0.00000000000E+00 -0.50000000000E+03  0.50000000000E+03  0.00000000000E+00 0.  1.
        -11    1    1    2    0    0 -0.75656917643E+01  0.16955078046E+02  0.46277468174E+03  0.46314697497E+03  0.00000000000E+00 0.  1.
         11    1    1    2    0    0 -0.37946182759E+01 -0.23051286376E+01 -0.31192466425E+03  0.31195626121E+03  0.00000000000E+00 0.  1.
        -15    1    1    2    0    0  0.20645738123E+02 -0.27254923784E+02  0.28688372844E+02  0.44668309108E+02  0.17770000000E+01 0.  1.
         15    1    1    2    0    0 -0.92854280827E+01  0.12604974376E+02 -0.17953839034E+03  0.18022845471E+03  0.17770000000E+01 0. -1.
</event>
<event>
 6    1  0.1782050E-003  0.5007217E+03  0.7546771E-02  0.9398196E-01
        -11   -1    0    0    0    0  0.00000000000E+00  0.00000000000E+00  0.50000000000E+03  0.50000000000E+03  0.00000000000E+00 0. -1.
         11   -1    0    0    0    0 -0.00000000000E+00 -0.00000000000E+00 -0.50000000000E+03  0.50000000000E+03  0.00000000000E+00 0. -1.
        -11    1    1    2    0    0 -0.37033511100E+01 -0.42781743846E+01  0.41796666593E+03  0.41800496578E+03  0.00000000000E+00 0. -1.
         11    1    1    2    0    0 -0.43600095884E+01 -0.52979262248E+01 -0.49923112367E+03  0.49927827166E+03  0.00000000000E+00 0. -1.
        -15    1    1    2    0    0  0.30327881486E+01  0.25191985972E+01  0.98642736982E+01  0.10770598410E+02  0.17770000000E+01 0.  1.
         15    1    1    2    0    0  0.50305725498E+01  0.70569020123E+01  0.71400184041E+02  0.71946164153E+02  0.17770000000E+01 0. -1.
</event>
<event>
 6    1  0.1782050E-003  0.5008818E+03  0.7546771E-02  0.9397839E-01
        -11   -1    0    0    0    0  0.00000000000E+00  0.00000000000E+00  0.50000000000E+03  0.50000000000E+03  0.00000000000E+00 0.  1.
         11   -1    0    0    0    0 -0.00000000000E+00 -0.00000000000E+00 -0.50000000000E+03  0.50000000000E+03  0.00000000000E+00 0. -1.
        -11    1    1    2    0    0  0.55658208493E+01 -0.27529754497E+01  0.45876590753E+03  0.45880792838E+03  0.00000000000E+00 0.  1.
         11    1    1    2    0    0 -0.51590868919E+01  0.56499773945E+01 -0.49905958669E+03  0.49911823197E+03  0.00000000000E+00 0. -1.
        -15    1    1    2    0    0 -0.56429774313E+01 -0.28610454844E+01  0.22624973505E+02  0.23560049462E+02  0.17770000000E+01 0. -1.
         15    1    1    2    0    0  0.52362434739E+01 -0.35956460441E-01  0.17668705653E+02  0.18513790185E+02  0.17770000000E+01 0.  1.
</event>
<event>
 6    1  0.1782050E-003  0.4735545E+03  0.7546771E-02  0.9461009E-01
        -11   -1    0    0    0    0  0.00000000000E+00  0.00000000000E+00  0.50000000000E+03  0.50000000000E+03  0.00000000000E+00 0.  1.
         11   -1    0    0    0    0 -0.00000000000E+00 -0.00000000000E+00 -0.50000000000E+03  0.50000000000E+03  0.00000000000E+00 0.  1.
        -11    1    1    2    0    0 -0.11089027005E+02  0.73751456242E+01  0.47166335557E+03  0.47185133281E+03  0.00000000000E+00 0.  1.
         11    1    1    2    0    0  0.70775549623E+01  0.48169458555E+01 -0.47527437849E+03  0.47535148006E+03  0.00000000000E+00 0.  1.
        -15    1    1    2    0    0  0.45335391820E+01 -0.13273392363E+02 -0.22513492760E+02  0.26584789027E+02  0.17770000000E+01 0.  1.
         15    1    1    2    0    0 -0.52206713924E+00  0.10813008834E+01  0.26124515680E+02  0.26212398101E+02  0.17770000000E+01 0. -1.
</event>
<event>
 6    1  0.1782050E-003  0.5036260E+03  0.7546771E-02  0.9391733E-01
        -11   -1    0    0    0    0  0.00000000000E+00  0.00000000000E+00  0.50000000000E+03  0.50000000000E+03  0.00000000000E+00 0.  1.
         11   -1    0    0    0    0 -0.00000000000E+00 -0.00000000000E+00 -0.50000000000E+03  0.50000000000E+03  0.00000000000E+00 0.  1.
        -11    1    1    2    0    0  0.30240353596E+01 -0.45781517513E+01  0.29993100726E+03  0.29998118838E+03  0.00000000000E+00 0.  1.
         11    1    1    2    0    0 -0.11862019258E+02 -0.48952614071E+00 -0.49623198463E+03  0.49637398170E+03  0.00000000000E+00 0.  1.
        -15    1    1    2    0    0  0.12773182572E+02 -0.29791838459E+01  0.87387703735E+01  0.15860440286E+02  0.17770000000E+01 0. -1.
         15    1    1    2    0    0 -0.39351986741E+01  0.80468617378E+01  0.18756220699E+03  0.18778438964E+03  0.17770000000E+01 0.  1.
</event>
<event>
 6    1  0.1782050E-003  0.5007891E+03  0.7546771E-02  0.9398046E-01
        -11   -1    0    0    0    0  0.00000000000E+00  0.00000000000E+00  0.50000000000E+03  0.50000000000E+03  0.00000000000E+00 0.  1.
         11   -1    0    0    0    0 -0.00000000000E+00 -0.00000000000E+00 -0.50000000000E+03  0.50000000000E+03  0.00000000000E+00 0. -1.
        -11    1    1    2    0    0  0.10137666006E+02 -0.66593096691E+01  0.43115846881E+03  0.43132904366E+03  0.00000000000E+00 0.  1.
         11    1    1    2    0    0 -0.49258074572E+01  0.72844238873E+01 -0.49913344832E+03  0.49921090297E+03  0.00000000000E+00 0. -1.
        -15    1    1    2    0    0  0.23071757111E+01 -0.46987641940E+01  0.28335507665E+02  0.28869710222E+02  0.17770000000E+01 0.  1.
         15    1    1    2    0    0 -0.75190342598E+01  0.40736499757E+01  0.39639471841E+02  0.40590343151E+02  0.17770000000E+01 0. -1.
</event>
<event>
 6    1  0.1782050E-003  0.5060019E+03  0.7546771E-02  0.9386479E-01
        -11   -1    0    0    0    0  0.00000000000E+00  0.00000000000E+00  0.50000000000E+03  0.50000000000E+03  0.00000000000E+00 0.  1.
         11   -1    0    0    0    0 -0.00000000000E+00 -0.00000000000E+00 -0.50000000000E+03  0.50000000000E+03  0.00000000000E+00 0. -1.
        -11    1    1    2    0    0 -0.20246313895E+02 -0.26218451552E+01  0.49357604205E+03  0.49399807346E+03  0.00000000000E+00 0.  1.
         11    1    1    2    0    0 -0.88964055991E+01  0.33609726261E+01 -0.38336049780E+03  0.38347843934E+03  0.00000000000E+00 0. -1.
        -15    1    1    2    0    0  0.80151907047E+01  0.47005316177E+01 -0.95907953402E+02  0.96373396404E+02  0.17770000000E+01 0. -1.
         15    1    1    2    0    0  0.21127528790E+02 -0.54396590885E+01 -0.14307590849E+02  0.26150090797E+02  0.17770000000E+01 0.  1.
</event>
<event>
 6    1  0.1782050E-003  0.5303931E+03  0.7546771E-02  0.9334258E-01
        -11   -1    0    0    0    0  0.00000000000E+00  0.00000000000E+00  0.50000000000E+03  0.50000000000E+03  0.00000000000E+00 0.  1.
         11   -1    0    0    0    0 -0.00000000000E+00 -0.00000000000E+00 -0.50000000000E+03  0.50000000000E+03  0.00000000000E+00 0. -1.
        -11    1    1    2    0    0  0.30739388432E+02  0.39105389506E+02  0.25524368369E+03  0.26004514907E+03  0.00000000000E+00 0.  1.
         11    1    1    2    0    0  0.21143860873E+02  0.74869516340E+01 -0.46907089636E+03  0.46960688145E+03  0.00000000000E+00 0. -1.
        -15    1    1    2    0    0 -0.37900846650E+02  0.53631804009E+01  0.21309143464E+03  0.21650948046E+03  0.17770000000E+01 0.  1.
         15    1    1    2    0    0 -0.13982402655E+02 -0.51955521541E+02  0.73577802583E+00  0.53838489029E+02  0.17770000000E+01 0. -1.
</event>
<event>
 6    1  0.1782050E-003  0.5008010E+03  0.7546771E-02  0.9398019E-01
        -11   -1    0    0    0    0  0.00000000000E+00  0.00000000000E+00  0.50000000000E+03  0.50000000000E+03  0.00000000000E+00 0. -1.
         11   -1    0    0    0    0 -0.00000000000E+00 -0.00000000000E+00 -0.50000000000E+03  0.50000000000E+03  0.00000000000E+00 0. -1.
        -11    1    1    2    0    0  0.17896697026E+01 -0.31374885254E+01  0.14605660578E+03  0.14610126230E+03  0.00000000000E+00 0. -1.
         11    1    1    2    0    0  0.13941263045E+02 -0.70207805710E+01 -0.49895487061E+03  0.49919897143E+03  0.00000000000E+00 0. -1.
        -15    1    1    2    0    0 -0.24846625188E+02  0.67406766105E+01  0.25645794152E+03  0.25775303102E+03  0.17770000000E+01 0. -1.
         15    1    1    2    0    0  0.91156924405E+01  0.34175924858E+01  0.96440323304E+02  0.96946735247E+02  0.17770000000E+01 0.  1.
</event>
<event>
 6    1  0.1782050E-003  0.5028157E+03  0.7546771E-02  0.9393531E-01
        -11   -1    0    0    0    0  0.00000000000E+00  0.00000000000E+00  0.50000000000E+03  0.50000000000E+03  0.00000000000E+00 0.  1.
         11   -1    0    0    0    0 -0.00000000000E+00 -0.00000000000E+00 -0.50000000000E+03  0.50000000000E+03  0.00000000000E+00 0. -1.
        -11    1    1    2    0    0  0.30300206513E+01  0.59768100730E+01  0.49713912068E+03  0.49718428032E+03  0.00000000000E+00 0.  1.
         11    1    1    2    0    0  0.39174698875E+01  0.65781007667E+01 -0.33430636326E+03  0.33439402281E+03  0.00000000000E+00 0. -1.
        -15    1    1    2    0    0  0.12774905686E+02  0.22481704880E+00 -0.21010932838E+02  0.24654934308E+02  0.17770000000E+01 0.  1.
         15    1    1    2    0    0 -0.19722396225E+02 -0.12779727889E+02 -0.14182182459E+03  0.14376676256E+03  0.17770000000E+01 0. -1.
</event>
<event>
 6    1  0.1782050E-003  0.5359724E+03  0.7546771E-02  0.9322731E-01
        -11   -1    0    0    0    0  0.00000000000E+00  0.00000000000E+00  0.50000000000E+03  0.50000000000E+03  0.00000000000E+00 0. -1.
         11   -1    0    0    0    0 -0.00000000000E+00 -0.00000000000E+00 -0.50000000000E+03  0.50000000000E+03  0.00000000000E+00 0.  1.
        -11    1    1    2    0    0  0.19788797295E+02  0.11797398726E+02  0.43483961714E+03  0.43544950081E+03  0.00000000000E+00 0. -1.
         11    1    1    2    0    0  0.73877128167E+01  0.10934741225E+02 -0.46383991190E+03  0.46402759695E+03  0.00000000000E+00 0.  1.
        -15    1    1    2    0    0 -0.27301353764E+02  0.17763307645E+01 -0.27548100726E+02  0.38866114431E+02  0.17770000000E+01 0.  1.
         15    1    1    2    0    0  0.12484365198E+00 -0.24508470715E+02  0.56548395480E+02  0.61656787811E+02  0.17770000000E+01 0. -1.
</event>
<event>
 6    1  0.1782050E-003  0.5108940E+03  0.7546771E-02  0.9375758E-01
        -11   -1    0    0    0    0  0.00000000000E+00  0.00000000000E+00  0.50000000000E+03  0.50000000000E+03  0.00000000000E+00 0.  1.
         11   -1    0    0    0    0 -0.00000000000E+00 -0.00000000000E+00 -0.50000000000E+03  0.50000000000E+03  0.00000000000E+00 0.  1.
        -11    1    1    2    0    0 -0.10445383559E+02 -0.32341449385E+01  0.46608837068E+03  0.46621661812E+03  0.00000000000E+00 0.  1.
         11    1    1    2    0    0  0.20818478088E+01  0.85111802110E+01 -0.48902755682E+03  0.48910604741E+03  0.00000000000E+00 0.  1.
        -15    1    1    2    0    0  0.15891353927E+02 -0.11778424678E+00  0.29322588292E+02  0.33399414904E+02  0.17770000000E+01 0. -1.
         15    1    1    2    0    0 -0.75278181772E+01 -0.51592510257E+01 -0.63834021489E+01  0.11277919562E+02  0.17770000000E+01 0.  1.
</event>
<event>
 6    1  0.1782050E-003  0.5004932E+03  0.7546771E-02  0.9398707E-01
        -11   -1    0    0    0    0  0.00000000000E+00  0.00000000000E+00  0.50000000000E+03  0.50000000000E+03  0.00000000000E+00 0. -1.
         11   -1    0    0    0    0 -0.00000000000E+00 -0.00000000000E+00 -0.50000000000E+03  0.50000000000E+03  0.00000000000E+00 0.  1.
        -11    1    1    2    0    0 -0.12951521417E+02  0.17883478633E+01  0.49933561350E+03  0.49950675171E+03  0.00000000000E+00 0. -1.
         11    1    1    2    0    0  0.85718566602E+00  0.42852686553E+01 -0.16654944393E+03  0.16660676928E+03  0.00000000000E+00 0.  1.
        -15    1    1    2    0    0  0.13109813607E+02 -0.22926182696E+01 -0.84256801323E+02  0.85319925044E+02  0.17770000000E+01 0. -1.
         15    1    1    2    0    0 -0.10154778563E+01 -0.37809982491E+01 -0.24852936824E+03  0.24856655397E+03  0.17770000000E+01 0.  1.
</event>
<event>
 6    1  0.1782050E-003  0.4311065E+03  0.7546771E-02  0.9568708E-01
        -11   -1    0    0    0    0  0.00000000000E+00  0.00000000000E+00  0.50000000000E+03  0.50000000000E+03  0.00000000000E+00 0. -1.
         11   -1    0    0    0    0 -0.00000000000E+00 -0.00000000000E+00 -0.50000000000E+03  0.50000000000E+03  0.00000000000E+00 0.  1.
        -11    1    1    2    0    0  0.90781046776E+00 -0.10908846223E+02  0.42989205330E+03  0.43003139948E+03  0.00000000000E+00 0. -1.
         11    1    1    2    0    0  0.78871721326E+01 -0.77005005861E+01 -0.43229007732E+03  0.43243059113E+03  0.00000000000E+00 0.  1.
        -15    1    1    2    0    0  0.33878260950E+02  0.61426514099E+02 -0.20128508436E+02  0.73001834088E+02  0.17770000000E+01 0.  1.
         15    1    1    2    0    0 -0.42673243550E+02 -0.42817167290E+02  0.22526532453E+02  0.64536175306E+02  0.17770000000E+01 0. -1.
</event>
<event>
 6    1  0.1782050E-003  0.6075992E+03  0.7546771E-02  0.9186780E-01
        -11   -1    0    0    0    0  0.00000000000E+00  0.00000000000E+00  0.50000000000E+03  0.50000000000E+03  0.00000000000E+00 0.  1.
         11   -1    0    0    0    0 -0.00000000000E+00 -0.00000000000E+00 -0.50000000000E+03  0.50000000000E+03  0.00000000000E+00 0.  1.
        -11    1    1    2    0    0 -0.11891110399E+02  0.10619349236E+01  0.39221916088E+03  0.39240081088E+03  0.00000000000E+00 0.  1.
         11    1    1    2    0    0  0.14711836035E+02  0.33598883135E+01 -0.24069154451E+03  0.24116414860E+03  0.00000000000E+00 0.  1.
        -15    1    1    2    0    0  0.19679942994E+02 -0.42031471209E+01  0.10600615945E+03  0.10791399433E+03  0.17770000000E+01 0. -1.
         15    1    1    2    0    0 -0.22500668630E+02 -0.21867611618E+00 -0.25753377582E+03  0.25852104620E+03  0.17770000000E+01 0.  1.
</event>
<event>
 6    1  0.1782050E-003  0.4857593E+03  0.7546771E-02  0.9432251E-01
        -11   -1    0    0    0    0  0.00000000000E+00  0.00000000000E+00  0.50000000000E+03  0.50000000000E+03  0.00000000000E+00 0.  1.
         11   -1    0    0    0    0 -0.00000000000E+00 -0.00000000000E+00 -0.50000000000E+03  0.50000000000E+03  0.00000000000E+00 0.  1.
        -11    1    1    2    0    0  0.37769058936E+01 -0.64072250729E+01  0.48657121449E+03  0.48662805542E+03  0.00000000000E+00 0.  1.
         11    1    1    2    0    0 -0.52175944965E+01 -0.46210869297E+01 -0.48490549742E+03  0.48495558473E+03  0.00000000000E+00 0.  1.
        -15    1    1    2    0    0  0.48195376155E+01  0.71640092990E+01 -0.13081265790E+02  0.15774289706E+02  0.17770000000E+01 0.  1.
         15    1    1    2    0    0 -0.33788490127E+01  0.38643027036E+01  0.11415548720E+02  0.12642070148E+02  0.17770000000E+01 0. -1.
</event>
<event>
 6    1  0.1782050E-003  0.5056408E+03  0.7546771E-02  0.9387276E-01
        -11   -1    0    0    0    0  0.00000000000E+00  0.00000000000E+00  0.50000000000E+03  0.50000000000E+03  0.00000000000E+00 0.  1.
         11   -1    0    0    0    0 -0.00000000000E+00 -0.00000000000E+00 -0.50000000000E+03  0.50000000000E+03  0.00000000000E+00 0. -1.
        -11    1    1    2    0    0 -0.35837710126E+01  0.91237327587E+01  0.43815808997E+03  0.43826772379E+03  0.00000000000E+00 0.  1.
         11    1    1    2    0    0  0.23950686971E+02  0.14393677599E+02 -0.49356884650E+03  0.49435920098E+03  0.00000000000E+00 0. -1.
        -15    1    1    2    0    0 -0.15905145791E+02 -0.27622822432E+02  0.47818315056E+02  0.57495590836E+02  0.17770000000E+01 0. -1.
         15    1    1    2    0    0 -0.44617701672E+01  0.41054120743E+01  0.75924414737E+01  0.98774843890E+01  0.17770000000E+01 0.  1.
</event>
<event>
 6    1  0.1782050E-003  0.5003018E+03  0.7546771E-02  0.9399135E-01
        -11   -1    0    0    0    0  0.00000000000E+00  0.00000000000E+00  0.50000000000E+03  0.50000000000E+03  0.00000000000E+00 0.  1.
         11   -1    0    0    0    0 -0.00000000000E+00 -0.00000000000E+00 -0.50000000000E+03  0.50000000000E+03  0.00000000000E+00 0.  1.
        -11    1    1    2    0    0 -0.65229754705E+01  0.21750297364E+01  0.49965088933E+03  0.49969820008E+03  0.00000000000E+00 0.  1.
         11    1    1    2    0    0 -0.22916069440E+00  0.50057739086E+01 -0.23843280255E+03  0.23848545368E+03  0.00000000000E+00 0.  1.
        -15    1    1    2    0    0  0.94022962687E+01 -0.87339966756E+01 -0.15551458824E+03  0.15605329460E+03  0.17770000000E+01 0. -1.
         15    1    1    2    0    0 -0.26501601038E+01  0.15531930305E+01 -0.10570349854E+03  0.10576305163E+03  0.17770000000E+01 0.  1.
</event>
<event>
 6    1  0.1782050E-003  0.5050405E+03  0.7546771E-02  0.9388601E-01
        -11   -1    0    0    0    0  0.00000000000E+00  0.00000000000E+00  0.50000000000E+03  0.50000000000E+03  0.00000000000E+00 0. -1.
         11   -1    0    0    0    0 -0.00000000000E+00 -0.00000000000E+00 -0.50000000000E+03  0.50000000000E+03  0.00000000000E+00 0.  1.
        -11    1    1    2    0    0  0.40986472054E+01 -0.13027132005E+02  0.49477107640E+03  0.49495951665E+03  0.00000000000E+00 0. -1.
         11    1    1    2    0    0 -0.64301263978E+01  0.10333114274E+01 -0.42079034707E+03  0.42084074238E+03  0.00000000000E+00 0.  1.
        -15    1    1    2    0    0  0.86459070692E+01  0.13489156758E+02 -0.82189508092E+01  0.18094693711E+02  0.17770000000E+01 0.  1.
         15    1    1    2    0    0 -0.63144278768E+01 -0.14953361803E+01 -0.65761778520E+02  0.66105047257E+02  0.17770000000E+01 0. -1.
</event>
<event>
 6    1  0.1782050E-003  0.5047031E+03  0.7546771E-02  0.9389347E-01
        -11   -1    0    0    0    0  0.00000000000E+00  0.00000000000E+00  0.50000000000E+03  0.50000000000E+03  0.00000000000E+00 0. -1.
         11   -1    0    0    0    0 -0.00000000000E+00 -0.00000000000E+00 -0.50000000000E+03  0.50000000000E+03  0.00000000000E+00 0.  1.
        -11    1    1    2    0    0 -0.26729723905E+01 -0.61719565790E+01  0.46761692301E+03  0.46766529112E+03  0.00000000000E+00 0. -1.
         11    1    1    2    0    0 -0.78210004801E+01 -0.12423277188E+01 -0.49523358223E+03  0.49529689318E+03  0.00000000000E+00 0.  1.
        -15    1    1    2    0    0  0.87868257833E+01  0.10095210789E+02  0.54264064004E+01  0.14550780173E+02  0.17770000000E+01 0.  1.
         15    1    1    2    0    0  0.17071470873E+01 -0.26809264916E+01  0.22190252814E+02  0.22487035531E+02  0.17770000000E+01 0. -1.
</event>
<event>
 6    1  0.1782050E-003  0.5017307E+03  0.7546771E-02  0.9395945E-01
        -11   -1    0    0    0    0  0.00000000000E+00  0.00000000000E+00  0.50000000000E+03  0.50000000000E+03  0.00000000000E+00 0. -1.
         11   -1    0    0    0    0 -0.00000000000E+00 -0.00000000000E+00 -0.50000000000E+03  0.50000000000E+03  0.00000000000E+00 0. -1.
        -11    1    1    2    0    0  0.75330519716E+01 -0.15896774637E+01  0.49820981782E+03  0.49826930120E+03  0.00000000000E+00 0. -1.
         11    1    1    2    0    0  0.59294319504E+01  0.31672873652E+01 -0.26239988481E+03  0.26248597947E+03  0.00000000000E+00 0. -1.
        -15    1    1    2    0    0 -0.95294051372E+01 -0.33683689024E+01 -0.13860278287E+02  0.17245883988E+02  0.17770000000E+01 0. -1.
         15    1    1    2    0    0 -0.39330787848E+01  0.17907590010E+01 -0.22194965473E+03  0.22199883533E+03  0.17770000000E+01 0.  1.
</event>
<event>
 6    1  0.1782050E-003  0.5327874E+03  0.7546771E-02  0.9329293E-01
        -11   -1    0    0    0    0  0.00000000000E+00  0.00000000000E+00  0.50000000000E+03  0.50000000000E+03  0.00000000000E+00 0.  1.
         11   -1    0    0    0    0 -0.00000000000E+00 -0.00000000000E+00 -0.50000000000E+03  0.50000000000E+03  0.00000000000E+00 0.  1.
        -11    1    1    2    0    0 -0.58477242901E+01 -0.55728537848E+01  0.46714278701E+03  0.46721262401E+03  0.00000000000E+00 0.  1.
         11    1    1    2    0    0  0.23573909393E+02  0.26772367073E+02 -0.32308107214E+03  0.32504440930E+03  0.00000000000E+00 0.  1.
        -15    1    1    2    0    0  0.19362688126E+02  0.37776677371E+02 -0.12984038234E+03  0.13661505649E+03  0.17770000000E+01 0. -1.
         15    1    1    2    0    0 -0.37088873228E+02 -0.58976190660E+02 -0.14221332528E+02  0.71127910204E+02  0.17770000000E+01 0.  1.
</event>
<event>
 6    1  0.1782050E-003  0.5011507E+03  0.7546771E-02  0.9397239E-01
        -11   -1    0    0    0    0  0.00000000000E+00  0.00000000000E+00  0.50000000000E+03  0.50000000000E+03  0.00000000000E+00 0. -1.
         11   -1    0    0    0    0 -0.00000000000E+00 -0.00000000000E+00 -0.50000000000E+03  0.50000000000E+03  0.00000000000E+00 0.  1.
        -11    1    1    2    0    0 -0.43896929671E+01  0.32540615512E+01  0.37904517244E+03  0.37908455662E+03  0.00000000000E+00 0. -1.
         11    1    1    2    0    0 -0.99071006701E+01 -0.54737333130E+01 -0.49872088732E+03  0.49884931176E+03  0.00000000000E+00 0.  1.
        -15    1    1    2    0    0  0.15353392620E+02  0.75728320133E+01  0.10306200471E+03  0.10448927693E+03  0.17770000000E+01 0. -1.
         15    1    1    2    0    0 -0.10565989824E+01 -0.53531602516E+01  0.16613710170E+02  0.17576854687E+02  0.17770000000E+01 0.  1.
</event>
<event>
 6    1  0.1782050E-003  0.5042880E+03  0.7546771E-02  0.9390266E-01
        -11   -1    0    0    0    0  0.00000000000E+00  0.00000000000E+00  0.50000000000E+03  0.50000000000E+03  0.00000000000E+00 0. -1.
         11   -1    0    0    0    0 -0.00000000000E+00 -0.00000000000E+00 -0.50000000000E+03  0.50000000000E+03  0.00000000000E+00 0.  1.
        -11    1    1    2    0    0  0.25177626649E+01 -0.74324063251E+01  0.28807712989E+03  0.28818399081E+03  0.00000000000E+00 0. -1.
         11    1    1    2    0    0  0.42685529848E+01 -0.72272166619E+01 -0.49564096591E+03  0.49571203363E+03  0.00000000000E+00 0.  1.
        -15    1    1    2    0    0 -0.58650234854E+00  0.72391630827E+01 -0.78962037451E+00  0.75186898113E+01  0.17770000000E+01 0.  1.
         15    1    1    2    0    0 -0.61998133012E+01  0.74204599043E+01  0.20835345639E+03  0.20858528574E+03  0.17770000000E+01 0.  1.
</event>
<event>
 6    1  0.1782050E-003  0.5004131E+03  0.7546771E-02  0.9398886E-01
        -11   -1    0    0    0    0  0.00000000000E+00  0.00000000000E+00  0.50000000000E+03  0.50000000000E+03  0.00000000000E+00 0.  1.
         11   -1    0    0    0    0 -0.00000000000E+00 -0.00000000000E+00 -0.50000000000E+03  0.50000000000E+03  0.00000000000E+00 0. -1.
        -11    1    1    2    0    0  0.63211314766E+01 -0.73533533860E+01  0.49949275536E+03  0.49958687049E+03  0.00000000000E+00 0.  1.
         11    1    1    2    0    0  0.11802967206E+01  0.89210359824E+01 -0.36909804013E+03  0.36920772095E+03  0.00000000000E+00 0. -1.
        -15    1    1    2    0    0 -0.27668286756E+01  0.21010145771E+01 -0.11449289894E+02  0.12096014684E+02  0.17770000000E+01 0.  1.
         15    1    1    2    0    0 -0.47345995217E+01 -0.36686971734E+01 -0.11894542534E+03  0.11910939388E+03  0.17770000000E+01 0. -1.
</event>
<event>
 6    1  0.1782050E-003  0.5118440E+03  0.7546771E-02  0.9373691E-01
        -11   -1    0    0    0    0  0.00000000000E+00  0.00000000000E+00  0.50000000000E+03  0.50000000000E+03  0.00000000000E+00 0.  1.
         11   -1    0    0    0    0 -0.00000000000E+00 -0.00000000000E+00 -0.50000000000E+03  0.50000000000E+03  0.00000000000E+00 0. -1.
        -11    1    1    2    0    0 -0.64403789406E+01 -0.58272535168E+00  0.47014861981E+03  0.47019309093E+03  0.00000000000E+00 0.  1.
         11    1    1    2    0    0  0.13335520702E+01 -0.72158056069E+01 -0.48810083007E+03  0.48815598586E+03  0.00000000000E+00 0. -1.
        -15    1    1    2    0    0  0.38122309923E+01  0.30563046717E+01 -0.11033789226E+02  0.12197390584E+02  0.17770000000E+01 0. -1.
         15    1    1    2    0    0  0.12945958782E+01  0.47422262869E+01  0.28985999489E+02  0.29453532623E+02  0.17770000000E+01 0.  1.
</event>
<event>
 6    1  0.1782050E-003  0.5346690E+03  0.7546771E-02  0.9325411E-01
        -11   -1    0    0    0    0  0.00000000000E+00  0.00000000000E+00  0.50000000000E+03  0.50000000000E+03  0.00000000000E+00 0.  1.
         11   -1    0    0    0    0 -0.00000000000E+00 -0.00000000000E+00 -0.50000000000E+03  0.50000000000E+03  0.00000000000E+00 0. -1.
        -11    1    1    2    0    0 -0.92764777670E+02  0.55883017281E+00  0.45599044658E+03  0.46533096140E+03  0.00000000000E+00 0.  1.
         11    1    1    2    0    0  0.12563011547E+01  0.44928445656E+01 -0.28330768776E+03  0.28334609559E+03  0.00000000000E+00 0. -1.
        -15    1    1    2    0    0 -0.37704382710E+02 -0.27921659147E+02 -0.71829474033E+02  0.85812997815E+02  0.17770000000E+01 0. -1.
         15    1    1    2    0    0  0.12921285923E+03  0.22869984409E+02 -0.10085328479E+03  0.16550994519E+03  0.17770000000E+01 0.  1.
</event>
<event>
 6    1  0.1782050E-003  0.5101188E+03  0.7546771E-02  0.9377449E-01
        -11   -1    0    0    0    0  0.00000000000E+00  0.00000000000E+00  0.50000000000E+03  0.50000000000E+03  0.00000000000E+00 0. -1.
         11   -1    0    0    0    0 -0.00000000000E+00 -0.00000000000E+00 -0.50000000000E+03  0.50000000000E+03  0.00000000000E+00 0. -1.
        -11    1    1    2    0    0 -0.79104091955E+01  0.47875290235E+01  0.48979396862E+03  0.48988123735E+03  0.00000000000E+00 0. -1.
         11    1    1    2    0    0 -0.12180055783E+01 -0.10168843161E+02 -0.46149272638E+03  0.46160635331E+03  0.00000000000E+00 0. -1.
        -15    1    1    2    0    0  0.11620128163E+02  0.88288695748E+01 -0.36364772513E+02  0.39224108982E+02  0.17770000000E+01 0.  1.
         15    1    1    2    0    0 -0.24917133896E+01 -0.34475554370E+01  0.80635302734E+01  0.92883003600E+01  0.17770000000E+01 0. -1.
</event>
<event>
 6    1  0.1782050E-003  0.5130156E+03  0.7546771E-02  0.9371148E-01
        -11   -1    0    0    0    0  0.00000000000E+00  0.00000000000E+00  0.50000000000E+03  0.50000000000E+03  0.00000000000E+00 0.  1.
         11   -1    0    0    0    0 -0.00000000000E+00 -0.00000000000E+00 -0.50000000000E+03  0.50000000000E+03  0.00000000000E+00 0. -1.
        -11    1    1    2    0    0 -0.16200396595E+02  0.67095845217E+01  0.48666856868E+03  0.48698436024E+03  0.00000000000E+00 0.  1.
         11    1    1    2    0    0 -0.10236698755E+02  0.26166694733E+02 -0.26776874788E+03  0.26923890554E+03  0.00000000000E+00 0. -1.
        -15    1    1    2    0    0  0.11736510192E+02  0.39862620114E+01  0.70441318334E+01  0.14367097083E+02  0.17770000000E+01 0.  1.
         15    1    1    2    0    0  0.14700585158E+02 -0.36862541266E+02 -0.22594395263E+03  0.22940963714E+03  0.17770000000E+01 0. -1.
</event>
<event>
 6    1  0.1782050E-003  0.4911723E+03  0.7546771E-02  0.9419782E-01
        -11   -1    0    0    0    0  0.00000000000E+00  0.00000000000E+00  0.50000000000E+03  0.50000000000E+03  0.00000000000E+00 0. -1.
         11   -1    0    0    0    0 -0.00000000000E+00 -0.00000000000E+00 -0.50000000000E+03  0.50000000000E+03  0.00000000000E+00 0. -1.
        -11    1    1    2    0    0 -0.73608065047E+01  0.66111450770E+01  0.49290187943E+03  0.49300116780E+03  0.00000000000E+00 0. -1.
         11    1    1    2    0    0 -0.77326400076E+01 -0.77904054076E+01 -0.48934350189E+03  0.48946659434E+03  0.00000000000E+00 0. -1.
        -15    1    1    2    0    0  0.85390850213E+01 -0.20977296164E+01 -0.43140814787E+01  0.99541685011E+01  0.17770000000E+01 0. -1.
         15    1    1    2    0    0  0.65543614910E+01  0.32769899471E+01  0.75570394199E+00  0.75780693528E+01  0.17770000000E+01 0.  1.
</event>
<event>
 6    1  0.1782050E-003  0.5042270E+03  0.7546771E-02  0.9390401E-01
        -11   -1    0    0    0    0  0.00000000000E+00  0.00000000000E+00  0.50000000000E+03  0.50000000000E+03  0.00000000000E+00 0.  1.
         11   -1    0    0    0    0 -0.00000000000E+00 -0.00000000000E+00 -0.50000000000E+03  0.50000000000E+03  0.00000000000E+00 0. -1.
        -11    1    1    2    0    0  0.71595413826E+01  0.22360988294E+01  0.35053364416E+03  0.35061388287E+03  0.00000000000E+00 0.  1.
         11    1    1    2    0    0 -0.11011610530E+02  0.15540142773E+01 -0.49564824986E+03  0.49577299050E+03  0.00000000000E+00 0. -1.
        -15    1    1    2    0    0  0.25652868945E+02 -0.70414919807E+01  0.98087448004E+02  0.10164623692E+03  0.17770000000E+01 0.  1.
         15    1    1    2    0    0 -0.21800799798E+02  0.32513788741E+01  0.47027157690E+02  0.51966889707E+02  0.17770000000E+01 0. -1.
</event>
<event>
 6    1  0.1782050E-003  0.4893041E+03  0.7546771E-02  0.9424066E-01
        -11   -1    0    0    0    0  0.00000000000E+00  0.00000000000E+00  0.50000000000E+03  0.50000000000E+03  0.00000000000E+00 0. -1.
         11   -1    0    0    0    0 -0.00000000000E+00 -0.00000000000E+00 -0.50000000000E+03  0.50000000000E+03  0.00000000000E+00 0.  1.
        -11    1    1    2    0    0  0.95789736102E+01 -0.10564696324E+01  0.48916362046E+03  0.48925854151E+03  0.00000000000E+00 0. -1.
         11    1    1    2    0    0 -0.99818969900E+01  0.10503557634E+02 -0.48918083212E+03  0.48939539179E+03  0.00000000000E+00 0.  1.
        -15    1    1    2    0    0  0.47574124601E+01 -0.49178052958E+01 -0.82155230272E+01  0.10838373026E+02  0.17770000000E+01 0. -1.
         15    1    1    2    0    0 -0.43544890803E+01 -0.45292827058E+01  0.82327346849E+01  0.10507693675E+02  0.17770000000E+01 0.  1.
</event>
<event>
 6    1  0.1782050E-003  0.4829760E+03  0.7546771E-02  0.9438729E-01
        -11   -1    0    0    0    0  0.00000000000E+00  0.00000000000E+00  0.50000000000E+03  0.50000000000E+03  0.00000000000E+00 0. -1.
         11   -1    0    0    0    0 -0.00000000000E+00 -0.00000000000E+00 -0.50000000000E+03  0.50000000000E+03  0.00000000000E+00 0. -1.
        -11    1    1    2    0    0 -0.30490641736E+00  0.24526017889E+02  0.48061977002E+03  0.48124524087E+03  0.00000000000E+00 0. -1.
         11    1    1    2    0    0  0.97654687852E+01 -0.14158024440E+02 -0.48451146725E+03  0.48481664156E+03  0.00000000000E+00 0. -1.
        -15    1    1    2    0    0 -0.14744152147E+02  0.62712707145E+01  0.98436947487E+00  0.16150714262E+02  0.17770000000E+01 0.  1.
         15    1    1    2    0    0  0.52835897795E+01 -0.16639264163E+02  0.29073277499E+01  0.17787403310E+02  0.17770000000E+01 0. -1.
</event>
<event>
 6    1  0.1782050E-003  0.5135466E+03  0.7546771E-02  0.9369998E-01
        -11   -1    0    0    0    0  0.00000000000E+00  0.00000000000E+00  0.50000000000E+03  0.50000000000E+03  0.00000000000E+00 0. -1.
         11   -1    0    0    0    0 -0.00000000000E+00 -0.00000000000E+00 -0.50000000000E+03  0.50000000000E+03  0.00000000000E+00 0.  1.
        -11    1    1    2    0    0  0.93315455734E+01 -0.51149966226E+01  0.44839320093E+03  0.44851945730E+03  0.00000000000E+00 0. -1.
         11    1    1    2    0    0 -0.24037147705E+02  0.43965395477E+01 -0.48583922322E+03  0.48645335321E+03  0.00000000000E+00 0.  1.
        -15    1    1    2    0    0  0.50809490593E+01 -0.42843995436E+01 -0.12293516905E+02  0.14087597726E+02  0.17770000000E+01 0.  1.
         15    1    1    2    0    0  0.96246530722E+01  0.50028566185E+01  0.49739539195E+02  0.50939591768E+02  0.17770000000E+01 0. -1.
</event>
<event>
 6    1  0.1782050E-003  0.5226843E+03  0.7546771E-02  0.9350435E-01
        -11   -1    0    0    0    0  0.00000000000E+00  0.00000000000E+00  0.50000000000E+03  0.50000000000E+03  0.00000000000E+00 0. -1.
         11   -1    0    0    0    0 -0.00000000000E+00 -0.00000000000E+00 -0.50000000000E+03  0.50000000000E+03  0.00000000000E+00 0. -1.
        -11    1    1    2    0    0 -0.20304650347E+02 -0.15370997139E+02  0.45188226635E+03  0.45259930294E+03  0.00000000000E+00 0. -1.
         11    1    1    2    0    0 -0.12650585137E+02 -0.38259971698E+01 -0.47713264452E+03  0.47731565659E+03  0.00000000000E+00 0. -1.
        -15    1    1    2    0    0 -0.62108937979E+01  0.69600763513E+01  0.27358078269E+02  0.28959282452E+02  0.17770000000E+01 0. -1.
         15    1    1    2    0    0  0.39166129282E+02  0.12236917958E+02 -0.21077000965E+01  0.41125758020E+02  0.17770000000E+01 0.  1.
</event>
<event>
 6    1  0.1782050E-003  0.5045018E+03  0.7546771E-02  0.9389793E-01
        -11   -1    0    0    0    0  0.00000000000E+00  0.00000000000E+00  0.50000000000E+03  0.50000000000E+03  0.00000000000E+00 0.  1.
         11   -1    0    0    0    0 -0.00000000000E+00 -0.00000000000E+00 -0.50000000000E+03  0.50000000000E+03  0.00000000000E+00 0.  1.
        -11    1    1    2    0    0 -0.86016892536E+01  0.19653300129E+01  0.45706285865E+03  0.45714801578E+03  0.00000000000E+00 0.  1.
         11    1    1    2    0    0  0.74782865196E+01 -0.17957644091E+01 -0.49543848978E+03  0.49549818031E+03  0.00000000000E+00 0.  1.
        -15    1    1    2    0    0  0.36595548867E+01 -0.10264888604E+02  0.45921941227E+01  0.11958522311E+02  0.17770000000E+01 0.  1.
         15    1    1    2    0    0 -0.25361521527E+01  0.10095323000E+02  0.33783437005E+02  0.35395281593E+02  0.17770000000E+01 0. -1.
</event>
<event>
 6    1  0.1782050E-003  0.5233912E+03  0.7546771E-02  0.9348939E-01
        -11   -1    0    0    0    0  0.00000000000E+00  0.00000000000E+00  0.50000000000E+03  0.50000000000E+03  0.00000000000E+00 0. -1.
         11   -1    0    0    0    0 -0.00000000000E+00 -0.00000000000E+00 -0.50000000000E+03  0.50000000000E+03  0.00000000000E+00 0. -1.
        -11    1    1    2    0    0 -0.79387784601E+01 -0.83816009290E+01  0.47646898424E+03  0.47660882113E+03  0.00000000000E+00 0. -1.
         11    1    1    2    0    0 -0.44247001422E+01  0.92185872400E+01 -0.38115378770E+03  0.38129092593E+03  0.00000000000E+00 0. -1.
        -15    1    1    2    0    0  0.68039692319E+01  0.68943269423E+01  0.22147756705E+02  0.24238535380E+02  0.17770000000E+01 0. -1.
         15    1    1    2    0    0  0.55595093704E+01 -0.77313132533E+01 -0.11746295325E+03  0.11786171755E+03  0.17770000000E+01 0.  1.
</event>
<event>
 6    1  0.1782050E-003  0.5080854E+03  0.7546771E-02  0.9381898E-01
        -11   -1    0    0    0    0  0.00000000000E+00  0.00000000000E+00  0.50000000000E+03  0.50000000000E+03  0.00000000000E+00 0. -1.
         11   -1    0    0    0    0 -0.00000000000E+00 -0.00000000000E+00 -0.50000000000E+03  0.50000000000E+03  0.00000000000E+00 0. -1.
        -11    1    1    2    0    0 -0.29853986234E+01  0.15372938066E+02  0.49166526437E+03  0.49191459829E+03  0.00000000000E+00 0. -1.
         11    1    1    2    0    0  0.37101053487E+00 -0.14994936186E+02 -0.39474471947E+03  0.39502959295E+03  0.00000000000E+00 0. -1.
        -15    1    1    2    0    0 -0.10490372221E+02 -0.14380459850E+02 -0.42254826802E+01  0.18380913136E+02  0.17770000000E+01 0. -1.
         15    1    1    2    0    0  0.13104760310E+02  0.14002457970E+02 -0.92695062218E+02  0.94674895619E+02  0.17770000000E+01 0.  1.
</event>
<event>
 6    1  0.1782050E-003  0.4870120E+03  0.7546771E-02  0.9429350E-01
        -11   -1    0    0    0    0  0.00000000000E+00  0.00000000000E+00  0.50000000000E+03  0.50000000000E+03  0.00000000000E+00 0. -1.
         11   -1    0    0    0    0 -0.00000000000E+00 -0.00000000000E+00 -0.50000000000E+03  0.50000000000E+03  0.00000000000E+00 0.  1.
        -11    1    1    2    0    0  0.12370511080E+02  0.78140072252E+01  0.48800031792E+03  0.48821962122E+03  0.00000000000E+00 0. -1.
         11    1    1    2    0    0 -0.53794089500E+01 -0.17907462092E+02 -0.48552496135E+03  0.48588486634E+03  0.00000000000E+00 0.  1.
        -15    1    1    2    0    0 -0.63588855355E+01  0.57229637834E+00 -0.11088978777E+02  0.12918441381E+02  0.17770000000E+01 0. -1.
         15    1    1    2    0    0 -0.63221659484E+00  0.95211584881E+01  0.86136222041E+01  0.12977071058E+02  0.17770000000E+01 0.  1.
</event>
<event>
 6    1  0.1782050E-003  0.5006732E+03  0.7546771E-02  0.9398305E-01
        -11   -1    0    0    0    0  0.00000000000E+00  0.00000000000E+00  0.50000000000E+03  0.50000000000E+03  0.00000000000E+00 0.  1.
         11   -1    0    0    0    0 -0.00000000000E+00 -0.00000000000E+00 -0.50000000000E+03  0.50000000000E+03  0.00000000000E+00 0. -1.
        -11    1    1    2    0    0 -0.84035304678E+01 -0.15014628877E+02  0.49903029222E+03  0.49932683781E+03  0.00000000000E+00 0.  1.
         11    1    1    2    0    0  0.41459786982E+01  0.32472791762E+01 -0.32611934293E+03  0.32616186135E+03  0.00000000000E+00 0. -1.
        -15    1    1    2    0    0  0.90671103509E+01  0.37137991454E+01 -0.38680432178E+02  0.39941686953E+02  0.17770000000E+01 0.  1.
         15    1    1    2    0    0 -0.48095585814E+01  0.80535505557E+01 -0.13423051711E+03  0.13456961389E+03  0.17770000000E+01 0. -1.
</event>
<event>
 6    1  0.1782050E-003  0.5000855E+03  0.7546771E-02  0.9399619E-01
        -11   -1    0    0    0    0  0.00000000000E+00  0.00000000000E+00  0.50000000000E+03  0.50000000000E+03  0.00000000000E+00 0.  1.
         11   -1    0    0    0    0 -0.00000000000E+00 -0.00000000000E+00 -0.50000000000E+03  0.50000000000E+03  0.00000000000E+00 0.  1.
        -11    1    1    2    0    0 -0.44538092478E+00  0.24423232268E+01  0.34909067672E+02  0.34997232929E+02  0.00000000000E+00 0.  1.
         11    1    1    2    0    0  0.63545762806E+01 -0.82119336707E+01 -0.49980668866E+03  0.49991453521E+03  0.00000000000E+00 0.  1.
        -15    1    1    2    0    0 -0.85567261874E+01  0.36702867670E+01  0.32028982419E+03  0.32043005130E+03  0.17770000000E+01 0.  1.
         15    1    1    2    0    0  0.26475308315E+01  0.20993236769E+01  0.14460779680E+03  0.14465818056E+03  0.17770000000E+01 0. -1.
</event>
<event>
 6    1  0.1782050E-003  0.5269382E+03  0.7546771E-02  0.9341472E-01
        -11   -1    0    0    0    0  0.00000000000E+00  0.00000000000E+00  0.50000000000E+03  0.50000000000E+03  0.00000000000E+00 0. -1.
         11   -1    0    0    0    0 -0.00000000000E+00 -0.00000000000E+00 -0.50000000000E+03  0.50000000000E+03  0.00000000000E+00 0. -1.
        -11    1    1    2    0    0 -0.61120982631E+01  0.19778769047E+02  0.39397895162E+03  0.39452246042E+03  0.00000000000E+00 0. -1.
         11    1    1    2    0    0 -0.72930558319E+00 -0.33918350406E+02 -0.47184373228E+03  0.47306182901E+03  0.00000000000E+00 0. -1.
        -15    1    1    2    0    0 -0.62501333356E+01  0.31871103533E+02 -0.15810665323E+02  0.36165816376E+02  0.17770000000E+01 0.  1.
         15    1    1    2    0    0  0.13091537182E+02 -0.17731522174E+02  0.93675445976E+02  0.96249894193E+02  0.17770000000E+01 0. -1.
</event>
<event>
 6    1  0.1782050E-003  0.4856853E+03  0.7546771E-02  0.9432422E-01
        -11   -1    0    0    0    0  0.00000000000E+00  0.00000000000E+00  0.50000000000E+03  0.50000000000E+03  0.00000000000E+00 0. -1.
         11   -1    0    0    0    0 -0.00000000000E+00 -0.00000000000E+00 -0.50000000000E+03  0.50000000000E+03  0.00000000000E+00 0.  1.
        -11    1    1    2    0    0 -0.82516621954E+01 -0.20734510829E+01  0.48907360761E+03  0.48914760838E+03  0.00000000000E+00 0. -1.
         11    1    1    2    0    0 -0.79632260227E+00 -0.16354864330E+02 -0.48218642483E+03  0.48246436553E+03  0.00000000000E+00 0.  1.
        -15    1    1    2    0    0 -0.39101104916E+01  0.12000927654E+02 -0.14292831826E+01  0.12826215655E+02  0.17770000000E+01 0. -1.
         15    1    1    2    0    0  0.12958095289E+02  0.64273877589E+01 -0.54578995918E+01  0.15561810431E+02  0.17770000000E+01 0.  1.
</event>
<event>
 6    1  0.1782050E-003  0.5074853E+03  0.7546771E-02  0.9383215E-01
        -11   -1    0    0    0    0  0.00000000000E+00  0.00000000000E+00  0.50000000000E+03  0.50000000000E+03  0.00000000000E+00 0. -1.
         11   -1    0    0    0    0 -0.00000000000E+00 -0.00000000000E+00 -0.50000000000E+03  0.50000000000E+03  0.00000000000E+00 0.  1.
        -11    1    1    2    0    0  0.13870861947E+02 -0.50057513921E+01  0.48339717681E+03  0.48362205171E+03  0.00000000000E+00 0. -1.
         11    1    1    2    0    0 -0.10623809400E+02  0.61325773701E+01 -0.49236195154E+03  0.49251473598E+03  0.00000000000E+00 0.  1.
        -15    1    1    2    0    0 -0.56594275854E-01 -0.29305473969E+01 -0.67815709345E+01  0.75986014698E+01  0.17770000000E+01 0. -1.
         15    1    1    2    0    0 -0.31904582711E+01  0.18037214189E+01  0.15746345668E+02  0.16264610842E+02  0.17770000000E+01 0.  1.
</event>
<event>
 6    1  0.1782050E-003  0.5035184E+03  0.7546771E-02  0.9391971E-01
        -11   -1    0    0    0    0  0.00000000000E+00  0.00000000000E+00  0.50000000000E+03  0.50000000000E+03  0.00000000000E+00 0.  1.
         11   -1    0    0    0    0 -0.00000000000E+00 -0.00000000000E+00 -0.50000000000E+03  0.50000000000E+03  0.00000000000E+00 0.  1.
        -11    1    1    2    0    0 -0.21392119233E+02 -0.16823050984E+02  0.49300338489E+03  0.49375396233E+03  0.00000000000E+00 0.  1.
         11    1    1    2    0    0 -0.10407856752E+01 -0.77420852939E+00 -0.49674377313E+01  0.51340112274E+01  0.00000000000E+00 0.  1.
        -15    1    1    2    0    0 -0.14353038686E+02 -0.19540069399E+01 -0.42667522192E+03  0.42692473645E+03  0.17770000000E+01 0.  1.
         15    1    1    2    0    0  0.36785943595E+02  0.19551266453E+02 -0.61360725230E+02  0.74187289988E+02  0.17770000000E+01 0. -1.
</event>
<event>
 6    1  0.1782050E-003  0.5012261E+03  0.7546771E-02  0.9397070E-01
        -11   -1    0    0    0    0  0.00000000000E+00  0.00000000000E+00  0.50000000000E+03  0.50000000000E+03  0.00000000000E+00 0.  1.
         11   -1    0    0    0    0 -0.00000000000E+00 -0.00000000000E+00 -0.50000000000E+03  0.50000000000E+03  0.00000000000E+00 0.  1.
        -11    1    1    2    0    0 -0.60301534971E+01  0.10135918416E+01  0.42136838137E+03  0.42141274653E+03  0.00000000000E+00 0.  1.
         11    1    1    2    0    0  0.87046711603E+01 -0.54775117547E+01 -0.49866785917E+03  0.49877390490E+03  0.00000000000E+00 0.  1.
        -15    1    1    2    0    0 -0.14687966174E+01 -0.20781943723E+01  0.10843582394E+01  0.32878286367E+01  0.17770000000E+01 0.  1.
         15    1    1    2    0    0 -0.12057210458E+01  0.65421142855E+01  0.76215119560E+02  0.76525519933E+02  0.17770000000E+01 0. -1.
</event>
<event>
 6    1  0.1782050E-003  0.5073435E+03  0.7546771E-02  0.9383526E-01
        -11   -1    0    0    0    0  0.00000000000E+00  0.00000000000E+00  0.50000000000E+03  0.50000000000E+03  0.00000000000E+00 0.  1.
         11   -1    0    0    0    0 -0.00000000000E+00 -0.00000000000E+00 -0.50000000000E+03  0.50000000000E+03  0.00000000000E+00 0. -1.
        -11    1    1    2    0    0 -0.20270518993E+00 -0.84077321828E+01  0.35825526080E+03  0.35835396320E+03  0.00000000000E+00 0.  1.
         11    1    1    2    0    0  0.28194355431E+02 -0.19516150420E+02 -0.49146176204E+03  0.49265653893E+03  0.00000000000E+00 0. -1.
        -15    1    1    2    0    0 -0.13520729071E+02 -0.11622753827E+02  0.14589019637E+02  0.23106184110E+02  0.17770000000E+01 0.  1.
         15    1    1    2    0    0 -0.14470921170E+02  0.39546636430E+02  0.11861748160E+03  0.12588331376E+03  0.17770000000E+01 0. -1.
</event>
<event>
 6    1  0.1782050E-003  0.5834601E+03  0.7546771E-02  0.9230276E-01
        -11   -1    0    0    0    0  0.00000000000E+00  0.00000000000E+00  0.50000000000E+03  0.50000000000E+03  0.00000000000E+00 0. -1.
         11   -1    0    0    0    0 -0.00000000000E+00 -0.00000000000E+00 -0.50000000000E+03  0.50000000000E+03  0.00000000000E+00 0. -1.
        -11    1    1    2    0    0 -0.34548404198E+02 -0.86983470122E+01  0.36860661531E+03  0.37032430425E+03  0.00000000000E+00 0. -1.
         11    1    1    2    0    0  0.10969447543E+02  0.35020720736E+02 -0.41492009942E+03  0.41653987632E+03  0.00000000000E+00 0. -1.
        -15    1    1    2    0    0  0.24969677136E+02  0.27798014142E+02  0.11771319476E+03  0.12351424337E+03  0.17770000000E+01 0. -1.
         15    1    1    2    0    0 -0.13907204806E+01 -0.54120387866E+02 -0.71399710641E+02  0.89621576056E+02  0.17770000000E+01 0.  1.
</event>
<event>
 6    1  0.1782050E-003  0.5093964E+03  0.7546771E-02  0.9379027E-01
        -11   -1    0    0    0    0  0.00000000000E+00  0.00000000000E+00  0.50000000000E+03  0.50000000000E+03  0.00000000000E+00 0.  1.
         11   -1    0    0    0    0 -0.00000000000E+00 -0.00000000000E+00 -0.50000000000E+03  0.50000000000E+03  0.00000000000E+00 0.  1.
        -11    1    1    2    0    0 -0.75792750493E+01  0.38646278409E+01  0.46616429589E+03  0.46624192381E+03  0.00000000000E+00 0.  1.
         11    1    1    2    0    0 -0.15442115723E+01  0.12093978236E+02 -0.49045212124E+03  0.49060364055E+03  0.00000000000E+00 0.  1.
        -15    1    1    2    0    0  0.40892284948E+01 -0.21591039741E+02  0.27068577068E+02  0.34910748778E+02  0.17770000000E+01 0. -1.
         15    1    1    2    0    0  0.50342581268E+01  0.56324336635E+01 -0.27807517204E+01  0.82436868568E+01  0.17770000000E+01 0.  1.
</event>
<event>
 6    1  0.1782050E-003  0.5009782E+03  0.7546771E-02  0.9397623E-01
        -11   -1    0    0    0    0  0.00000000000E+00  0.00000000000E+00  0.50000000000E+03  0.50000000000E+03  0.00000000000E+00 0.  1.
         11   -1    0    0    0    0 -0.00000000000E+00 -0.00000000000E+00 -0.50000000000E+03  0.50000000000E+03  0.00000000000E+00 0. -1.
        -11    1    1    2    0    0 -0.75996987936E+01 -0.17827204741E+00  0.40985245318E+03  0.40992294468E+03  0.00000000000E+00 0.  1.
         11    1    1    2    0    0  0.78847469697E+00 -0.75792841861E+01 -0.49896357427E+03  0.49902175874E+03  0.00000000000E+00 0. -1.
        -15    1    1    2    0    0 -0.75137628792E+00  0.14284777771E+01  0.14109522584E+01  0.27845341372E+01  0.17770000000E+01 0.  1.
         15    1    1    2    0    0  0.75626003846E+01  0.63290784564E+01  0.87700168838E+02  0.88270762441E+02  0.17770000000E+01 0. -1.
</event>
<event>
 6    1  0.1782050E-003  0.5017674E+03  0.7546771E-02  0.9395864E-01
        -11   -1    0    0    0    0  0.00000000000E+00  0.00000000000E+00  0.50000000000E+03  0.50000000000E+03  0.00000000000E+00 0. -1.
         11   -1    0    0    0    0 -0.00000000000E+00 -0.00000000000E+00 -0.50000000000E+03  0.50000000000E+03  0.00000000000E+00 0. -1.
        -11    1    1    2    0    0  0.78916964549E+01  0.11632471148E+01  0.49816872516E+03  0.49823258699E+03  0.00000000000E+00 0. -1.
         11    1    1    2    0    0  0.41783008745E+01  0.71619425212E+01 -0.41913589856E+03  0.41921790644E+03  0.00000000000E+00 0. -1.
        -15    1    1    2    0    0 -0.39878972725E+01 -0.99640756396E+01 -0.66860517019E+02  0.67739741608E+02  0.17770000000E+01 0. -1.
         15    1    1    2    0    0 -0.80821000569E+01  0.16388860036E+01 -0.12172309577E+02  0.14809764958E+02  0.17770000000E+01 0. -1.
</event>
<event>
 6    1  0.1782050E-003  0.5010793E+03  0.7546771E-02  0.9397398E-01
        -11   -1    0    0    0    0  0.00000000000E+00  0.00000000000E+00  0.50000000000E+03  0.50000000000E+03  0.00000000000E+00 0.  1.
         11   -1    0    0    0    0 -0.00000000000E+00 -0.00000000000E+00 -0.50000000000E+03  0.50000000000E+03  0.00000000000E+00 0. -1.
        -11    1    1    2    0    0  0.49764044626E+01  0.65961815220E+01  0.49885227053E+03  0.49892069713E+03  0.00000000000E+00 0.  1.
         11    1    1    2    0    0  0.21376805684E+01 -0.65898998356E+01 -0.40300590467E+03  0.40306544836E+03  0.00000000000E+00 0. -1.
        -15    1    1    2    0    0 -0.18402004470E+01 -0.73087150475E+01 -0.72727693811E+02  0.73138764205E+02  0.17770000000E+01 0. -1.
         15    1    1    2    0    0 -0.52738845840E+01  0.73024333611E+01 -0.23118672044E+02  0.24875090305E+02  0.17770000000E+01 0.  1.
</event>
<event>
 6    1  0.1782050E-003  0.5006599E+03  0.7546771E-02  0.9398334E-01
        -11   -1    0    0    0    0  0.00000000000E+00  0.00000000000E+00  0.50000000000E+03  0.50000000000E+03  0.00000000000E+00 0. -1.
         11   -1    0    0    0    0 -0.00000000000E+00 -0.00000000000E+00 -0.50000000000E+03  0.50000000000E+03  0.00000000000E+00 0.  1.
        -11    1    1    2    0    0 -0.49505325275E+01  0.45589832461E+01  0.17490619714E+03  0.17503562466E+03  0.00000000000E+00 0. -1.
         11    1    1    2    0    0  0.11420598700E+02  0.15157013084E+02 -0.49897928312E+03  0.49934005458E+03  0.00000000000E+00 0.  1.
        -15    1    1    2    0    0  0.27581896796E+01 -0.12848883395E+02  0.67667768391E+02  0.68954956477E+02  0.17770000000E+01 0.  1.
         15    1    1    2    0    0 -0.92282558522E+01 -0.68671129346E+01  0.25640531759E+03  0.25666936429E+03  0.17770000000E+01 0. -1.
</event>
<event>
 6    1  0.1782050E-003  0.5079259E+03  0.7546771E-02  0.9382248E-01
        -11   -1    0    0    0    0  0.00000000000E+00  0.00000000000E+00  0.50000000000E+03  0.50000000000E+03  0.00000000000E+00 0.  1.
         11   -1    0    0    0    0 -0.00000000000E+00 -0.00000000000E+00 -0.50000000000E+03  0.50000000000E+03  0.00000000000E+00 0.  1.
        -11    1    1    2    0    0  0.48659963955E+01  0.10659223126E+02  0.41853987218E+03  0.41870385902E+03  0.00000000000E+00 0.  1.
         11    1    1    2    0    0  0.16785596088E+02  0.47030828734E+00 -0.49178751081E+03  0.49207411353E+03  0.00000000000E+00 0.  1.
        -15    1    1    2    0    0 -0.16262231732E+02 -0.11216586492E+02  0.46276554082E+01  0.20367742070E+02  0.17770000000E+01 0. -1.
         15    1    1    2    0    0 -0.53893607509E+01  0.87055078232E-01  0.68619983221E+02  0.68854285372E+02  0.17770000000E+01 0.  1.
</event>
<event>
 6    1  0.1782050E-003  0.5021782E+03  0.7546771E-02  0.9394949E-01
        -11   -1    0    0    0    0  0.00000000000E+00  0.00000000000E+00  0.50000000000E+03  0.50000000000E+03  0.00000000000E+00 0. -1.
         11   -1    0    0    0    0 -0.00000000000E+00 -0.00000000000E+00 -0.50000000000E+03  0.50000000000E+03  0.00000000000E+00 0.  1.
        -11    1    1    2    0    0 -0.75042025366E+01  0.61252260810E+01  0.49772752716E+03  0.49782177809E+03  0.00000000000E+00 0. -1.
         11    1    1    2    0    0 -0.13901713518E+02 -0.76516310672E+01 -0.33247796651E+03  0.33285643047E+03  0.00000000000E+00 0.  1.
        -15    1    1    2    0    0  0.59898546448E+01 -0.59063488613E+01 -0.12802011953E+03  0.12830850341E+03  0.17770000000E+01 0.  1.
         15    1    1    2    0    0  0.15416061410E+02  0.74327538475E+01 -0.37229441125E+02  0.41013288025E+02  0.17770000000E+01 0. -1.
</event>
<event>
 6    1  0.1782050E-003  0.5042222E+03  0.7546771E-02  0.9390411E-01
        -11   -1    0    0    0    0  0.00000000000E+00  0.00000000000E+00  0.50000000000E+03  0.50000000000E+03  0.00000000000E+00 0.  1.
         11   -1    0    0    0    0 -0.00000000000E+00 -0.00000000000E+00 -0.50000000000E+03  0.50000000000E+03  0.00000000000E+00 0. -1.
        -11    1    1    2    0    0 -0.44264614489E+01  0.57386108536E+01  0.49572481448E+03  0.49577778985E+03  0.00000000000E+00 0.  1.
         11    1    1    2    0    0 -0.24950284238E+01 -0.64197016685E+01 -0.22958513598E+03  0.22968842461E+03  0.00000000000E+00 0. -1.
        -15    1    1    2    0    0  0.12459902013E+02 -0.99284812271E+01 -0.11797145232E+02  0.19903624350E+02  0.17770000000E+01 0.  1.
         15    1    1    2    0    0 -0.55384121403E+01  0.10609572042E+02 -0.25434253327E+03  0.25463016119E+03  0.17770000000E+01 0. -1.
</event>
<event>
 6    1  0.1782050E-003  0.4776496E+03  0.7546771E-02  0.9451258E-01
        -11   -1    0    0    0    0  0.00000000000E+00  0.00000000000E+00  0.50000000000E+03  0.50000000000E+03  0.00000000000E+00 0.  1.
         11   -1    0    0    0    0 -0.00000000000E+00 -0.00000000000E+00 -0.50000000000E+03  0.50000000000E+03  0.00000000000E+00 0.  1.
        -11    1    1    2    0    0  0.10277689588E+02 -0.55097506593E+01  0.47596156281E+03  0.47610439772E+03  0.00000000000E+00 0.  1.
         11    1    1    2    0    0 -0.87589205792E+01 -0.72578749553E+01 -0.47915166008E+03  0.47928666661E+03  0.00000000000E+00 0.  1.
        -15    1    1    2    0    0  0.87641564240E+01  0.63364380662E+01 -0.17448226338E+02  0.20604834786E+02  0.17770000000E+01 0. -1.
         15    1    1    2    0    0 -0.10282925433E+02  0.64311875484E+01  0.20638323606E+02  0.24004100879E+02  0.17770000000E+01 0. -1.
</event>
<event>
 6    1  0.1782050E-003  0.5006102E+03  0.7546771E-02  0.9398445E-01
        -11   -1    0    0    0    0  0.00000000000E+00  0.00000000000E+00  0.50000000000E+03  0.50000000000E+03  0.00000000000E+00 0.  1.
         11   -1    0    0    0    0 -0.00000000000E+00 -0.00000000000E+00 -0.50000000000E+03  0.50000000000E+03  0.00000000000E+00 0.  1.
        -11    1    1    2    0    0  0.77288800208E+01 -0.58480837524E+01  0.49929573786E+03  0.49938979716E+03  0.00000000000E+00 0.  1.
         11    1    1    2    0    0  0.23262247112E+00  0.79469238208E+00 -0.50632340240E+02  0.50639110649E+02  0.00000000000E+00 0.  1.
        -15    1    1    2    0    0  0.24459185938E+01  0.48782936365E+01 -0.13371275307E+02  0.14550910587E+02  0.17770000000E+01 0. -1.
         15    1    1    2    0    0 -0.10407421086E+02  0.17509773376E+00 -0.43529212231E+03  0.43542018160E+03  0.17770000000E+01 0.  1.
</event>
<event>
 6    1  0.1782050E-003  0.5018348E+03  0.7546771E-02  0.9395713E-01
        -11   -1    0    0    0    0  0.00000000000E+00  0.00000000000E+00  0.50000000000E+03  0.50000000000E+03  0.00000000000E+00 0.  1.
         11   -1    0    0    0    0 -0.00000000000E+00 -0.00000000000E+00 -0.50000000000E+03  0.50000000000E+03  0.00000000000E+00 0.  1.
        -11    1    1    2    0    0  0.57154816449E+01 -0.39361257044E+01  0.45437353132E+03  0.45442652407E+03  0.00000000000E+00 0.  1.
         11    1    1    2    0    0  0.57227244228E+01 -0.57860461043E+01 -0.49809867726E+03  0.49816515353E+03  0.00000000000E+00 0.  1.
        -15    1    1    2    0    0 -0.24751789655E+01  0.29430289110E+01  0.31798216420E+01  0.52968787750E+01  0.17770000000E+01 0. -1.
         15    1    1    2    0    0 -0.89630271022E+01  0.67791428978E+01  0.40545324297E+02  0.42111443630E+02  0.17770000000E+01 0.  1.
</event>
<event>
 6    1  0.1782050E-003  0.5178059E+03  0.7546771E-02  0.9360826E-01
        -11   -1    0    0    0    0  0.00000000000E+00  0.00000000000E+00  0.50000000000E+03  0.50000000000E+03  0.00000000000E+00 0.  1.
         11   -1    0    0    0    0 -0.00000000000E+00 -0.00000000000E+00 -0.50000000000E+03  0.50000000000E+03  0.00000000000E+00 0. -1.
        -11    1    1    2    0    0  0.34441742984E+01 -0.64612491806E+01  0.48213848864E+03  0.48219408158E+03  0.00000000000E+00 0.  1.
         11    1    1    2    0    0 -0.17227500585E+01  0.73585142939E+01 -0.46288560537E+03  0.46294729641E+03  0.00000000000E+00 0. -1.
        -15    1    1    2    0    0 -0.15418670760E+01  0.53172931026E+01  0.17034557513E+02  0.17999578847E+02  0.17770000000E+01 0. -1.
         15    1    1    2    0    0 -0.17955716386E+00 -0.62145582160E+01 -0.36287440791E+02  0.36859043161E+02  0.17770000000E+01 0. -1.
</event>
<event>
 6    1  0.1782050E-003  0.5032213E+03  0.7546771E-02  0.9392630E-01
        -11   -1    0    0    0    0  0.00000000000E+00  0.00000000000E+00  0.50000000000E+03  0.50000000000E+03  0.00000000000E+00 0.  1.
         11   -1    0    0    0    0 -0.00000000000E+00 -0.00000000000E+00 -0.50000000000E+03  0.50000000000E+03  0.00000000000E+00 0.  1.
        -11    1    1    2    0    0 -0.52133333546E+01  0.55709327948E+01  0.49672008773E+03  0.49677868280E+03  0.00000000000E+00 0.  1.
         11    1    1    2    0    0 -0.87062173522E+01 -0.97723041250E+00 -0.37641237573E+03  0.37651431554E+03  0.00000000000E+00 0.  1.
        -15    1    1    2    0    0 -0.56593409123E+01 -0.13240690082E+02 -0.24091994473E+02  0.28123405556E+02  0.17770000000E+01 0.  1.
         15    1    1    2    0    0  0.19578891619E+02  0.86469876992E+01 -0.96215717523E+02  0.98583596104E+02  0.17770000000E+01 0. -1.
</event>
<event>
 6    1  0.1782050E-003  0.5108084E+03  0.7546771E-02  0.9375945E-01
        -11   -1    0    0    0    0  0.00000000000E+00  0.00000000000E+00  0.50000000000E+03  0.50000000000E+03  0.00000000000E+00 0.  1.
         11   -1    0    0    0    0 -0.00000000000E+00 -0.00000000000E+00 -0.50000000000E+03  0.50000000000E+03  0.00000000000E+00 0.  1.
        -11    1    1    2    0    0 -0.26169127193E+01 -0.13336208234E+02  0.48900278777E+03  0.48919160779E+03  0.00000000000E+00 0.  1.
         11    1    1    2    0    0 -0.61646471964E+00 -0.27072832752E+01 -0.12440792187E+03  0.12443890242E+03  0.00000000000E+00 0.  1.
        -15    1    1    2    0    0  0.20735217871E+02  0.68994965540E+02 -0.20813863006E+03  0.22026143917E+03  0.17770000000E+01 0.  1.
         15    1    1    2    0    0 -0.17501840432E+02 -0.52951474030E+02 -0.15645623583E+03  0.16610805062E+03  0.17770000000E+01 0. -1.
</event>
<event>
 6    1  0.1782050E-003  0.5007200E+03  0.7546771E-02  0.9398200E-01
        -11   -1    0    0    0    0  0.00000000000E+00  0.00000000000E+00  0.50000000000E+03  0.50000000000E+03  0.00000000000E+00 0.  1.
         11   -1    0    0    0    0 -0.00000000000E+00 -0.00000000000E+00 -0.50000000000E+03  0.50000000000E+03  0.00000000000E+00 0.  1.
        -11    1    1    2    0    0 -0.22003856361E+01  0.67678828968E+01  0.49922925319E+03  0.49927997474E+03  0.00000000000E+00 0.  1.
         11    1    1    2    0    0 -0.46663299449E+01 -0.53461683001E+01 -0.32924725129E+03  0.32932371405E+03  0.00000000000E+00 0.  1.
        -15    1    1    2    0    0  0.20073514602E+01  0.94025913104E+01 -0.87911773760E+02  0.88453806464E+02  0.17770000000E+01 0. -1.
         15    1    1    2    0    0  0.48593641208E+01 -0.10824305907E+02 -0.82070228137E+02  0.82942504745E+02  0.17770000000E+01 0.  1.
</event>
<event>
 6    1  0.1782050E-003  0.5381535E+03  0.7546771E-02  0.9318266E-01
        -11   -1    0    0    0    0  0.00000000000E+00  0.00000000000E+00  0.50000000000E+03  0.50000000000E+03  0.00000000000E+00 0. -1.
         11   -1    0    0    0    0 -0.00000000000E+00 -0.00000000000E+00 -0.50000000000E+03  0.50000000000E+03  0.00000000000E+00 0.  1.
        -11    1    1    2    0    0  0.17599364331E+02 -0.22456521363E+01  0.46150562817E+03  0.46184653881E+03  0.00000000000E+00 0. -1.
         11    1    1    2    0    0 -0.62982644484E+01 -0.66952125316E+00 -0.38417631115E+03  0.38422851851E+03  0.00000000000E+00 0.  1.
        -15    1    1    2    0    0  0.21745183622E+02  0.21489078671E+02 -0.10342836414E+03  0.10786666654E+03  0.17770000000E+01 0. -1.
         15    1    1    2    0    0 -0.33046283505E+02 -0.18573905282E+02  0.26099047115E+02  0.46058276132E+02  0.17770000000E+01 0.  1.
</event>
<event>
 6    1  0.1782050E-003  0.5114467E+03  0.7546771E-02  0.9374555E-01
        -11   -1    0    0    0    0  0.00000000000E+00  0.00000000000E+00  0.50000000000E+03  0.50000000000E+03  0.00000000000E+00 0.  1.
         11   -1    0    0    0    0 -0.00000000000E+00 -0.00000000000E+00 -0.50000000000E+03  0.50000000000E+03  0.00000000000E+00 0. -1.
        -11    1    1    2    0    0 -0.19339961700E+02  0.57247953329E+01  0.47352939747E+03  0.47395875102E+03  0.00000000000E+00 0.  1.
         11    1    1    2    0    0  0.46197832351E+01 -0.67292117409E+01 -0.48848508607E+03  0.48855327652E+03  0.00000000000E+00 0. -1.
        -15    1    1    2    0    0  0.22447005804E+02 -0.53275923242E+01  0.14549602918E+02  0.27333129781E+02  0.17770000000E+01 0. -1.
         15    1    1    2    0    0 -0.77268273383E+01  0.63320087322E+01  0.40608568181E+00  0.10154842681E+02  0.17770000000E+01 0.  1.
</event>
<event>
 6    1  0.1782050E-003  0.5177014E+03  0.7546771E-02  0.9361050E-01
        -11   -1    0    0    0    0  0.00000000000E+00  0.00000000000E+00  0.50000000000E+03  0.50000000000E+03  0.00000000000E+00 0.  1.
         11   -1    0    0    0    0 -0.00000000000E+00 -0.00000000000E+00 -0.50000000000E+03  0.50000000000E+03  0.00000000000E+00 0.  1.
        -11    1    1    2    0    0  0.39686336529E+01  0.88250879521E+01  0.48220151043E+03  0.48229858894E+03  0.00000000000E+00 0.  1.
         11    1    1    2    0    0 -0.59445961384E+01  0.29971636502E+01 -0.26025375623E+03  0.26033889230E+03  0.00000000000E+00 0.  1.
        -15    1    1    2    0    0 -0.20381554193E+01 -0.93529328129E+01  0.16340483928E+02  0.19021056062E+02  0.17770000000E+01 0. -1.
         15    1    1    2    0    0  0.40141179048E+01 -0.24693187894E+01 -0.23828823814E+03  0.23834146270E+03  0.17770000000E+01 0.  1.
</event>
<event>
 6    1  0.1782050E-003  0.5003606E+03  0.7546771E-02  0.9399003E-01
        -11   -1    0    0    0    0  0.00000000000E+00  0.00000000000E+00  0.50000000000E+03  0.50000000000E+03  0.00000000000E+00 0. -1.
         11   -1    0    0    0    0 -0.00000000000E+00 -0.00000000000E+00 -0.50000000000E+03  0.50000000000E+03  0.00000000000E+00 0. -1.
        -11    1    1    2    0    0 -0.15244234427E+01  0.84801614711E+01  0.31152812966E+03  0.31164725665E+03  0.00000000000E+00 0. -1.
         11    1    1    2    0    0 -0.59053564835E+01 -0.49444836929E+01 -0.49958003292E+03  0.49963940041E+03  0.00000000000E+00 0. -1.
        -15    1    1    2    0    0 -0.10331117412E+01 -0.26934732004E+01  0.12711679812E+03  0.12716194482E+03  0.17770000000E+01 0. -1.
         15    1    1    2    0    0  0.84628916675E+01 -0.84220457788E+00  0.60935105135E+02  0.61551398121E+02  0.17770000000E+01 0.  1.
</event>
<event>
 6    1  0.1782050E-003  0.5037706E+03  0.7546771E-02  0.9391412E-01
        -11   -1    0    0    0    0  0.00000000000E+00  0.00000000000E+00  0.50000000000E+03  0.50000000000E+03  0.00000000000E+00 0. -1.
         11   -1    0    0    0    0 -0.00000000000E+00 -0.00000000000E+00 -0.50000000000E+03  0.50000000000E+03  0.00000000000E+00 0. -1.
        -11    1    1    2    0    0  0.30781700567E+01 -0.12280408849E+02  0.39632969220E+03  0.39653185053E+03  0.00000000000E+00 0. -1.
         11    1    1    2    0    0  0.14242385016E+02  0.18589066888E+02 -0.49567653694E+03  0.49622941087E+03  0.00000000000E+00 0. -1.
        -15    1    1    2    0    0 -0.26484255522E+02 -0.11542908689E+02  0.80770168876E+02  0.85799955949E+02  0.17770000000E+01 0. -1.
         15    1    1    2    0    0  0.91637004486E+01  0.52342506502E+01  0.18576675872E+02  0.21438782644E+02  0.17770000000E+01 0.  1.
</event>
<event>
 6    1  0.1782050E-003  0.5011035E+03  0.7546771E-02  0.9397344E-01
        -11   -1    0    0    0    0  0.00000000000E+00  0.00000000000E+00  0.50000000000E+03  0.50000000000E+03  0.00000000000E+00 0. -1.
         11   -1    0    0    0    0 -0.00000000000E+00 -0.00000000000E+00 -0.50000000000E+03  0.50000000000E+03  0.00000000000E+00 0. -1.
        -11    1    1    2    0    0 -0.43409381414E+01  0.78296116171E+01  0.49881615907E+03  0.49889648938E+03  0.00000000000E+00 0. -1.
         11    1    1    2    0    0 -0.68166490437E+01 -0.59451147559E+01 -0.37511502468E+03  0.37522405684E+03  0.00000000000E+00 0. -1.
        -15    1    1    2    0    0  0.61560145690E+00  0.18308231870E+01 -0.94871698962E+02  0.94907996879E+02  0.17770000000E+01 0.  1.
         15    1    1    2    0    0  0.10541985728E+02 -0.37153200482E+01 -0.28829435431E+02  0.30971456898E+02  0.17770000000E+01 0. -1.
</event>
<event>
 6    1  0.1782050E-003  0.5269830E+03  0.7546771E-02  0.9341378E-01
        -11   -1    0    0    0    0  0.00000000000E+00  0.00000000000E+00  0.50000000000E+03  0.50000000000E+03  0.00000000000E+00 0.  1.
         11   -1    0    0    0    0 -0.00000000000E+00 -0.00000000000E+00 -0.50000000000E+03  0.50000000000E+03  0.00000000000E+00 0. -1.
        -11    1    1    2    0    0 -0.10656150435E+01 -0.27899215140E+02  0.47219234035E+03  0.47301702721E+03  0.00000000000E+00 0.  1.
         11    1    1    2    0    0  0.48363230999E+00  0.63899236140E+01 -0.45485170736E+03  0.45489684623E+03  0.00000000000E+00 0. -1.
        -15    1    1    2    0    0  0.48690935283E+01  0.61354581590E+00 -0.40334827476E+02  0.40671126696E+02  0.17770000000E+01 0. -1.
         15    1    1    2    0    0 -0.42871107948E+01  0.20895745710E+02  0.22994194480E+02  0.31414999865E+02  0.17770000000E+01 0.  1.
</event>
<event>
 6    1  0.1782050E-003  0.5003651E+03  0.7546771E-02  0.9398993E-01
        -11   -1    0    0    0    0  0.00000000000E+00  0.00000000000E+00  0.50000000000E+03  0.50000000000E+03  0.00000000000E+00 0. -1.
         11   -1    0    0    0    0 -0.00000000000E+00 -0.00000000000E+00 -0.50000000000E+03  0.50000000000E+03  0.00000000000E+00 0.  1.
        -11    1    1    2    0    0 -0.37686853051E+01  0.86966501597E+01  0.15934506873E+03  0.15962670717E+03  0.00000000000E+00 0. -1.
         11    1    1    2    0    0 -0.47239613132E+01 -0.71628305030E+01 -0.49956120274E+03  0.49963488392E+03  0.00000000000E+00 0.  1.
        -15    1    1    2    0    0  0.41374883403E+00  0.58357048862E+01  0.61746594529E+02  0.62048580197E+02  0.17770000000E+01 0.  1.
         15    1    1    2    0    0  0.80788977843E+01 -0.73695245428E+01  0.27846953948E+03  0.27868982872E+03  0.17770000000E+01 0. -1.
</event>
<event>
 6    1  0.1782050E-003  0.5032794E+03  0.7546771E-02  0.9392501E-01
        -11   -1    0    0    0    0  0.00000000000E+00  0.00000000000E+00  0.50000000000E+03  0.50000000000E+03  0.00000000000E+00 0.  1.
         11   -1    0    0    0    0 -0.00000000000E+00 -0.00000000000E+00 -0.50000000000E+03  0.50000000000E+03  0.00000000000E+00 0.  1.
        -11    1    1    2    0    0 -0.34465642595E+01 -0.34891369929E+01  0.17762219165E+03  0.17768988674E+03  0.00000000000E+00 0.  1.
         11    1    1    2    0    0 -0.14205543467E+02 -0.15968759103E+02 -0.49626053377E+03  0.49672056140E+03  0.00000000000E+00 0.  1.
        -15    1    1    2    0    0  0.19392389495E+02  0.90020264692E+01  0.31245398319E+03  0.31318963998E+03  0.17770000000E+01 0.  1.
         15    1    1    2    0    0 -0.17402817690E+01  0.10455869626E+02  0.61843589253E+01  0.12399911878E+02  0.17770000000E+01 0. -1.
</event>
<event>
 6    1  0.1782050E-003  0.4859834E+03  0.7546771E-02  0.9431731E-01
        -11   -1    0    0    0    0  0.00000000000E+00  0.00000000000E+00  0.50000000000E+03  0.50000000000E+03  0.00000000000E+00 0. -1.
         11   -1    0    0    0    0 -0.00000000000E+00 -0.00000000000E+00 -0.50000000000E+03  0.50000000000E+03  0.00000000000E+00 0. -1.
        -11    1    1    2    0    0  0.16886024901E+00 -0.81822172125E+01  0.48742066934E+03  0.48748937024E+03  0.00000000000E+00 0. -1.
         11    1    1    2    0    0 -0.12367121316E+02  0.38105531568E+01 -0.48439572531E+03  0.48456855522E+03  0.00000000000E+00 0. -1.
        -15    1    1    2    0    0  0.12737502086E+02  0.43448699089E+00 -0.12234238496E+02  0.17755761288E+02  0.17770000000E+01 0. -1.
         15    1    1    2    0    0 -0.53924101875E+00  0.39371770648E+01  0.92092944707E+01  0.10186313257E+02  0.17770000000E+01 0.  1.
</event>
<event>
 6    1  0.1782050E-003  0.5011532E+03  0.7546771E-02  0.9397233E-01
        -11   -1    0    0    0    0  0.00000000000E+00  0.00000000000E+00  0.50000000000E+03  0.50000000000E+03  0.00000000000E+00 0.  1.
         11   -1    0    0    0    0 -0.00000000000E+00 -0.00000000000E+00 -0.50000000000E+03  0.50000000000E+03  0.00000000000E+00 0.  1.
        -11    1    1    2    0    0  0.58470212165E+01 -0.34515069650E+02  0.49761695625E+03  0.49884678293E+03  0.00000000000E+00 0.  1.
         11    1    1    2    0    0 -0.63708520555E+00 -0.24981590111E+00 -0.48194710190E+02  0.48199568212E+02  0.00000000000E+00 0.  1.
        -15    1    1    2    0    0  0.58305594510E+01  0.72486315689E+01 -0.16585954677E+02  0.19099468701E+02  0.17770000000E+01 0. -1.
         15    1    1    2    0    0 -0.11040495462E+02  0.27516253983E+02 -0.43283629138E+03  0.43385418016E+03  0.17770000000E+01 0.  1.
</event>
<event>
 6    1  0.1782050E-003  0.5167243E+03  0.7546771E-02  0.9363146E-01
        -11   -1    0    0    0    0  0.00000000000E+00  0.00000000000E+00  0.50000000000E+03  0.50000000000E+03  0.00000000000E+00 0.  1.
         11   -1    0    0    0    0 -0.00000000000E+00 -0.00000000000E+00 -0.50000000000E+03  0.50000000000E+03  0.00000000000E+00 0. -1.
        -11    1    1    2    0    0  0.44717339313E+01  0.10590027356E+02  0.47647664042E+03  0.47661528925E+03  0.00000000000E+00 0.  1.
         11    1    1    2    0    0 -0.33809522732E+01 -0.15706435771E+02 -0.48300858201E+03  0.48327571143E+03  0.00000000000E+00 0. -1.
        -15    1    1    2    0    0 -0.75052925983E+00  0.92742791985E+01 -0.15199389693E+02  0.17909626597E+02  0.17770000000E+01 0.  1.
         15    1    1    2    0    0 -0.34025239830E+00 -0.41578707840E+01  0.21731331281E+02  0.22199372725E+02  0.17770000000E+01 0. -1.
</event>
<event>
 6    1  0.1782050E-003  0.5102325E+03  0.7546771E-02  0.9377200E-01
        -11   -1    0    0    0    0  0.00000000000E+00  0.00000000000E+00  0.50000000000E+03  0.50000000000E+03  0.00000000000E+00 0. -1.
         11   -1    0    0    0    0 -0.00000000000E+00 -0.00000000000E+00 -0.50000000000E+03  0.50000000000E+03  0.00000000000E+00 0.  1.
        -11    1    1    2    0    0  0.40120362741E+01 -0.60042247369E+01  0.48971421528E+03  0.48976745482E+03  0.00000000000E+00 0. -1.
         11    1    1    2    0    0  0.85288619572E+01 -0.14386455296E+01 -0.47667644890E+03  0.47675491411E+03  0.00000000000E+00 0.  1.
        -15    1    1    2    0    0 -0.96020858689E+01  0.17444375214E+01 -0.20926048981E+02  0.23158159906E+02  0.17770000000E+01 0. -1.
         15    1    1    2    0    0 -0.29388123624E+01  0.56984327451E+01  0.78882825998E+01  0.10319471170E+02  0.17770000000E+01 0. -1.
</event>
<event>
 6    1  0.1782050E-003  0.5051526E+03  0.7546771E-02  0.9388354E-01
        -11   -1    0    0    0    0  0.00000000000E+00  0.00000000000E+00  0.50000000000E+03  0.50000000000E+03  0.00000000000E+00 0.  1.
         11   -1    0    0    0    0 -0.00000000000E+00 -0.00000000000E+00 -0.50000000000E+03  0.50000000000E+03  0.00000000000E+00 0.  1.
        -11    1    1    2    0    0  0.10451968986E+02 -0.64176313936E+00  0.42319430709E+03  0.42332384420E+03  0.00000000000E+00 0.  1.
         11    1    1    2    0    0 -0.70659909690E+01 -0.62540673019E+01 -0.49475742872E+03  0.49484740563E+03  0.00000000000E+00 0.  1.
        -15    1    1    2    0    0 -0.18217350448E+01  0.11329236149E+02  0.16418132698E+01  0.11727045242E+02  0.17770000000E+01 0. -1.
         15    1    1    2    0    0 -0.15642429723E+01 -0.44334057078E+01  0.69921308358E+02  0.70101704927E+02  0.17770000000E+01 0.  1.
</event>
<event>
 6    1  0.1782050E-003  0.5021127E+03  0.7546771E-02  0.9395095E-01
        -11   -1    0    0    0    0  0.00000000000E+00  0.00000000000E+00  0.50000000000E+03  0.50000000000E+03  0.00000000000E+00 0.  1.
         11   -1    0    0    0    0 -0.00000000000E+00 -0.00000000000E+00 -0.50000000000E+03  0.50000000000E+03  0.00000000000E+00 0.  1.
        -11    1    1    2    0    0  0.10431048503E+02  0.29966942907E+01  0.49776896555E+03  0.49788726637E+03  0.00000000000E+00 0.  1.
         11    1    1    2    0    0 -0.65379424176E+01  0.57176935012E+01 -0.38497341650E+03  0.38507138055E+03  0.00000000000E+00 0.  1.
        -15    1    1    2    0    0 -0.67030133124E+01  0.10595768861E+01 -0.46774093068E+01  0.84314279613E+01  0.17770000000E+01 0.  1.
         15    1    1    2    0    0  0.28099072266E+01 -0.97739646779E+01 -0.10811813974E+03  0.10860992512E+03  0.17770000000E+01 0. -1.
</event>
<event>
 6    1  0.1782050E-003  0.5110130E+03  0.7546771E-02  0.9375499E-01
        -11   -1    0    0    0    0  0.00000000000E+00  0.00000000000E+00  0.50000000000E+03  0.50000000000E+03  0.00000000000E+00 0. -1.
         11   -1    0    0    0    0 -0.00000000000E+00 -0.00000000000E+00 -0.50000000000E+03  0.50000000000E+03  0.00000000000E+00 0. -1.
        -11    1    1    2    0    0  0.10332380452E+02 -0.20607739244E+02  0.15116346630E+03  0.15291118516E+03  0.00000000000E+00 0. -1.
         11    1    1    2    0    0 -0.23956156626E+02  0.50234560121E+01 -0.48837398239E+03  0.48898699290E+03  0.00000000000E+00 0. -1.
        -15    1    1    2    0    0  0.88911809274E+01 -0.56713085411E+01  0.33605256384E+03  0.33622269440E+03  0.17770000000E+01 0. -1.
         15    1    1    2    0    0  0.47325952460E+01  0.21255591773E+02  0.11579522540E+01  0.21879127537E+02  0.17770000000E+01 0.  1.
</event>
<event>
 6    1  0.1782050E-003  0.5026140E+03  0.7546771E-02  0.9393980E-01
        -11   -1    0    0    0    0  0.00000000000E+00  0.00000000000E+00  0.50000000000E+03  0.50000000000E+03  0.00000000000E+00 0.  1.
         11   -1    0    0    0    0 -0.00000000000E+00 -0.00000000000E+00 -0.50000000000E+03  0.50000000000E+03  0.00000000000E+00 0. -1.
        -11    1    1    2    0    0  0.43300703745E+01 -0.26134937302E+01  0.23908157660E+03  0.23913506670E+03  0.00000000000E+00 0.  1.
         11    1    1    2    0    0 -0.17215368237E+02  0.18190478525E+02 -0.49675501415E+03  0.49738597336E+03  0.00000000000E+00 0. -1.
        -15    1    1    2    0    0  0.14589181773E+01  0.11255375015E+02  0.18197777650E+03  0.18234001420E+03  0.17770000000E+01 0. -1.
         15    1    1    2    0    0  0.11426379685E+02 -0.26832359809E+02  0.75695661044E+02  0.81138945738E+02  0.17770000000E+01 0.  1.
</event>
<event>
 6    1  0.1782050E-003  0.5010735E+03  0.7546771E-02  0.9397411E-01
        -11   -1    0    0    0    0  0.00000000000E+00  0.00000000000E+00  0.50000000000E+03  0.50000000000E+03  0.00000000000E+00 0. -1.
         11   -1    0    0    0    0 -0.00000000000E+00 -0.00000000000E+00 -0.50000000000E+03  0.50000000000E+03  0.00000000000E+00 0.  1.
        -11    1    1    2    0    0 -0.96806861007E+01  0.52974079999E+01  0.49880446634E+03  0.49892652150E+03  0.00000000000E+00 0. -1.
         11    1    1    2    0    0  0.11355297397E+02 -0.61972927154E+01 -0.30396522085E+03  0.30424037323E+03  0.00000000000E+00 0.  1.
        -15    1    1    2    0    0 -0.19991034654E+01  0.14158067772E+02 -0.11136411481E+03  0.11229234655E+03  0.17770000000E+01 0. -1.
         15    1    1    2    0    0  0.32449216866E+00 -0.13258183056E+02 -0.83475130686E+02  0.84540758721E+02  0.17770000000E+01 0.  1.
</event>
<event>
 6    1  0.1782050E-003  0.5215308E+03  0.7546771E-02  0.9352881E-01
        -11   -1    0    0    0    0  0.00000000000E+00  0.00000000000E+00  0.50000000000E+03  0.50000000000E+03  0.00000000000E+00 0. -1.
         11   -1    0    0    0    0 -0.00000000000E+00 -0.00000000000E+00 -0.50000000000E+03  0.50000000000E+03  0.00000000000E+00 0. -1.
        -11    1    1    2    0    0 -0.15429389124E+02  0.84415318968E+01  0.46843389641E+03  0.46876395000E+03  0.00000000000E+00 0. -1.
         11    1    1    2    0    0  0.50774803531E+01 -0.67137046506E+01 -0.47839512138E+03  0.47846917016E+03  0.00000000000E+00 0. -1.
        -15    1    1    2    0    0  0.27085770496E+02 -0.12648881169E+02 -0.88868046980E+00  0.29959650202E+02  0.17770000000E+01 0.  1.
         15    1    1    2    0    0 -0.16733861726E+02  0.10921053923E+02  0.10849905433E+02  0.22807229642E+02  0.17770000000E+01 0. -1.
</event>
<event>
 6    1  0.1782050E-003  0.5019931E+03  0.7546771E-02  0.9395361E-01
        -11   -1    0    0    0    0  0.00000000000E+00  0.00000000000E+00  0.50000000000E+03  0.50000000000E+03  0.00000000000E+00 0. -1.
         11   -1    0    0    0    0 -0.00000000000E+00 -0.00000000000E+00 -0.50000000000E+03  0.50000000000E+03  0.00000000000E+00 0. -1.
        -11    1    1    2    0    0  0.17251571900E+02 -0.41368054939E+01  0.27101222719E+03  0.27159226273E+03  0.00000000000E+00 0. -1.
         11    1    1    2    0    0  0.51282964871E+01 -0.12021074372E+02 -0.49783540323E+03  0.49800692200E+03  0.00000000000E+00 0. -1.
        -15    1    1    2    0    0 -0.19123011912E+02  0.12555090899E+02  0.22244390552E+03  0.22362416847E+03  0.17770000000E+01 0. -1.
         15    1    1    2    0    0 -0.32568564752E+01  0.36027889667E+01  0.43792705241E+01  0.67766467934E+01  0.17770000000E+01 0.  1.
</event>
<event>
 6    1  0.1782050E-003  0.5439651E+03  0.7546771E-02  0.9306475E-01
        -11   -1    0    0    0    0  0.00000000000E+00  0.00000000000E+00  0.50000000000E+03  0.50000000000E+03  0.00000000000E+00 0.  1.
         11   -1    0    0    0    0 -0.00000000000E+00 -0.00000000000E+00 -0.50000000000E+03  0.50000000000E+03  0.00000000000E+00 0.  1.
        -11    1    1    2    0    0 -0.12875604761E+02  0.15589092288E+02  0.34333015685E+03  0.34392498833E+03  0.00000000000E+00 0.  1.
         11    1    1    2    0    0 -0.30403011660E+01  0.10700965502E+02 -0.45589920612E+03  0.45603491121E+03  0.00000000000E+00 0.  1.
        -15    1    1    2    0    0  0.39240595344E+00  0.61068137623E+01 -0.41419457164E+02  0.41906757421E+02  0.17770000000E+01 0. -1.
         15    1    1    2    0    0  0.15523499973E+02 -0.32396871552E+02  0.15398850644E+03  0.15813334304E+03  0.17770000000E+01 0.  1.
</event>
<event>
 6    1  0.1782050E-003  0.5110249E+03  0.7546771E-02  0.9375473E-01
        -11   -1    0    0    0    0  0.00000000000E+00  0.00000000000E+00  0.50000000000E+03  0.50000000000E+03  0.00000000000E+00 0. -1.
         11   -1    0    0    0    0 -0.00000000000E+00 -0.00000000000E+00 -0.50000000000E+03  0.50000000000E+03  0.00000000000E+00 0.  1.
        -11    1    1    2    0    0 -0.71592388929E+01 -0.34461720996E+01  0.48891057296E+03  0.48897513143E+03  0.00000000000E+00 0. -1.
         11    1    1    2    0    0  0.25980868671E+01  0.92159097731E+01 -0.43215266880E+03  0.43225873294E+03  0.00000000000E+00 0.  1.
        -15    1    1    2    0    0 -0.48845731309E+01  0.17269058252E+01 -0.64233805956E+02  0.64466897048E+02  0.17770000000E+01 0.  1.
         15    1    1    2    0    0  0.94457251567E+01 -0.74966434987E+01  0.74759017961E+01  0.14299238586E+02  0.17770000000E+01 0. -1.
</event>
<event>
 6    1  0.1782050E-003  0.5498346E+03  0.7546771E-02  0.9294724E-01
        -11   -1    0    0    0    0  0.00000000000E+00  0.00000000000E+00  0.50000000000E+03  0.50000000000E+03  0.00000000000E+00 0.  1.
         11   -1    0    0    0    0 -0.00000000000E+00 -0.00000000000E+00 -0.50000000000E+03  0.50000000000E+03  0.00000000000E+00 0. -1.
        -11    1    1    2    0    0 -0.89754524156E+01 -0.52963564750E+01  0.45004476903E+03  0.45016541879E+03  0.00000000000E+00 0.  1.
         11    1    1    2    0    0  0.19845837321E+02  0.44428310244E+01 -0.38873661844E+03  0.38926822953E+03  0.00000000000E+00 0. -1.
        -15    1    1    2    0    0 -0.24367581949E+02  0.22291082264E+01 -0.10859901962E+03  0.11133576589E+03  0.17770000000E+01 0. -1.
         15    1    1    2    0    0  0.13497197043E+02 -0.13755827758E+01  0.47290869024E+02  0.49230585799E+02  0.17770000000E+01 0.  1.
</event>
<event>
 6    1  0.1782050E-003  0.5046896E+03  0.7546771E-02  0.9389377E-01
        -11   -1    0    0    0    0  0.00000000000E+00  0.00000000000E+00  0.50000000000E+03  0.50000000000E+03  0.00000000000E+00 0. -1.
         11   -1    0    0    0    0 -0.00000000000E+00 -0.00000000000E+00 -0.50000000000E+03  0.50000000000E+03  0.00000000000E+00 0. -1.
        -11    1    1    2    0    0 -0.77436017903E+01 -0.16949132336E+01  0.42636718382E+03  0.42644086523E+03  0.00000000000E+00 0. -1.
         11    1    1    2    0    0  0.10153616901E+01  0.76991742649E+01 -0.49524949549E+03  0.49531037848E+03  0.00000000000E+00 0. -1.
        -15    1    1    2    0    0  0.20213822893E+02 -0.63666085630E+01  0.27996306878E+02  0.35157975885E+02  0.17770000000E+01 0. -1.
         15    1    1    2    0    0 -0.13485582793E+02  0.36234753175E+00  0.40886004796E+02  0.43090780408E+02  0.17770000000E+01 0.  1.
</event>
<event>
 6    1  0.1782050E-003  0.4901833E+03  0.7546771E-02  0.9422047E-01
        -11   -1    0    0    0    0  0.00000000000E+00  0.00000000000E+00  0.50000000000E+03  0.50000000000E+03  0.00000000000E+00 0. -1.
         11   -1    0    0    0    0 -0.00000000000E+00 -0.00000000000E+00 -0.50000000000E+03  0.50000000000E+03  0.00000000000E+00 0.  1.
        -11    1    1    2    0    0 -0.19990129013E+01 -0.72072187712E+01  0.48961022860E+03  0.48966735239E+03  0.00000000000E+00 0. -1.
         11    1    1    2    0    0 -0.73206111598E+01  0.31938240635E+00 -0.49071372565E+03  0.49076843204E+03  0.00000000000E+00 0.  1.
        -15    1    1    2    0    0  0.30583346350E+01  0.75783382408E+01  0.68839754604E+01  0.10831965120E+02  0.17770000000E+01 0. -1.
         15    1    1    2    0    0  0.62612894261E+01 -0.69050187596E+00 -0.57804784093E+01  0.87322504407E+01  0.17770000000E+01 0.  1.
</event>
<event>
 6    1  0.1782050E-003  0.5062006E+03  0.7546771E-02  0.9386041E-01
        -11   -1    0    0    0    0  0.00000000000E+00  0.00000000000E+00  0.50000000000E+03  0.50000000000E+03  0.00000000000E+00 0.  1.
         11   -1    0    0    0    0 -0.00000000000E+00 -0.00000000000E+00 -0.50000000000E+03  0.50000000000E+03  0.00000000000E+00 0. -1.
        -11    1    1    2    0    0 -0.30766694465E+01  0.80845077701E+01  0.49372365377E+03  0.49379942431E+03  0.00000000000E+00 0.  1.
         11    1    1    2    0    0  0.82927834836E+01  0.34822940098E+01 -0.47790715422E+03  0.47799178307E+03  0.00000000000E+00 0. -1.
        -15    1    1    2    0    0  0.55640053207E+01 -0.23070064546E+01  0.73316641914E+00  0.63226336275E+01  0.17770000000E+01 0. -1.
         15    1    1    2    0    0 -0.10780119358E+02 -0.92597953252E+01 -0.16549665967E+02  0.21886158992E+02  0.17770000000E+01 0.  1.
</event>
<event>
 6    1  0.1782050E-003  0.5316063E+03  0.7546771E-02  0.9331739E-01
        -11   -1    0    0    0    0  0.00000000000E+00  0.00000000000E+00  0.50000000000E+03  0.50000000000E+03  0.00000000000E+00 0.  1.
         11   -1    0    0    0    0 -0.00000000000E+00 -0.00000000000E+00 -0.50000000000E+03  0.50000000000E+03  0.00000000000E+00 0. -1.
        -11    1    1    2    0    0 -0.15471440365E+02 -0.16995701263E+02  0.22416866615E+03  0.22534376009E+03  0.00000000000E+00 0.  1.
         11    1    1    2    0    0 -0.74586327679E+01 -0.48517606450E+02 -0.46581442419E+03  0.46839370952E+03  0.00000000000E+00 0. -1.
        -15    1    1    2    0    0  0.58267547906E+02  0.54991949085E+02  0.21404070202E+02  0.82948861073E+02  0.17770000000E+01 0. -1.
         15    1    1    2    0    0 -0.35337474773E+02  0.10521358628E+02  0.22024168784E+03  0.22331366932E+03  0.17770000000E+01 0.  1.
</event>
<event>
 6    1  0.1782050E-003  0.5024074E+03  0.7546771E-02  0.9394439E-01
        -11   -1    0    0    0    0  0.00000000000E+00  0.00000000000E+00  0.50000000000E+03  0.50000000000E+03  0.00000000000E+00 0. -1.
         11   -1    0    0    0    0 -0.00000000000E+00 -0.00000000000E+00 -0.50000000000E+03  0.50000000000E+03  0.00000000000E+00 0. -1.
        -11    1    1    2    0    0 -0.99248973117E+01  0.90472745016E+01  0.49741137023E+03  0.49759263257E+03  0.00000000000E+00 0. -1.
         11    1    1    2    0    0  0.33405444910E+01 -0.63673777878E+01 -0.33492407462E+03  0.33500125148E+03  0.00000000000E+00 0. -1.
        -15    1    1    2    0    0 -0.22597474768E+00  0.51060980008E+01 -0.15347983495E+03  0.15357519581E+03  0.17770000000E+01 0. -1.
         15    1    1    2    0    0  0.68103275684E+01 -0.77859947147E+01 -0.90074606555E+01  0.13830920134E+02  0.17770000000E+01 0.  1.
</event>
<event>
 6    1  0.1782050E-003  0.4824806E+03  0.7546771E-02  0.9439887E-01
        -11   -1    0    0    0    0  0.00000000000E+00  0.00000000000E+00  0.50000000000E+03  0.50000000000E+03  0.00000000000E+00 0.  1.
         11   -1    0    0    0    0 -0.00000000000E+00 -0.00000000000E+00 -0.50000000000E+03  0.50000000000E+03  0.00000000000E+00 0.  1.
        -11    1    1    2    0    0  0.67915896477E+01 -0.20212035951E+02  0.48337846077E+03  0.48384851806E+03  0.00000000000E+00 0.  1.
         11    1    1    2    0    0  0.53971964249E+01  0.79392982641E+01 -0.48117454260E+03  0.48127030101E+03  0.00000000000E+00 0.  1.
        -15    1    1    2    0    0 -0.42111099708E+01  0.12260749309E+02  0.12475920995E+02  0.18079429042E+02  0.17770000000E+01 0.  1.
         15    1    1    2    0    0 -0.79776761018E+01  0.11988377943E-01 -0.14679839170E+02  0.16801751896E+02  0.17770000000E+01 0. -1.
</event>
<event>
 6    1  0.1782050E-003  0.3795398E+03  0.7546771E-02  0.9718864E-01
        -11   -1    0    0    0    0  0.00000000000E+00  0.00000000000E+00  0.50000000000E+03  0.50000000000E+03  0.00000000000E+00 0.  1.
         11   -1    0    0    0    0 -0.00000000000E+00 -0.00000000000E+00 -0.50000000000E+03  0.50000000000E+03  0.00000000000E+00 0. -1.
        -11    1    1    2    0    0 -0.61395888587E+02 -0.26411343848E+01  0.46390166162E+03  0.46795425244E+03  0.00000000000E+00 0.  1.
         11    1    1    2    0    0  0.21668974375E+02 -0.13728623776E+02 -0.96547034132E+02  0.99896693444E+02  0.00000000000E+00 0. -1.
        -15    1    1    2    0    0 -0.34110153888E+02 -0.80902520651E+02 -0.75653069159E+02  0.11591059075E+03  0.17770000000E+01 0.  1.
         15    1    1    2    0    0  0.73837068100E+02  0.97272278812E+02 -0.29170155833E+03  0.31623846336E+03  0.17770000000E+01 0. -1.
</event>
<event>
 6    1  0.1782050E-003  0.5001546E+03  0.7546771E-02  0.9399464E-01
        -11   -1    0    0    0    0  0.00000000000E+00  0.00000000000E+00  0.50000000000E+03  0.50000000000E+03  0.00000000000E+00 0.  1.
         11   -1    0    0    0    0 -0.00000000000E+00 -0.00000000000E+00 -0.50000000000E+03  0.50000000000E+03  0.00000000000E+00 0. -1.
        -11    1    1    2    0    0  0.12898371115E+02 -0.13635623319E+01  0.49967708860E+03  0.49984539625E+03  0.00000000000E+00 0.  1.
         11    1    1    2    0    0 -0.19829201596E+00  0.23281870569E+01 -0.70574043887E+02  0.70612714473E+02  0.00000000000E+00 0. -1.
        -15    1    1    2    0    0 -0.59251500411E+01 -0.39018168206E+01 -0.74634326722E+02  0.74991813099E+02  0.17770000000E+01 0.  1.
         15    1    1    2    0    0 -0.67749290583E+01  0.29371920956E+01 -0.35446871799E+03  0.35455007618E+03  0.17770000000E+01 0. -1.
</event>
<event>
 6    1  0.1782050E-003  0.5002756E+03  0.7546771E-02  0.9399193E-01
        -11   -1    0    0    0    0  0.00000000000E+00  0.00000000000E+00  0.50000000000E+03  0.50000000000E+03  0.00000000000E+00 0. -1.
         11   -1    0    0    0    0 -0.00000000000E+00 -0.00000000000E+00 -0.50000000000E+03  0.50000000000E+03  0.00000000000E+00 0.  1.
        -11    1    1    2    0    0 -0.75101846631E+00 -0.78732514226E+00  0.25905845974E+02  0.25928686145E+02  0.00000000000E+00 0. -1.
         11    1    1    2    0    0  0.11655878995E+02 -0.14056826240E+02 -0.49939061677E+03  0.49972436602E+03  0.00000000000E+00 0.  1.
        -15    1    1    2    0    0  0.24985743533E+01  0.67940121978E+01  0.48360978901E+02  0.48932029232E+02  0.17770000000E+01 0.  1.
         15    1    1    2    0    0 -0.13403434882E+02  0.80501391840E+01  0.42512379189E+03  0.42541491860E+03  0.17770000000E+01 0. -1.
</event>
<event>
 6    1  0.1782050E-003  0.5016549E+03  0.7546771E-02  0.9396114E-01
        -11   -1    0    0    0    0  0.00000000000E+00  0.00000000000E+00  0.50000000000E+03  0.50000000000E+03  0.00000000000E+00 0. -1.
         11   -1    0    0    0    0 -0.00000000000E+00 -0.00000000000E+00 -0.50000000000E+03  0.50000000000E+03  0.00000000000E+00 0. -1.
        -11    1    1    2    0    0  0.89417567812E+01  0.94123586535E+00  0.49826397120E+03  0.49834508720E+03  0.00000000000E+00 0. -1.
         11    1    1    2    0    0 -0.61431373352E+01 -0.47880903764E+01 -0.47884223115E+03  0.47890557136E+03  0.00000000000E+00 0. -1.
        -15    1    1    2    0    0  0.35277597985E+01  0.24359996807E+01 -0.11244421643E+02  0.12164453573E+02  0.17770000000E+01 0.  1.
         15    1    1    2    0    0 -0.63263792445E+01  0.14108548303E+01 -0.81773184116E+01  0.10584887864E+02  0.17770000000E+01 0. -1.
</event>
<event>
 6    1  0.1782050E-003  0.5071486E+03  0.7546771E-02  0.9383955E-01
        -11   -1    0    0    0    0  0.00000000000E+00  0.00000000000E+00  0.50000000000E+03  0.50000000000E+03  0.00000000000E+00 0.  1.
         11   -1    0    0    0    0 -0.00000000000E+00 -0.00000000000E+00 -0.50000000000E+03  0.50000000000E+03  0.00000000000E+00 0. -1.
        -11    1    1    2    0    0 -0.69566926367E+01  0.82303047687E+01  0.49273353982E+03  0.49285137187E+03  0.00000000000E+00 0.  1.
         11    1    1    2    0    0 -0.10743277102E+01 -0.67226323347E+01 -0.47612418885E+03  0.47617285851E+03  0.00000000000E+00 0. -1.
        -15    1    1    2    0    0  0.32436252606E+01 -0.61546294148E+01  0.46959444598E+01  0.85796381878E+01  0.17770000000E+01 0.  1.
         15    1    1    2    0    0  0.47873950863E+01  0.46469569808E+01 -0.21305295429E+02  0.22396131434E+02  0.17770000000E+01 0. -1.
</event>
<event>
 6    1  0.1782050E-003  0.5022308E+03  0.7546771E-02  0.9394832E-01
        -11   -1    0    0    0    0  0.00000000000E+00  0.00000000000E+00  0.50000000000E+03  0.50000000000E+03  0.00000000000E+00 0. -1.
         11   -1    0    0    0    0 -0.00000000000E+00 -0.00000000000E+00 -0.50000000000E+03  0.50000000000E+03  0.00000000000E+00 0.  1.
        -11    1    1    2    0    0 -0.41484587901E+01  0.19557248915E+02  0.49736752350E+03  0.49776917253E+03  0.00000000000E+00 0. -1.
         11    1    1    2    0    0 -0.63590480298E+01  0.65777069081E+01 -0.97633383289E+02  0.98061109786E+02  0.00000000000E+00 0.  1.
        -15    1    1    2    0    0 -0.24558408799E+01 -0.95706803413E+01 -0.11114763178E+02  0.14977475292E+02  0.17770000000E+01 0. -1.
         15    1    1    2    0    0  0.12963347700E+02 -0.16564275482E+02 -0.38861937703E+03  0.38919224239E+03  0.17770000000E+01 0.  1.
</event>
<event>
 6    1  0.1782050E-003  0.5082652E+03  0.7546771E-02  0.9381503E-01
        -11   -1    0    0    0    0  0.00000000000E+00  0.00000000000E+00  0.50000000000E+03  0.50000000000E+03  0.00000000000E+00 0. -1.
         11   -1    0    0    0    0 -0.00000000000E+00 -0.00000000000E+00 -0.50000000000E+03  0.50000000000E+03  0.00000000000E+00 0. -1.
        -11    1    1    2    0    0  0.41906543078E+01  0.12620170414E+02  0.46750293761E+03  0.46769202148E+03  0.00000000000E+00 0. -1.
         11    1    1    2    0    0 -0.27290653331E+01  0.74459688588E+01 -0.49167080851E+03  0.49173475999E+03  0.00000000000E+00 0. -1.
        -15    1    1    2    0    0 -0.53616416781E+01  0.19333406053E+01 -0.18333014484E+01  0.62452966768E+01  0.17770000000E+01 0. -1.
         15    1    1    2    0    0  0.39000527033E+01 -0.21999479878E+02  0.26001172343E+02  0.34327921845E+02  0.17770000000E+01 0.  1.
</event>
<event>
 6    1  0.1782050E-003  0.5050803E+03  0.7546771E-02  0.9388513E-01
        -11   -1    0    0    0    0  0.00000000000E+00  0.00000000000E+00  0.50000000000E+03  0.50000000000E+03  0.00000000000E+00 0. -1.
         11   -1    0    0    0    0 -0.00000000000E+00 -0.00000000000E+00 -0.50000000000E+03  0.50000000000E+03  0.00000000000E+00 0. -1.
        -11    1    1    2    0    0 -0.13755933149E+02 -0.36274622676E+01  0.43819001556E+03  0.43842088673E+03  0.00000000000E+00 0. -1.
         11    1    1    2    0    0  0.53818131963E+01 -0.77785728699E+01 -0.49482933363E+03  0.49491973040E+03  0.00000000000E+00 0. -1.
        -15    1    1    2    0    0  0.17947795697E+02  0.68744122525E+01  0.17432965373E+02  0.26008593289E+02  0.17770000000E+01 0. -1.
         15    1    1    2    0    0 -0.95736757440E+01  0.45316228850E+01  0.39206352700E+02  0.40650789590E+02  0.17770000000E+01 0.  1.
</event>
<event>
 6    1  0.1782050E-003  0.5068140E+03  0.7546771E-02  0.9384691E-01
        -11   -1    0    0    0    0  0.00000000000E+00  0.00000000000E+00  0.50000000000E+03  0.50000000000E+03  0.00000000000E+00 0.  1.
         11   -1    0    0    0    0 -0.00000000000E+00 -0.00000000000E+00 -0.50000000000E+03  0.50000000000E+03  0.00000000000E+00 0.  1.
        -11    1    1    2    0    0  0.18356905969E+01 -0.95802540454E+01  0.49308950784E+03  0.49318598294E+03  0.00000000000E+00 0.  1.
         11    1    1    2    0    0 -0.33011175418E+01  0.76686300679E+01 -0.44820082731E+03  0.44827858176E+03  0.00000000000E+00 0.  1.
        -15    1    1    2    0    0  0.26931411245E+01 -0.69261772107E+01 -0.48238903419E+02  0.48840295576E+02  0.17770000000E+01 0. -1.
         15    1    1    2    0    0 -0.12277141796E+01  0.88378011883E+01  0.33502228896E+01  0.96951397288E+01  0.17770000000E+01 0.  1.
</event>
<event>
 6    1  0.1782050E-003  0.5031999E+03  0.7546771E-02  0.9392678E-01
        -11   -1    0    0    0    0  0.00000000000E+00  0.00000000000E+00  0.50000000000E+03  0.50000000000E+03  0.00000000000E+00 0.  1.
         11   -1    0    0    0    0 -0.00000000000E+00 -0.00000000000E+00 -0.50000000000E+03  0.50000000000E+03  0.00000000000E+00 0.  1.
        -11    1    1    2    0    0 -0.89090459259E+01  0.71288951017E+00  0.47151879858E+03  0.47160349524E+03  0.00000000000E+00 0.  1.
         11    1    1    2    0    0  0.77593328329E+01 -0.41027328316E+01 -0.49672255396E+03  0.49680009588E+03  0.00000000000E+00 0.  1.
        -15    1    1    2    0    0 -0.12899884253E+01 -0.14175570750E+01 -0.23191556044E+01  0.34942452569E+01  0.17770000000E+01 0.  1.
         15    1    1    2    0    0  0.24397015183E+01  0.48074003965E+01  0.27522910984E+02  0.28102163619E+02  0.17770000000E+01 0. -1.
</event>
<event>
 6    1  0.1782050E-003  0.5030402E+03  0.7546771E-02  0.9393033E-01
        -11   -1    0    0    0    0  0.00000000000E+00  0.00000000000E+00  0.50000000000E+03  0.50000000000E+03  0.00000000000E+00 0. -1.
         11   -1    0    0    0    0 -0.00000000000E+00 -0.00000000000E+00 -0.50000000000E+03  0.50000000000E+03  0.00000000000E+00 0.  1.
        -11    1    1    2    0    0 -0.20609752609E+01  0.68611475555E+01  0.49690814299E+03  0.49695978261E+03  0.00000000000E+00 0. -1.
         11    1    1    2    0    0 -0.55694491657E+01  0.13013537008E+02 -0.44072089488E+03  0.44094815805E+03  0.00000000000E+00 0.  1.
        -15    1    1    2    0    0 -0.25536382423E+01 -0.15946784200E+01 -0.21177311103E+01  0.40873685412E+01  0.17770000000E+01 0.  1.
         15    1    1    2    0    0  0.10184062669E+02 -0.18280006144E+02 -0.54069516997E+02  0.58004690796E+02  0.17770000000E+01 0. -1.
</event>
<event>
 6    1  0.1782050E-003  0.5022896E+03  0.7546771E-02  0.9394701E-01
        -11   -1    0    0    0    0  0.00000000000E+00  0.00000000000E+00  0.50000000000E+03  0.50000000000E+03  0.00000000000E+00 0.  1.
         11   -1    0    0    0    0 -0.00000000000E+00 -0.00000000000E+00 -0.50000000000E+03  0.50000000000E+03  0.00000000000E+00 0.  1.
        -11    1    1    2    0    0 -0.45301508012E+01 -0.59082937759E+01  0.42002500715E+03  0.42009098637E+03  0.00000000000E+00 0.  1.
         11    1    1    2    0    0  0.14150326251E+02  0.73835966361E+01 -0.49745438614E+03  0.49771037313E+03  0.00000000000E+00 0.  1.
        -15    1    1    2    0    0  0.80200419488E+00 -0.90206243954E+01  0.10323574510E+02  0.13847338910E+02  0.17770000000E+01 0. -1.
         15    1    1    2    0    0 -0.10422179645E+02  0.75453215352E+01  0.67105804480E+02  0.68351301593E+02  0.17770000000E+01 0.  1.
</event>
<event>
 6    1  0.1782050E-003  0.5026137E+03  0.7546771E-02  0.9393980E-01
        -11   -1    0    0    0    0  0.00000000000E+00  0.00000000000E+00  0.50000000000E+03  0.50000000000E+03  0.00000000000E+00 0.  1.
         11   -1    0    0    0    0 -0.00000000000E+00 -0.00000000000E+00 -0.50000000000E+03  0.50000000000E+03  0.00000000000E+00 0. -1.
        -11    1    1    2    0    0  0.67257901051E+01  0.92285423525E+01  0.49725523162E+03  0.49738633638E+03  0.00000000000E+00 0.  1.
         11    1    1    2    0    0 -0.14511343938E+01 -0.27411811051E+02 -0.34377634059E+03  0.34487053444E+03  0.00000000000E+00 0. -1.
        -15    1    1    2    0    0 -0.72770071729E+01 -0.21774321122E+01 -0.94328958365E+01  0.12240641195E+02  0.17770000000E+01 0. -1.
         15    1    1    2    0    0  0.20023514615E+01  0.20360700811E+02 -0.14404599520E+03  0.14550248798E+03  0.17770000000E+01 0.  1.
</event>
<event>
 6    1  0.1782050E-003  0.5001814E+03  0.7546771E-02  0.9399404E-01
        -11   -1    0    0    0    0  0.00000000000E+00  0.00000000000E+00  0.50000000000E+03  0.50000000000E+03  0.00000000000E+00 0.  1.
         11   -1    0    0    0    0 -0.00000000000E+00 -0.00000000000E+00 -0.50000000000E+03  0.50000000000E+03  0.00000000000E+00 0. -1.
        -11    1    1    2    0    0 -0.17592253243E+01  0.65994553392E+01  0.49977197900E+03  0.49981864579E+03  0.00000000000E+00 0.  1.
         11    1    1    2    0    0 -0.31232654039E+01 -0.86833640628E+00 -0.20288228991E+03  0.20290818700E+03  0.00000000000E+00 0. -1.
        -15    1    1    2    0    0  0.71395308657E+01  0.61111529688E-01 -0.96872047769E+02  0.97151057655E+02  0.17770000000E+01 0. -1.
         15    1    1    2    0    0 -0.22570401375E+01 -0.57922304626E+01 -0.20001764132E+03  0.20012210956E+03  0.17770000000E+01 0.  1.
</event>
<event>
 6    1  0.1782050E-003  0.5022429E+03  0.7546771E-02  0.9394805E-01
        -11   -1    0    0    0    0  0.00000000000E+00  0.00000000000E+00  0.50000000000E+03  0.50000000000E+03  0.00000000000E+00 0. -1.
         11   -1    0    0    0    0 -0.00000000000E+00 -0.00000000000E+00 -0.50000000000E+03  0.50000000000E+03  0.00000000000E+00 0.  1.
        -11    1    1    2    0    0 -0.73121416377E+01  0.12788542148E+02  0.49753905320E+03  0.49775709305E+03  0.00000000000E+00 0. -1.
         11    1    1    2    0    0  0.62193499819E+01 -0.49057883767E+00 -0.30968296938E+03  0.30974580304E+03  0.00000000000E+00 0.  1.
        -15    1    1    2    0    0 -0.12332274716E+02  0.14773652481E+00 -0.14886662826E+03  0.14938720683E+03  0.17770000000E+01 0.  1.
         15    1    1    2    0    0  0.13425066372E+02 -0.12445699836E+02 -0.38989455567E+02  0.43109897076E+02  0.17770000000E+01 0. -1.
</event>
<event>
 6    1  0.1782050E-003  0.5005160E+03  0.7546771E-02  0.9398656E-01
        -11   -1    0    0    0    0  0.00000000000E+00  0.00000000000E+00  0.50000000000E+03  0.50000000000E+03  0.00000000000E+00 0. -1.
         11   -1    0    0    0    0 -0.00000000000E+00 -0.00000000000E+00 -0.50000000000E+03  0.50000000000E+03  0.00000000000E+00 0. -1.
        -11    1    1    2    0    0  0.25846057629E+01 -0.35179884345E+01  0.25645139405E+03  0.25648854544E+03  0.00000000000E+00 0. -1.
         11    1    1    2    0    0  0.11129390974E+02 -0.78612157390E+01 -0.49929809707E+03  0.49948398552E+03  0.00000000000E+00 0. -1.
        -15    1    1    2    0    0 -0.15572359260E+02  0.83946003460E+01  0.14271121688E+03  0.14381452235E+03  0.17770000000E+01 0.  1.
         15    1    1    2    0    0  0.18583625231E+01  0.29846038275E+01  0.10013548614E+03  0.10021294669E+03  0.17770000000E+01 0. -1.
</event>
<event>
 6    1  0.1782050E-003  0.5128685E+03  0.7546771E-02  0.9371467E-01
        -11   -1    0    0    0    0  0.00000000000E+00  0.00000000000E+00  0.50000000000E+03  0.50000000000E+03  0.00000000000E+00 0. -1.
         11   -1    0    0    0    0 -0.00000000000E+00 -0.00000000000E+00 -0.50000000000E+03  0.50000000000E+03  0.00000000000E+00 0. -1.
        -11    1    1    2    0    0  0.15097333635E+01 -0.70382210701E+01  0.48707831796E+03  0.48713150553E+03  0.00000000000E+00 0. -1.
         11    1    1    2    0    0 -0.53485826404E+01 -0.16164523307E+02 -0.16513963935E+03  0.16601505845E+03  0.00000000000E+00 0. -1.
        -15    1    1    2    0    0  0.31724030960E+02 -0.16918118766E+02 -0.28039153437E+03  0.28269277875E+03  0.17770000000E+01 0. -1.
         15    1    1    2    0    0 -0.27885181683E+02  0.40120863143E+02 -0.41547144252E+02  0.64160657270E+02  0.17770000000E+01 0.  1.
</event>
<event>
 6    1  0.1782050E-003  0.5052877E+03  0.7546771E-02  0.9388055E-01
        -11   -1    0    0    0    0  0.00000000000E+00  0.00000000000E+00  0.50000000000E+03  0.50000000000E+03  0.00000000000E+00 0. -1.
         11   -1    0    0    0    0 -0.00000000000E+00 -0.00000000000E+00 -0.50000000000E+03  0.50000000000E+03  0.00000000000E+00 0. -1.
        -11    1    1    2    0    0  0.12340931074E+02 -0.10781715458E+01  0.49455719527E+03  0.49471232088E+03  0.00000000000E+00 0. -1.
         11    1    1    2    0    0 -0.64607734365E+01  0.28520150959E+01 -0.48432257442E+03  0.48437406172E+03  0.00000000000E+00 0. -1.
        -15    1    1    2    0    0  0.43460683811E+01 -0.19730595740E+00 -0.92420994625E+01  0.10368286816E+02  0.17770000000E+01 0. -1.
         15    1    1    2    0    0 -0.10226226018E+02 -0.15765375927E+01 -0.99252139429E+00  0.10545330582E+02  0.17770000000E+01 0.  1.
</event>
<event>
 6    1  0.1782050E-003  0.5024012E+03  0.7546771E-02  0.9394453E-01
        -11   -1    0    0    0    0  0.00000000000E+00  0.00000000000E+00  0.50000000000E+03  0.50000000000E+03  0.00000000000E+00 0. -1.
         11   -1    0    0    0    0 -0.00000000000E+00 -0.00000000000E+00 -0.50000000000E+03  0.50000000000E+03  0.00000000000E+00 0. -1.
        -11    1    1    2    0    0  0.76646416269E+01 -0.56361983688E+00  0.49753941728E+03  0.49759877024E+03  0.00000000000E+00 0. -1.
         11    1    1    2    0    0  0.65824217875E+00  0.60708901790E+01 -0.39082519279E+03  0.39087289534E+03  0.00000000000E+00 0. -1.
        -15    1    1    2    0    0 -0.37631118910E+01 -0.10735238907E+02 -0.10265127791E+03  0.10329496092E+03  0.17770000000E+01 0. -1.
         15    1    1    2    0    0 -0.45597719146E+01  0.52279685653E+01 -0.40629465820E+01  0.82333734982E+01  0.17770000000E+01 0.  1.
</event>
<event>
 6    1  0.1782050E-003  0.5039015E+03  0.7546771E-02  0.9391122E-01
        -11   -1    0    0    0    0  0.00000000000E+00  0.00000000000E+00  0.50000000000E+03  0.50000000000E+03  0.00000000000E+00 0. -1.
         11   -1    0    0    0    0 -0.00000000000E+00 -0.00000000000E+00 -0.50000000000E+03  0.50000000000E+03  0.00000000000E+00 0.  1.
        -11    1    1    2    0    0 -0.61867539189E+01  0.71212971167E+00  0.55150389750E+02  0.55500887762E+02  0.00000000000E+00 0. -1.
         11    1    1    2    0    0  0.78989417435E+01 -0.38869906940E+01 -0.49602038425E+03  0.49609850188E+03  0.00000000000E+00 0.  1.
        -15    1    1    2    0    0 -0.10837716634E+02  0.30184765793E+02  0.77269887013E+02  0.83680161065E+02  0.17770000000E+01 0.  1.
         15    1    1    2    0    0  0.91255288094E+01 -0.27009904811E+02  0.36360010749E+03  0.36472044929E+03  0.17770000000E+01 0. -1.
</event>
<event>
 6    1  0.1782050E-003  0.5007284E+03  0.7546771E-02  0.9398181E-01
        -11   -1    0    0    0    0  0.00000000000E+00  0.00000000000E+00  0.50000000000E+03  0.50000000000E+03  0.00000000000E+00 0.  1.
         11   -1    0    0    0    0 -0.00000000000E+00 -0.00000000000E+00 -0.50000000000E+03  0.50000000000E+03  0.00000000000E+00 0. -1.
        -11    1    1    2    0    0  0.10052951504E+02 -0.12239083745E+01  0.49916887603E+03  0.49927159601E+03  0.00000000000E+00 0.  1.
         11    1    1    2    0    0  0.14992492545E+01 -0.47101797578E+01 -0.25767906181E+03  0.25772646825E+03  0.00000000000E+00 0. -1.
        -15    1    1    2    0    0 -0.18595646845E+02  0.61903071441E+01 -0.16576093223E+03  0.16692502020E+03  0.17770000000E+01 0. -1.
         15    1    1    2    0    0  0.70434460868E+01 -0.25621901178E+00 -0.75728881988E+02  0.76076915534E+02  0.17770000000E+01 0.  1.
</event>
<event>
 6    1  0.1782050E-003  0.5010367E+03  0.7546771E-02  0.9397493E-01
        -11   -1    0    0    0    0  0.00000000000E+00  0.00000000000E+00  0.50000000000E+03  0.50000000000E+03  0.00000000000E+00 0. -1.
         11   -1    0    0    0    0 -0.00000000000E+00 -0.00000000000E+00 -0.50000000000E+03  0.50000000000E+03  0.00000000000E+00 0. -1.
        -11    1    1    2    0    0  0.28433930496E+01  0.17688265308E+01  0.16119331595E+03  0.16122809538E+03  0.00000000000E+00 0. -1.
         11    1    1    2    0    0  0.60745859365E+01  0.88398482747E+01 -0.49884801746E+03  0.49896331331E+03  0.00000000000E+00 0. -1.
        -15    1    1    2    0    0 -0.47541943106E+01 -0.43500024939E+01  0.32438903882E+03  0.32445790347E+03  0.17770000000E+01 0. -1.
         15    1    1    2    0    0 -0.41637846755E+01 -0.62586723116E+01  0.13265662679E+02  0.15350687842E+02  0.17770000000E+01 0.  1.
</event>
<event>
 6    1  0.1782050E-003  0.5205802E+03  0.7546771E-02  0.9354902E-01
        -11   -1    0    0    0    0  0.00000000000E+00  0.00000000000E+00  0.50000000000E+03  0.50000000000E+03  0.00000000000E+00 0.  1.
         11   -1    0    0    0    0 -0.00000000000E+00 -0.00000000000E+00 -0.50000000000E+03  0.50000000000E+03  0.00000000000E+00 0.  1.
        -11    1    1    2    0    0  0.59854668548E+02  0.12348688600E+02  0.47550842513E+03  0.47941978874E+03  0.00000000000E+00 0.  1.
         11    1    1    2    0    0  0.93679811991E+01 -0.45895752468E+01 -0.40261665834E+03  0.40275178068E+03  0.00000000000E+00 0.  1.
        -15    1    1    2    0    0 -0.53504182877E+02  0.49917431573E+00 -0.81895095884E+02  0.97841255200E+02  0.17770000000E+01 0. -1.
         15    1    1    2    0    0 -0.15718466871E+02 -0.82582876685E+01  0.90033290879E+01  0.19987175379E+02  0.17770000000E+01 0.  1.
</event>
<event>
 6    1  0.1782050E-003  0.5009166E+03  0.7546771E-02  0.9397761E-01
        -11   -1    0    0    0    0  0.00000000000E+00  0.00000000000E+00  0.50000000000E+03  0.50000000000E+03  0.00000000000E+00 0. -1.
         11   -1    0    0    0    0 -0.00000000000E+00 -0.00000000000E+00 -0.50000000000E+03  0.50000000000E+03  0.00000000000E+00 0.  1.
        -11    1    1    2    0    0  0.16664314426E+01  0.18120505707E+02  0.49875151050E+03  0.49908335871E+03  0.00000000000E+00 0. -1.
         11    1    1    2    0    0  0.53234013583E+01 -0.70576494003E+01 -0.27224281212E+03  0.27238630246E+03  0.00000000000E+00 0.  1.
        -15    1    1    2    0    0 -0.44154456531E+01 -0.15593670555E+02 -0.21645185861E+03  0.21706502147E+03  0.17770000000E+01 0.  1.
         15    1    1    2    0    0 -0.25743871478E+01  0.45308142486E+01 -0.10056839771E+02  0.11465317358E+02  0.17770000000E+01 0. -1.
</event>
<event>
 6    1  0.1782050E-003  0.5030559E+03  0.7546771E-02  0.9392998E-01
        -11   -1    0    0    0    0  0.00000000000E+00  0.00000000000E+00  0.50000000000E+03  0.50000000000E+03  0.00000000000E+00 0. -1.
         11   -1    0    0    0    0 -0.00000000000E+00 -0.00000000000E+00 -0.50000000000E+03  0.50000000000E+03  0.00000000000E+00 0.  1.
        -11    1    1    2    0    0 -0.11559482657E+02  0.61080846130E+01  0.47461140885E+03  0.47479144869E+03  0.00000000000E+00 0. -1.
         11    1    1    2    0    0 -0.23298506469E+01 -0.79067768969E+01 -0.49687576853E+03  0.49694413638E+03  0.00000000000E+00 0.  1.
        -15    1    1    2    0    0  0.61490965768E+01  0.45098274667E+01  0.56646496275E+01  0.96641562949E+01  0.17770000000E+01 0.  1.
         15    1    1    2    0    0  0.77402367269E+01 -0.27111351828E+01  0.16599710058E+02  0.18600258642E+02  0.17770000000E+01 0. -1.
</event>
<event>
 6    1  0.1782050E-003  0.5029116E+03  0.7546771E-02  0.9393318E-01
        -11   -1    0    0    0    0  0.00000000000E+00  0.00000000000E+00  0.50000000000E+03  0.50000000000E+03  0.00000000000E+00 0. -1.
         11   -1    0    0    0    0 -0.00000000000E+00 -0.00000000000E+00 -0.50000000000E+03  0.50000000000E+03  0.00000000000E+00 0.  1.
        -11    1    1    2    0    0 -0.55661120455E+01 -0.36031513833E+01  0.45641067197E+03  0.45645883253E+03  0.00000000000E+00 0. -1.
         11    1    1    2    0    0 -0.41350029299E+01 -0.67600631015E+01 -0.49702520528E+03  0.49708837382E+03  0.00000000000E+00 0.  1.
        -15    1    1    2    0    0  0.80390568860E+01  0.12507562169E+02  0.40530875349E+02  0.43208507641E+02  0.17770000000E+01 0. -1.
         15    1    1    2    0    0  0.16620580894E+01 -0.21443476841E+01  0.83657955870E-01  0.32442860133E+01  0.17770000000E+01 0.  1.
</event>
<event>
 6    1  0.1782050E-003  0.5066911E+03  0.7546771E-02  0.9384961E-01
        -11   -1    0    0    0    0  0.00000000000E+00  0.00000000000E+00  0.50000000000E+03  0.50000000000E+03  0.00000000000E+00 0.  1.
         11   -1    0    0    0    0 -0.00000000000E+00 -0.00000000000E+00 -0.50000000000E+03  0.50000000000E+03  0.00000000000E+00 0.  1.
        -11    1    1    2    0    0  0.20264745669E+01 -0.71377253189E+01  0.49325312554E+03  0.49330892915E+03  0.00000000000E+00 0.  1.
         11    1    1    2    0    0  0.11173593865E+02  0.11796407627E+02 -0.46886319784E+03  0.46914465011E+03  0.00000000000E+00 0.  1.
        -15    1    1    2    0    0 -0.14882601163E+02 -0.66086758099E+01 -0.28202319521E+02  0.32614336858E+02  0.17770000000E+01 0.  1.
         15    1    1    2    0    0  0.16825327313E+01  0.19499935020E+01  0.38123918244E+01  0.49320838875E+01  0.17770000000E+01 0. -1.
</event>
<event>
 6    1  0.1782050E-003  0.5104462E+03  0.7546771E-02  0.9376734E-01
        -11   -1    0    0    0    0  0.00000000000E+00  0.00000000000E+00  0.50000000000E+03  0.50000000000E+03  0.00000000000E+00 0.  1.
         11   -1    0    0    0    0 -0.00000000000E+00 -0.00000000000E+00 -0.50000000000E+03  0.50000000000E+03  0.00000000000E+00 0. -1.
        -11    1    1    2    0    0  0.11057985867E+02  0.39074770867E+02  0.48786661606E+03  0.48955382935E+03  0.00000000000E+00 0.  1.
         11    1    1    2    0    0  0.27140600980E+01 -0.14408554809E+02 -0.34523717610E+03  0.34554837625E+03  0.00000000000E+00 0. -1.
        -15    1    1    2    0    0 -0.32140576068E+02 -0.59256049242E+01 -0.17660623258E+02  0.37191192056E+02  0.17770000000E+01 0. -1.
         15    1    1    2    0    0  0.18368530103E+02 -0.18740611134E+02 -0.12496881670E+03  0.12770660234E+03  0.17770000000E+01 0.  1.
</event>
<event>
 6    1  0.1782050E-003  0.5026989E+03  0.7546771E-02  0.9393791E-01
        -11   -1    0    0    0    0  0.00000000000E+00  0.00000000000E+00  0.50000000000E+03  0.50000000000E+03  0.00000000000E+00 0.  1.
         11   -1    0    0    0    0 -0.00000000000E+00 -0.00000000000E+00 -0.50000000000E+03  0.50000000000E+03  0.00000000000E+00 0.  1.
        -11    1    1    2    0    0 -0.34894957160E+01  0.96279576286E+01  0.37382661194E+03  0.37396685675E+03  0.00000000000E+00 0.  1.
         11    1    1    2    0    0  0.94681698478E+01  0.16485337247E+01 -0.49720821242E+03  0.49730108627E+03  0.00000000000E+00 0.  1.
        -15    1    1    2    0    0 -0.10892917243E+02  0.29971168912E+01  0.10118802541E+03  0.10183227666E+03  0.17770000000E+01 0.  1.
         15    1    1    2    0    0  0.49142431112E+01 -0.14273608244E+02  0.22193575074E+02  0.26899780319E+02  0.17770000000E+01 0. -1.
</event>
<event>
 6    1  0.1782050E-003  0.5007679E+03  0.7546771E-02  0.9398093E-01
        -11   -1    0    0    0    0  0.00000000000E+00  0.00000000000E+00  0.50000000000E+03  0.50000000000E+03  0.00000000000E+00 0. -1.
         11   -1    0    0    0    0 -0.00000000000E+00 -0.00000000000E+00 -0.50000000000E+03  0.50000000000E+03  0.00000000000E+00 0.  1.
        -11    1    1    2    0    0  0.53405081228E+00 -0.10162920804E+02  0.49912836793E+03  0.49923210819E+03  0.00000000000E+00 0. -1.
         11    1    1    2    0    0  0.21752764329E+01 -0.67636021221E+01 -0.33160682058E+03  0.33168292328E+03  0.00000000000E+00 0.  1.
        -15    1    1    2    0    0  0.43589543627E+01  0.26549419288E+01 -0.20789457458E+02  0.21480420624E+02  0.17770000000E+01 0. -1.
         15    1    1    2    0    0 -0.70682816080E+01  0.14271580997E+02 -0.14673208990E+03  0.14760454791E+03  0.17770000000E+01 0.  1.
</event>
<event>
 6    1  0.1782050E-003  0.5224774E+03  0.7546771E-02  0.9350873E-01
        -11   -1    0    0    0    0  0.00000000000E+00  0.00000000000E+00  0.50000000000E+03  0.50000000000E+03  0.00000000000E+00 0. -1.
         11   -1    0    0    0    0 -0.00000000000E+00 -0.00000000000E+00 -0.50000000000E+03  0.50000000000E+03  0.00000000000E+00 0. -1.
        -11    1    1    2    0    0 -0.22295069103E+02 -0.85630028148E+01  0.47692503141E+03  0.47752264942E+03  0.00000000000E+00 0. -1.
         11    1    1    2    0    0 -0.37075023610E+00 -0.54507890850E+01 -0.34901109294E+03  0.34905385194E+03  0.00000000000E+00 0. -1.
        -15    1    1    2    0    0  0.11628823535E+02  0.44029386809E+02 -0.13336166961E+03  0.14093370459E+03  0.17770000000E+01 0. -1.
         15    1    1    2    0    0  0.11036995804E+02 -0.30015594909E+02  0.54477311348E+01  0.32489794053E+02  0.17770000000E+01 0.  1.
</event>
<event>
 6    1  0.1782050E-003  0.5006608E+03  0.7546771E-02  0.9398332E-01
        -11   -1    0    0    0    0  0.00000000000E+00  0.00000000000E+00  0.50000000000E+03  0.50000000000E+03  0.00000000000E+00 0.  1.
         11   -1    0    0    0    0 -0.00000000000E+00 -0.00000000000E+00 -0.50000000000E+03  0.50000000000E+03  0.00000000000E+00 0.  1.
        -11    1    1    2    0    0  0.12221772162E+01 -0.55975790082E+01  0.27315426811E+03  0.27321434954E+03  0.00000000000E+00 0.  1.
         11    1    1    2    0    0 -0.12090201770E+02 -0.15236576577E+01 -0.49919046721E+03  0.49933918039E+03  0.00000000000E+00 0.  1.
        -15    1    1    2    0    0 -0.42829159194E+01  0.12312290789E+01  0.14373369138E+02  0.15152912696E+02  0.17770000000E+01 0. -1.
         15    1    1    2    0    0  0.15150940473E+02  0.58900075869E+01  0.21166282997E+03  0.21229355738E+03  0.17770000000E+01 0.  1.
</event>
<event>
 6    1  0.1782050E-003  0.5062252E+03  0.7546771E-02  0.9385987E-01
        -11   -1    0    0    0    0  0.00000000000E+00  0.00000000000E+00  0.50000000000E+03  0.50000000000E+03  0.00000000000E+00 0. -1.
         11   -1    0    0    0    0 -0.00000000000E+00 -0.00000000000E+00 -0.50000000000E+03  0.50000000000E+03  0.00000000000E+00 0.  1.
        -11    1    1    2    0    0  0.19177285926E+01 -0.13747009670E+02  0.47237400757E+03  0.47257788880E+03  0.00000000000E+00 0. -1.
         11    1    1    2    0    0 -0.73118715465E+01 -0.29181229037E+01 -0.49371199542E+03  0.49377475971E+03  0.00000000000E+00 0.  1.
        -15    1    1    2    0    0  0.20447754540E+01  0.79946972801E+01  0.22576950890E+02  0.24103375940E+02  0.17770000000E+01 0.  1.
         15    1    1    2    0    0  0.33493674999E+01  0.86704352941E+01 -0.12389630438E+01  0.95439755481E+01  0.17770000000E+01 0. -1.
</event>
<event>
 6    1  0.1782050E-003  0.5047576E+03  0.7546771E-02  0.9389227E-01
        -11   -1    0    0    0    0  0.00000000000E+00  0.00000000000E+00  0.50000000000E+03  0.50000000000E+03  0.00000000000E+00 0. -1.
         11   -1    0    0    0    0 -0.00000000000E+00 -0.00000000000E+00 -0.50000000000E+03  0.50000000000E+03  0.00000000000E+00 0. -1.
        -11    1    1    2    0    0 -0.25441892787E+01 -0.86465387744E+01  0.49516038646E+03  0.49524240918E+03  0.00000000000E+00 0. -1.
         11    1    1    2    0    0 -0.63054692403E+01  0.61608941632E+01 -0.46916431998E+03  0.46924713606E+03  0.00000000000E+00 0. -1.
        -15    1    1    2    0    0  0.47165202339E+01  0.51964309117E+01  0.16042107609E+01  0.74148282854E+01  0.17770000000E+01 0.  1.
         15    1    1    2    0    0  0.41331382851E+01 -0.27107863005E+01 -0.27600277236E+02  0.28095626473E+02  0.17770000000E+01 0.  1.
</event>
<event>
 6    1  0.1782050E-003  0.5396098E+03  0.7546771E-02  0.9315296E-01
        -11   -1    0    0    0    0  0.00000000000E+00  0.00000000000E+00  0.50000000000E+03  0.50000000000E+03  0.00000000000E+00 0.  1.
         11   -1    0    0    0    0 -0.00000000000E+00 -0.00000000000E+00 -0.50000000000E+03  0.50000000000E+03  0.00000000000E+00 0.  1.
        -11    1    1    2    0    0  0.11562682026E+02  0.27574949493E+01  0.46023674857E+03  0.46039023027E+03  0.00000000000E+00 0.  1.
         11    1    1    2    0    0  0.24605434254E+01  0.63886379975E+01 -0.45027607457E+03  0.45032811626E+03  0.00000000000E+00 0.  1.
        -15    1    1    2    0    0  0.38872578602E+01 -0.45576454306E+01 -0.47229372861E+02  0.47640888902E+02  0.17770000000E+01 0.  1.
         15    1    1    2    0    0 -0.17910483311E+02 -0.45884875162E+01  0.37268698856E+02  0.41640764565E+02  0.17770000000E+01 0. -1.
</event>
<event>
 6    1  0.1782050E-003  0.5114864E+03  0.7546771E-02  0.9374469E-01
        -11   -1    0    0    0    0  0.00000000000E+00  0.00000000000E+00  0.50000000000E+03  0.50000000000E+03  0.00000000000E+00 0.  1.
         11   -1    0    0    0    0 -0.00000000000E+00 -0.00000000000E+00 -0.50000000000E+03  0.50000000000E+03  0.00000000000E+00 0. -1.
        -11    1    1    2    0    0 -0.11233895506E+02  0.52933424319E+00  0.48838413714E+03  0.48851360883E+03  0.00000000000E+00 0.  1.
         11    1    1    2    0    0 -0.65850307905E+01 -0.21169929226E+01 -0.47666136452E+03  0.47671154875E+03  0.00000000000E+00 0. -1.
        -15    1    1    2    0    0  0.11098808596E+02  0.52607529680E+01 -0.19886380655E+02  0.23441095081E+02  0.17770000000E+01 0. -1.
         15    1    1    2    0    0  0.67201177002E+01 -0.36730942886E+01  0.81636080319E+01  0.11333747335E+02  0.17770000000E+01 0.  1.
</event>
<event>
 6    1  0.1782050E-003  0.5166916E+03  0.7546771E-02  0.9363216E-01
        -11   -1    0    0    0    0  0.00000000000E+00  0.00000000000E+00  0.50000000000E+03  0.50000000000E+03  0.00000000000E+00 0. -1.
         11   -1    0    0    0    0 -0.00000000000E+00 -0.00000000000E+00 -0.50000000000E+03  0.50000000000E+03  0.00000000000E+00 0.  1.
        -11    1    1    2    0    0  0.77599956518E+01 -0.31577207415E+00  0.43805185566E+03  0.43812069740E+03  0.00000000000E+00 0. -1.
         11    1    1    2    0    0  0.65472186484E+01  0.11101898894E+01 -0.48326276637E+03  0.48330839011E+03  0.00000000000E+00 0.  1.
        -15    1    1    2    0    0 -0.25182221354E+02 -0.96082323551E+01  0.55083261041E+02  0.61349700710E+02  0.17770000000E+01 0.  1.
         15    1    1    2    0    0  0.10875007054E+02  0.88138145398E+01 -0.98723503298E+01  0.17221211781E+02  0.17770000000E+01 0. -1.
</event>
<event>
 6    1  0.9489266E-003  0.5549538E+03  0.7546771E-02  0.9284602E-01
        -11   -1    0    0    0    0  0.00000000000E+00  0.00000000000E+00  0.50000000000E+03  0.50000000000E+03  0.00000000000E+00 0. -1.
         11   -1    0    0    0    0 -0.00000000000E+00 -0.00000000000E+00 -0.50000000000E+03  0.50000000000E+03  0.00000000000E+00 0. -1.
        -11    1    1    2    0    0  0.57814883954E+02 -0.19789979328E+02  0.44083093717E+03  0.44504619901E+03  0.00000000000E+00 0. -1.
         11    1    1    2    0    0 -0.46625570406E+01  0.24293585052E+01 -0.34337668287E+03  0.34341692963E+03  0.00000000000E+00 0. -1.
        -15    1    1    2    0    0  0.37052386332E+01  0.15665929602E+01 -0.13917578709E+03  0.13924525287E+03  0.17770000000E+01 0. -1.
         15    1    1    2    0    0 -0.56857565546E+02  0.15794027863E+02  0.41721532787E+02  0.72291618485E+02  0.17770000000E+01 0.  1.
</event>
<event>
 6    1  0.1782050E-003  0.5036999E+03  0.7546771E-02  0.9391569E-01
        -11   -1    0    0    0    0  0.00000000000E+00  0.00000000000E+00  0.50000000000E+03  0.50000000000E+03  0.00000000000E+00 0. -1.
         11   -1    0    0    0    0 -0.00000000000E+00 -0.00000000000E+00 -0.50000000000E+03  0.50000000000E+03  0.00000000000E+00 0.  1.
        -11    1    1    2    0    0 -0.35848793704E+01  0.73526563112E+00  0.22917373608E+03  0.22920295218E+03  0.00000000000E+00 0. -1.
         11    1    1    2    0    0 -0.13204166190E+01 -0.16372303642E+02 -0.49602825309E+03  0.49630013468E+03  0.00000000000E+00 0.  1.
        -15    1    1    2    0    0  0.72576522660E+01  0.20979381642E+02  0.29001930643E+02  0.36566072806E+02  0.17770000000E+01 0.  1.
         15    1    1    2    0    0 -0.23523562766E+01 -0.53423436310E+01  0.23785258636E+03  0.23793084033E+03  0.17770000000E+01 0. -1.
</event>
<event>
 6    1  0.1782050E-003  0.5045274E+03  0.7546771E-02  0.9389736E-01
        -11   -1    0    0    0    0  0.00000000000E+00  0.00000000000E+00  0.50000000000E+03  0.50000000000E+03  0.00000000000E+00 0. -1.
         11   -1    0    0    0    0 -0.00000000000E+00 -0.00000000000E+00 -0.50000000000E+03  0.50000000000E+03  0.00000000000E+00 0. -1.
        -11    1    1    2    0    0  0.10939810987E+02  0.29722921142E+02  0.21866284546E+03  0.22094472497E+03  0.00000000000E+00 0. -1.
         11    1    1    2    0    0  0.12992851282E+02  0.13202092124E+02 -0.49512627964E+03  0.49547264527E+03  0.00000000000E+00 0. -1.
        -15    1    1    2    0    0 -0.11709700386E+02  0.54151356395E+01  0.67561520394E+02  0.68805214512E+02  0.17770000000E+01 0.  1.
         15    1    1    2    0    0 -0.12222961883E+02 -0.48340148905E+02  0.20890191378E+03  0.21477741525E+03  0.17770000000E+01 0. -1.
</event>
<event>
 6    1  0.4134260E-003  0.5057413E+03  0.7546771E-02  0.9387054E-01
        -11   -1    0    0    0    0  0.00000000000E+00  0.00000000000E+00  0.50000000000E+03  0.50000000000E+03  0.00000000000E+00 0. -1.
         11   -1    0    0    0    0 -0.00000000000E+00 -0.00000000000E+00 -0.50000000000E+03  0.50000000000E+03  0.00000000000E+00 0.  1.
        -11    1    1    2    0    0 -0.58941045857E+01 -0.62528535376E+01  0.49418395041E+03  0.49425865241E+03  0.00000000000E+00 0. -1.
         11    1    1    2    0    0  0.18841557840E+02  0.20371574005E+02 -0.24039286387E+03  0.24198912027E+03  0.00000000000E+00 0.  1.
        -15    1    1    2    0    0 -0.18102906340E+02 -0.16651282955E+02 -0.25611996461E+03  0.25730443922E+03  0.17770000000E+01 0.  1.
         15    1    1    2    0    0  0.51554530847E+01  0.25325624878E+01  0.23288780737E+01  0.64477880972E+01  0.17770000000E+01 0. -1.
</event>
<event>
 6    1  0.1782050E-003  0.5035344E+03  0.7546771E-02  0.9391936E-01
        -11   -1    0    0    0    0  0.00000000000E+00  0.00000000000E+00  0.50000000000E+03  0.50000000000E+03  0.00000000000E+00 0. -1.
         11   -1    0    0    0    0 -0.00000000000E+00 -0.00000000000E+00 -0.50000000000E+03  0.50000000000E+03  0.00000000000E+00 0.  1.
        -11    1    1    2    0    0 -0.13500724248E+01 -0.21284462185E+02  0.21339586888E+03  0.21445896549E+03  0.00000000000E+00 0. -1.
         11    1    1    2    0    0  0.13090494316E+02 -0.13920055158E+02 -0.49609777229E+03  0.49646563692E+03  0.00000000000E+00 0.  1.
        -15    1    1    2    0    0 -0.24180230975E+02  0.30648015247E+02  0.12889493519E+03  0.13468870203E+03  0.17770000000E+01 0. -1.
         15    1    1    2    0    0  0.12439809083E+02  0.45565020955E+01  0.15380696823E+03  0.15438669556E+03  0.17770000000E+01 0.  1.
</event>
<event>
 6    1  0.1782050E-003  0.5008003E+03  0.7546771E-02  0.9398021E-01
        -11   -1    0    0    0    0  0.00000000000E+00  0.00000000000E+00  0.50000000000E+03  0.50000000000E+03  0.00000000000E+00 0.  1.
         11   -1    0    0    0    0 -0.00000000000E+00 -0.00000000000E+00 -0.50000000000E+03  0.50000000000E+03  0.00000000000E+00 0. -1.
        -11    1    1    2    0    0  0.82570180061E+01  0.51852760804E+00  0.49913117364E+03  0.49919973530E+03  0.00000000000E+00 0.  1.
         11    1    1    2    0    0  0.50149537171E+01 -0.69010204819E+01 -0.33296624528E+03  0.33307550846E+03  0.00000000000E+00 0. -1.
        -15    1    1    2    0    0 -0.13343458390E+01  0.57761195739E+01 -0.11442931088E+03  0.11459654861E+03  0.17770000000E+01 0. -1.
         15    1    1    2    0    0 -0.11937625884E+02  0.60637329992E+00 -0.51735617483E+02  0.53128207628E+02  0.17770000000E+01 0. -1.
</event>
<event>
 6    1  0.1782050E-003  0.5009435E+03  0.7546771E-02  0.9397701E-01
        -11   -1    0    0    0    0  0.00000000000E+00  0.00000000000E+00  0.50000000000E+03  0.50000000000E+03  0.00000000000E+00 0. -1.
         11   -1    0    0    0    0 -0.00000000000E+00 -0.00000000000E+00 -0.50000000000E+03  0.50000000000E+03  0.00000000000E+00 0. -1.
        -11    1    1    2    0    0  0.22673117781E+01 -0.66155323196E+01  0.49900750603E+03  0.49905650687E+03  0.00000000000E+00 0. -1.
         11    1    1    2    0    0 -0.36271151256E+01 -0.59014289892E+00 -0.18759904425E+03  0.18763503308E+03  0.00000000000E+00 0. -1.
        -15    1    1    2    0    0 -0.24994291180E+01 -0.33149537595E+00 -0.17844229625E+01  0.35635557256E+01  0.17770000000E+01 0.  1.
         15    1    1    2    0    0  0.38592324655E+01  0.75371705945E+01 -0.30962403882E+03  0.30974490433E+03  0.17770000000E+01 0. -1.
</event>
<event>
 6    1  0.1782050E-003  0.5007269E+03  0.7546771E-02  0.9398185E-01
        -11   -1    0    0    0    0  0.00000000000E+00  0.00000000000E+00  0.50000000000E+03  0.50000000000E+03  0.00000000000E+00 0.  1.
         11   -1    0    0    0    0 -0.00000000000E+00 -0.00000000000E+00 -0.50000000000E+03  0.50000000000E+03  0.00000000000E+00 0. -1.
        -11    1    1    2    0    0  0.13493811520E+01 -0.49921875375E+00  0.10314895107E+03  0.10315898485E+03  0.00000000000E+00 0.  1.
         11    1    1    2    0    0 -0.41142543098E+01  0.61399316949E+01 -0.49921836561E+03  0.49927307399E+03  0.00000000000E+00 0. -1.
        -15    1    1    2    0    0  0.16164669507E+02  0.18155502534E+01  0.12605543113E+03  0.12711302927E+03  0.17770000000E+01 0. -1.
         15    1    1    2    0    0 -0.13399796349E+02 -0.74562631946E+01  0.27001398341E+03  0.27045491189E+03  0.17770000000E+01 0.  1.
</event>
<event>
 6    1  0.1782050E-003  0.5091900E+03  0.7546771E-02  0.9379478E-01
        -11   -1    0    0    0    0  0.00000000000E+00  0.00000000000E+00  0.50000000000E+03  0.50000000000E+03  0.00000000000E+00 0. -1.
         11   -1    0    0    0    0 -0.00000000000E+00 -0.00000000000E+00 -0.50000000000E+03  0.50000000000E+03  0.00000000000E+00 0. -1.
        -11    1    1    2    0    0 -0.11337484723E+02  0.44175005393E+01  0.47000481154E+03  0.47016228660E+03  0.00000000000E+00 0. -1.
         11    1    1    2    0    0 -0.11247616620E+02  0.68568707505E+01 -0.49063315956E+03  0.49080996609E+03  0.00000000000E+00 0. -1.
        -15    1    1    2    0    0 -0.12263743039E+01 -0.81112261510E+01  0.21354869623E+01  0.86610632819E+01  0.17770000000E+01 0.  1.
         15    1    1    2    0    0  0.23811475646E+02 -0.31631451388E+01  0.18492861057E+02  0.30366684025E+02  0.17770000000E+01 0. -1.
</event>
<event>
 6    1  0.1782050E-003  0.5007735E+03  0.7546771E-02  0.9398081E-01
        -11   -1    0    0    0    0  0.00000000000E+00  0.00000000000E+00  0.50000000000E+03  0.50000000000E+03  0.00000000000E+00 0. -1.
         11   -1    0    0    0    0 -0.00000000000E+00 -0.00000000000E+00 -0.50000000000E+03  0.50000000000E+03  0.00000000000E+00 0.  1.
        -11    1    1    2    0    0  0.17576310144E+01 -0.22936841312E+02  0.49869622967E+03  0.49922651917E+03  0.00000000000E+00 0. -1.
         11    1    1    2    0    0  0.13007755672E+02 -0.46283108274E+00 -0.16099033965E+03  0.16151565058E+03  0.00000000000E+00 0.  1.
        -15    1    1    2    0    0 -0.14679061255E+02  0.21969374535E+02 -0.22870853527E+03  0.23023657418E+03  0.17770000000E+01 0. -1.
         15    1    1    2    0    0 -0.86325431341E-01  0.14302978597E+01 -0.10899735475E+03  0.10902125607E+03  0.17770000000E+01 0.  1.
</event>
<event>
 6    1  0.1782050E-003  0.5072611E+03  0.7546771E-02  0.9383707E-01
        -11   -1    0    0    0    0  0.00000000000E+00  0.00000000000E+00  0.50000000000E+03  0.50000000000E+03  0.00000000000E+00 0. -1.
         11   -1    0    0    0    0 -0.00000000000E+00 -0.00000000000E+00 -0.50000000000E+03  0.50000000000E+03  0.00000000000E+00 0. -1.
        -11    1    1    2    0    0  0.66155738757E+00  0.94948408251E+01  0.47353758228E+03  0.47363322465E+03  0.00000000000E+00 0. -1.
         11    1    1    2    0    0  0.48924598983E+01  0.63859194681E+01 -0.49267320941E+03  0.49273888359E+03  0.00000000000E+00 0. -1.
        -15    1    1    2    0    0 -0.34261136833E+01 -0.97859479006E+01  0.23423258541E+02  0.25677028663E+02  0.17770000000E+01 0.  1.
         15    1    1    2    0    0 -0.21279036025E+01 -0.60948123926E+01 -0.42876314089E+01  0.79508630942E+01  0.17770000000E+01 0. -1.
</event>
<event>
 6    1  0.1782050E-003  0.5001713E+03  0.7546771E-02  0.9399427E-01
        -11   -1    0    0    0    0  0.00000000000E+00  0.00000000000E+00  0.50000000000E+03  0.50000000000E+03  0.00000000000E+00 0.  1.
         11   -1    0    0    0    0 -0.00000000000E+00 -0.00000000000E+00 -0.50000000000E+03  0.50000000000E+03  0.00000000000E+00 0.  1.
        -11    1    1    2    0    0  0.19981791658E+01 -0.96995410926E+01  0.49973059125E+03  0.49982870831E+03  0.00000000000E+00 0.  1.
         11    1    1    2    0    0  0.16465230389E+01  0.14948679467E+00 -0.48583213182E+02  0.48611335998E+02  0.00000000000E+00 0.  1.
        -15    1    1    2    0    0  0.38651221279E+01  0.35681878382E+01 -0.52456761429E+02  0.52749793195E+02  0.17770000000E+01 0. -1.
         15    1    1    2    0    0 -0.75098243325E+01  0.59818664597E+01 -0.39869061664E+03  0.39881016250E+03  0.17770000000E+01 0.  1.
</event>
<event>
 6    1  0.1782050E-003  0.5008493E+03  0.7546771E-02  0.9397911E-01
        -11   -1    0    0    0    0  0.00000000000E+00  0.00000000000E+00  0.50000000000E+03  0.50000000000E+03  0.00000000000E+00 0. -1.
         11   -1    0    0    0    0 -0.00000000000E+00 -0.00000000000E+00 -0.50000000000E+03  0.50000000000E+03  0.00000000000E+00 0.  1.
        -11    1    1    2    0    0 -0.33863001125E+01  0.65691922763E+01  0.30478201640E+03  0.30487161042E+03  0.00000000000E+00 0. -1.
         11    1    1    2    0    0  0.28455960885E+01 -0.15628783476E+02 -0.49889780896E+03  0.49915065870E+03  0.00000000000E+00 0.  1.
        -15    1    1    2    0    0 -0.12181859894E+02  0.62258224074E+01  0.99612539486E+02  0.10056328518E+03  0.17770000000E+01 0. -1.
         15    1    1    2    0    0  0.12722563918E+02  0.28337687924E+01  0.94503253074E+02  0.95414445703E+02  0.17770000000E+01 0.  1.
</event>
<event>
 6    1  0.1782050E-003  0.5000918E+03  0.7546771E-02  0.9399604E-01
        -11   -1    0    0    0    0  0.00000000000E+00  0.00000000000E+00  0.50000000000E+03  0.50000000000E+03  0.00000000000E+00 0. -1.
         11   -1    0    0    0    0 -0.00000000000E+00 -0.00000000000E+00 -0.50000000000E+03  0.50000000000E+03  0.00000000000E+00 0. -1.
        -11    1    1    2    0    0  0.76688369629E+00 -0.14978038322E+01  0.27101324144E+02  0.27153513535E+02  0.00000000000E+00 0. -1.
         11    1    1    2    0    0 -0.36898306022E+01  0.13208241784E+02 -0.49972007787E+03  0.49990822030E+03  0.00000000000E+00 0. -1.
        -15    1    1    2    0    0 -0.10335405837E+01 -0.11667695202E+02  0.40914154428E+03  0.40931303950E+03  0.17770000000E+01 0. -1.
         15    1    1    2    0    0  0.39564874897E+01 -0.42742749961E-01  0.63477209444E+02  0.63625226664E+02  0.17770000000E+01 0.  1.
</event>
<event>
 6    1  0.1782050E-003  0.5140316E+03  0.7546771E-02  0.9368949E-01
        -11   -1    0    0    0    0  0.00000000000E+00  0.00000000000E+00  0.50000000000E+03  0.50000000000E+03  0.00000000000E+00 0. -1.
         11   -1    0    0    0    0 -0.00000000000E+00 -0.00000000000E+00 -0.50000000000E+03  0.50000000000E+03  0.00000000000E+00 0. -1.
        -11    1    1    2    0    0  0.87212448221E+01 -0.77277789722E+01  0.48582867577E+03  0.48596839494E+03  0.00000000000E+00 0. -1.
         11    1    1    2    0    0  0.10134155116E+02  0.46713041385E+01 -0.36971115997E+03  0.36987952632E+03  0.00000000000E+00 0. -1.
        -15    1    1    2    0    0 -0.10325647066E+02  0.65498065993E+01  0.11087311366E+02  0.16601360069E+02  0.17770000000E+01 0. -1.
         15    1    1    2    0    0 -0.85297528723E+01 -0.34933317657E+01 -0.12720482717E+03  0.12755071867E+03  0.17770000000E+01 0.  1.
</event>
<event>
 6    1  0.1782050E-003  0.5048140E+03  0.7546771E-02  0.9389102E-01
        -11   -1    0    0    0    0  0.00000000000E+00  0.00000000000E+00  0.50000000000E+03  0.50000000000E+03  0.00000000000E+00 0. -1.
         11   -1    0    0    0    0 -0.00000000000E+00 -0.00000000000E+00 -0.50000000000E+03  0.50000000000E+03  0.00000000000E+00 0.  1.
        -11    1    1    2    0    0  0.90667419583E+01  0.26331673851E+01  0.43730046383E+03  0.43740237202E+03  0.00000000000E+00 0. -1.
         11    1    1    2    0    0 -0.78575666554E+01  0.29795839609E+01 -0.49511468792E+03  0.49518599886E+03  0.00000000000E+00 0.  1.
        -15    1    1    2    0    0 -0.59549365459E+00 -0.40032045232E+01 -0.37506607612E+01  0.57970202943E+01  0.17770000000E+01 0.  1.
         15    1    1    2    0    0 -0.61368164833E+00 -0.16095468228E+01  0.61564884849E+02  0.61614608832E+02  0.17770000000E+01 0. -1.
</event>
<event>
 6    1  0.1782050E-003  0.5006282E+03  0.7546771E-02  0.9398405E-01
        -11   -1    0    0    0    0  0.00000000000E+00  0.00000000000E+00  0.50000000000E+03  0.50000000000E+03  0.00000000000E+00 0. -1.
         11   -1    0    0    0    0 -0.00000000000E+00 -0.00000000000E+00 -0.50000000000E+03  0.50000000000E+03  0.00000000000E+00 0.  1.
        -11    1    1    2    0    0  0.32256800937E+01 -0.53979996849E+01  0.32511765822E+03  0.32517846654E+03  0.00000000000E+00 0. -1.
         11    1    1    2    0    0  0.49117008233E+01 -0.97061573820E+01 -0.49925330432E+03  0.49937180153E+03  0.00000000000E+00 0.  1.
        -15    1    1    2    0    0 -0.73824132895E+01  0.14426901252E+02  0.10279929714E+03  0.10408404646E+03  0.17770000000E+01 0.  1.
         15    1    1    2    0    0 -0.75496762750E+00  0.67725581490E+00  0.71336348959E+02  0.71365685475E+02  0.17770000000E+01 0. -1.
</event>
<event>
 6    1  0.1782050E-003  0.4269587E+03  0.7546771E-02  0.9579938E-01
        -11   -1    0    0    0    0  0.00000000000E+00  0.00000000000E+00  0.50000000000E+03  0.50000000000E+03  0.00000000000E+00 0.  1.
         11   -1    0    0    0    0 -0.00000000000E+00 -0.00000000000E+00 -0.50000000000E+03  0.50000000000E+03  0.00000000000E+00 0. -1.
        -11    1    1    2    0    0 -0.95837088889E+01  0.43117554486E+00  0.42764950933E+03  0.42775709955E+03  0.00000000000E+00 0.  1.
         11    1    1    2    0    0 -0.79615259629E+01  0.15394116422E+02 -0.42613616013E+03  0.42648844262E+03  0.00000000000E+00 0. -1.
        -15    1    1    2    0    0  0.10920666975E+02 -0.35593758885E+01 -0.72481899703E+02  0.73407858145E+02  0.17770000000E+01 0. -1.
         15    1    1    2    0    0  0.66245678765E+01 -0.12265916079E+02  0.70968550504E+02  0.72346599688E+02  0.17770000000E+01 0.  1.
</event>
<event>
 6    1  0.1782050E-003  0.5025525E+03  0.7546771E-02  0.9394116E-01
        -11   -1    0    0    0    0  0.00000000000E+00  0.00000000000E+00  0.50000000000E+03  0.50000000000E+03  0.00000000000E+00 0. -1.
         11   -1    0    0    0    0 -0.00000000000E+00 -0.00000000000E+00 -0.50000000000E+03  0.50000000000E+03  0.00000000000E+00 0.  1.
        -11    1    1    2    0    0  0.53005347963E+01  0.19794628947E+02  0.16140863807E+03  0.16270424533E+03  0.00000000000E+00 0. -1.
         11    1    1    2    0    0  0.58066655155E+01  0.51205045629E+01 -0.49738723313E+03  0.49744748126E+03  0.00000000000E+00 0.  1.
        -15    1    1    2    0    0 -0.10134250571E+02 -0.30828570754E+02  0.13816736989E+03  0.14193830928E+03  0.17770000000E+01 0. -1.
         15    1    1    2    0    0 -0.97294974075E+00  0.59134372444E+01  0.19781122517E+03  0.19790996413E+03  0.17770000000E+01 0.  1.
</event>
<event>
 6    1  0.1782050E-003  0.5080196E+03  0.7546771E-02  0.9382042E-01
        -11   -1    0    0    0    0  0.00000000000E+00  0.00000000000E+00  0.50000000000E+03  0.50000000000E+03  0.00000000000E+00 0.  1.
         11   -1    0    0    0    0 -0.00000000000E+00 -0.00000000000E+00 -0.50000000000E+03  0.50000000000E+03  0.00000000000E+00 0. -1.
        -11    1    1    2    0    0  0.26909059498E+01 -0.66630046480E+01  0.49192788447E+03  0.49198036559E+03  0.00000000000E+00 0.  1.
         11    1    1    2    0    0 -0.78600876529E+01  0.28068700026E+01 -0.47987702171E+03  0.47994959679E+03  0.00000000000E+00 0. -1.
        -15    1    1    2    0    0 -0.29909698596E+01  0.42894674215E+01  0.60128938631E+01  0.81644383194E+01  0.17770000000E+01 0. -1.
         15    1    1    2    0    0  0.81601515627E+01 -0.43333277606E+00 -0.18063756630E+02  0.19905599298E+02  0.17770000000E+01 0.  1.
</event>
<event>
 6    1  0.1782050E-003  0.5007337E+03  0.7546771E-02  0.9398169E-01
        -11   -1    0    0    0    0  0.00000000000E+00  0.00000000000E+00  0.50000000000E+03  0.50000000000E+03  0.00000000000E+00 0.  1.
         11   -1    0    0    0    0 -0.00000000000E+00 -0.00000000000E+00 -0.50000000000E+03  0.50000000000E+03  0.00000000000E+00 0. -1.
        -11    1    1    2    0    0  0.74745660585E+01 -0.13682727248E+01  0.15018008990E+03  0.15037220724E+03  0.00000000000E+00 0.  1.
         11    1    1    2    0    0 -0.10036428550E+02 -0.60400502087E+01 -0.49912885849E+03  0.49926629115E+03  0.00000000000E+00 0. -1.
        -15    1    1    2    0    0 -0.69687197298E+01 -0.89601086738E+01  0.93065517979E+02  0.93772037238E+02  0.17770000000E+01 0.  1.
         15    1    1    2    0    0  0.95305822215E+01  0.16368431607E+02  0.25588325061E+03  0.25658946437E+03  0.17770000000E+01 0. -1.
</event>
<event>
 6    1  0.1782050E-003  0.5441457E+03  0.7546771E-02  0.9306111E-01
        -11   -1    0    0    0    0  0.00000000000E+00  0.00000000000E+00  0.50000000000E+03  0.50000000000E+03  0.00000000000E+00 0.  1.
         11   -1    0    0    0    0 -0.00000000000E+00 -0.00000000000E+00 -0.50000000000E+03  0.50000000000E+03  0.00000000000E+00 0.  1.
        -11    1    1    2    0    0  0.13332892130E+02 -0.67539539776E+00  0.45565881954E+03  0.45585434296E+03  0.00000000000E+00 0.  1.
         11    1    1    2    0    0 -0.15927329537E+02  0.61508076189E+00 -0.37700774025E+03  0.37734453005E+03  0.00000000000E+00 0.  1.
        -15    1    1    2    0    0  0.31221933724E+02  0.41643698339E+01 -0.11561063034E+03  0.11983791844E+03  0.17770000000E+01 0.  1.
         15    1    1    2    0    0 -0.28627496317E+02 -0.41040551980E+01  0.36959551044E+02  0.46963208545E+02  0.17770000000E+01 0. -1.
</event>
<event>
 6    1  0.1782050E-003  0.5106573E+03  0.7546771E-02  0.9376274E-01
        -11   -1    0    0    0    0  0.00000000000E+00  0.00000000000E+00  0.50000000000E+03  0.50000000000E+03  0.00000000000E+00 0. -1.
         11   -1    0    0    0    0 -0.00000000000E+00 -0.00000000000E+00 -0.50000000000E+03  0.50000000000E+03  0.00000000000E+00 0.  1.
        -11    1    1    2    0    0  0.14110112389E+01 -0.29367678190E+02  0.48845863889E+03  0.48934271567E+03  0.00000000000E+00 0. -1.
         11    1    1    2    0    0  0.12001551893E+02 -0.18360186673E+02 -0.39726641631E+03  0.39787151095E+03  0.00000000000E+00 0.  1.
        -15    1    1    2    0    0 -0.25796519597E+02  0.12689138019E+02 -0.45662332371E+02  0.53987785410E+02  0.17770000000E+01 0. -1.
         15    1    1    2    0    0  0.12383956465E+02  0.35038726843E+02 -0.45529890213E+02  0.58797987961E+02  0.17770000000E+01 0.  1.
</event>
<event>
 6    1  0.1782050E-003  0.5153104E+03  0.7546771E-02  0.9366189E-01
        -11   -1    0    0    0    0  0.00000000000E+00  0.00000000000E+00  0.50000000000E+03  0.50000000000E+03  0.00000000000E+00 0. -1.
         11   -1    0    0    0    0 -0.00000000000E+00 -0.00000000000E+00 -0.50000000000E+03  0.50000000000E+03  0.00000000000E+00 0.  1.
        -11    1    1    2    0    0 -0.77459061737E+01  0.94908609317E+01  0.48453479264E+03  0.48468963346E+03  0.00000000000E+00 0. -1.
         11    1    1    2    0    0  0.11512309630E+02 -0.50728134126E+01 -0.46424197441E+03  0.46441240026E+03  0.00000000000E+00 0.  1.
        -15    1    1    2    0    0  0.16121929642E+02 -0.20139401725E+01 -0.25348164257E+02  0.30160565820E+02  0.17770000000E+01 0. -1.
         15    1    1    2    0    0 -0.19888333099E+02 -0.24041073467E+01  0.50553460319E+01  0.20737400466E+02  0.17770000000E+01 0.  1.
</event>
<event>
 6    1  0.1782050E-003  0.5150320E+03  0.7546771E-02  0.9366789E-01
        -11   -1    0    0    0    0  0.00000000000E+00  0.00000000000E+00  0.50000000000E+03  0.50000000000E+03  0.00000000000E+00 0. -1.
         11   -1    0    0    0    0 -0.00000000000E+00 -0.00000000000E+00 -0.50000000000E+03  0.50000000000E+03  0.00000000000E+00 0.  1.
        -11    1    1    2    0    0 -0.35722489646E+01  0.12669431308E+02  0.48478929989E+03  0.48496797909E+03  0.00000000000E+00 0. -1.
         11    1    1    2    0    0 -0.29890944761E+01  0.16006460107E+02 -0.41142199169E+03  0.41174409127E+03  0.00000000000E+00 0.  1.
        -15    1    1    2    0    0  0.12517688257E+01 -0.17052557344E+02  0.93511935693E+01  0.19569343048E+02  0.17770000000E+01 0. -1.
         15    1    1    2    0    0  0.53095746150E+01 -0.11623334071E+02 -0.82718501772E+02  0.83718586598E+02  0.17770000000E+01 0.  1.
</event>
<event>
 6    1  0.1782050E-003  0.5215516E+03  0.7546771E-02  0.9352837E-01
        -11   -1    0    0    0    0  0.00000000000E+00  0.00000000000E+00  0.50000000000E+03  0.50000000000E+03  0.00000000000E+00 0. -1.
         11   -1    0    0    0    0 -0.00000000000E+00 -0.00000000000E+00 -0.50000000000E+03  0.50000000000E+03  0.00000000000E+00 0.  1.
        -11    1    1    2    0    0 -0.11041491361E+02 -0.23045486205E+02  0.44626216540E+03  0.44699320938E+03  0.00000000000E+00 0. -1.
         11    1    1    2    0    0  0.78025321352E+01 -0.27583703126E+01 -0.47837678897E+03  0.47844836747E+03  0.00000000000E+00 0.  1.
        -15    1    1    2    0    0  0.20109502577E+02  0.35983545689E+02  0.35569438335E+02  0.54475226725E+02  0.17770000000E+01 0. -1.
         15    1    1    2    0    0 -0.16870543351E+02 -0.10179689171E+02 -0.34548147636E+01  0.20083196424E+02  0.17770000000E+01 0.  1.
</event>
<event>
 6    1  0.1782050E-003  0.5063349E+03  0.7546771E-02  0.9385745E-01
        -11   -1    0    0    0    0  0.00000000000E+00  0.00000000000E+00  0.50000000000E+03  0.50000000000E+03  0.00000000000E+00 0. -1.
         11   -1    0    0    0    0 -0.00000000000E+00 -0.00000000000E+00 -0.50000000000E+03  0.50000000000E+03  0.00000000000E+00 0.  1.
        -11    1    1    2    0    0  0.56331815560E+01 -0.35417715619E+01  0.37726755651E+03  0.37732623295E+03  0.00000000000E+00 0. -1.
         11    1    1    2    0    0 -0.97473447164E+01  0.21611495491E+01 -0.49356416174E+03  0.49366513251E+03  0.00000000000E+00 0.  1.
        -15    1    1    2    0    0 -0.14148932379E+02  0.75461828693E+01  0.10573211303E+03  0.10695594709E+03  0.17770000000E+01 0. -1.
         15    1    1    2    0    0  0.18263095539E+02 -0.61655608565E+01  0.10564492207E+02  0.22052687454E+02  0.17770000000E+01 0.  1.
</event>
<event>
 6    1  0.1782050E-003  0.5137106E+03  0.7546771E-02  0.9369643E-01
        -11   -1    0    0    0    0  0.00000000000E+00  0.00000000000E+00  0.50000000000E+03  0.50000000000E+03  0.00000000000E+00 0. -1.
         11   -1    0    0    0    0 -0.00000000000E+00 -0.00000000000E+00 -0.50000000000E+03  0.50000000000E+03  0.00000000000E+00 0. -1.
        -11    1    1    2    0    0 -0.10029459987E+02  0.46223148680E+01  0.47957040019E+03  0.47969753449E+03  0.00000000000E+00 0. -1.
         11    1    1    2    0    0  0.13697868074E+02 -0.75997454301E+01 -0.48603705442E+03  0.48628942615E+03  0.00000000000E+00 0. -1.
        -15    1    1    2    0    0  0.10195072996E+02 -0.47056562422E+00  0.14273422209E+02  0.17636588558E+02  0.17770000000E+01 0.  1.
         15    1    1    2    0    0 -0.13863481083E+02  0.34479961863E+01 -0.78067679782E+01  0.16376450797E+02  0.17770000000E+01 0. -1.
</event>
<event>
 6    1  0.1782050E-003  0.5030745E+03  0.7546771E-02  0.9392956E-01
        -11   -1    0    0    0    0  0.00000000000E+00  0.00000000000E+00  0.50000000000E+03  0.50000000000E+03  0.00000000000E+00 0.  1.
         11   -1    0    0    0    0 -0.00000000000E+00 -0.00000000000E+00 -0.50000000000E+03  0.50000000000E+03  0.00000000000E+00 0. -1.
        -11    1    1    2    0    0  0.22339473366E+02  0.20628150656E+01  0.33999671508E+03  0.34073607608E+03  0.00000000000E+00 0.  1.
         11    1    1    2    0    0 -0.21546412191E+01  0.91615891547E+01 -0.49683633985E+03  0.49692547307E+03  0.00000000000E+00 0. -1.
        -15    1    1    2    0    0 -0.12434078789E+02 -0.48035203520E+01  0.15056885222E+02  0.20187809308E+02  0.17770000000E+01 0.  1.
         15    1    1    2    0    0 -0.77507533580E+01 -0.64208838682E+01  0.14178273955E+03  0.14215064154E+03  0.17770000000E+01 0. -1.
</event>
<event>
 6    1  0.1782050E-003  0.5013840E+03  0.7546771E-02  0.9396718E-01
        -11   -1    0    0    0    0  0.00000000000E+00  0.00000000000E+00  0.50000000000E+03  0.50000000000E+03  0.00000000000E+00 0. -1.
         11   -1    0    0    0    0 -0.00000000000E+00 -0.00000000000E+00 -0.50000000000E+03  0.50000000000E+03  0.00000000000E+00 0. -1.
        -11    1    1    2    0    0 -0.96045145880E+01 -0.73616062476E+01  0.49846909575E+03  0.49861596381E+03  0.00000000000E+00 0. -1.
         11    1    1    2    0    0  0.49963353947E+01 -0.13550906458E+01 -0.36934795344E+03  0.36938423132E+03  0.00000000000E+00 0. -1.
        -15    1    1    2    0    0 -0.33273476528E+01  0.14949610974E+02 -0.98763518704E+02  0.99959754234E+02  0.17770000000E+01 0.  1.
         15    1    1    2    0    0  0.79355268462E+01 -0.62329140801E+01 -0.30357623612E+02  0.32040050634E+02  0.17770000000E+01 0. -1.
</event>
<event>
 6    1  0.1782050E-003  0.5155196E+03  0.7546771E-02  0.9365738E-01
        -11   -1    0    0    0    0  0.00000000000E+00  0.00000000000E+00  0.50000000000E+03  0.50000000000E+03  0.00000000000E+00 0.  1.
         11   -1    0    0    0    0 -0.00000000000E+00 -0.00000000000E+00 -0.50000000000E+03  0.50000000000E+03  0.00000000000E+00 0. -1.
        -11    1    1    2    0    0  0.46789494076E+01  0.56358470785E+01  0.44539724002E+03  0.44545746908E+03  0.00000000000E+00 0.  1.
         11    1    1    2    0    0 -0.84490119030E+01 -0.52970608004E+01 -0.48437780804E+03  0.48448044912E+03  0.00000000000E+00 0. -1.
        -15    1    1    2    0    0  0.88815164173E+01 -0.76542259372E+01  0.52468394220E+02  0.53791808201E+02  0.17770000000E+01 0.  1.
         15    1    1    2    0    0 -0.51114539219E+01  0.73154396591E+01 -0.13487826201E+02  0.16270273606E+02  0.17770000000E+01 0. -1.
</event>
<event>
 6    1  0.1782050E-003  0.4793958E+03  0.7546771E-02  0.9447131E-01
        -11   -1    0    0    0    0  0.00000000000E+00  0.00000000000E+00  0.50000000000E+03  0.50000000000E+03  0.00000000000E+00 0.  1.
         11   -1    0    0    0    0 -0.00000000000E+00 -0.00000000000E+00 -0.50000000000E+03  0.50000000000E+03  0.00000000000E+00 0.  1.
        -11    1    1    2    0    0 -0.17691242570E+01 -0.68805039665E+01  0.47577141298E+03  0.47582445139E+03  0.00000000000E+00 0.  1.
         11    1    1    2    0    0 -0.99773168408E+01 -0.79231626619E-01 -0.48298847243E+03  0.48309152097E+03  0.00000000000E+00 0.  1.
        -15    1    1    2    0    0  0.15073040297E+02  0.13621088190E+01 -0.12836846188E+02  0.19924714133E+02  0.17770000000E+01 0. -1.
         15    1    1    2    0    0 -0.33265991994E+01  0.55976267742E+01  0.20053905639E+02  0.21159313507E+02  0.17770000000E+01 0.  1.
</event>
<event>
 6    1  0.1782050E-003  0.4782291E+03  0.7546771E-02  0.9449886E-01
        -11   -1    0    0    0    0  0.00000000000E+00  0.00000000000E+00  0.50000000000E+03  0.50000000000E+03  0.00000000000E+00 0. -1.
         11   -1    0    0    0    0 -0.00000000000E+00 -0.00000000000E+00 -0.50000000000E+03  0.50000000000E+03  0.00000000000E+00 0.  1.
        -11    1    1    2    0    0 -0.10770321955E+02  0.52319566507E+01  0.47362958300E+03  0.47378091467E+03  0.00000000000E+00 0. -1.
         11    1    1    2    0    0  0.68587598226E+01  0.13952818719E+02 -0.48266997047E+03  0.48292030826E+03  0.00000000000E+00 0.  1.
        -15    1    1    2    0    0  0.12564870336E+02 -0.11504814223E+02  0.20638424612E+02  0.26820496198E+02  0.17770000000E+01 0.  1.
         15    1    1    2    0    0 -0.86533082028E+01 -0.76799611474E+01 -0.11598037148E+02  0.16478280880E+02  0.17770000000E+01 0. -1.
</event>
<event>
 6    1  0.1782050E-003  0.5203568E+03  0.7546771E-02  0.9355377E-01
        -11   -1    0    0    0    0  0.00000000000E+00  0.00000000000E+00  0.50000000000E+03  0.50000000000E+03  0.00000000000E+00 0. -1.
         11   -1    0    0    0    0 -0.00000000000E+00 -0.00000000000E+00 -0.50000000000E+03  0.50000000000E+03  0.00000000000E+00 0. -1.
        -11    1    1    2    0    0 -0.56671984458E+01  0.49519216799E+01  0.47958411180E+03  0.47964315794E+03  0.00000000000E+00 0. -1.
         11    1    1    2    0    0  0.34347751544E+01  0.52155339276E+01 -0.27993781986E+03  0.28000746858E+03  0.00000000000E+00 0. -1.
        -15    1    1    2    0    0  0.76279408333E+01 -0.80615231692E+01  0.18754459355E+02  0.21864608660E+02  0.17770000000E+01 0. -1.
         15    1    1    2    0    0 -0.53955175419E+01 -0.21059324383E+01 -0.21840075130E+03  0.21848476482E+03  0.17770000000E+01 0.  1.
</event>
<event>
 6    1  0.1782050E-003  0.5076350E+03  0.7546771E-02  0.9382886E-01
        -11   -1    0    0    0    0  0.00000000000E+00  0.00000000000E+00  0.50000000000E+03  0.50000000000E+03  0.00000000000E+00 0.  1.
         11   -1    0    0    0    0 -0.00000000000E+00 -0.00000000000E+00 -0.50000000000E+03  0.50000000000E+03  0.00000000000E+00 0.  1.
        -11    1    1    2    0    0  0.28730376142E+02  0.14382797729E+02  0.49131558914E+03  0.49236501452E+03  0.00000000000E+00 0.  1.
         11    1    1    2    0    0  0.87676200730E+00  0.35625360767E+01 -0.18142911971E+03  0.18146621133E+03  0.00000000000E+00 0.  1.
        -15    1    1    2    0    0 -0.74094728371E+01  0.10499599591E+02 -0.27704002348E+03  0.27734360317E+03  0.17770000000E+01 0.  1.
         15    1    1    2    0    0 -0.22197665312E+02 -0.28444933397E+02 -0.32846445956E+02  0.48825170990E+02  0.17770000000E+01 0. -1.
</event>
<event>
 6    1  0.1782050E-003  0.4514207E+03  0.7546771E-02  0.9515593E-01
        -11   -1    0    0    0    0  0.00000000000E+00  0.00000000000E+00  0.50000000000E+03  0.50000000000E+03  0.00000000000E+00 0. -1.
         11   -1    0    0    0    0 -0.00000000000E+00 -0.00000000000E+00 -0.50000000000E+03  0.50000000000E+03  0.00000000000E+00 0. -1.
        -11    1    1    2    0    0  0.76752465742E+01  0.29840256172E+01  0.45886833526E+03  0.45894222177E+03  0.00000000000E+00 0. -1.
         11    1    1    2    0    0 -0.12228142186E+02  0.53659531871E+02 -0.44242531033E+03  0.44583520279E+03  0.00000000000E+00 0. -1.
        -15    1    1    2    0    0  0.19278394287E+02  0.10967947930E+02 -0.13319171270E+02  0.25932805872E+02  0.17770000000E+01 0. -1.
         15    1    1    2    0    0 -0.14725498675E+02 -0.67611505417E+02 -0.31238536617E+01  0.69289769568E+02  0.17770000000E+01 0.  1.
</event>
<event>
 6    1  0.1782050E-003  0.5057106E+03  0.7546771E-02  0.9387122E-01
        -11   -1    0    0    0    0  0.00000000000E+00  0.00000000000E+00  0.50000000000E+03  0.50000000000E+03  0.00000000000E+00 0.  1.
         11   -1    0    0    0    0 -0.00000000000E+00 -0.00000000000E+00 -0.50000000000E+03  0.50000000000E+03  0.00000000000E+00 0. -1.
        -11    1    1    2    0    0 -0.17020568346E+01 -0.75401433106E+01  0.48559233871E+03  0.48565385840E+03  0.00000000000E+00 0.  1.
         11    1    1    2    0    0 -0.29543872543E+01  0.75107258186E+01 -0.49422345835E+03  0.49428935472E+03  0.00000000000E+00 0. -1.
        -15    1    1    2    0    0  0.86985945156E+00  0.46050701508E+01  0.11997501885E+02  0.13002350059E+02  0.17770000000E+01 0.  1.
         15    1    1    2    0    0  0.37865846373E+01 -0.45756526589E+01 -0.33663822536E+01  0.70544368271E+01  0.17770000000E+01 0. -1.
</event>
<event>
 6    1  0.1782050E-003  0.5360185E+03  0.7546771E-02  0.9322637E-01
        -11   -1    0    0    0    0  0.00000000000E+00  0.00000000000E+00  0.50000000000E+03  0.50000000000E+03  0.00000000000E+00 0. -1.
         11   -1    0    0    0    0 -0.00000000000E+00 -0.00000000000E+00 -0.50000000000E+03  0.50000000000E+03  0.00000000000E+00 0. -1.
        -11    1    1    2    0    0  0.33392486596E+00  0.19322633577E+02  0.46357883649E+03  0.46398147949E+03  0.00000000000E+00 0. -1.
         11    1    1    2    0    0 -0.44287509400E+02  0.26123590323E+02 -0.37923589893E+03  0.38270575185E+03  0.00000000000E+00 0. -1.
        -15    1    1    2    0    0  0.77045648196E+01 -0.45176233753E+02  0.14432810499E+02  0.48080309515E+02  0.17770000000E+01 0.  1.
         15    1    1    2    0    0  0.36249019714E+02 -0.26999014742E+00 -0.98775748054E+02  0.10523245914E+03  0.17770000000E+01 0. -1.
</event>
<event>
 6    1  0.1782050E-003  0.5050536E+03  0.7546771E-02  0.9388572E-01
        -11   -1    0    0    0    0  0.00000000000E+00  0.00000000000E+00  0.50000000000E+03  0.50000000000E+03  0.00000000000E+00 0.  1.
         11   -1    0    0    0    0 -0.00000000000E+00 -0.00000000000E+00 -0.50000000000E+03  0.50000000000E+03  0.00000000000E+00 0.  1.
        -11    1    1    2    0    0  0.15151888454E+02  0.65794339002E+01  0.49467067805E+03  0.49494640962E+03  0.00000000000E+00 0.  1.
         11    1    1    2    0    0  0.40203448821E+01 -0.29091045161E+02 -0.38796655958E+03  0.38907647505E+03  0.00000000000E+00 0.  1.
        -15    1    1    2    0    0 -0.45777176202E+01  0.28878236256E+02 -0.64745420519E+02  0.71063599931E+02  0.17770000000E+01 0. -1.
         15    1    1    2    0    0 -0.14594515716E+02 -0.63666249953E+01 -0.41958697950E+02  0.44913515398E+02  0.17770000000E+01 0.  1.
</event>
<event>
 6    1  0.1782050E-003  0.5562308E+03  0.7546771E-02  0.9282095E-01
        -11   -1    0    0    0    0  0.00000000000E+00  0.00000000000E+00  0.50000000000E+03  0.50000000000E+03  0.00000000000E+00 0.  1.
         11   -1    0    0    0    0 -0.00000000000E+00 -0.00000000000E+00 -0.50000000000E+03  0.50000000000E+03  0.00000000000E+00 0. -1.
        -11    1    1    2    0    0  0.26642261723E+02 -0.13719934258E+02  0.44275624770E+03  0.44376924362E+03  0.00000000000E+00 0.  1.
         11    1    1    2    0    0  0.11735178245E+02  0.42494764573E+01 -0.32333565023E+03  0.32357644409E+03  0.00000000000E+00 0. -1.
        -15    1    1    2    0    0 -0.25486144648E+02  0.43829300284E+01 -0.17420155844E+03  0.17611954558E+03  0.17770000000E+01 0. -1.
         15    1    1    2    0    0 -0.12891295319E+02  0.50875277721E+01  0.54780960968E+02  0.56534766715E+02  0.17770000000E+01 0.  1.
</event>
<event>
 6    1  0.1782050E-003  0.5047596E+03  0.7546771E-02  0.9389222E-01
        -11   -1    0    0    0    0  0.00000000000E+00  0.00000000000E+00  0.50000000000E+03  0.50000000000E+03  0.00000000000E+00 0.  1.
         11   -1    0    0    0    0 -0.00000000000E+00 -0.00000000000E+00 -0.50000000000E+03  0.50000000000E+03  0.00000000000E+00 0.  1.
        -11    1    1    2    0    0  0.66816260680E+01 -0.26977949333E+01  0.13980736934E+03  0.13999293820E+03  0.00000000000E+00 0.  1.
         11    1    1    2    0    0  0.24652030626E+02 -0.98173773582E+01 -0.49452905111E+03  0.49524043242E+03  0.00000000000E+00 0.  1.
        -15    1    1    2    0    0 -0.15418898579E+02 -0.12039302647E+01  0.33660896640E+03  0.33696876097E+03  0.17770000000E+01 0.  1.
         15    1    1    2    0    0 -0.15914758115E+02  0.13719102556E+02  0.18112715373E+02  0.27797868408E+02  0.17770000000E+01 0. -1.
</event>
<event>
 6    1  0.1782050E-003  0.5087177E+03  0.7546771E-02  0.9380512E-01
        -11   -1    0    0    0    0  0.00000000000E+00  0.00000000000E+00  0.50000000000E+03  0.50000000000E+03  0.00000000000E+00 0.  1.
         11   -1    0    0    0    0 -0.00000000000E+00 -0.00000000000E+00 -0.50000000000E+03  0.50000000000E+03  0.00000000000E+00 0.  1.
        -11    1    1    2    0    0  0.85915836217E+01 -0.74329335840E+01  0.34336722086E+03  0.34355510792E+03  0.00000000000E+00 0.  1.
         11    1    1    2    0    0 -0.11365451293E+02  0.49661526739E+01 -0.49112570283E+03  0.49128229373E+03  0.00000000000E+00 0.  1.
        -15    1    1    2    0    0  0.12783196891E+02 -0.87770908097E+01 -0.99429750318E+00  0.15639494953E+02  0.17770000000E+01 0. -1.
         15    1    1    2    0    0 -0.10009329221E+02  0.11243871720E+02  0.14875277947E+03  0.14952310340E+03  0.17770000000E+01 0.  1.
</event>
<event>
 6    1  0.1782050E-003  0.3786056E+03  0.7546771E-02  0.9721816E-01
        -11   -1    0    0    0    0  0.00000000000E+00  0.00000000000E+00  0.50000000000E+03  0.50000000000E+03  0.00000000000E+00 0. -1.
         11   -1    0    0    0    0 -0.00000000000E+00 -0.00000000000E+00 -0.50000000000E+03  0.50000000000E+03  0.00000000000E+00 0.  1.
        -11    1    1    2    0    0  0.72155873694E+00 -0.77738700903E-01  0.13800335860E+02  0.13819405203E+02  0.00000000000E+00 0. -1.
         11    1    1    2    0    0 -0.79701502117E+01 -0.10566906549E+01 -0.46444834080E+03  0.46451792340E+03  0.00000000000E+00 0.  1.
        -15    1    1    2    0    0  0.12751001996E+03 -0.29646563613E+02  0.29360559077E+03  0.32147336528E+03  0.17770000000E+01 0.  1.
         15    1    1    2    0    0 -0.12026142848E+03  0.30780992969E+02  0.15704241416E+03  0.20018930612E+03  0.17770000000E+01 0. -1.
</event>
<event>
 6    1  0.1782050E-003  0.5171499E+03  0.7546771E-02  0.9362233E-01
        -11   -1    0    0    0    0  0.00000000000E+00  0.00000000000E+00  0.50000000000E+03  0.50000000000E+03  0.00000000000E+00 0. -1.
         11   -1    0    0    0    0 -0.00000000000E+00 -0.00000000000E+00 -0.50000000000E+03  0.50000000000E+03  0.00000000000E+00 0.  1.
        -11    1    1    2    0    0  0.22684503264E+02 -0.34705994915E+02  0.43180520649E+03  0.43379122758E+03  0.00000000000E+00 0. -1.
         11    1    1    2    0    0 -0.10011268740E+02 -0.26626049602E+00 -0.48274621813E+03  0.48285008803E+03  0.00000000000E+00 0.  1.
        -15    1    1    2    0    0  0.15134979105E+02  0.10663517817E+02  0.41070976363E+02  0.45086151235E+02  0.17770000000E+01 0. -1.
         15    1    1    2    0    0 -0.27808213629E+02  0.24308737594E+02  0.98700352747E+01  0.38272533153E+02  0.17770000000E+01 0.  1.
</event>
<event>
 6    1  0.1782050E-003  0.5233396E+03  0.7546771E-02  0.9349049E-01
        -11   -1    0    0    0    0  0.00000000000E+00  0.00000000000E+00  0.50000000000E+03  0.50000000000E+03  0.00000000000E+00 0.  1.
         11   -1    0    0    0    0 -0.00000000000E+00 -0.00000000000E+00 -0.50000000000E+03  0.50000000000E+03  0.00000000000E+00 0.  1.
        -11    1    1    2    0    0 -0.11517312746E+02  0.77450361368E+01  0.43526657114E+03  0.43548779780E+03  0.00000000000E+00 0.  1.
         11    1    1    2    0    0  0.16057409446E+02 -0.26511389666E+01 -0.47638249893E+03  0.47666041814E+03  0.00000000000E+00 0.  1.
        -15    1    1    2    0    0  0.86648224678E+01  0.38622364670E+01  0.61303599254E+02  0.62058722428E+02  0.17770000000E+01 0.  1.
         15    1    1    2    0    0 -0.13204919168E+02 -0.89561336371E+01 -0.20187671467E+02  0.25793061629E+02  0.17770000000E+01 0. -1.
</event>
<event>
 6    1  0.1782050E-003  0.5058367E+03  0.7546771E-02  0.9386843E-01
        -11   -1    0    0    0    0  0.00000000000E+00  0.00000000000E+00  0.50000000000E+03  0.50000000000E+03  0.00000000000E+00 0.  1.
         11   -1    0    0    0    0 -0.00000000000E+00 -0.00000000000E+00 -0.50000000000E+03  0.50000000000E+03  0.00000000000E+00 0. -1.
        -11    1    1    2    0    0 -0.56110277496E+01  0.65906596122E+01  0.49408745495E+03  0.49416326610E+03  0.00000000000E+00 0.  1.
         11    1    1    2    0    0  0.32081134783E+01 -0.21298246043E+02 -0.40601870508E+03  0.40658959178E+03  0.00000000000E+00 0. -1.
        -15    1    1    2    0    0  0.20067142141E+02  0.18914836601E+01 -0.23208007032E+02  0.30790213113E+02  0.17770000000E+01 0. -1.
         15    1    1    2    0    0 -0.17664227870E+02  0.12816102771E+02 -0.64860742845E+02  0.68456928998E+02  0.17770000000E+01 0.  1.
</event>
<event>
 6    1  0.1782050E-003  0.5089333E+03  0.7546771E-02  0.9380040E-01
        -11   -1    0    0    0    0  0.00000000000E+00  0.00000000000E+00  0.50000000000E+03  0.50000000000E+03  0.00000000000E+00 0. -1.
         11   -1    0    0    0    0 -0.00000000000E+00 -0.00000000000E+00 -0.50000000000E+03  0.50000000000E+03  0.00000000000E+00 0. -1.
        -11    1    1    2    0    0 -0.76711325453E+01  0.76345374705E+01  0.42070262882E+03  0.42084181628E+03  0.00000000000E+00 0. -1.
         11    1    1    2    0    0 -0.37334924935E+01 -0.72970311316E+01 -0.49099828181E+03  0.49106669442E+03  0.00000000000E+00 0. -1.
        -15    1    1    2    0    0  0.14231991652E+01  0.38742973867E+01  0.75715059281E+02  0.75848293369E+02  0.17770000000E+01 0.  1.
         15    1    1    2    0    0  0.99814258736E+01 -0.42118037257E+01 -0.54194062880E+01  0.12243195931E+02  0.17770000000E+01 0. -1.
</event>
<event>
 6    1  0.1782050E-003  0.5056275E+03  0.7546771E-02  0.9387305E-01
        -11   -1    0    0    0    0  0.00000000000E+00  0.00000000000E+00  0.50000000000E+03  0.50000000000E+03  0.00000000000E+00 0.  1.
         11   -1    0    0    0    0 -0.00000000000E+00 -0.00000000000E+00 -0.50000000000E+03  0.50000000000E+03  0.00000000000E+00 0. -1.
        -11    1    1    2    0    0 -0.99013578909E+01  0.15547067079E+02  0.43123226020E+03  0.43162600758E+03  0.00000000000E+00 0.  1.
         11    1    1    2    0    0 -0.17322735070E+02  0.49092338627E+01 -0.49404447494E+03  0.49437245165E+03  0.00000000000E+00 0. -1.
        -15    1    1    2    0    0  0.25613866499E+02 -0.19658984094E+02  0.41851566028E+02  0.52889102097E+02  0.17770000000E+01 0.  1.
         15    1    1    2    0    0  0.16102264620E+01 -0.79731684698E+00  0.20960648711E+02  0.21112438675E+02  0.17770000000E+01 0. -1.
</event>
<event>
 6    1  0.1782050E-003  0.5063427E+03  0.7546771E-02  0.9385728E-01
        -11   -1    0    0    0    0  0.00000000000E+00  0.00000000000E+00  0.50000000000E+03  0.50000000000E+03  0.00000000000E+00 0. -1.
         11   -1    0    0    0    0 -0.00000000000E+00 -0.00000000000E+00 -0.50000000000E+03  0.50000000000E+03  0.00000000000E+00 0.  1.
        -11    1    1    2    0    0 -0.59544948007E+01 -0.15523456042E+02  0.49337727542E+03  0.49365734026E+03  0.00000000000E+00 0. -1.
         11    1    1    2    0    0  0.64675438020E+01 -0.60622305995E+01 -0.40482770695E+03  0.40492474866E+03  0.00000000000E+00 0.  1.
        -15    1    1    2    0    0 -0.13732359974E+02  0.16054191549E+02 -0.83455032684E+02  0.86105835958E+02  0.17770000000E+01 0.  1.
         15    1    1    2    0    0  0.13219310972E+02  0.55314950928E+01 -0.50945357813E+01  0.15312075117E+02  0.17770000000E+01 0. -1.
</event>
<event>
 6    1  0.1782050E-003  0.5280724E+03  0.7546771E-02  0.9339098E-01
        -11   -1    0    0    0    0  0.00000000000E+00  0.00000000000E+00  0.50000000000E+03  0.50000000000E+03  0.00000000000E+00 0.  1.
         11   -1    0    0    0    0 -0.00000000000E+00 -0.00000000000E+00 -0.50000000000E+03  0.50000000000E+03  0.00000000000E+00 0. -1.
        -11    1    1    2    0    0 -0.68909941801E+01 -0.21018934286E+01  0.47187264775E+03  0.47192764218E+03  0.00000000000E+00 0.  1.
         11    1    1    2    0    0 -0.75432162227E+01  0.90168240537E+01 -0.28185504313E+03  0.28210010380E+03  0.00000000000E+00 0. -1.
        -15    1    1    2    0    0  0.26839893171E+02  0.36568473454E+02 -0.19521284583E+03  0.20042167054E+03  0.17770000000E+01 0.  1.
         15    1    1    2    0    0 -0.12405682768E+02 -0.43483404079E+02  0.51952412079E+01  0.45550583481E+02  0.17770000000E+01 0. -1.
</event>
<event>
 6    1  0.1782050E-003  0.2403151E+03  0.7546771E-02  0.1029946E+00
        -11   -1    0    0    0    0  0.00000000000E+00  0.00000000000E+00  0.50000000000E+03  0.50000000000E+03  0.00000000000E+00 0.  1.
         11   -1    0    0    0    0 -0.00000000000E+00 -0.00000000000E+00 -0.50000000000E+03  0.50000000000E+03  0.00000000000E+00 0. -1.
        -11    1    1    2    0    0  0.61473439292E+01  0.10743164429E+02  0.32124244355E+03  0.32148081274E+03  0.00000000000E+00 0.  1.
         11    1    1    2    0    0  0.15609457304E+02  0.48585463420E+02 -0.33536542830E+03  0.33922584352E+03  0.00000000000E+00 0. -1.
        -15    1    1    2    0    0 -0.12268909210E+02  0.85241048228E+00  0.17076216838E+03  0.17121369284E+03  0.17770000000E+01 0.  1.
         15    1    1    2    0    0 -0.94878920234E+01 -0.60181038331E+02 -0.15663918363E+03  0.16807965090E+03  0.17770000000E+01 0. -1.
</event>
<event>
 6    1  0.1782050E-003  0.4915871E+03  0.7546771E-02  0.9418833E-01
        -11   -1    0    0    0    0  0.00000000000E+00  0.00000000000E+00  0.50000000000E+03  0.50000000000E+03  0.00000000000E+00 0.  1.
         11   -1    0    0    0    0 -0.00000000000E+00 -0.00000000000E+00 -0.50000000000E+03  0.50000000000E+03  0.00000000000E+00 0. -1.
        -11    1    1    2    0    0  0.42610079810E+01  0.62262736910E+01  0.49311705529E+03  0.49317476911E+03  0.00000000000E+00 0.  1.
         11    1    1    2    0    0 -0.41169486494E+01  0.68320628536E+01 -0.49002614636E+03  0.49009106345E+03  0.00000000000E+00 0. -1.
        -15    1    1    2    0    0 -0.29147768004E+01 -0.88762475215E+01  0.15953338372E+01  0.96429514627E+01  0.17770000000E+01 0.  1.
         15    1    1    2    0    0  0.27707174689E+01 -0.41820890231E+01 -0.46862427602E+01  0.70912159816E+01  0.17770000000E+01 0. -1.
</event>
<event>
 6    1  0.1782050E-003  0.4990829E+03  0.7546771E-02  0.9401864E-01
        -11   -1    0    0    0    0  0.00000000000E+00  0.00000000000E+00  0.50000000000E+03  0.50000000000E+03  0.00000000000E+00 0. -1.
         11   -1    0    0    0    0 -0.00000000000E+00 -0.00000000000E+00 -0.50000000000E+03  0.50000000000E+03  0.00000000000E+00 0.  1.
        -11    1    1    2    0    0  0.62773214386E+01 -0.54763541865E+01  0.17418967831E+01  0.85105478098E+01  0.00000000000E+00 0. -1.
         11    1    1    2    0    0 -0.71681490996E+01 -0.46270349345E+01 -0.49316429910E+03  0.49323809435E+03  0.00000000000E+00 0.  1.
        -15    1    1    2    0    0  0.13337839126E+02  0.40574244567E+02  0.17624728543E+03  0.18135719072E+03  0.17770000000E+01 0.  1.
         15    1    1    2    0    0 -0.12447011465E+02 -0.30470855446E+02  0.31517511688E+03  0.31689416712E+03  0.17770000000E+01 0. -1.
</event>
<event>
 6    1  0.1782050E-003  0.5004615E+03  0.7546771E-02  0.9398778E-01
        -11   -1    0    0    0    0  0.00000000000E+00  0.00000000000E+00  0.50000000000E+03  0.50000000000E+03  0.00000000000E+00 0. -1.
         11   -1    0    0    0    0 -0.00000000000E+00 -0.00000000000E+00 -0.50000000000E+03  0.50000000000E+03  0.00000000000E+00 0. -1.
        -11    1    1    2    0    0  0.79420978150E+01  0.13585749670E+02  0.49929058446E+03  0.49953852428E+03  0.00000000000E+00 0. -1.
         11    1    1    2    0    0  0.62087633440E+01  0.24056683031E+01 -0.14108076292E+03  0.14123780530E+03  0.00000000000E+00 0. -1.
        -15    1    1    2    0    0 -0.82553695903E+01  0.55835153302E+00 -0.16198836925E+03  0.16220928575E+03  0.17770000000E+01 0.  1.
         15    1    1    2    0    0 -0.58954915687E+01 -0.16549769506E+02 -0.19622145230E+03  0.19701438466E+03  0.17770000000E+01 0. -1.
</event>
<event>
 6    1  0.1782050E-003  0.5016550E+03  0.7546771E-02  0.9396114E-01
        -11   -1    0    0    0    0  0.00000000000E+00  0.00000000000E+00  0.50000000000E+03  0.50000000000E+03  0.00000000000E+00 0.  1.
         11   -1    0    0    0    0 -0.00000000000E+00 -0.00000000000E+00 -0.50000000000E+03  0.50000000000E+03  0.00000000000E+00 0.  1.
        -11    1    1    2    0    0  0.16612209107E+01 -0.13204607800E+02  0.43616848896E+03  0.43637148405E+03  0.00000000000E+00 0.  1.
         11    1    1    2    0    0 -0.10795721009E+02  0.80103726677E+00 -0.49822738753E+03  0.49834497985E+03  0.00000000000E+00 0.  1.
        -15    1    1    2    0    0  0.64451462909E+01  0.65133820523E+01  0.53968805230E+02  0.54770007517E+02  0.17770000000E+01 0.  1.
         15    1    1    2    0    0  0.26893538078E+01  0.58901884812E+01  0.80900933365E+01  0.10513528591E+02  0.17770000000E+01 0. -1.
</event>
<event>
 6    1  0.1782050E-003  0.5248370E+03  0.7546771E-02  0.9345888E-01
        -11   -1    0    0    0    0  0.00000000000E+00  0.00000000000E+00  0.50000000000E+03  0.50000000000E+03  0.00000000000E+00 0. -1.
         11   -1    0    0    0    0 -0.00000000000E+00 -0.00000000000E+00 -0.50000000000E+03  0.50000000000E+03  0.00000000000E+00 0.  1.
        -11    1    1    2    0    0  0.85283164623E+01 -0.14979574692E+02  0.47485025335E+03  0.47516300671E+03  0.00000000000E+00 0. -1.
         11    1    1    2    0    0 -0.26889524804E+01 -0.33314163761E+01 -0.26270250376E+03  0.26273738654E+03  0.00000000000E+00 0.  1.
        -15    1    1    2    0    0  0.11097770537E+02  0.12668878596E+02 -0.23355534639E+03  0.23416856867E+03  0.17770000000E+01 0.  1.
         15    1    1    2    0    0 -0.16937134519E+02  0.56421124724E+01  0.21407596804E+02  0.27931038090E+02  0.17770000000E+01 0. -1.
</event>
<event>
 6    1  0.1782050E-003  0.5036803E+03  0.7546771E-02  0.9391612E-01
        -11   -1    0    0    0    0  0.00000000000E+00  0.00000000000E+00  0.50000000000E+03  0.50000000000E+03  0.00000000000E+00 0. -1.
         11   -1    0    0    0    0 -0.00000000000E+00 -0.00000000000E+00 -0.50000000000E+03  0.50000000000E+03  0.00000000000E+00 0. -1.
        -11    1    1    2    0    0 -0.89762076419E+01 -0.13675575002E+02  0.45843945432E+02  0.48675055090E+02  0.00000000000E+00 0. -1.
         11    1    1    2    0    0  0.87955822276E+01 -0.82359252199E+01 -0.49617342818E+03  0.49631971909E+03  0.00000000000E+00 0. -1.
        -15    1    1    2    0    0  0.16657298056E+01  0.20358705501E+02  0.45151145892E+03  0.45197677685E+03  0.17770000000E+01 0. -1.
         15    1    1    2    0    0 -0.14851043914E+01  0.15527947213E+01 -0.11819761738E+01  0.30284489719E+01  0.17770000000E+01 0.  1.
</event>
<event>
 6    1  0.1782050E-003  0.5051116E+03  0.7546771E-02  0.9388444E-01
        -11   -1    0    0    0    0  0.00000000000E+00  0.00000000000E+00  0.50000000000E+03  0.50000000000E+03  0.00000000000E+00 0.  1.
         11   -1    0    0    0    0 -0.00000000000E+00 -0.00000000000E+00 -0.50000000000E+03  0.50000000000E+03  0.00000000000E+00 0. -1.
        -11    1    1    2    0    0 -0.23219300788E+01  0.24328980018E+01  0.21362913868E+03  0.21365560898E+03  0.00000000000E+00 0.  1.
         11    1    1    2    0    0 -0.46677117992E+02  0.55101582948E+01 -0.49265136878E+03  0.49488835746E+03  0.00000000000E+00 0. -1.
        -15    1    1    2    0    0  0.60445437422E+02  0.45988601831E+01  0.15806797751E+03  0.16930281646E+03  0.17770000000E+01 0.  1.
         15    1    1    2    0    0 -0.11446389351E+02 -0.12541916480E+02  0.12095425259E+03  0.12215321710E+03  0.17770000000E+01 0. -1.
</event>
<event>
 6    1  0.1782050E-003  0.5015913E+03  0.7546771E-02  0.9396256E-01
        -11   -1    0    0    0    0  0.00000000000E+00  0.00000000000E+00  0.50000000000E+03  0.50000000000E+03  0.00000000000E+00 0.  1.
         11   -1    0    0    0    0 -0.00000000000E+00 -0.00000000000E+00 -0.50000000000E+03  0.50000000000E+03  0.00000000000E+00 0. -1.
        -11    1    1    2    0    0 -0.11615020375E+02 -0.26454983874E+01  0.26261557583E+03  0.26288561776E+03  0.00000000000E+00 0.  1.
         11    1    1    2    0    0  0.13794314620E+02  0.16520508272E+01 -0.49821505282E+03  0.49840871907E+03  0.00000000000E+00 0. -1.
        -15    1    1    2    0    0  0.10572636021E+02  0.11258453724E+01  0.20768668646E+03  0.20796626078E+03  0.17770000000E+01 0.  1.
         15    1    1    2    0    0 -0.12751930266E+02 -0.13239781223E+00  0.27912790533E+02  0.30739402386E+02  0.17770000000E+01 0. -1.
</event>
<event>
 6    1  0.1782050E-003  0.5033525E+03  0.7546771E-02  0.9392339E-01
        -11   -1    0    0    0    0  0.00000000000E+00  0.00000000000E+00  0.50000000000E+03  0.50000000000E+03  0.00000000000E+00 0. -1.
         11   -1    0    0    0    0 -0.00000000000E+00 -0.00000000000E+00 -0.50000000000E+03  0.50000000000E+03  0.00000000000E+00 0.  1.
        -11    1    1    2    0    0  0.12345326309E+01 -0.10988665300E+02  0.49652438733E+03  0.49664750281E+03  0.00000000000E+00 0. -1.
         11    1    1    2    0    0 -0.74367216716E+01 -0.10314006399E+02 -0.40512850474E+03  0.40532800164E+03  0.00000000000E+00 0.  1.
        -15    1    1    2    0    0  0.41402382621E+01  0.16597136519E+02 -0.19814416468E+02  0.26236908021E+02  0.17770000000E+01 0.  1.
         15    1    1    2    0    0  0.20619507785E+01  0.47055351795E+01 -0.71581466121E+02  0.71787587530E+02  0.17770000000E+01 0. -1.
</event>
<event>
 6    1  0.1782050E-003  0.5074389E+03  0.7546771E-02  0.9383317E-01
        -11   -1    0    0    0    0  0.00000000000E+00  0.00000000000E+00  0.50000000000E+03  0.50000000000E+03  0.00000000000E+00 0.  1.
         11   -1    0    0    0    0 -0.00000000000E+00 -0.00000000000E+00 -0.50000000000E+03  0.50000000000E+03  0.00000000000E+00 0. -1.
        -11    1    1    2    0    0 -0.27485515341E+01  0.90187160819E+01  0.41380452096E+03  0.41391191496E+03  0.00000000000E+00 0.  1.
         11    1    1    2    0    0 -0.96635835595E+01  0.79050021559E+01 -0.49240287432E+03  0.49256112772E+03  0.00000000000E+00 0. -1.
        -15    1    1    2    0    0  0.23019294358E+01 -0.11667766317E+02  0.80881612240E+02  0.81770585038E+02  0.17770000000E+01 0.  1.
         15    1    1    2    0    0  0.10110205658E+02 -0.52559519205E+01 -0.22832588850E+01  0.11756372279E+02  0.17770000000E+01 0.  1.
</event>
<event>
 6    1  0.1782050E-003  0.5018394E+03  0.7546771E-02  0.9395703E-01
        -11   -1    0    0    0    0  0.00000000000E+00  0.00000000000E+00  0.50000000000E+03  0.50000000000E+03  0.00000000000E+00 0.  1.
         11   -1    0    0    0    0 -0.00000000000E+00 -0.00000000000E+00 -0.50000000000E+03  0.50000000000E+03  0.00000000000E+00 0. -1.
        -11    1    1    2    0    0 -0.76814715613E+01 -0.12366990464E+01  0.49809980930E+03  0.49816057096E+03  0.00000000000E+00 0.  1.
         11    1    1    2    0    0  0.79213304352E+01  0.39437692860E+01 -0.45435097600E+03  0.45443713557E+03  0.00000000000E+00 0. -1.
        -15    1    1    2    0    0  0.55100722696E+01  0.89600950535E+00 -0.41313609383E+01  0.71686541033E+01  0.17770000000E+01 0.  1.
         15    1    1    2    0    0 -0.57499311435E+01 -0.36030797450E+01 -0.39617472366E+02  0.40233639376E+02  0.17770000000E+01 0. -1.
</event>
<event>
 6    1  0.1782050E-003  0.5029275E+03  0.7546771E-02  0.9393283E-01
        -11   -1    0    0    0    0  0.00000000000E+00  0.00000000000E+00  0.50000000000E+03  0.50000000000E+03  0.00000000000E+00 0.  1.
         11   -1    0    0    0    0 -0.00000000000E+00 -0.00000000000E+00 -0.50000000000E+03  0.50000000000E+03  0.00000000000E+00 0. -1.
        -11    1    1    2    0    0  0.15373842302E+02  0.20588853723E+02  0.49640795896E+03  0.49707254766E+03  0.00000000000E+00 0.  1.
         11    1    1    2    0    0  0.27224087141E+01 -0.59208126239E+01 -0.26477985059E+03  0.26486003249E+03  0.00000000000E+00 0. -1.
        -15    1    1    2    0    0 -0.52530137756E+01  0.34812671201E+01 -0.19549375183E+03  0.19560336937E+03  0.17770000000E+01 0. -1.
         15    1    1    2    0    0 -0.12843237240E+02 -0.18149308219E+02 -0.36134356540E+02  0.42464050480E+02  0.17770000000E+01 0. -1.
</event>
<event>
 6    1  0.1782050E-003  0.5009552E+03  0.7546771E-02  0.9397675E-01
        -11   -1    0    0    0    0  0.00000000000E+00  0.00000000000E+00  0.50000000000E+03  0.50000000000E+03  0.00000000000E+00 0. -1.
         11   -1    0    0    0    0 -0.00000000000E+00 -0.00000000000E+00 -0.50000000000E+03  0.50000000000E+03  0.00000000000E+00 0.  1.
        -11    1    1    2    0    0  0.53374022376E+01  0.84455888250E+01  0.49894479053E+03  0.49904480743E+03  0.00000000000E+00 0. -1.
         11    1    1    2    0    0 -0.17908863668E+01  0.17392426573E+01 -0.17582974191E+03  0.17584746339E+03  0.00000000000E+00 0.  1.
        -15    1    1    2    0    0  0.92626485707E+01 -0.45309470776E+01 -0.26832831481E+03  0.26853224834E+03  0.17770000000E+01 0. -1.
         15    1    1    2    0    0 -0.12809164441E+02 -0.56538844048E+01 -0.54786733804E+02  0.56575480842E+02  0.17770000000E+01 0.  1.
</event>
<event>
 6    1  0.1782050E-003  0.5019624E+03  0.7546771E-02  0.9395429E-01
        -11   -1    0    0    0    0  0.00000000000E+00  0.00000000000E+00  0.50000000000E+03  0.50000000000E+03  0.00000000000E+00 0.  1.
         11   -1    0    0    0    0 -0.00000000000E+00 -0.00000000000E+00 -0.50000000000E+03  0.50000000000E+03  0.00000000000E+00 0. -1.
        -11    1    1    2    0    0 -0.35711106553E+01  0.68117831647E+01  0.49797819948E+03  0.49803758933E+03  0.00000000000E+00 0.  1.
         11    1    1    2    0    0  0.48228070070E+01  0.12079695541E+02 -0.31217768539E+03  0.31244853299E+03  0.00000000000E+00 0. -1.
        -15    1    1    2    0    0  0.15165222662E+02 -0.10232136340E+02 -0.10435415933E+03  0.10596050628E+03  0.17770000000E+01 0. -1.
         15    1    1    2    0    0 -0.16416919014E+02 -0.86593423658E+01 -0.81446354767E+02  0.83553371410E+02  0.17770000000E+01 0.  1.
</event>
<event>
 6    1  0.1782050E-003  0.5117345E+03  0.7546771E-02  0.9373929E-01
        -11   -1    0    0    0    0  0.00000000000E+00  0.00000000000E+00  0.50000000000E+03  0.50000000000E+03  0.00000000000E+00 0.  1.
         11   -1    0    0    0    0 -0.00000000000E+00 -0.00000000000E+00 -0.50000000000E+03  0.50000000000E+03  0.00000000000E+00 0. -1.
        -11    1    1    2    0    0 -0.12539096549E+01  0.11715548147E+02  0.44730237161E+03  0.44745752648E+03  0.00000000000E+00 0.  1.
         11    1    1    2    0    0 -0.19387372873E+02 -0.44431222256E+01 -0.48786023893E+03  0.48826552642E+03  0.00000000000E+00 0. -1.
        -15    1    1    2    0    0  0.34517594249E+02 -0.32641984248E+01  0.32912434009E+02  0.47838325070E+02  0.17770000000E+01 0. -1.
         15    1    1    2    0    0 -0.13876311721E+02 -0.40082274966E+01  0.76454333120E+01  0.16438622028E+02  0.17770000000E+01 0.  1.
</event>
<event>
 6    1  0.1782050E-003  0.5097304E+03  0.7546771E-02  0.9378297E-01
        -11   -1    0    0    0    0  0.00000000000E+00  0.00000000000E+00  0.50000000000E+03  0.50000000000E+03  0.00000000000E+00 0. -1.
         11   -1    0    0    0    0 -0.00000000000E+00 -0.00000000000E+00 -0.50000000000E+03  0.50000000000E+03  0.00000000000E+00 0.  1.
        -11    1    1    2    0    0 -0.51716741850E+01  0.10465576870E+02  0.49013060790E+03  0.49026960676E+03  0.00000000000E+00 0. -1.
         11    1    1    2    0    0  0.72817305143E+01 -0.13862028015E+01 -0.47487895937E+03  0.47493680759E+03  0.00000000000E+00 0.  1.
        -15    1    1    2    0    0  0.24187968810E+01 -0.71786517227E+01  0.78832456004E+01  0.11076412285E+02  0.17770000000E+01 0.  1.
         15    1    1    2    0    0 -0.45288532103E+01 -0.19007223458E+01 -0.23134894132E+02  0.23717173363E+02  0.17770000000E+01 0.  1.
</event>
<event>
 6    1  0.1782050E-003  0.5022814E+03  0.7546771E-02  0.9394719E-01
        -11   -1    0    0    0    0  0.00000000000E+00  0.00000000000E+00  0.50000000000E+03  0.50000000000E+03  0.00000000000E+00 0.  1.
         11   -1    0    0    0    0 -0.00000000000E+00 -0.00000000000E+00 -0.50000000000E+03  0.50000000000E+03  0.00000000000E+00 0.  1.
        -11    1    1    2    0    0  0.82033298484E+00  0.83220740676E+01  0.49764837690E+03  0.49771863226E+03  0.00000000000E+00 0.  1.
         11    1    1    2    0    0 -0.15961096490E+02 -0.98837296901E+01 -0.38996686956E+03  0.39041849863E+03  0.00000000000E+00 0.  1.
        -15    1    1    2    0    0  0.93028774995E+01  0.13392909383E+02 -0.70087948298E+02  0.71981885063E+02  0.17770000000E+01 0. -1.
         15    1    1    2    0    0  0.58378860053E+01 -0.11831253761E+02 -0.37593559043E+02  0.39880984053E+02  0.17770000000E+01 0.  1.
</event>
<event>
 6    1  0.1782050E-003  0.5356165E+03  0.7546771E-02  0.9323462E-01
        -11   -1    0    0    0    0  0.00000000000E+00  0.00000000000E+00  0.50000000000E+03  0.50000000000E+03  0.00000000000E+00 0.  1.
         11   -1    0    0    0    0 -0.00000000000E+00 -0.00000000000E+00 -0.50000000000E+03  0.50000000000E+03  0.00000000000E+00 0.  1.
        -11    1    1    2    0    0 -0.51975552229E+01  0.13356389238E+01  0.25566806613E+03  0.25572438004E+03  0.00000000000E+00 0.  1.
         11    1    1    2    0    0 -0.18624378643E+01  0.91462252841E+02 -0.45528366043E+03  0.46438348789E+03  0.00000000000E+00 0.  1.
        -15    1    1    2    0    0 -0.40778696986E+02  0.12108547626E+01  0.16328834863E+03  0.16831699506E+03  0.17770000000E+01 0.  1.
         15    1    1    2    0    0  0.47838690073E+02 -0.94008746527E+02  0.36327245675E+02  0.11157513701E+03  0.17770000000E+01 0. -1.
</event>
<event>
 6    1  0.1782050E-003  0.5141116E+03  0.7546771E-02  0.9368776E-01
        -11   -1    0    0    0    0  0.00000000000E+00  0.00000000000E+00  0.50000000000E+03  0.50000000000E+03  0.00000000000E+00 0.  1.
         11   -1    0    0    0    0 -0.00000000000E+00 -0.00000000000E+00 -0.50000000000E+03  0.50000000000E+03  0.00000000000E+00 0. -1.
        -11    1    1    2    0    0 -0.40132769567E+01  0.54791896433E+01  0.48584091212E+03  0.48588838204E+03  0.00000000000E+00 0.  1.
         11    1    1    2    0    0  0.58986521607E+01  0.31100578265E+01 -0.36444361371E+03  0.36450461469E+03  0.00000000000E+00 0. -1.
        -15    1    1    2    0    0  0.78225666931E+01  0.18962387608E+02 -0.11841257627E+03  0.12018927007E+03  0.17770000000E+01 0. -1.
         15    1    1    2    0    0 -0.97079418971E+01 -0.27551635078E+02 -0.29847221469E+01  0.29417733200E+02  0.17770000000E+01 0.  1.
</event>
<event>
 6    1  0.1782050E-003  0.5276641E+03  0.7546771E-02  0.9339952E-01
        -11   -1    0    0    0    0  0.00000000000E+00  0.00000000000E+00  0.50000000000E+03  0.50000000000E+03  0.00000000000E+00 0. -1.
         11   -1    0    0    0    0 -0.00000000000E+00 -0.00000000000E+00 -0.50000000000E+03  0.50000000000E+03  0.00000000000E+00 0.  1.
        -11    1    1    2    0    0 -0.74483526367E+01 -0.13701429182E+02  0.12674183879E+03  0.12769769308E+03  0.00000000000E+00 0. -1.
         11    1    1    2    0    0 -0.15440642173E+01  0.10872489930E+02 -0.47220825224E+03  0.47233592776E+03  0.00000000000E+00 0.  1.
        -15    1    1    2    0    0  0.65040759921E+01  0.40531348366E+02  0.35782204095E+03  0.36017338036E+03  0.17770000000E+01 0. -1.
         15    1    1    2    0    0  0.24883408619E+01 -0.37702409114E+02 -0.12355627502E+02  0.39792998797E+02  0.17770000000E+01 0.  1.
</event>
<event>
 6    1  0.1782050E-003  0.5030085E+03  0.7546771E-02  0.9393103E-01
        -11   -1    0    0    0    0  0.00000000000E+00  0.00000000000E+00  0.50000000000E+03  0.50000000000E+03  0.00000000000E+00 0.  1.
         11   -1    0    0    0    0 -0.00000000000E+00 -0.00000000000E+00 -0.50000000000E+03  0.50000000000E+03  0.00000000000E+00 0. -1.
        -11    1    1    2    0    0 -0.33754763618E+01  0.78982477044E+01  0.49691725444E+03  0.49699148274E+03  0.00000000000E+00 0.  1.
         11    1    1    2    0    0  0.62226934472E+01 -0.91089031440E+01 -0.44782369578E+03  0.44795954788E+03  0.00000000000E+00 0. -1.
        -15    1    1    2    0    0  0.30950760941E+01 -0.32078693360E+01  0.54509371075E+00  0.48295732585E+01  0.17770000000E+01 0. -1.
         15    1    1    2    0    0 -0.59422931795E+01  0.44185247756E+01 -0.49638652364E+02  0.50219396122E+02  0.17770000000E+01 0.  1.
</event>
<event>
 6    1  0.1782050E-003  0.5031128E+03  0.7546771E-02  0.9392871E-01
        -11   -1    0    0    0    0  0.00000000000E+00  0.00000000000E+00  0.50000000000E+03  0.50000000000E+03  0.00000000000E+00 0.  1.
         11   -1    0    0    0    0 -0.00000000000E+00 -0.00000000000E+00 -0.50000000000E+03  0.50000000000E+03  0.00000000000E+00 0. -1.
        -11    1    1    2    0    0 -0.85581472488E+01  0.60071582009E+00  0.31055964433E+03  0.31067812190E+03  0.00000000000E+00 0.  1.
         11    1    1    2    0    0 -0.29566275100E+01 -0.64806380316E+01 -0.49683611232E+03  0.49688717313E+03  0.00000000000E+00 0. -1.
        -15    1    1    2    0    0  0.14893953367E+01  0.54882495900E+01  0.78792069328E-01  0.59584493974E+01  0.17770000000E+01 0. -1.
         15    1    1    2    0    0  0.10025379422E+02  0.39167262151E+00  0.18619767593E+03  0.18647625557E+03  0.17770000000E+01 0.  1.
</event>
<event>
 6    1  0.1782050E-003  0.5047711E+03  0.7546771E-02  0.9389197E-01
        -11   -1    0    0    0    0  0.00000000000E+00  0.00000000000E+00  0.50000000000E+03  0.50000000000E+03  0.00000000000E+00 0. -1.
         11   -1    0    0    0    0 -0.00000000000E+00 -0.00000000000E+00 -0.50000000000E+03  0.50000000000E+03  0.00000000000E+00 0. -1.
        -11    1    1    2    0    0  0.25224723727E+01  0.71443044518E+01  0.49517091920E+03  0.49522887959E+03  0.00000000000E+00 0. -1.
         11    1    1    2    0    0  0.21424948825E+01 -0.10467172155E+02 -0.47204502476E+03  0.47216592144E+03  0.00000000000E+00 0. -1.
        -15    1    1    2    0    0  0.78113862533E+01 -0.29701994555E+01 -0.11586149819E+02  0.14395708966E+02  0.17770000000E+01 0. -1.
         15    1    1    2    0    0 -0.12476353509E+02  0.62930671590E+01 -0.11539744627E+02  0.18209490004E+02  0.17770000000E+01 0.  1.
</event>
<event>
 6    1  0.1782050E-003  0.5011323E+03  0.7546771E-02  0.9397280E-01
        -11   -1    0    0    0    0  0.00000000000E+00  0.00000000000E+00  0.50000000000E+03  0.50000000000E+03  0.00000000000E+00 0. -1.
         11   -1    0    0    0    0 -0.00000000000E+00 -0.00000000000E+00 -0.50000000000E+03  0.50000000000E+03  0.00000000000E+00 0. -1.
        -11    1    1    2    0    0 -0.34787738070E+01  0.12690329181E+02  0.34675888889E+03  0.34700846293E+03  0.00000000000E+00 0. -1.
         11    1    1    2    0    0  0.27844190343E+01  0.84221411834E+01 -0.49878884977E+03  0.49886772005E+03  0.00000000000E+00 0. -1.
        -15    1    1    2    0    0  0.38895032490E+01 -0.89540763431E+00  0.38785563023E+02  0.39030854696E+02  0.17770000000E+01 0.  1.
         15    1    1    2    0    0 -0.31951484763E+01 -0.20217062730E+02  0.11324439786E+03  0.11509296232E+03  0.17770000000E+01 0. -1.
</event>
<event>
 6    1  0.1782050E-003  0.5012333E+03  0.7546771E-02  0.9397054E-01
        -11   -1    0    0    0    0  0.00000000000E+00  0.00000000000E+00  0.50000000000E+03  0.50000000000E+03  0.00000000000E+00 0. -1.
         11   -1    0    0    0    0 -0.00000000000E+00 -0.00000000000E+00 -0.50000000000E+03  0.50000000000E+03  0.00000000000E+00 0.  1.
        -11    1    1    2    0    0 -0.41467677369E+01  0.83574270883E+01  0.31225844492E+03  0.31239778919E+03  0.00000000000E+00 0. -1.
         11    1    1    2    0    0  0.73624077220E+01  0.28269507526E+01 -0.49870429725E+03  0.49876665164E+03  0.00000000000E+00 0.  1.
        -15    1    1    2    0    0 -0.82157190661E-01 -0.46318118857E+01  0.17555348123E+03  0.17562358307E+03  0.17770000000E+01 0. -1.
         15    1    1    2    0    0 -0.31334827945E+01 -0.65525659552E+01  0.10892371097E+02  0.13211976088E+02  0.17770000000E+01 0.  1.
</event>
<event>
 6    1  0.1782050E-003  0.5021293E+03  0.7546771E-02  0.9395058E-01
        -11   -1    0    0    0    0  0.00000000000E+00  0.00000000000E+00  0.50000000000E+03  0.50000000000E+03  0.00000000000E+00 0. -1.
         11   -1    0    0    0    0 -0.00000000000E+00 -0.00000000000E+00 -0.50000000000E+03  0.50000000000E+03  0.00000000000E+00 0. -1.
        -11    1    1    2    0    0 -0.33770302062E+02  0.11749086261E+02  0.49658511463E+03  0.49787071656E+03  0.00000000000E+00 0. -1.
         11    1    1    2    0    0  0.31194869762E+01 -0.93133317716E+01 -0.32498013698E+03  0.32512852655E+03  0.00000000000E+00 0. -1.
        -15    1    1    2    0    0  0.51025622295E+01 -0.92839687776E+01 -0.10122993010E+03  0.10179825487E+03  0.17770000000E+01 0. -1.
         15    1    1    2    0    0  0.25548252856E+02  0.68482142883E+01 -0.70375047556E+02  0.75202502022E+02  0.17770000000E+01 0.  1.
</event>
<event>
 6    1  0.1782050E-003  0.5135000E+03  0.7546771E-02  0.9370099E-01
        -11   -1    0    0    0    0  0.00000000000E+00  0.00000000000E+00  0.50000000000E+03  0.50000000000E+03  0.00000000000E+00 0.  1.
         11   -1    0    0    0    0 -0.00000000000E+00 -0.00000000000E+00 -0.50000000000E+03  0.50000000000E+03  0.00000000000E+00 0.  1.
        -11    1    1    2    0    0 -0.44531190215E+01  0.12929056753E+02  0.41107213921E+03  0.41129951910E+03  0.00000000000E+00 0.  1.
         11    1    1    2    0    0  0.44165699995E+01  0.37893753010E+02 -0.48500185724E+03  0.48649999397E+03  0.00000000000E+00 0.  1.
        -15    1    1    2    0    0 -0.51579690228E+01 -0.30874964411E+02  0.69718852742E+01  0.32119043963E+02  0.17770000000E+01 0.  1.
         15    1    1    2    0    0  0.51945180448E+01 -0.19947845353E+02  0.66957832757E+02  0.70081442968E+02  0.17770000000E+01 0. -1.
</event>
<event>
 6    1  0.1782050E-003  0.5032169E+03  0.7546771E-02  0.9392640E-01
        -11   -1    0    0    0    0  0.00000000000E+00  0.00000000000E+00  0.50000000000E+03  0.50000000000E+03  0.00000000000E+00 0. -1.
         11   -1    0    0    0    0 -0.00000000000E+00 -0.00000000000E+00 -0.50000000000E+03  0.50000000000E+03  0.00000000000E+00 0.  1.
        -11    1    1    2    0    0 -0.12481641172E+01 -0.67325581726E+01  0.49673592339E+03  0.49678311449E+03  0.00000000000E+00 0. -1.
         11    1    1    2    0    0 -0.11158712789E+01 -0.60152328258E+01 -0.44514101027E+03  0.44518304912E+03  0.00000000000E+00 0.  1.
        -15    1    1    2    0    0 -0.85827036592E+00  0.13565797565E+01 -0.43538880215E+02  0.43604687317E+02  0.17770000000E+01 0. -1.
         15    1    1    2    0    0  0.32223057620E+01  0.11391211242E+02 -0.80560329055E+01  0.14429149079E+02  0.17770000000E+01 0.  1.
</event>
<event>
 6    1  0.1782050E-003  0.5059586E+03  0.7546771E-02  0.9386575E-01
        -11   -1    0    0    0    0  0.00000000000E+00  0.00000000000E+00  0.50000000000E+03  0.50000000000E+03  0.00000000000E+00 0. -1.
         11   -1    0    0    0    0 -0.00000000000E+00 -0.00000000000E+00 -0.50000000000E+03  0.50000000000E+03  0.00000000000E+00 0. -1.
        -11    1    1    2    0    0 -0.54934283184E+01 -0.45284372278E+01  0.49399007812E+03  0.49404137658E+03  0.00000000000E+00 0. -1.
         11    1    1    2    0    0  0.63642193543E+01  0.78459978353E+01 -0.46203246337E+03  0.46214290017E+03  0.00000000000E+00 0. -1.
        -15    1    1    2    0    0 -0.13852673580E+01 -0.14554891628E+02 -0.28215255326E+02  0.31828009647E+02  0.17770000000E+01 0.  1.
         15    1    1    2    0    0  0.51447632210E+00  0.11237331021E+02 -0.37423594259E+01  0.11987713603E+02  0.17770000000E+01 0. -1.
</event>
<event>
 6    1  0.1782050E-003  0.5041115E+03  0.7546771E-02  0.9390657E-01
        -11   -1    0    0    0    0  0.00000000000E+00  0.00000000000E+00  0.50000000000E+03  0.50000000000E+03  0.00000000000E+00 0. -1.
         11   -1    0    0    0    0 -0.00000000000E+00 -0.00000000000E+00 -0.50000000000E+03  0.50000000000E+03  0.00000000000E+00 0.  1.
        -11    1    1    2    0    0 -0.12037888999E+02 -0.14352235679E+01  0.29977414652E+03  0.30001918198E+03  0.00000000000E+00 0. -1.
         11    1    1    2    0    0 -0.72206965420E+01 -0.11351946679E+02 -0.49570595633E+03  0.49588849582E+03  0.00000000000E+00 0.  1.
        -15    1    1    2    0    0  0.40461984111E+01 -0.68253311632E+01  0.16099049193E+03  0.16119569811E+03  0.17770000000E+01 0.  1.
         15    1    1    2    0    0  0.15212387130E+02  0.19612501410E+02  0.34941317878E+02  0.42896624085E+02  0.17770000000E+01 0. -1.
</event>
<event>
 6    1  0.1782050E-003  0.4583854E+03  0.7546771E-02  0.9498065E-01
        -11   -1    0    0    0    0  0.00000000000E+00  0.00000000000E+00  0.50000000000E+03  0.50000000000E+03  0.00000000000E+00 0.  1.
         11   -1    0    0    0    0 -0.00000000000E+00 -0.00000000000E+00 -0.50000000000E+03  0.50000000000E+03  0.00000000000E+00 0. -1.
        -11    1    1    2    0    0 -0.95672672459E+01 -0.32060730527E+01  0.45775459474E+03  0.45786578875E+03  0.00000000000E+00 0.  1.
         11    1    1    2    0    0  0.61012402488E+01  0.14322756664E+01 -0.45887106701E+03  0.45891386194E+03  0.00000000000E+00 0. -1.
        -15    1    1    2    0    0  0.82290609091E+01  0.65031602331E+01  0.41194197425E+02  0.42545601030E+02  0.17770000000E+01 0. -1.
         15    1    1    2    0    0 -0.47630339120E+01 -0.47293628469E+01 -0.40077725152E+02  0.40674748276E+02  0.17770000000E+01 0.  1.
</event>
<event>
 6    1  0.1782050E-003  0.5048244E+03  0.7546771E-02  0.9389079E-01
        -11   -1    0    0    0    0  0.00000000000E+00  0.00000000000E+00  0.50000000000E+03  0.50000000000E+03  0.00000000000E+00 0.  1.
         11   -1    0    0    0    0 -0.00000000000E+00 -0.00000000000E+00 -0.50000000000E+03  0.50000000000E+03  0.00000000000E+00 0. -1.
        -11    1    1    2    0    0 -0.13895144045E+02  0.11448834438E+02  0.49484813330E+03  0.49517555055E+03  0.00000000000E+00 0.  1.
         11    1    1    2    0    0  0.16826760550E+00 -0.74955826012E+01 -0.47594105935E+03  0.47600010930E+03  0.00000000000E+00 0. -1.
        -15    1    1    2    0    0 -0.18917154787E+00  0.12793553226E+01  0.20916502052E+01  0.30340180449E+01  0.17770000000E+01 0.  1.
         15    1    1    2    0    0  0.13916047987E+02 -0.52326071594E+01 -0.20998724150E+02  0.25790322103E+02  0.17770000000E+01 0. -1.
</event>
<event>
 6    1  0.1782050E-003  0.5030609E+03  0.7546771E-02  0.9392987E-01
        -11   -1    0    0    0    0  0.00000000000E+00  0.00000000000E+00  0.50000000000E+03  0.50000000000E+03  0.00000000000E+00 0. -1.
         11   -1    0    0    0    0 -0.00000000000E+00 -0.00000000000E+00 -0.50000000000E+03  0.50000000000E+03  0.00000000000E+00 0.  1.
        -11    1    1    2    0    0 -0.13637609162E+02 -0.19256272653E+00  0.49675185347E+03  0.49693905601E+03  0.00000000000E+00 0. -1.
         11    1    1    2    0    0  0.66821270950E+01 -0.21620985794E+01 -0.46598358745E+03  0.46603651066E+03  0.00000000000E+00 0.  1.
        -15    1    1    2    0    0 -0.49765947427E+01  0.52081168024E+01 -0.16698145938E+02  0.18272295494E+02  0.17770000000E+01 0. -1.
         15    1    1    2    0    0  0.11932076810E+02 -0.28534554965E+01 -0.14070120082E+02  0.18752137835E+02  0.17770000000E+01 0. -1.
</event>
<event>
 6    1  0.1782050E-003  0.5202334E+03  0.7546771E-02  0.9355640E-01
        -11   -1    0    0    0    0  0.00000000000E+00  0.00000000000E+00  0.50000000000E+03  0.50000000000E+03  0.00000000000E+00 0.  1.
         11   -1    0    0    0    0 -0.00000000000E+00 -0.00000000000E+00 -0.50000000000E+03  0.50000000000E+03  0.00000000000E+00 0. -1.
        -11    1    1    2    0    0  0.32145832256E+01  0.10842468576E+02  0.47963324996E+03  0.47976655484E+03  0.00000000000E+00 0.  1.
         11    1    1    2    0    0  0.32656590730E+01  0.58834981458E+01 -0.31435938390E+03  0.31443139527E+03  0.00000000000E+00 0. -1.
        -15    1    1    2    0    0 -0.12361571489E+01 -0.64608349469E+01 -0.18379135320E+03  0.18391761665E+03  0.17770000000E+01 0. -1.
         15    1    1    2    0    0 -0.52440851496E+01 -0.10265131775E+02  0.18517487145E+02  0.21884433248E+02  0.17770000000E+01 0.  1.
</event>
<event>
 6    1  0.1782050E-003  0.5089952E+03  0.7546771E-02  0.9379904E-01
        -11   -1    0    0    0    0  0.00000000000E+00  0.00000000000E+00  0.50000000000E+03  0.50000000000E+03  0.00000000000E+00 0.  1.
         11   -1    0    0    0    0 -0.00000000000E+00 -0.00000000000E+00 -0.50000000000E+03  0.50000000000E+03  0.00000000000E+00 0. -1.
        -11    1    1    2    0    0 -0.24793810569E+01 -0.61525796020E+01  0.49096003084E+03  0.49100484056E+03  0.00000000000E+00 0.  1.
         11    1    1    2    0    0  0.90619935542E+01 -0.78941074432E+01 -0.46828471128E+03  0.46843890475E+03  0.00000000000E+00 0. -1.
        -15    1    1    2    0    0 -0.91741543504E+01  0.95206741563E+01 -0.29148145985E+02  0.32055896303E+02  0.17770000000E+01 0. -1.
         15    1    1    2    0    0  0.25915418531E+01  0.45260128889E+01  0.64728264270E+01  0.85003583925E+01  0.17770000000E+01 0. -1.
</event>
<event>
 6    1  0.1782050E-003  0.5142789E+03  0.7546771E-02  0.9368414E-01
        -11   -1    0    0    0    0  0.00000000000E+00  0.00000000000E+00  0.50000000000E+03  0.50000000000E+03  0.00000000000E+00 0. -1.
         11   -1    0    0    0    0 -0.00000000000E+00 -0.00000000000E+00 -0.50000000000E+03  0.50000000000E+03  0.00000000000E+00 0.  1.
        -11    1    1    2    0    0 -0.91129328931E+00 -0.67106823762E+01  0.42427364394E+03  0.42432769018E+03  0.00000000000E+00 0. -1.
         11    1    1    2    0    0  0.15175741770E+02 -0.56877156809E+01 -0.48545066817E+03  0.48572111800E+03  0.00000000000E+00 0.  1.
        -15    1    1    2    0    0 -0.15469144340E+02  0.50278643248E+01 -0.94585844596E+01  0.18899640083E+02  0.17770000000E+01 0.  1.
         15    1    1    2    0    0  0.12046958594E+01  0.73705337322E+01  0.70635608690E+02  0.71051551733E+02  0.17770000000E+01 0.  1.
</event>
<event>
 6    1  0.1782050E-003  0.5004513E+03  0.7546771E-02  0.9398801E-01
        -11   -1    0    0    0    0  0.00000000000E+00  0.00000000000E+00  0.50000000000E+03  0.50000000000E+03  0.00000000000E+00 0.  1.
         11   -1    0    0    0    0 -0.00000000000E+00 -0.00000000000E+00 -0.50000000000E+03  0.50000000000E+03  0.00000000000E+00 0.  1.
        -11    1    1    2    0    0  0.12064096392E+02 -0.21991009211E+01  0.49939819969E+03  0.49954873668E+03  0.00000000000E+00 0.  1.
         11    1    1    2    0    0  0.41430331235E+01  0.40501566776E+01 -0.33018522427E+03  0.33023605318E+03  0.00000000000E+00 0.  1.
        -15    1    1    2    0    0 -0.10583876833E+02 -0.45338747926E+01 -0.12295387140E+03  0.12350460190E+03  0.17770000000E+01 0.  1.
         15    1    1    2    0    0 -0.56232526822E+01  0.26828190362E+01 -0.46259104020E+02  0.46710608243E+02  0.17770000000E+01 0. -1.
</event>
<event>
 6    1  0.1782050E-003  0.5057365E+03  0.7546771E-02  0.9387065E-01
        -11   -1    0    0    0    0  0.00000000000E+00  0.00000000000E+00  0.50000000000E+03  0.50000000000E+03  0.00000000000E+00 0.  1.
         11   -1    0    0    0    0 -0.00000000000E+00 -0.00000000000E+00 -0.50000000000E+03  0.50000000000E+03  0.00000000000E+00 0. -1.
        -11    1    1    2    0    0  0.27931592507E+01  0.92636563567E+01  0.49416877967E+03  0.49426349235E+03  0.00000000000E+00 0.  1.
         11    1    1    2    0    0  0.47842922149E+01 -0.44181858935E+01 -0.42830785933E+03  0.42835736504E+03  0.00000000000E+00 0. -1.
        -15    1    1    2    0    0  0.45759049196E+00 -0.61220829539E+01  0.36574986968E+01  0.73637160775E+01  0.17770000000E+01 0. -1.
         15    1    1    2    0    0 -0.80350419576E+01  0.12766124907E+01 -0.69518419032E+02  0.70015426532E+02  0.17770000000E+01 0. -1.
</event>
<event>
 6    1  0.1782050E-003  0.5621618E+03  0.7546771E-02  0.9270544E-01
        -11   -1    0    0    0    0  0.00000000000E+00  0.00000000000E+00  0.50000000000E+03  0.50000000000E+03  0.00000000000E+00 0.  1.
         11   -1    0    0    0    0 -0.00000000000E+00 -0.00000000000E+00 -0.50000000000E+03  0.50000000000E+03  0.00000000000E+00 0.  1.
        -11    1    1    2    0    0 -0.35861001258E+00 -0.77013422081E+01  0.43777028287E+03  0.43783816627E+03  0.00000000000E+00 0.  1.
         11    1    1    2    0    0 -0.41343035035E+01  0.16309191162E+02 -0.32970438675E+03  0.33013340458E+03  0.00000000000E+00 0.  1.
        -15    1    1    2    0    0  0.62612241497E+01  0.12365208966E+02 -0.16794899676E+03  0.16852929883E+03  0.17770000000E+01 0.  1.
         15    1    1    2    0    0 -0.17683106337E+01 -0.20973057920E+02  0.59883100636E+02  0.63499130323E+02  0.17770000000E+01 0. -1.
</event>
<event>
 6    1  0.1782050E-003  0.5017428E+03  0.7546771E-02  0.9395918E-01
        -11   -1    0    0    0    0  0.00000000000E+00  0.00000000000E+00  0.50000000000E+03  0.50000000000E+03  0.00000000000E+00 0.  1.
         11   -1    0    0    0    0 -0.00000000000E+00 -0.00000000000E+00 -0.50000000000E+03  0.50000000000E+03  0.00000000000E+00 0.  1.
        -11    1    1    2    0    0  0.98854244913E+01  0.83211508574E+01  0.49808961534E+03  0.49825719070E+03  0.00000000000E+00 0.  1.
         11    1    1    2    0    0  0.14062792703E+01  0.16512737110E+00 -0.98681988449E+02  0.98692146256E+02  0.00000000000E+00 0.  1.
        -15    1    1    2    0    0 -0.54548134710E+01 -0.52211311205E+01 -0.66081109853E+01  0.10190194305E+02  0.17770000000E+01 0. -1.
         15    1    1    2    0    0 -0.58368902905E+01 -0.32651471079E+01 -0.39279951591E+03  0.39286046874E+03  0.17770000000E+01 0.  1.
</event>
<event>
 6    1  0.1782050E-003  0.5112749E+03  0.7546771E-02  0.9374929E-01
        -11   -1    0    0    0    0  0.00000000000E+00  0.00000000000E+00  0.50000000000E+03  0.50000000000E+03  0.00000000000E+00 0. -1.
         11   -1    0    0    0    0 -0.00000000000E+00 -0.00000000000E+00 -0.50000000000E+03  0.50000000000E+03  0.00000000000E+00 0. -1.
        -11    1    1    2    0    0 -0.84954299824E+01 -0.34973857940E+01  0.46486624603E+03  0.46495702031E+03  0.00000000000E+00 0. -1.
         11    1    1    2    0    0 -0.15758141233E+02  0.13619816334E+02 -0.48828102423E+03  0.48872505260E+03  0.00000000000E+00 0. -1.
        -15    1    1    2    0    0  0.28640648102E+02 -0.89872902913E+00  0.12651581867E+02  0.31373789862E+02  0.17770000000E+01 0. -1.
         15    1    1    2    0    0 -0.43870768864E+01 -0.92237015108E+01  0.10763196341E+02  0.14944137233E+02  0.17770000000E+01 0.  1.
</event>
<event>
 6    1  0.1782050E-003  0.5128034E+03  0.7546771E-02  0.9371608E-01
        -11   -1    0    0    0    0  0.00000000000E+00  0.00000000000E+00  0.50000000000E+03  0.50000000000E+03  0.00000000000E+00 0. -1.
         11   -1    0    0    0    0 -0.00000000000E+00 -0.00000000000E+00 -0.50000000000E+03  0.50000000000E+03  0.00000000000E+00 0.  1.
        -11    1    1    2    0    0  0.67181335749E+00 -0.94808952820E+01  0.48710387430E+03  0.48719659592E+03  0.00000000000E+00 0. -1.
         11    1    1    2    0    0  0.11442347282E+02 -0.47255335139E+01 -0.47516308728E+03  0.47532432874E+03  0.00000000000E+00 0.  1.
        -15    1    1    2    0    0 -0.93628138045E+01  0.38609632962E+01 -0.20974590046E+02  0.23359376629E+02  0.17770000000E+01 0. -1.
         15    1    1    2    0    0 -0.27513468354E+01  0.10345465500E+02  0.90338030209E+01  0.14119698716E+02  0.17770000000E+01 0.  1.
</event>
<event>
 6    1  0.1782050E-003  0.4862827E+03  0.7546771E-02  0.9431037E-01
        -11   -1    0    0    0    0  0.00000000000E+00  0.00000000000E+00  0.50000000000E+03  0.50000000000E+03  0.00000000000E+00 0. -1.
         11   -1    0    0    0    0 -0.00000000000E+00 -0.00000000000E+00 -0.50000000000E+03  0.50000000000E+03  0.00000000000E+00 0. -1.
        -11    1    1    2    0    0  0.49840975068E+01  0.66662243232E+01  0.48096231102E+03  0.48103432767E+03  0.00000000000E+00 0. -1.
         11    1    1    2    0    0  0.39347629688E+01  0.12296626734E+02 -0.49164589468E+03  0.49181538726E+03  0.00000000000E+00 0. -1.
        -15    1    1    2    0    0 -0.47053297565E+01 -0.19516950880E+00 -0.85958670975E-01  0.50342166369E+01  0.17770000000E+01 0.  1.
         15    1    1    2    0    0 -0.42135307192E+01 -0.18767681548E+02  0.10769542328E+02  0.22116068429E+02  0.17770000000E+01 0. -1.
</event>
<event>
 6    1  0.1782050E-003  0.4869469E+03  0.7546771E-02  0.9429500E-01
        -11   -1    0    0    0    0  0.00000000000E+00  0.00000000000E+00  0.50000000000E+03  0.50000000000E+03  0.00000000000E+00 0. -1.
         11   -1    0    0    0    0 -0.00000000000E+00 -0.00000000000E+00 -0.50000000000E+03  0.50000000000E+03  0.00000000000E+00 0. -1.
        -11    1    1    2    0    0 -0.12040383553E+02 -0.11739746143E+01  0.49359582176E+03  0.49374404737E+03  0.00000000000E+00 0. -1.
         11    1    1    2    0    0  0.20241441140E+00  0.53389603334E+00 -0.37399988840E+02  0.37404347097E+02  0.00000000000E+00 0. -1.
        -15    1    1    2    0    0 -0.22490466040E+02 -0.33228523590E+02 -0.34889254414E+03  0.35119669835E+03  0.17770000000E+01 0. -1.
         15    1    1    2    0    0  0.34328435182E+02  0.33868602171E+02 -0.10730328878E+03  0.11765490719E+03  0.17770000000E+01 0.  1.
</event>
<event>
 6    1  0.1782050E-003  0.5141369E+03  0.7546771E-02  0.9368721E-01
        -11   -1    0    0    0    0  0.00000000000E+00  0.00000000000E+00  0.50000000000E+03  0.50000000000E+03  0.00000000000E+00 0.  1.
         11   -1    0    0    0    0 -0.00000000000E+00 -0.00000000000E+00 -0.50000000000E+03  0.50000000000E+03  0.00000000000E+00 0.  1.
        -11    1    1    2    0    0  0.10561091371E+02  0.39936172192E+01  0.48573192261E+03  0.48586313533E+03  0.00000000000E+00 0.  1.
         11    1    1    2    0    0 -0.15500872266E+02 -0.12274346363E+02 -0.47289815361E+03  0.47331131437E+03  0.00000000000E+00 0.  1.
        -15    1    1    2    0    0 -0.14695042103E+02  0.36312660704E+01  0.24681122368E+01  0.15439548656E+02  0.17770000000E+01 0. -1.
         15    1    1    2    0    0  0.19634822998E+02  0.46494630731E+01 -0.15301881237E+02  0.25386001643E+02  0.17770000000E+01 0.  1.
</event>
<event>
 6    1  0.1782050E-003  0.5004011E+03  0.7546771E-02  0.9398913E-01
        -11   -1    0    0    0    0  0.00000000000E+00  0.00000000000E+00  0.50000000000E+03  0.50000000000E+03  0.00000000000E+00 0. -1.
         11   -1    0    0    0    0 -0.00000000000E+00 -0.00000000000E+00 -0.50000000000E+03  0.50000000000E+03  0.00000000000E+00 0.  1.
        -11    1    1    2    0    0 -0.26028211234E+00  0.28406912989E+01  0.13803955160E+03  0.13806902288E+03  0.00000000000E+00 0. -1.
         11    1    1    2    0    0  0.77368231128E+01 -0.14183906351E+02 -0.49933755374E+03  0.49959887330E+03  0.00000000000E+00 0.  1.
        -15    1    1    2    0    0 -0.55966250205E+01  0.14920646723E+02  0.12907493414E+03  0.13006707601E+03  0.17770000000E+01 0.  1.
         15    1    1    2    0    0 -0.18799159799E+01 -0.35774316707E+01  0.23222306800E+03  0.23226502781E+03  0.17770000000E+01 0. -1.
</event>
<event>
 6    1  0.1782050E-003  0.5056088E+03  0.7546771E-02  0.9387346E-01
        -11   -1    0    0    0    0  0.00000000000E+00  0.00000000000E+00  0.50000000000E+03  0.50000000000E+03  0.00000000000E+00 0.  1.
         11   -1    0    0    0    0 -0.00000000000E+00 -0.00000000000E+00 -0.50000000000E+03  0.50000000000E+03  0.00000000000E+00 0. -1.
        -11    1    1    2    0    0 -0.44714277965E+01 -0.55892466818E+01  0.45639311409E+03  0.45644923916E+03  0.00000000000E+00 0.  1.
         11    1    1    2    0    0 -0.15373554676E+02  0.93029249031E+01 -0.49406458680E+03  0.49439124843E+03  0.00000000000E+00 0. -1.
        -15    1    1    2    0    0  0.15942821417E+02  0.82592960652E+01  0.27423711107E+02  0.32826927759E+02  0.17770000000E+01 0.  1.
         15    1    1    2    0    0  0.39021610554E+01 -0.11972974286E+02  0.10247761611E+02  0.16332584646E+02  0.17770000000E+01 0. -1.
</event>
<event>
 6    1  0.1782050E-003  0.5044461E+03  0.7546771E-02  0.9389916E-01
        -11   -1    0    0    0    0  0.00000000000E+00  0.00000000000E+00  0.50000000000E+03  0.50000000000E+03  0.00000000000E+00 0. -1.
         11   -1    0    0    0    0 -0.00000000000E+00 -0.00000000000E+00 -0.50000000000E+03  0.50000000000E+03  0.00000000000E+00 0.  1.
        -11    1    1    2    0    0  0.89288303038E+01 -0.15232017808E+02  0.16066614593E+03  0.16163337782E+03  0.00000000000E+00 0. -1.
         11    1    1    2    0    0 -0.24578662984E+00  0.26491727144E+02 -0.49484525185E+03  0.49555392774E+03  0.00000000000E+00 0.  1.
        -15    1    1    2    0    0  0.43625995277E+01  0.88983532065E+01  0.30418007626E+03  0.30434666005E+03  0.17770000000E+01 0. -1.
         15    1    1    2    0    0 -0.13045643202E+02 -0.20158062542E+02  0.29999029666E+02  0.38466034393E+02  0.17770000000E+01 0.  1.
</event>
<event>
 6    1  0.1782050E-003  0.5026790E+03  0.7546771E-02  0.9393835E-01
        -11   -1    0    0    0    0  0.00000000000E+00  0.00000000000E+00  0.50000000000E+03  0.50000000000E+03  0.00000000000E+00 0. -1.
         11   -1    0    0    0    0 -0.00000000000E+00 -0.00000000000E+00 -0.50000000000E+03  0.50000000000E+03  0.00000000000E+00 0.  1.
        -11    1    1    2    0    0 -0.79810920472E+01  0.68222935427E+00  0.40851674261E+03  0.40859526705E+03  0.00000000000E+00 0. -1.
         11    1    1    2    0    0 -0.61604085981E+01  0.68998368947E+01 -0.49723495382E+03  0.49732098054E+03  0.00000000000E+00 0.  1.
        -15    1    1    2    0    0  0.32829533946E+01  0.56564976648E+01  0.45256854939E+01  0.81494359935E+01  0.17770000000E+01 0. -1.
         15    1    1    2    0    0  0.10858547251E+02 -0.13238563914E+02  0.84192525714E+02  0.85934316417E+02  0.17770000000E+01 0.  1.
</event>
<event>
 6    1  0.1782050E-003  0.5019613E+03  0.7546771E-02  0.9395432E-01
        -11   -1    0    0    0    0  0.00000000000E+00  0.00000000000E+00  0.50000000000E+03  0.50000000000E+03  0.00000000000E+00 0.  1.
         11   -1    0    0    0    0 -0.00000000000E+00 -0.00000000000E+00 -0.50000000000E+03  0.50000000000E+03  0.00000000000E+00 0. -1.
        -11    1    1    2    0    0  0.51940091582E+01  0.72205611376E+01  0.49795921821E+03  0.49803865034E+03  0.00000000000E+00 0.  1.
         11    1    1    2    0    0 -0.75037691492E+01 -0.79677523074E+00 -0.46353204772E+03  0.46359346487E+03  0.00000000000E+00 0. -1.
        -15    1    1    2    0    0 -0.25947133608E+01 -0.32726504733E+01 -0.13519009232E+01  0.47358361090E+01  0.17770000000E+01 0. -1.
         15    1    1    2    0    0  0.49044733517E+01 -0.31511354335E+01 -0.33075269560E+02  0.33632048687E+02  0.17770000000E+01 0.  1.
</event>
<event>
 6    1  0.1782050E-003  0.4953669E+03  0.7546771E-02  0.9410237E-01
        -11   -1    0    0    0    0  0.00000000000E+00  0.00000000000E+00  0.50000000000E+03  0.50000000000E+03  0.00000000000E+00 0. -1.
         11   -1    0    0    0    0 -0.00000000000E+00 -0.00000000000E+00 -0.50000000000E+03  0.50000000000E+03  0.00000000000E+00 0.  1.
        -11    1    1    2    0    0  0.27145670774E+00  0.81425083617E+01  0.49887469961E+03  0.49894121903E+03  0.00000000000E+00 0. -1.
         11    1    1    2    0    0  0.52539929198E+00 -0.19233463094E-01 -0.11269345347E+02  0.11281602674E+02  0.00000000000E+00 0.  1.
        -15    1    1    2    0    0  0.11448497524E+02  0.57662426285E+00 -0.34087800545E+02  0.36007450147E+02  0.17770000000E+01 0. -1.
         15    1    1    2    0    0 -0.12245353523E+02 -0.86998991614E+01 -0.45351755372E+03  0.45376972815E+03  0.17770000000E+01 0.  1.
</event>
<event>
 6    1  0.1782050E-003  0.5023707E+03  0.7546771E-02  0.9394521E-01
        -11   -1    0    0    0    0  0.00000000000E+00  0.00000000000E+00  0.50000000000E+03  0.50000000000E+03  0.00000000000E+00 0.  1.
         11   -1    0    0    0    0 -0.00000000000E+00 -0.00000000000E+00 -0.50000000000E+03  0.50000000000E+03  0.00000000000E+00 0. -1.
        -11    1    1    2    0    0 -0.12653655428E+02  0.86470166458E+00  0.49746759965E+03  0.49762925498E+03  0.00000000000E+00 0.  1.
         11    1    1    2    0    0 -0.31480233076E+00  0.60725085319E+01 -0.40165850904E+03  0.40170453364E+03  0.00000000000E+00 0. -1.
        -15    1    1    2    0    0  0.11772037351E+02  0.70071403259E+01 -0.69024377904E+02  0.70393205304E+02  0.17770000000E+01 0. -1.
         15    1    1    2    0    0  0.11964204078E+01 -0.13944350522E+02 -0.26784712710E+02  0.30273006082E+02  0.17770000000E+01 0.  1.
</event>
<event>
 6    1  0.1782050E-003  0.5002959E+03  0.7546771E-02  0.9399148E-01
        -11   -1    0    0    0    0  0.00000000000E+00  0.00000000000E+00  0.50000000000E+03  0.50000000000E+03  0.00000000000E+00 0.  1.
         11   -1    0    0    0    0 -0.00000000000E+00 -0.00000000000E+00 -0.50000000000E+03  0.50000000000E+03  0.00000000000E+00 0.  1.
        -11    1    1    2    0    0  0.92049093161E+01 -0.82103816627E+01  0.49955182509E+03  0.49970407910E+03  0.00000000000E+00 0.  1.
         11    1    1    2    0    0  0.41019877513E+01 -0.88355467608E+00 -0.24623703495E+03  0.24627278444E+03  0.00000000000E+00 0.  1.
        -15    1    1    2    0    0 -0.11081241432E+02  0.94780005455E+01 -0.16241946204E+03  0.16308238956E+03  0.17770000000E+01 0.  1.
         15    1    1    2    0    0 -0.22256556358E+01 -0.38406420673E+00 -0.90895328098E+02  0.90940746903E+02  0.17770000000E+01 0. -1.
</event>
<event>
 6    1  0.1782050E-003  0.4861877E+03  0.7546771E-02  0.9431257E-01
        -11   -1    0    0    0    0  0.00000000000E+00  0.00000000000E+00  0.50000000000E+03  0.50000000000E+03  0.00000000000E+00 0. -1.
         11   -1    0    0    0    0 -0.00000000000E+00 -0.00000000000E+00 -0.50000000000E+03  0.50000000000E+03  0.00000000000E+00 0.  1.
        -11    1    1    2    0    0  0.80440276956E+01 -0.19137289664E+01  0.48865332807E+03  0.48872327935E+03  0.00000000000E+00 0. -1.
         11    1    1    2    0    0 -0.90330522409E+01 -0.88471594404E+01 -0.48356018400E+03  0.48372545913E+03  0.00000000000E+00 0.  1.
        -15    1    1    2    0    0 -0.55444560205E+01  0.91653738500E+01 -0.13053789633E+02  0.16979523644E+02  0.17770000000E+01 0.  1.
         15    1    1    2    0    0  0.65334805658E+01  0.15955145568E+01  0.79606455573E+01  0.10571737875E+02  0.17770000000E+01 0. -1.
</event>
<event>
 6    1  0.1782050E-003  0.5198018E+03  0.7546771E-02  0.9356560E-01
        -11   -1    0    0    0    0  0.00000000000E+00  0.00000000000E+00  0.50000000000E+03  0.50000000000E+03  0.00000000000E+00 0.  1.
         11   -1    0    0    0    0 -0.00000000000E+00 -0.00000000000E+00 -0.50000000000E+03  0.50000000000E+03  0.00000000000E+00 0.  1.
        -11    1    1    2    0    0 -0.80924400260E+01 -0.65332549908E+01  0.40902473641E+03  0.40915694544E+03  0.00000000000E+00 0.  1.
         11    1    1    2    0    0  0.17769001213E+02 -0.89195819170E+01 -0.47978640949E+03  0.48019818313E+03  0.00000000000E+00 0.  1.
        -15    1    1    2    0    0 -0.10393898357E+02 -0.13427935987E+02  0.78781296664E+02  0.80610129766E+02  0.17770000000E+01 0. -1.
         15    1    1    2    0    0  0.71733717001E+00  0.28880772894E+02 -0.80196235774E+01  0.30034741666E+02  0.17770000000E+01 0.  1.
</event>
<event>
 6    1  0.1782050E-003  0.5081249E+03  0.7546771E-02  0.9381811E-01
        -11   -1    0    0    0    0  0.00000000000E+00  0.00000000000E+00  0.50000000000E+03  0.50000000000E+03  0.00000000000E+00 0.  1.
         11   -1    0    0    0    0 -0.00000000000E+00 -0.00000000000E+00 -0.50000000000E+03  0.50000000000E+03  0.00000000000E+00 0. -1.
        -11    1    1    2    0    0  0.39257763128E+00 -0.69076040895E+01  0.49182642131E+03  0.49187508355E+03  0.00000000000E+00 0.  1.
         11    1    1    2    0    0  0.35947673411E+00  0.66520600727E+01 -0.48560888486E+03  0.48565457702E+03  0.00000000000E+00 0. -1.
        -15    1    1    2    0    0  0.38298106854E+01 -0.20998789005E+01 -0.12965637816E+02  0.13796464557E+02  0.17770000000E+01 0.  1.
         15    1    1    2    0    0 -0.45818650508E+01  0.23554229173E+01  0.67481013605E+01  0.86738748801E+01  0.17770000000E+01 0. -1.
</event>
<event>
 6    1  0.1782050E-003  0.5002523E+03  0.7546771E-02  0.9399245E-01
        -11   -1    0    0    0    0  0.00000000000E+00  0.00000000000E+00  0.50000000000E+03  0.50000000000E+03  0.00000000000E+00 0.  1.
         11   -1    0    0    0    0 -0.00000000000E+00 -0.00000000000E+00 -0.50000000000E+03  0.50000000000E+03  0.00000000000E+00 0.  1.
        -11    1    1    2    0    0 -0.40968083422E+00  0.18003896741E+01  0.55473357006E+02  0.55504077137E+02  0.00000000000E+00 0.  1.
         11    1    1    2    0    0  0.96196859717E+01 -0.96309995091E+01 -0.49956231605E+03  0.49974773850E+03  0.00000000000E+00 0.  1.
        -15    1    1    2    0    0  0.64575087357E+01  0.28019345643E+00  0.13142003712E+03  0.13159088803E+03  0.17770000000E+01 0. -1.
         15    1    1    2    0    0 -0.15667513873E+02  0.75504163786E+01  0.31266892193E+03  0.31315729634E+03  0.17770000000E+01 0.  1.
</event>
<event>
 6    1  0.1782050E-003  0.5111669E+03  0.7546771E-02  0.9375164E-01
        -11   -1    0    0    0    0  0.00000000000E+00  0.00000000000E+00  0.50000000000E+03  0.50000000000E+03  0.00000000000E+00 0. -1.
         11   -1    0    0    0    0 -0.00000000000E+00 -0.00000000000E+00 -0.50000000000E+03  0.50000000000E+03  0.00000000000E+00 0.  1.
        -11    1    1    2    0    0 -0.35648741694E+01  0.58672769307E+01  0.48878486241E+03  0.48883307477E+03  0.00000000000E+00 0. -1.
         11    1    1    2    0    0  0.98094968102E+01  0.39373131722E+01 -0.47442610090E+03  0.47454383768E+03  0.00000000000E+00 0.  1.
        -15    1    1    2    0    0  0.43961254942E+01 -0.88125442135E+01  0.73128609696E+01  0.12394455189E+02  0.17770000000E+01 0. -1.
         15    1    1    2    0    0 -0.10640748135E+02 -0.99204588938E+00 -0.21671622480E+02  0.24228632356E+02  0.17770000000E+01 0.  1.
</event>
<event>
 6    1  0.1782050E-003  0.5110998E+03  0.7546771E-02  0.9375310E-01
        -11   -1    0    0    0    0  0.00000000000E+00  0.00000000000E+00  0.50000000000E+03  0.50000000000E+03  0.00000000000E+00 0. -1.
         11   -1    0    0    0    0 -0.00000000000E+00 -0.00000000000E+00 -0.50000000000E+03  0.50000000000E+03  0.00000000000E+00 0.  1.
        -11    1    1    2    0    0 -0.43037275908E+01 -0.11649465175E+02  0.39953125397E+03  0.39972422369E+03  0.00000000000E+00 0. -1.
         11    1    1    2    0    0  0.15731171612E+01 -0.21972301693E+02 -0.48840364529E+03  0.48890017127E+03  0.00000000000E+00 0.  1.
        -15    1    1    2    0    0  0.10565249944E+01  0.34498221363E+02  0.15363795200E+02  0.37821256645E+02  0.17770000000E+01 0.  1.
         15    1    1    2    0    0  0.16740854353E+01 -0.87645449424E+00  0.73508596121E+02  0.73554348391E+02  0.17770000000E+01 0. -1.
</event>
<event>
 6    1  0.1782050E-003  0.5017013E+03  0.7546771E-02  0.9396011E-01
        -11   -1    0    0    0    0  0.00000000000E+00  0.00000000000E+00  0.50000000000E+03  0.50000000000E+03  0.00000000000E+00 0.  1.
         11   -1    0    0    0    0 -0.00000000000E+00 -0.00000000000E+00 -0.50000000000E+03  0.50000000000E+03  0.00000000000E+00 0.  1.
        -11    1    1    2    0    0 -0.71307967713E+01 -0.15021966535E+02  0.15798327601E+03  0.15885598270E+03  0.00000000000E+00 0.  1.
         11    1    1    2    0    0 -0.43301677655E+01 -0.55310916024E+01 -0.49824915500E+03  0.49829866926E+03  0.00000000000E+00 0.  1.
        -15    1    1    2    0    0  0.81175379269E+01  0.19196609855E+02  0.33704275775E+03  0.33769125326E+03  0.17770000000E+01 0.  1.
         15    1    1    2    0    0  0.33434266099E+01  0.13564482821E+01  0.32231212441E+01  0.51540947791E+01  0.17770000000E+01 0. -1.
</event>
<event>
 6    1  0.1782050E-003  0.5014041E+03  0.7546771E-02  0.9396673E-01
        -11   -1    0    0    0    0  0.00000000000E+00  0.00000000000E+00  0.50000000000E+03  0.50000000000E+03  0.00000000000E+00 0. -1.
         11   -1    0    0    0    0 -0.00000000000E+00 -0.00000000000E+00 -0.50000000000E+03  0.50000000000E+03  0.00000000000E+00 0. -1.
        -11    1    1    2    0    0 -0.28294660978E+01  0.15252795630E+01  0.19882531341E+03  0.19885129521E+03  0.00000000000E+00 0. -1.
         11    1    1    2    0    0 -0.34291649837E+02 -0.10029326465E+01 -0.49741422548E+03  0.49859586324E+03  0.00000000000E+00 0. -1.
        -15    1    1    2    0    0 -0.24408861034E+01  0.40725072864E+01  0.98845175542E+01  0.11108764866E+02  0.17770000000E+01 0.  1.
         15    1    1    2    0    0  0.39562002038E+02 -0.45948542029E+01  0.28870439452E+03  0.29144407669E+03  0.17770000000E+01 0. -1.
</event>
<event>
 6    1  0.1782050E-003  0.5084594E+03  0.7546771E-02  0.9381078E-01
        -11   -1    0    0    0    0  0.00000000000E+00  0.00000000000E+00  0.50000000000E+03  0.50000000000E+03  0.00000000000E+00 0.  1.
         11   -1    0    0    0    0 -0.00000000000E+00 -0.00000000000E+00 -0.50000000000E+03  0.50000000000E+03  0.00000000000E+00 0. -1.
        -11    1    1    2    0    0  0.77617255277E+01 -0.11972859337E+02  0.49133344966E+03  0.49154059089E+03  0.00000000000E+00 0.  1.
         11    1    1    2    0    0 -0.51462294415E+01 -0.58619275641E+01 -0.47976707619E+03  0.47983048389E+03  0.00000000000E+00 0. -1.
        -15    1    1    2    0    0 -0.70855196516E+01  0.13364211674E+02 -0.14863121119E+02  0.21280903195E+02  0.17770000000E+01 0.  1.
         15    1    1    2    0    0  0.44700235653E+01  0.44705752276E+01  0.32967476550E+01  0.73480220223E+01  0.17770000000E+01 0. -1.
</event>
<event>
 6    1  0.1782050E-003  0.4899673E+03  0.7546771E-02  0.9422543E-01
        -11   -1    0    0    0    0  0.00000000000E+00  0.00000000000E+00  0.50000000000E+03  0.50000000000E+03  0.00000000000E+00 0.  1.
         11   -1    0    0    0    0 -0.00000000000E+00 -0.00000000000E+00 -0.50000000000E+03  0.50000000000E+03  0.00000000000E+00 0.  1.
        -11    1    1    2    0    0  0.20020926670E+01  0.74535295728E+01  0.49131214263E+03  0.49137275562E+03  0.00000000000E+00 0.  1.
         11    1    1    2    0    0 -0.37343874514E+01  0.58151458363E+01 -0.48860808275E+03  0.48865695544E+03  0.00000000000E+00 0.  1.
        -15    1    1    2    0    0 -0.37402523904E+01  0.61744885627E+00  0.13556274590E+01  0.44007028804E+01  0.17770000000E+01 0. -1.
         15    1    1    2    0    0  0.54725471749E+01 -0.13886124265E+02 -0.40596873343E+01  0.15569586056E+02  0.17770000000E+01 0.  1.
</event>
<event>
 6    1  0.1782050E-003  0.4712539E+03  0.7546771E-02  0.9466533E-01
        -11   -1    0    0    0    0  0.00000000000E+00  0.00000000000E+00  0.50000000000E+03  0.50000000000E+03  0.00000000000E+00 0. -1.
         11   -1    0    0    0    0 -0.00000000000E+00 -0.00000000000E+00 -0.50000000000E+03  0.50000000000E+03  0.00000000000E+00 0.  1.
        -11    1    1    2    0    0 -0.88318330604E+01  0.24874034035E+01  0.47483945463E+03  0.47492809574E+03  0.00000000000E+00 0. -1.
         11    1    1    2    0    0  0.14616395353E+02  0.18803236119E+02 -0.46726185067E+03  0.46786839794E+03  0.00000000000E+00 0.  1.
        -15    1    1    2    0    0  0.51369531242E+01 -0.29411003487E+02 -0.22125245713E+02  0.37203220833E+02  0.17770000000E+01 0.  1.
         15    1    1    2    0    0 -0.10921515417E+02  0.81203639649E+01  0.14547641748E+02  0.20000285482E+02  0.17770000000E+01 0. -1.
</event>
<event>
 6    1  0.1782050E-003  0.4917468E+03  0.7546771E-02  0.9418469E-01
        -11   -1    0    0    0    0  0.00000000000E+00  0.00000000000E+00  0.50000000000E+03  0.50000000000E+03  0.00000000000E+00 0.  1.
         11   -1    0    0    0    0 -0.00000000000E+00 -0.00000000000E+00 -0.50000000000E+03  0.50000000000E+03  0.00000000000E+00 0.  1.
        -11    1    1    2    0    0  0.39577264643E+01 -0.95838462733E+01  0.49263445208E+03  0.49274356118E+03  0.00000000000E+00 0.  1.
         11    1    1    2    0    0 -0.49945491008E+01 -0.44812101336E+01 -0.49080706843E+03  0.49085293642E+03  0.00000000000E+00 0.  1.
        -15    1    1    2    0    0  0.38203834846E+01  0.11063473895E+02 -0.13040566549E+01  0.11910250935E+02  0.17770000000E+01 0. -1.
         15    1    1    2    0    0 -0.27835608481E+01  0.30015825124E+01 -0.52332699693E+00  0.44932514641E+01  0.17770000000E+01 0.  1.
</event>
<event>
 6    1  0.1782050E-003  0.4832138E+03  0.7546771E-02  0.9438174E-01
        -11   -1    0    0    0    0  0.00000000000E+00  0.00000000000E+00  0.50000000000E+03  0.50000000000E+03  0.00000000000E+00 0.  1.
         11   -1    0    0    0    0 -0.00000000000E+00 -0.00000000000E+00 -0.50000000000E+03  0.50000000000E+03  0.00000000000E+00 0. -1.
        -11    1    1    2    0    0  0.13698894095E+02 -0.66075352843E+01  0.48632600761E+03  0.48656377270E+03  0.00000000000E+00 0.  1.
         11    1    1    2    0    0 -0.53812148071E+01 -0.50259753329E+01 -0.47993422742E+03  0.47999070882E+03  0.00000000000E+00 0. -1.
        -15    1    1    2    0    0 -0.72215356856E+01  0.95498224854E+01 -0.17876071831E+02  0.21588454328E+02  0.17770000000E+01 0.  1.
         15    1    1    2    0    0 -0.10961436021E+01  0.20836881318E+01  0.11484291638E+02  0.11857064158E+02  0.17770000000E+01 0. -1.
</event>
<event>
 6    1  0.1782050E-003  0.5002411E+03  0.7546771E-02  0.9399270E-01
        -11   -1    0    0    0    0  0.00000000000E+00  0.00000000000E+00  0.50000000000E+03  0.50000000000E+03  0.00000000000E+00 0.  1.
         11   -1    0    0    0    0 -0.00000000000E+00 -0.00000000000E+00 -0.50000000000E+03  0.50000000000E+03  0.00000000000E+00 0.  1.
        -11    1    1    2    0    0  0.57934517590E+01  0.56856015067E+01  0.49969292899E+03  0.49975885528E+03  0.00000000000E+00 0.  1.
         11    1    1    2    0    0 -0.74605052522E+01 -0.28932938913E+00 -0.34729963596E+03  0.34737987850E+03  0.00000000000E+00 0.  1.
        -15    1    1    2    0    0 -0.34667343914E+00 -0.23968075498E+01 -0.13394859063E+03  0.13398226573E+03  0.17770000000E+01 0. -1.
         15    1    1    2    0    0  0.20137269323E+01 -0.29994645678E+01 -0.18444702399E+02  0.18879000488E+02  0.17770000000E+01 0.  1.
</event>
<event>
 6    1  0.1782050E-003  0.5503930E+03  0.7546771E-02  0.9293614E-01
        -11   -1    0    0    0    0  0.00000000000E+00  0.00000000000E+00  0.50000000000E+03  0.50000000000E+03  0.00000000000E+00 0.  1.
         11   -1    0    0    0    0 -0.00000000000E+00 -0.00000000000E+00 -0.50000000000E+03  0.50000000000E+03  0.00000000000E+00 0. -1.
        -11    1    1    2    0    0 -0.10051267185E+01  0.56071010203E+01  0.40177455918E+03  0.40181494032E+03  0.00000000000E+00 0.  1.
         11    1    1    2    0    0 -0.77288508023E+01  0.68773415637E+01 -0.44948792580E+03  0.44960697103E+03  0.00000000000E+00 0. -1.
        -15    1    1    2    0    0 -0.22556128393E+02 -0.70896389086E+02  0.25441890392E+02  0.78648105058E+02  0.17770000000E+01 0.  1.
         15    1    1    2    0    0  0.31290105913E+02  0.58411946502E+02  0.22271476231E+02  0.69929983589E+02  0.17770000000E+01 0. -1.
</event>
<event>
 6    1  0.1782050E-003  0.3468068E+03  0.7546771E-02  0.9828106E-01
        -11   -1    0    0    0    0  0.00000000000E+00  0.00000000000E+00  0.50000000000E+03  0.50000000000E+03  0.00000000000E+00 0. -1.
         11   -1    0    0    0    0 -0.00000000000E+00 -0.00000000000E+00 -0.50000000000E+03  0.50000000000E+03  0.00000000000E+00 0. -1.
        -11    1    1    2    0    0 -0.26189096590E+01  0.78761856850E+00  0.92795401072E+02  0.92835690825E+02  0.00000000000E+00 0. -1.
         11    1    1    2    0    0  0.25180800608E+02  0.22589987604E+02 -0.45125362799E+03  0.45251985264E+03  0.00000000000E+00 0. -1.
        -15    1    1    2    0    0  0.27728033708E+00  0.11505348522E+03  0.25671838999E+03  0.28132698206E+03  0.17770000000E+01 0. -1.
         15    1    1    2    0    0 -0.22839171286E+02 -0.13843109140E+03  0.10173983693E+03  0.17331747447E+03  0.17770000000E+01 0.  1.
</event>
<event>
 6    1  0.1782050E-003  0.4397591E+03  0.7546771E-02  0.9545711E-01
        -11   -1    0    0    0    0  0.00000000000E+00  0.00000000000E+00  0.50000000000E+03  0.50000000000E+03  0.00000000000E+00 0.  1.
         11   -1    0    0    0    0 -0.00000000000E+00 -0.00000000000E+00 -0.50000000000E+03  0.50000000000E+03  0.00000000000E+00 0.  1.
        -11    1    1    2    0    0  0.32873659045E+02  0.64207391551E+02  0.42170628574E+03  0.42783110922E+03  0.00000000000E+00 0.  1.
         11    1    1    2    0    0  0.83561984750E+01  0.41588984138E+00 -0.20126489408E+02  0.21796205936E+02  0.00000000000E+00 0.  1.
        -15    1    1    2    0    0  0.83848856305E+01 -0.78840137181E+02  0.51369871854E+02  0.94488597202E+02  0.17770000000E+01 0. -1.
         15    1    1    2    0    0 -0.49614743151E+02  0.14216855788E+02 -0.45294966818E+03  0.45588408764E+03  0.17770000000E+01 0.  1.
</event>
<event>
 6    1  0.1782050E-003  0.5028365E+03  0.7546771E-02  0.9393485E-01
        -11   -1    0    0    0    0  0.00000000000E+00  0.00000000000E+00  0.50000000000E+03  0.50000000000E+03  0.00000000000E+00 0.  1.
         11   -1    0    0    0    0 -0.00000000000E+00 -0.00000000000E+00 -0.50000000000E+03  0.50000000000E+03  0.00000000000E+00 0.  1.
        -11    1    1    2    0    0  0.43896913813E+01 -0.16458905393E+02  0.49687155232E+03  0.49716345850E+03  0.00000000000E+00 0.  1.
         11    1    1    2    0    0  0.12291512513E+01  0.16136753161E+02 -0.45189800684E+03  0.45218769798E+03  0.00000000000E+00 0.  1.
        -15    1    1    2    0    0  0.50060970979E+01 -0.77928919185E+01 -0.14164976376E+02  0.17017475058E+02  0.17770000000E+01 0.  1.
         15    1    1    2    0    0 -0.10624939731E+02  0.81150441507E+01 -0.30808569100E+02  0.33631368465E+02  0.17770000000E+01 0. -1.
</event>
<event>
 6    1  0.1782050E-003  0.5017667E+03  0.7546771E-02  0.9395865E-01
        -11   -1    0    0    0    0  0.00000000000E+00  0.00000000000E+00  0.50000000000E+03  0.50000000000E+03  0.00000000000E+00 0.  1.
         11   -1    0    0    0    0 -0.00000000000E+00 -0.00000000000E+00 -0.50000000000E+03  0.50000000000E+03  0.00000000000E+00 0. -1.
        -11    1    1    2    0    0 -0.15228942046E+01  0.10589856557E+01  0.11455239544E+03  0.11456741228E+03  0.00000000000E+00 0.  1.
         11    1    1    2    0    0  0.63295220938E+01 -0.26363180138E+01 -0.49818608921E+03  0.49823327118E+03  0.00000000000E+00 0. -1.
        -15    1    1    2    0    0 -0.92504309024E+01  0.11517747245E+02  0.36661918842E+03  0.36692099425E+03  0.17770000000E+01 0. -1.
         15    1    1    2    0    0  0.44438030131E+01 -0.99404148865E+01  0.17014505357E+02  0.20278322290E+02  0.17770000000E+01 0.  1.
</event>
<event>
 6    1  0.1782050E-003  0.5002388E+03  0.7546771E-02  0.9399276E-01
        -11   -1    0    0    0    0  0.00000000000E+00  0.00000000000E+00  0.50000000000E+03  0.50000000000E+03  0.00000000000E+00 0.  1.
         11   -1    0    0    0    0 -0.00000000000E+00 -0.00000000000E+00 -0.50000000000E+03  0.50000000000E+03  0.00000000000E+00 0. -1.
        -11    1    1    2    0    0 -0.21349235086E+01  0.30439468717E+01  0.17305742452E+03  0.17309735900E+03  0.00000000000E+00 0.  1.
         11    1    1    2    0    0 -0.10080606799E+02  0.32028878841E+01 -0.49964930128E+03  0.49976124439E+03  0.00000000000E+00 0. -1.
        -15    1    1    2    0    0  0.11563959176E+01  0.33312644790E+00  0.79431112576E+01  0.82279383930E+01  0.17770000000E+01 0.  1.
         15    1    1    2    0    0  0.11059134390E+02 -0.65799612037E+01  0.31864876551E+03  0.31891345822E+03  0.17770000000E+01 0.  1.
</event>
<event>
 6    1  0.1782050E-003  0.5181158E+03  0.7546771E-02  0.9360162E-01
        -11   -1    0    0    0    0  0.00000000000E+00  0.00000000000E+00  0.50000000000E+03  0.50000000000E+03  0.00000000000E+00 0.  1.
         11   -1    0    0    0    0 -0.00000000000E+00 -0.00000000000E+00 -0.50000000000E+03  0.50000000000E+03  0.00000000000E+00 0. -1.
        -11    1    1    2    0    0 -0.24607239679E+01 -0.14095486942E+02  0.48167169861E+03  0.48188418023E+03  0.00000000000E+00 0.  1.
         11    1    1    2    0    0  0.87487823556E+01  0.15388939901E+01 -0.47125771836E+03  0.47134143304E+03  0.00000000000E+00 0. -1.
        -15    1    1    2    0    0 -0.51007696961E+01  0.74768612698E+01 -0.27403079878E+02  0.28913799850E+02  0.17770000000E+01 0. -1.
         15    1    1    2    0    0 -0.11872886916E+01  0.50797316823E+01  0.16989099631E+02  0.17860586880E+02  0.17770000000E+01 0.  1.
</event>
<event>
 6    1  0.1782050E-003  0.4881198E+03  0.7546771E-02  0.9426792E-01
        -11   -1    0    0    0    0  0.00000000000E+00  0.00000000000E+00  0.50000000000E+03  0.50000000000E+03  0.00000000000E+00 0.  1.
         11   -1    0    0    0    0 -0.00000000000E+00 -0.00000000000E+00 -0.50000000000E+03  0.50000000000E+03  0.00000000000E+00 0.  1.
        -11    1    1    2    0    0 -0.78329934169E+01  0.24166477288E+00  0.48881709462E+03  0.48887990978E+03  0.00000000000E+00 0.  1.
         11    1    1    2    0    0  0.59428029667E+01  0.77078439846E+01 -0.48729784631E+03  0.48739503360E+03  0.00000000000E+00 0.  1.
        -15    1    1    2    0    0  0.79080418313E+01 -0.45812568024E+01  0.76955138174E+01  0.12079060452E+02  0.17770000000E+01 0.  1.
         15    1    1    2    0    0 -0.60178513811E+01 -0.33682519551E+01 -0.92147621358E+01  0.11645996166E+02  0.17770000000E+01 0. -1.
</event>
<event>
 6    1  0.1782050E-003  0.5044273E+03  0.7546771E-02  0.9389958E-01
        -11   -1    0    0    0    0  0.00000000000E+00  0.00000000000E+00  0.50000000000E+03  0.50000000000E+03  0.00000000000E+00 0.  1.
         11   -1    0    0    0    0 -0.00000000000E+00 -0.00000000000E+00 -0.50000000000E+03  0.50000000000E+03  0.00000000000E+00 0.  1.
        -11    1    1    2    0    0 -0.11324510980E+02  0.18202445994E+01  0.37650509690E+03  0.37667976562E+03  0.00000000000E+00 0.  1.
         11    1    1    2    0    0  0.22901357984E+02  0.38511255209E+01 -0.49502831232E+03  0.49557273267E+03  0.00000000000E+00 0.  1.
        -15    1    1    2    0    0 -0.20349271855E+02  0.20037429994E+01  0.20469191632E+02  0.28987124488E+02  0.17770000000E+01 0. -1.
         15    1    1    2    0    0  0.87724248506E+01 -0.76751131197E+01  0.98054023787E+02  0.98760377221E+02  0.17770000000E+01 0.  1.
</event>
<event>
 6    1  0.1782050E-003  0.5164431E+03  0.7546771E-02  0.9363751E-01
        -11   -1    0    0    0    0  0.00000000000E+00  0.00000000000E+00  0.50000000000E+03  0.50000000000E+03  0.00000000000E+00 0. -1.
         11   -1    0    0    0    0 -0.00000000000E+00 -0.00000000000E+00 -0.50000000000E+03  0.50000000000E+03  0.00000000000E+00 0. -1.
        -11    1    1    2    0    0  0.13534239922E+00 -0.69062775290E+01  0.48350760075E+03  0.48355694077E+03  0.00000000000E+00 0. -1.
         11    1    1    2    0    0  0.16217971673E+02  0.15448284216E+01 -0.46880999345E+03  0.46909297486E+03  0.00000000000E+00 0. -1.
        -15    1    1    2    0    0 -0.25246585075E+02  0.29715943267E+01  0.45994429224E+01  0.25894652633E+02  0.17770000000E+01 0.  1.
         15    1    1    2    0    0  0.88932710032E+01  0.23898547807E+01 -0.19297050218E+02  0.21455431740E+02  0.17770000000E+01 0. -1.
</event>
<event>
 6    1  0.1782050E-003  0.5117755E+03  0.7546771E-02  0.9373840E-01
        -11   -1    0    0    0    0  0.00000000000E+00  0.00000000000E+00  0.50000000000E+03  0.50000000000E+03  0.00000000000E+00 0.  1.
         11   -1    0    0    0    0 -0.00000000000E+00 -0.00000000000E+00 -0.50000000000E+03  0.50000000000E+03  0.00000000000E+00 0. -1.
        -11    1    1    2    0    0  0.96869361147E+01  0.71012966406E+00  0.39251301145E+03  0.39263316871E+03  0.00000000000E+00 0.  1.
         11    1    1    2    0    0 -0.87362145153E+01 -0.12564413997E+02 -0.48798461638E+03  0.48822450959E+03  0.00000000000E+00 0. -1.
        -15    1    1    2    0    0 -0.10597064724E+02  0.95835074293E+00  0.10237215282E+03  0.10293897036E+03  0.17770000000E+01 0.  1.
         15    1    1    2    0    0  0.96463431242E+01  0.10895933590E+02 -0.69005478860E+01  0.16203351338E+02  0.17770000000E+01 0. -1.
</event>
<event>
 6    1  0.1782050E-003  0.5064336E+03  0.7546771E-02  0.9385528E-01
        -11   -1    0    0    0    0  0.00000000000E+00  0.00000000000E+00  0.50000000000E+03  0.50000000000E+03  0.00000000000E+00 0.  1.
         11   -1    0    0    0    0 -0.00000000000E+00 -0.00000000000E+00 -0.50000000000E+03  0.50000000000E+03  0.00000000000E+00 0.  1.
        -11    1    1    2    0    0 -0.35513487386E+01  0.83746980301E+01  0.49348256402E+03  0.49356639740E+03  0.00000000000E+00 0.  1.
         11    1    1    2    0    0  0.10590861562E+02  0.15326150915E+02 -0.44045920943E+03  0.44085300546E+03  0.00000000000E+00 0.  1.
        -15    1    1    2    0    0 -0.29667245001E+01 -0.87285209864E+01  0.90892506578E+00  0.94325185738E+01  0.17770000000E+01 0. -1.
         15    1    1    2    0    0 -0.40727883236E+01 -0.14972327959E+02 -0.53932279659E+02  0.56148078573E+02  0.17770000000E+01 0.  1.
</event>
<event>
 6    1  0.1782050E-003  0.5528308E+03  0.7546771E-02  0.9288786E-01
        -11   -1    0    0    0    0  0.00000000000E+00  0.00000000000E+00  0.50000000000E+03  0.50000000000E+03  0.00000000000E+00 0.  1.
         11   -1    0    0    0    0 -0.00000000000E+00 -0.00000000000E+00 -0.50000000000E+03  0.50000000000E+03  0.00000000000E+00 0.  1.
        -11    1    1    2    0    0 -0.36550388375E+02  0.96747676127E+01  0.44556794905E+03  0.44716924004E+03  0.00000000000E+00 0.  1.
         11    1    1    2    0    0 -0.78447799761E+01  0.24325164472E+02 -0.30535349119E+03  0.30642129297E+03  0.00000000000E+00 0.  1.
        -15    1    1    2    0    0  0.14642980130E+02 -0.11414298113E+03 -0.97444959056E+02  0.15080356356E+03  0.17770000000E+01 0.  1.
         15    1    1    2    0    0  0.29752188221E+02  0.80143049048E+02 -0.42769498798E+02  0.95605903432E+02  0.17770000000E+01 0. -1.
</event>
<event>
 6    1  0.1782050E-003  0.5016423E+03  0.7546771E-02  0.9396142E-01
        -11   -1    0    0    0    0  0.00000000000E+00  0.00000000000E+00  0.50000000000E+03  0.50000000000E+03  0.00000000000E+00 0.  1.
         11   -1    0    0    0    0 -0.00000000000E+00 -0.00000000000E+00 -0.50000000000E+03  0.50000000000E+03  0.00000000000E+00 0.  1.
        -11    1    1    2    0    0  0.49600946539E+01 -0.46150283967E+01  0.45788671660E+03  0.45793683655E+03  0.00000000000E+00 0.  1.
         11    1    1    2    0    0 -0.18829777331E+01  0.12382062704E+02 -0.49820029089E+03  0.49835769376E+03  0.00000000000E+00 0.  1.
        -15    1    1    2    0    0 -0.22918689170E+01 -0.13412834479E+01  0.34995888523E+02  0.35141451976E+02  0.17770000000E+01 0.  1.
         15    1    1    2    0    0 -0.78524800377E+00 -0.64257508597E+01  0.53176857697E+01  0.85640177185E+01  0.17770000000E+01 0. -1.
</event>
<event>
 6    1  0.1782050E-003  0.5245668E+03  0.7546771E-02  0.9346458E-01
        -11   -1    0    0    0    0  0.00000000000E+00  0.00000000000E+00  0.50000000000E+03  0.50000000000E+03  0.00000000000E+00 0. -1.
         11   -1    0    0    0    0 -0.00000000000E+00 -0.00000000000E+00 -0.50000000000E+03  0.50000000000E+03  0.00000000000E+00 0. -1.
        -11    1    1    2    0    0 -0.55279495449E+01 -0.56596906755E+01  0.47536738981E+03  0.47543321889E+03  0.00000000000E+00 0. -1.
         11    1    1    2    0    0 -0.11545706604E+02  0.21008877728E+01 -0.43618909680E+03  0.43634693220E+03  0.00000000000E+00 0. -1.
        -15    1    1    2    0    0  0.71796155949E+01  0.27110216616E+01  0.23474037460E+02  0.24760546889E+02  0.17770000000E+01 0. -1.
         15    1    1    2    0    0  0.98940405537E+01  0.84778124109E+00 -0.62652330471E+02  0.63459302028E+02  0.17770000000E+01 0.  1.
</event>
<event>
 6    1  0.1782050E-003  0.5016760E+03  0.7546771E-02  0.9396067E-01
        -11   -1    0    0    0    0  0.00000000000E+00  0.00000000000E+00  0.50000000000E+03  0.50000000000E+03  0.00000000000E+00 0. -1.
         11   -1    0    0    0    0 -0.00000000000E+00 -0.00000000000E+00 -0.50000000000E+03  0.50000000000E+03  0.00000000000E+00 0.  1.
        -11    1    1    2    0    0  0.95279312654E+01 -0.63248884858E+01  0.49819278401E+03  0.49832402685E+03  0.00000000000E+00 0. -1.
         11    1    1    2    0    0  0.47574260049E+01  0.57603333102E+01 -0.46035675854E+03  0.46041737551E+03  0.00000000000E+00 0.  1.
        -15    1    1    2    0    0 -0.34488816034E+01  0.26511839529E+01 -0.16705074903E+02  0.17353409382E+02  0.17770000000E+01 0. -1.
         15    1    1    2    0    0 -0.10836475667E+02 -0.20866287773E+01 -0.21130950575E+02  0.23905188259E+02  0.17770000000E+01 0.  1.
</event>
<event>
 6    1  0.1782050E-003  0.5533979E+03  0.7546771E-02  0.9287666E-01
        -11   -1    0    0    0    0  0.00000000000E+00  0.00000000000E+00  0.50000000000E+03  0.50000000000E+03  0.00000000000E+00 0. -1.
         11   -1    0    0    0    0 -0.00000000000E+00 -0.00000000000E+00 -0.50000000000E+03  0.50000000000E+03  0.00000000000E+00 0. -1.
        -11    1    1    2    0    0 -0.62348785537E+01 -0.48862533239E+01  0.44653186387E+03  0.44660212117E+03  0.00000000000E+00 0. -1.
         11    1    1    2    0    0 -0.91198819107E+00 -0.28349182669E+02 -0.38014745269E+03  0.38120413648E+03  0.00000000000E+00 0. -1.
        -15    1    1    2    0    0 -0.20899435826E+02 -0.15460898193E+01  0.46358919692E+02  0.50906620155E+02  0.17770000000E+01 0.  1.
         15    1    1    2    0    0  0.28046302570E+02  0.34781525812E+02 -0.11274333087E+03  0.12128712220E+03  0.17770000000E+01 0. -1.
</event>
<event>
 6    1  0.1782050E-003  0.5075606E+03  0.7546771E-02  0.9383050E-01
        -11   -1    0    0    0    0  0.00000000000E+00  0.00000000000E+00  0.50000000000E+03  0.50000000000E+03  0.00000000000E+00 0. -1.
         11   -1    0    0    0    0 -0.00000000000E+00 -0.00000000000E+00 -0.50000000000E+03  0.50000000000E+03  0.00000000000E+00 0. -1.
        -11    1    1    2    0    0  0.23162843904E+01  0.66523488730E+01  0.47885363077E+03  0.47890543808E+03  0.00000000000E+00 0. -1.
         11    1    1    2    0    0 -0.17270505382E+01 -0.88124246071E+01 -0.49235755916E+03  0.49243944561E+03  0.00000000000E+00 0. -1.
        -15    1    1    2    0    0 -0.75713021878E+01 -0.40849063190E+01  0.16473082492E+02  0.18668991731E+02  0.17770000000E+01 0. -1.
         15    1    1    2    0    0  0.69820683356E+01  0.62449820531E+01 -0.29691541041E+01  0.99861245826E+01  0.17770000000E+01 0.  1.
</event>
<event>
 6    1  0.1782050E-003  0.5070678E+03  0.7546771E-02  0.9384132E-01
        -11   -1    0    0    0    0  0.00000000000E+00  0.00000000000E+00  0.50000000000E+03  0.50000000000E+03  0.00000000000E+00 0.  1.
         11   -1    0    0    0    0 -0.00000000000E+00 -0.00000000000E+00 -0.50000000000E+03  0.50000000000E+03  0.00000000000E+00 0.  1.
        -11    1    1    2    0    0 -0.35233951827E+01  0.38164694992E+01  0.26455896754E+03  0.26460995268E+03  0.00000000000E+00 0.  1.
         11    1    1    2    0    0 -0.85508967568E+02 -0.11172396910E+02 -0.48533039489E+03  0.49293224503E+03  0.00000000000E+00 0.  1.
        -15    1    1    2    0    0  0.40465156061E+02 -0.13108452502E+02  0.62410439986E+02  0.75547873102E+02  0.17770000000E+01 0. -1.
         15    1    1    2    0    0  0.48567206690E+02  0.20464379913E+02  0.15836098737E+03  0.16690992918E+03  0.17770000000E+01 0.  1.
</event>
<event>
 6    1  0.1782050E-003  0.5305756E+03  0.7546771E-02  0.9333879E-01
        -11   -1    0    0    0    0  0.00000000000E+00  0.00000000000E+00  0.50000000000E+03  0.50000000000E+03  0.00000000000E+00 0.  1.
         11   -1    0    0    0    0 -0.00000000000E+00 -0.00000000000E+00 -0.50000000000E+03  0.50000000000E+03  0.00000000000E+00 0. -1.
        -11    1    1    2    0    0  0.25157798968E+02  0.80666034284E+01  0.38900534942E+03  0.38990145783E+03  0.00000000000E+00 0.  1.
         11    1    1    2    0    0 -0.45668229686E+02 -0.33863209417E+02 -0.46596886636E+03  0.46942442264E+03  0.00000000000E+00 0. -1.
        -15    1    1    2    0    0  0.39636165051E+02  0.34899421127E+02 -0.76858044533E+01  0.53396858466E+02  0.17770000000E+01 0.  1.
         15    1    1    2    0    0 -0.19125734334E+02 -0.91028151381E+01  0.84649321391E+02  0.87277261060E+02  0.17770000000E+01 0. -1.
</event>
<event>
 6    1  0.1782050E-003  0.5093473E+03  0.7546771E-02  0.9379134E-01
        -11   -1    0    0    0    0  0.00000000000E+00  0.00000000000E+00  0.50000000000E+03  0.50000000000E+03  0.00000000000E+00 0. -1.
         11   -1    0    0    0    0 -0.00000000000E+00 -0.00000000000E+00 -0.50000000000E+03  0.50000000000E+03  0.00000000000E+00 0.  1.
        -11    1    1    2    0    0 -0.21112654437E+02  0.12468883587E+02  0.49003962181E+03  0.49065267571E+03  0.00000000000E+00 0. -1.
         11    1    1    2    0    0  0.13934900900E+01 -0.69443849843E+01 -0.46650258821E+03  0.46655635362E+03  0.00000000000E+00 0.  1.
        -15    1    1    2    0    0  0.42432038061E+01  0.11242877505E+02 -0.12325440733E+02  0.17305527770E+02  0.17770000000E+01 0.  1.
         15    1    1    2    0    0  0.15475960541E+02 -0.16767376108E+02 -0.11211592869E+02  0.25485442901E+02  0.17770000000E+01 0. -1.
</event>
<event>
 6    1  0.1782050E-003  0.5030076E+03  0.7546771E-02  0.9393105E-01
        -11   -1    0    0    0    0  0.00000000000E+00  0.00000000000E+00  0.50000000000E+03  0.50000000000E+03  0.00000000000E+00 0.  1.
         11   -1    0    0    0    0 -0.00000000000E+00 -0.00000000000E+00 -0.50000000000E+03  0.50000000000E+03  0.00000000000E+00 0.  1.
        -11    1    1    2    0    0  0.68293189665E+01 -0.59134044893E+00  0.49694515874E+03  0.49699243462E+03  0.00000000000E+00 0.  1.
         11    1    1    2    0    0 -0.11720127492E+02 -0.28784212332E+01 -0.42944799544E+03  0.42961753629E+03  0.00000000000E+00 0.  1.
        -15    1    1    2    0    0 -0.86055860627E+01  0.81628548140E+01 -0.16496118846E+02  0.20395292991E+02  0.17770000000E+01 0. -1.
         15    1    1    2    0    0  0.13496394588E+02 -0.46930931319E+01 -0.51001044449E+02  0.52994736096E+02  0.17770000000E+01 0.  1.
</event>
<event>
 6    1  0.1782050E-003  0.5036805E+03  0.7546771E-02  0.9391612E-01
        -11   -1    0    0    0    0  0.00000000000E+00  0.00000000000E+00  0.50000000000E+03  0.50000000000E+03  0.00000000000E+00 0. -1.
         11   -1    0    0    0    0 -0.00000000000E+00 -0.00000000000E+00 -0.50000000000E+03  0.50000000000E+03  0.00000000000E+00 0. -1.
        -11    1    1    2    0    0 -0.24389912146E+01 -0.49506687685E+00  0.10675552590E+03  0.10678453109E+03  0.00000000000E+00 0. -1.
         11    1    1    2    0    0 -0.23374490642E+02 -0.47582106183E+01 -0.49574590865E+03  0.49631946700E+03  0.00000000000E+00 0. -1.
        -15    1    1    2    0    0  0.14744993206E+02  0.81537102353E+01  0.38385539593E+03  0.38422912504E+03  0.17770000000E+01 0. -1.
         15    1    1    2    0    0  0.11068488650E+02 -0.29004327402E+01  0.51349868253E+01  0.12666876876E+02  0.17770000000E+01 0.  1.
</event>
<event>
 6    1  0.1782050E-003  0.5012844E+03  0.7546771E-02  0.9396940E-01
        -11   -1    0    0    0    0  0.00000000000E+00  0.00000000000E+00  0.50000000000E+03  0.50000000000E+03  0.00000000000E+00 0.  1.
         11   -1    0    0    0    0 -0.00000000000E+00 -0.00000000000E+00 -0.50000000000E+03  0.50000000000E+03  0.00000000000E+00 0.  1.
        -11    1    1    2    0    0 -0.79691283055E+01  0.45137285757E+01  0.49863149842E+03  0.49871560229E+03  0.00000000000E+00 0.  1.
         11    1    1    2    0    0 -0.42296455923E+01 -0.45729003599E+01 -0.36946071856E+03  0.36951322558E+03  0.00000000000E+00 0.  1.
        -15    1    1    2    0    0  0.18554054926E+02 -0.25980461110E+01 -0.87931094168E+02  0.89922399036E+02  0.17770000000E+01 0.  1.
         15    1    1    2    0    0 -0.63552810286E+01  0.26572178952E+01 -0.41239685692E+02  0.41848773087E+02  0.17770000000E+01 0. -1.
</event>
<event>
 6    1  0.1782050E-003  0.5047900E+03  0.7546771E-02  0.9389155E-01
        -11   -1    0    0    0    0  0.00000000000E+00  0.00000000000E+00  0.50000000000E+03  0.50000000000E+03  0.00000000000E+00 0.  1.
         11   -1    0    0    0    0 -0.00000000000E+00 -0.00000000000E+00 -0.50000000000E+03  0.50000000000E+03  0.00000000000E+00 0.  1.
        -11    1    1    2    0    0  0.11756577260E+02  0.15059003504E+01  0.49506810844E+03  0.49520997248E+03  0.00000000000E+00 0.  1.
         11    1    1    2    0    0  0.12510653156E+02 -0.40995450879E+01 -0.34989090963E+03  0.35013850310E+03  0.00000000000E+00 0.  1.
        -15    1    1    2    0    0 -0.17214835528E+02 -0.94792926249E+01 -0.18041263237E+02  0.26736724913E+02  0.17770000000E+01 0. -1.
         15    1    1    2    0    0 -0.70523948883E+01  0.12072937362E+02 -0.12713593557E+03  0.12791479951E+03  0.17770000000E+01 0.  1.
</event>
<event>
 6    1  0.1782050E-003  0.4781370E+03  0.7546771E-02  0.9450104E-01
        -11   -1    0    0    0    0  0.00000000000E+00  0.00000000000E+00  0.50000000000E+03  0.50000000000E+03  0.00000000000E+00 0. -1.
         11   -1    0    0    0    0 -0.00000000000E+00 -0.00000000000E+00 -0.50000000000E+03  0.50000000000E+03  0.00000000000E+00 0.  1.
        -11    1    1    2    0    0  0.33041766436E+01 -0.77765566332E+01  0.48069534577E+03  0.48076959956E+03  0.00000000000E+00 0. -1.
         11    1    1    2    0    0  0.10869177304E+02  0.75847456165E+01 -0.47543920296E+03  0.47562390930E+03  0.00000000000E+00 0.  1.
        -15    1    1    2    0    0 -0.26979061040E+02  0.37625751429E+01  0.35993564730E+01  0.27534338603E+02  0.17770000000E+01 0.  1.
         15    1    1    2    0    0  0.12805707092E+02 -0.35707641261E+01 -0.88554992827E+01  0.16072152535E+02  0.17770000000E+01 0. -1.
</event>
<event>
 6    1  0.1782050E-003  0.5011977E+03  0.7546771E-02  0.9397134E-01
        -11   -1    0    0    0    0  0.00000000000E+00  0.00000000000E+00  0.50000000000E+03  0.50000000000E+03  0.00000000000E+00 0.  1.
         11   -1    0    0    0    0 -0.00000000000E+00 -0.00000000000E+00 -0.50000000000E+03  0.50000000000E+03  0.00000000000E+00 0.  1.
        -11    1    1    2    0    0 -0.29483414643E+02 -0.16353589865E+02  0.49766155531E+03  0.49880230079E+03  0.00000000000E+00 0.  1.
         11    1    1    2    0    0 -0.26696880923E+01 -0.66888207051E+01 -0.11723415209E+03  0.11745515728E+03  0.00000000000E+00 0.  1.
        -15    1    1    2    0    0  0.32879097758E+02  0.14598727719E+02 -0.20782591504E+03  0.21092398302E+03  0.17770000000E+01 0.  1.
         15    1    1    2    0    0 -0.72599502245E+00  0.84436828508E+01 -0.17260148818E+03  0.17281855890E+03  0.17770000000E+01 0. -1.
</event>
<event>
 6    1  0.1782050E-003  0.4627815E+03  0.7546771E-02  0.9487170E-01
        -11   -1    0    0    0    0  0.00000000000E+00  0.00000000000E+00  0.50000000000E+03  0.50000000000E+03  0.00000000000E+00 0.  1.
         11   -1    0    0    0    0 -0.00000000000E+00 -0.00000000000E+00 -0.50000000000E+03  0.50000000000E+03  0.00000000000E+00 0.  1.
        -11    1    1    2    0    0 -0.93536739394E+01 -0.29941262799E+02  0.45456113452E+03  0.45564217919E+03  0.00000000000E+00 0.  1.
         11    1    1    2    0    0 -0.17281280217E+01 -0.61851912087E+01 -0.47079029277E+03  0.47083409263E+03  0.00000000000E+00 0.  1.
        -15    1    1    2    0    0 -0.49417618900E+01  0.39103215830E+02  0.31981295115E+02  0.50788221716E+02  0.17770000000E+01 0.  1.
         15    1    1    2    0    0  0.16023563851E+02 -0.29767618224E+01 -0.15752136873E+02  0.22735506471E+02  0.17770000000E+01 0. -1.
</event>
<event>
 6    1  0.1782050E-003  0.5047781E+03  0.7546771E-02  0.9389181E-01
        -11   -1    0    0    0    0  0.00000000000E+00  0.00000000000E+00  0.50000000000E+03  0.50000000000E+03  0.00000000000E+00 0.  1.
         11   -1    0    0    0    0 -0.00000000000E+00 -0.00000000000E+00 -0.50000000000E+03  0.50000000000E+03  0.00000000000E+00 0.  1.
        -11    1    1    2    0    0 -0.60877520643E+01 -0.49415218173E+01  0.48039645931E+03  0.48046044320E+03  0.00000000000E+00 0.  1.
         11    1    1    2    0    0 -0.24430310771E+01  0.85657072397E+01 -0.49514174086E+03  0.49522185259E+03  0.00000000000E+00 0.  1.
        -15    1    1    2    0    0  0.68034996104E+01  0.34150590815E+01  0.14930018139E+02  0.16852697295E+02  0.17770000000E+01 0. -1.
         15    1    1    2    0    0  0.17272835310E+01 -0.70392445040E+01 -0.18473658935E+00  0.74650069116E+01  0.17770000000E+01 0.  1.
</event>
<event>
 6    1  0.1782050E-003  0.5035035E+03  0.7546771E-02  0.9392004E-01
        -11   -1    0    0    0    0  0.00000000000E+00  0.00000000000E+00  0.50000000000E+03  0.50000000000E+03  0.00000000000E+00 0.  1.
         11   -1    0    0    0    0 -0.00000000000E+00 -0.00000000000E+00 -0.50000000000E+03  0.50000000000E+03  0.00000000000E+00 0.  1.
        -11    1    1    2    0    0 -0.68898734238E+01  0.49064421669E+01  0.45281878181E+03  0.45289777289E+03  0.00000000000E+00 0.  1.
         11    1    1    2    0    0  0.11890600506E+02  0.59500984062E+00 -0.49635374928E+03  0.49649651040E+03  0.00000000000E+00 0.  1.
        -15    1    1    2    0    0 -0.10877605004E+02 -0.53946836748E+01  0.82411984919E+01  0.14781744963E+02  0.17770000000E+01 0. -1.
         15    1    1    2    0    0  0.58768779225E+01 -0.10676833266E+00  0.35293768976E+02  0.35823971739E+02  0.17770000000E+01 0.  1.
</event>
<event>
 6    1  0.1782050E-003  0.5080341E+03  0.7546771E-02  0.9382010E-01
        -11   -1    0    0    0    0  0.00000000000E+00  0.00000000000E+00  0.50000000000E+03  0.50000000000E+03  0.00000000000E+00 0.  1.
         11   -1    0    0    0    0 -0.00000000000E+00 -0.00000000000E+00 -0.50000000000E+03  0.50000000000E+03  0.00000000000E+00 0. -1.
        -11    1    1    2    0    0  0.48412434658E+01 -0.52179089523E+01  0.49191444201E+03  0.49196593629E+03  0.00000000000E+00 0.  1.
         11    1    1    2    0    0  0.64685458698E+01  0.96628486327E+01 -0.42080759335E+03  0.42096822130E+03  0.00000000000E+00 0. -1.
        -15    1    1    2    0    0 -0.33378985120E+01  0.50075760065E+01  0.61614334759E+01  0.87942239803E+01  0.17770000000E+01 0.  1.
         15    1    1    2    0    0 -0.79718908236E+01 -0.94525156869E+01 -0.77268282142E+02  0.78271618422E+02  0.17770000000E+01 0.  1.
</event>
<event>
 6    1  0.1782050E-003  0.5298801E+03  0.7546771E-02  0.9335326E-01
        -11   -1    0    0    0    0  0.00000000000E+00  0.00000000000E+00  0.50000000000E+03  0.50000000000E+03  0.00000000000E+00 0.  1.
         11   -1    0    0    0    0 -0.00000000000E+00 -0.00000000000E+00 -0.50000000000E+03  0.50000000000E+03  0.00000000000E+00 0. -1.
        -11    1    1    2    0    0  0.14746598239E+02 -0.89954469447E+00  0.46988769749E+03  0.47011989917E+03  0.00000000000E+00 0.  1.
         11    1    1    2    0    0  0.20181694237E+01 -0.16515016378E-01 -0.13771106029E+03  0.13772584872E+03  0.00000000000E+00 0. -1.
        -15    1    1    2    0    0 -0.13532535142E+02  0.41342818376E+01  0.28275786833E+02  0.31668590807E+02  0.17770000000E+01 0.  1.
         15    1    1    2    0    0 -0.32322325213E+01 -0.32182221267E+01 -0.36045242404E+03  0.36048566130E+03  0.17770000000E+01 0. -1.
</event>
<event>
 6    1  0.6534925E-003  0.5262354E+03  0.7546771E-02  0.9342947E-01
        -11   -1    0    0    0    0  0.00000000000E+00  0.00000000000E+00  0.50000000000E+03  0.50000000000E+03  0.00000000000E+00 0.  1.
         11   -1    0    0    0    0 -0.00000000000E+00 -0.00000000000E+00 -0.50000000000E+03  0.50000000000E+03  0.00000000000E+00 0. -1.
        -11    1    1    2    0    0  0.17329614936E+02  0.11084534416E+02  0.34713358988E+03  0.34774259400E+03  0.00000000000E+00 0.  1.
         11    1    1    2    0    0  0.13467168811E+01  0.10078234430E+02 -0.47365549138E+03  0.47376461347E+03  0.00000000000E+00 0. -1.
        -15    1    1    2    0    0  0.13374305230E+01 -0.30394284151E+01 -0.24641026244E+02  0.24927188948E+02  0.17770000000E+01 0. -1.
         15    1    1    2    0    0 -0.20013762340E+02 -0.18123340431E+02  0.15116292775E+03  0.15356560359E+03  0.17770000000E+01 0.  1.
</event>
<event>
 6    1  0.1782050E-003  0.5031818E+03  0.7546771E-02  0.9392718E-01
        -11   -1    0    0    0    0  0.00000000000E+00  0.00000000000E+00  0.50000000000E+03  0.50000000000E+03  0.00000000000E+00 0.  1.
         11   -1    0    0    0    0 -0.00000000000E+00 -0.00000000000E+00 -0.50000000000E+03  0.50000000000E+03  0.00000000000E+00 0.  1.
        -11    1    1    2    0    0  0.92624299887E+01  0.15886518726E+01  0.49672932607E+03  0.49681821605E+03  0.00000000000E+00 0.  1.
         11    1    1    2    0    0 -0.57921991239E+01 -0.54242827058E+01 -0.43827816202E+03  0.43834999683E+03  0.00000000000E+00 0.  1.
        -15    1    1    2    0    0 -0.67639790887E+00  0.15651548638E+02 -0.33685958778E+02  0.37193145023E+02  0.17770000000E+01 0. -1.
         15    1    1    2    0    0 -0.27938329559E+01 -0.11815917805E+02 -0.24765205266E+02  0.27638642098E+02  0.17770000000E+01 0.  1.
</event>
<event>
 6    1  0.1782050E-003  0.4282659E+03  0.7546771E-02  0.9576384E-01
        -11   -1    0    0    0    0  0.00000000000E+00  0.00000000000E+00  0.50000000000E+03  0.50000000000E+03  0.00000000000E+00 0. -1.
         11   -1    0    0    0    0 -0.00000000000E+00 -0.00000000000E+00 -0.50000000000E+03  0.50000000000E+03  0.00000000000E+00 0. -1.
        -11    1    1    2    0    0 -0.11787215608E+01  0.18727954179E+01  0.13263901426E+02  0.13447223812E+02  0.00000000000E+00 0. -1.
         11    1    1    2    0    0 -0.13096207298E+02  0.15061509995E+03 -0.44863788976E+03  0.47342620873E+03  0.00000000000E+00 0. -1.
        -15    1    1    2    0    0  0.92962023117E+02 -0.16308951924E+03  0.34535817964E+03  0.39308467154E+03  0.17770000000E+01 0. -1.
         15    1    1    2    0    0 -0.78687094258E+02  0.10601623870E+02  0.90015808697E+02  0.12004189592E+03  0.17770000000E+01 0.  1.
</event>
<event>
 6    1  0.1782050E-003  0.5015582E+03  0.7546771E-02  0.9396330E-01
        -11   -1    0    0    0    0  0.00000000000E+00  0.00000000000E+00  0.50000000000E+03  0.50000000000E+03  0.00000000000E+00 0.  1.
         11   -1    0    0    0    0 -0.00000000000E+00 -0.00000000000E+00 -0.50000000000E+03  0.50000000000E+03  0.00000000000E+00 0. -1.
        -11    1    1    2    0    0 -0.81764036870E+01 -0.48255380839E+01  0.32029080552E+03  0.32043148955E+03  0.00000000000E+00 0.  1.
         11    1    1    2    0    0 -0.16929633459E+01 -0.11583014021E+02 -0.49830430578E+03  0.49844178547E+03  0.00000000000E+00 0. -1.
        -15    1    1    2    0    0  0.12293141871E+02  0.12342616865E+02  0.17340069579E+03  0.17428258823E+03  0.17770000000E+01 0.  1.
         15    1    1    2    0    0 -0.24237748384E+01  0.40659352397E+01  0.46128044718E+01  0.68441367561E+01  0.17770000000E+01 0. -1.
</event>
<event>
 6    1  0.1782050E-003  0.5065782E+03  0.7546771E-02  0.9385210E-01
        -11   -1    0    0    0    0  0.00000000000E+00  0.00000000000E+00  0.50000000000E+03  0.50000000000E+03  0.00000000000E+00 0. -1.
         11   -1    0    0    0    0 -0.00000000000E+00 -0.00000000000E+00 -0.50000000000E+03  0.50000000000E+03  0.00000000000E+00 0. -1.
        -11    1    1    2    0    0 -0.30660440239E+01 -0.58606649369E+01  0.39619073664E+03  0.39624594360E+03  0.00000000000E+00 0. -1.
         11    1    1    2    0    0 -0.18500634259E+02  0.25725229284E+00 -0.49307479887E+03  0.49342182454E+03  0.00000000000E+00 0. -1.
        -15    1    1    2    0    0 -0.40464545740E+01  0.12662189863E+02  0.44359998182E+01  0.14125886526E+02  0.17770000000E+01 0. -1.
         15    1    1    2    0    0  0.25613132857E+02 -0.70587772190E+01  0.92448062417E+02  0.96206345343E+02  0.17770000000E+01 0.  1.
</event>
<event>
 6    1  0.1782050E-003  0.5071716E+03  0.7546771E-02  0.9383904E-01
        -11   -1    0    0    0    0  0.00000000000E+00  0.00000000000E+00  0.50000000000E+03  0.50000000000E+03  0.00000000000E+00 0.  1.
         11   -1    0    0    0    0 -0.00000000000E+00 -0.00000000000E+00 -0.50000000000E+03  0.50000000000E+03  0.00000000000E+00 0.  1.
        -11    1    1    2    0    0  0.23214623367E+02 -0.13298767757E+02  0.40820005682E+03  0.40907586381E+03  0.00000000000E+00 0.  1.
         11    1    1    2    0    0  0.13580752421E+00 -0.73292833049E+01 -0.49277389226E+03  0.49282841409E+03  0.00000000000E+00 0.  1.
        -15    1    1    2    0    0 -0.12274577005E+02  0.22099528683E+02  0.82865431167E+02  0.86653862119E+02  0.17770000000E+01 0.  1.
         15    1    1    2    0    0 -0.11075853885E+02 -0.14714776211E+01  0.17084042706E+01  0.11441859981E+02  0.17770000000E+01 0. -1.
</event>
<event>
 6    1  0.1782050E-003  0.5409637E+03  0.7546771E-02  0.9312545E-01
        -11   -1    0    0    0    0  0.00000000000E+00  0.00000000000E+00  0.50000000000E+03  0.50000000000E+03  0.00000000000E+00 0. -1.
         11   -1    0    0    0    0 -0.00000000000E+00 -0.00000000000E+00 -0.50000000000E+03  0.50000000000E+03  0.00000000000E+00 0.  1.
        -11    1    1    2    0    0 -0.13866883515E+02 -0.23471009422E+02  0.45822609606E+03  0.45903630995E+03  0.00000000000E+00 0. -1.
         11    1    1    2    0    0  0.17875434719E+01  0.88498744557E+01 -0.43695639579E+03  0.43704966240E+03  0.00000000000E+00 0.  1.
        -15    1    1    2    0    0 -0.44091972923E+01  0.10504384665E+02 -0.60255098579E+02  0.61348331287E+02  0.17770000000E+01 0. -1.
         15    1    1    2    0    0  0.16488537335E+02  0.41167503013E+01  0.38985398309E+02  0.42565696362E+02  0.17770000000E+01 0.  1.
</event>
<event>
 6    1  0.1782050E-003  0.5003497E+03  0.7546771E-02  0.9399028E-01
        -11   -1    0    0    0    0  0.00000000000E+00  0.00000000000E+00  0.50000000000E+03  0.50000000000E+03  0.00000000000E+00 0.  1.
         11   -1    0    0    0    0 -0.00000000000E+00 -0.00000000000E+00 -0.50000000000E+03  0.50000000000E+03  0.00000000000E+00 0.  1.
        -11    1    1    2    0    0 -0.10418856076E+02 -0.17731598643E+01  0.49953853958E+03  0.49965032692E+03  0.00000000000E+00 0.  1.
         11    1    1    2    0    0 -0.27325815745E+01 -0.55175567349E+00 -0.19198211467E+03  0.19200235360E+03  0.00000000000E+00 0.  1.
        -15    1    1    2    0    0  0.27399047432E+00 -0.31396987227E+01 -0.17602091762E+03  0.17605809822E+03  0.17770000000E+01 0. -1.
         15    1    1    2    0    0  0.12877447176E+02  0.54646142605E+01 -0.13153550729E+03  0.13228922126E+03  0.17770000000E+01 0.  1.
</event>
<event>
 6    1  0.1782050E-003  0.5009708E+03  0.7546771E-02  0.9397640E-01
        -11   -1    0    0    0    0  0.00000000000E+00  0.00000000000E+00  0.50000000000E+03  0.50000000000E+03  0.00000000000E+00 0. -1.
         11   -1    0    0    0    0 -0.00000000000E+00 -0.00000000000E+00 -0.50000000000E+03  0.50000000000E+03  0.00000000000E+00 0. -1.
        -11    1    1    2    0    0 -0.44024685614E+01 -0.49533471741E+01  0.37688208173E+03  0.37694034131E+03  0.00000000000E+00 0. -1.
         11    1    1    2    0    0 -0.13783551354E+02  0.61323857124E+01 -0.49880108268E+03  0.49902917001E+03  0.00000000000E+00 0. -1.
        -15    1    1    2    0    0  0.11950067880E+02 -0.37512035832E+01  0.43508293080E+02  0.45310097620E+02  0.17770000000E+01 0. -1.
         15    1    1    2    0    0  0.62359520356E+01  0.25721650449E+01  0.78410707872E+02  0.78720391061E+02  0.17770000000E+01 0.  1.
</event>
<event>
 6    1  0.1782050E-003  0.5002781E+03  0.7546771E-02  0.9399188E-01
        -11   -1    0    0    0    0  0.00000000000E+00  0.00000000000E+00  0.50000000000E+03  0.50000000000E+03  0.00000000000E+00 0.  1.
         11   -1    0    0    0    0 -0.00000000000E+00 -0.00000000000E+00 -0.50000000000E+03  0.50000000000E+03  0.00000000000E+00 0. -1.
        -11    1    1    2    0    0  0.82027793181E+01 -0.73262216583E-01  0.49965460349E+03  0.49972193642E+03  0.00000000000E+00 0.  1.
         11    1    1    2    0    0 -0.62835480803E+01 -0.96245724042E+00 -0.22203703786E+03  0.22212801597E+03  0.00000000000E+00 0. -1.
        -15    1    1    2    0    0  0.20159653539E+01  0.76030434022E+01 -0.87712455991E+02  0.88082365149E+02  0.17770000000E+01 0. -1.
         15    1    1    2    0    0 -0.39351965918E+01 -0.65673239452E+01 -0.18990510964E+03  0.19006768245E+03  0.17770000000E+01 0.  1.
</event>
<event>
 6    1  0.3498461E-003  0.5158534E+03  0.7546771E-02  0.9365019E-01
        -11   -1    0    0    0    0  0.00000000000E+00  0.00000000000E+00  0.50000000000E+03  0.50000000000E+03  0.00000000000E+00 0. -1.
         11   -1    0    0    0    0 -0.00000000000E+00 -0.00000000000E+00 -0.50000000000E+03  0.50000000000E+03  0.00000000000E+00 0.  1.
        -11    1    1    2    0    0  0.59332942129E+01 -0.47093475454E+01  0.40358138800E+03  0.40365247265E+03  0.00000000000E+00 0. -1.
         11    1    1    2    0    0  0.24324786153E+02 -0.61476987611E+01 -0.48349608377E+03  0.48414662288E+03  0.00000000000E+00 0.  1.
        -15    1    1    2    0    0 -0.26738105746E+02  0.92461280181E+01 -0.36022962037E+01  0.28575364375E+02  0.17770000000E+01 0. -1.
         15    1    1    2    0    0 -0.35199746196E+01  0.16109182884E+01  0.83516991978E+02  0.83625540100E+02  0.17770000000E+01 0. -1.
</event>
<event>
 6    1  0.1782050E-003  0.5002385E+03  0.7546771E-02  0.9399276E-01
        -11   -1    0    0    0    0  0.00000000000E+00  0.00000000000E+00  0.50000000000E+03  0.50000000000E+03  0.00000000000E+00 0.  1.
         11   -1    0    0    0    0 -0.00000000000E+00 -0.00000000000E+00 -0.50000000000E+03  0.50000000000E+03  0.00000000000E+00 0. -1.
        -11    1    1    2    0    0 -0.31113968527E+01 -0.74521394175E+00  0.15047862323E+03  0.15051263131E+03  0.00000000000E+00 0.  1.
         11    1    1    2    0    0 -0.77824339318E+01  0.12752466281E+01 -0.49969925642E+03  0.49976148251E+03  0.00000000000E+00 0. -1.
        -15    1    1    2    0    0 -0.11586463673E+01  0.32190269141E+01  0.17380364577E+03  0.17384639659E+03  0.17770000000E+01 0. -1.
         15    1    1    2    0    0  0.12052477152E+02 -0.37490596004E+01  0.17541698742E+03  0.17587948959E+03  0.17770000000E+01 0.  1.
</event>
<event>
 6    1  0.1782050E-003  0.5027597E+03  0.7546771E-02  0.9393656E-01
        -11   -1    0    0    0    0  0.00000000000E+00  0.00000000000E+00  0.50000000000E+03  0.50000000000E+03  0.00000000000E+00 0. -1.
         11   -1    0    0    0    0 -0.00000000000E+00 -0.00000000000E+00 -0.50000000000E+03  0.50000000000E+03  0.00000000000E+00 0.  1.
        -11    1    1    2    0    0  0.10425579286E+02  0.46941766146E+01  0.49710881604E+03  0.49724028697E+03  0.00000000000E+00 0. -1.
         11    1    1    2    0    0 -0.82381740017E+01  0.24940042279E+01 -0.28763428353E+03  0.28776304250E+03  0.00000000000E+00 0.  1.
        -15    1    1    2    0    0  0.97189957942E+01 -0.37665801040E+01 -0.19714508868E+03  0.19742844204E+03  0.17770000000E+01 0.  1.
         15    1    1    2    0    0 -0.11906401078E+02 -0.34216007386E+01 -0.12329443829E+02  0.17568228493E+02  0.17770000000E+01 0. -1.
</event>
<event>
 6    1  0.1782050E-003  0.5010661E+03  0.7546771E-02  0.9397427E-01
        -11   -1    0    0    0    0  0.00000000000E+00  0.00000000000E+00  0.50000000000E+03  0.50000000000E+03  0.00000000000E+00 0. -1.
         11   -1    0    0    0    0 -0.00000000000E+00 -0.00000000000E+00 -0.50000000000E+03  0.50000000000E+03  0.00000000000E+00 0.  1.
        -11    1    1    2    0    0  0.33798871135E+01 -0.63248634532E+01  0.49888233857E+03  0.49893387866E+03  0.00000000000E+00 0. -1.
         11    1    1    2    0    0 -0.79702858879E+01 -0.39417257693E+01 -0.37841007621E+03  0.37851452870E+03  0.00000000000E+00 0.  1.
        -15    1    1    2    0    0  0.67862237623E+01  0.11992005280E+02 -0.47140084809E+02  0.49144748940E+02  0.17770000000E+01 0.  1.
         15    1    1    2    0    0 -0.21958249879E+01 -0.17254160573E+01 -0.73332177553E+02  0.73406843697E+02  0.17770000000E+01 0. -1.
</event>
<event>
 6    1  0.1782050E-003  0.5014779E+03  0.7546771E-02  0.9396509E-01
        -11   -1    0    0    0    0  0.00000000000E+00  0.00000000000E+00  0.50000000000E+03  0.50000000000E+03  0.00000000000E+00 0.  1.
         11   -1    0    0    0    0 -0.00000000000E+00 -0.00000000000E+00 -0.50000000000E+03  0.50000000000E+03  0.00000000000E+00 0. -1.
        -11    1    1    2    0    0  0.53068523652E+01 -0.49729186446E+01  0.49846907612E+03  0.49852212835E+03  0.00000000000E+00 0.  1.
         11    1    1    2    0    0 -0.76331961702E+01  0.11534695250E+01 -0.32274465238E+03  0.32283696631E+03  0.00000000000E+00 0. -1.
        -15    1    1    2    0    0  0.11812385067E+02 -0.30532375414E+01 -0.14771515828E+03  0.14822881102E+03  0.17770000000E+01 0. -1.
         15    1    1    2    0    0 -0.94860412625E+01  0.68726866611E+01 -0.28009265465E+02  0.30412094333E+02  0.17770000000E+01 0. -1.
</event>
<event>
 6    1  0.1782050E-003  0.5077313E+03  0.7546771E-02  0.9382675E-01
        -11   -1    0    0    0    0  0.00000000000E+00  0.00000000000E+00  0.50000000000E+03  0.50000000000E+03  0.00000000000E+00 0. -1.
         11   -1    0    0    0    0 -0.00000000000E+00 -0.00000000000E+00 -0.50000000000E+03  0.50000000000E+03  0.00000000000E+00 0.  1.
        -11    1    1    2    0    0 -0.28418051544E+02 -0.49776386869E+01  0.43728914967E+03  0.43823984639E+03  0.00000000000E+00 0. -1.
         11    1    1    2    0    0  0.66045696971E+01 -0.10499403239E+02 -0.49211240816E+03  0.49226870719E+03  0.00000000000E+00 0.  1.
        -15    1    1    2    0    0  0.17561261856E+02  0.63350360458E+01  0.56121170556E+02  0.59171565073E+02  0.17770000000E+01 0. -1.
         15    1    1    2    0    0  0.42522199917E+01  0.91420058796E+01 -0.12979120637E+01  0.10319881350E+02  0.17770000000E+01 0.  1.
</event>
<event>
 6    1  0.1782050E-003  0.4798799E+03  0.7546771E-02  0.9445991E-01
        -11   -1    0    0    0    0  0.00000000000E+00  0.00000000000E+00  0.50000000000E+03  0.50000000000E+03  0.00000000000E+00 0.  1.
         11   -1    0    0    0    0 -0.00000000000E+00 -0.00000000000E+00 -0.50000000000E+03  0.50000000000E+03  0.00000000000E+00 0. -1.
        -11    1    1    2    0    0 -0.20332262840E+01  0.69539047685E+01  0.48506088273E+03  0.48511498714E+03  0.00000000000E+00 0.  1.
         11    1    1    2    0    0  0.24287617542E+02 -0.16300684184E+02 -0.47410924216E+03  0.47501070953E+03  0.00000000000E+00 0. -1.
        -15    1    1    2    0    0 -0.23744360445E+02  0.13261139268E+02 -0.17137997045E+02  0.32195048367E+02  0.17770000000E+01 0.  1.
         15    1    1    2    0    0  0.14899691874E+01 -0.39143598523E+01  0.61863564766E+01  0.76792549566E+01  0.17770000000E+01 0. -1.
</event>
<event>
 6    1  0.1782050E-003  0.5037619E+03  0.7546771E-02  0.9391431E-01
        -11   -1    0    0    0    0  0.00000000000E+00  0.00000000000E+00  0.50000000000E+03  0.50000000000E+03  0.00000000000E+00 0. -1.
         11   -1    0    0    0    0 -0.00000000000E+00 -0.00000000000E+00 -0.50000000000E+03  0.50000000000E+03  0.00000000000E+00 0. -1.
        -11    1    1    2    0    0 -0.47858212218E+01 -0.55264586468E+01  0.46570864690E+03  0.46576602456E+03  0.00000000000E+00 0. -1.
         11    1    1    2    0    0 -0.68143403914E+01 -0.79794186681E+01 -0.49612711090E+03  0.49623806436E+03  0.00000000000E+00 0. -1.
        -15    1    1    2    0    0 -0.20708004176E+01  0.25723093489E+01  0.11787271629E+02  0.12369417578E+02  0.17770000000E+01 0.  1.
         15    1    1    2    0    0  0.13670962031E+02  0.10933567966E+02  0.18631192363E+02  0.25626493502E+02  0.17770000000E+01 0. -1.
</event>
<event>
 6    1  0.1782050E-003  0.5011284E+03  0.7546771E-02  0.9397288E-01
        -11   -1    0    0    0    0  0.00000000000E+00  0.00000000000E+00  0.50000000000E+03  0.50000000000E+03  0.00000000000E+00 0. -1.
         11   -1    0    0    0    0 -0.00000000000E+00 -0.00000000000E+00 -0.50000000000E+03  0.50000000000E+03  0.00000000000E+00 0.  1.
        -11    1    1    2    0    0 -0.73875044318E+01 -0.69430413799E+01  0.49876859576E+03  0.49887161992E+03  0.00000000000E+00 0. -1.
         11    1    1    2    0    0 -0.24087603022E+01 -0.56092480910E+01 -0.39199955200E+03  0.39204708207E+03  0.00000000000E+00 0.  1.
        -15    1    1    2    0    0  0.24354416781E+01 -0.11669277366E+00 -0.59160481818E+02  0.59237364317E+02  0.17770000000E+01 0. -1.
         15    1    1    2    0    0  0.73608230560E+01  0.12668982245E+02 -0.47608561941E+02  0.49843933696E+02  0.17770000000E+01 0.  1.
</event>
<event>
 6    1  0.1782050E-003  0.5016019E+03  0.7546771E-02  0.9396233E-01
        -11   -1    0    0    0    0  0.00000000000E+00  0.00000000000E+00  0.50000000000E+03  0.50000000000E+03  0.00000000000E+00 0. -1.
         11   -1    0    0    0    0 -0.00000000000E+00 -0.00000000000E+00 -0.50000000000E+03  0.50000000000E+03  0.00000000000E+00 0.  1.
        -11    1    1    2    0    0 -0.15533535956E+02  0.78704598702E+01  0.16211227457E+03  0.16304485409E+03  0.00000000000E+00 0. -1.
         11    1    1    2    0    0  0.48356348810E+01  0.66070880880E+01 -0.49833087563E+03  0.49839813260E+03  0.00000000000E+00 0.  1.
        -15    1    1    2    0    0  0.97351423305E+01 -0.62670218746E+01  0.32045315596E+03  0.32066716616E+03  0.17770000000E+01 0. -1.
         15    1    1    2    0    0  0.96275874404E+00 -0.82105260837E+01  0.15765445098E+02  0.17889847151E+02  0.17770000000E+01 0.  1.
</event>
<event>
 6    1  0.1782050E-003  0.5112212E+03  0.7546771E-02  0.9375046E-01
        -11   -1    0    0    0    0  0.00000000000E+00  0.00000000000E+00  0.50000000000E+03  0.50000000000E+03  0.00000000000E+00 0.  1.
         11   -1    0    0    0    0 -0.00000000000E+00 -0.00000000000E+00 -0.50000000000E+03  0.50000000000E+03  0.00000000000E+00 0.  1.
        -11    1    1    2    0    0  0.25006262333E+02  0.96966727991E+00  0.44587024783E+03  0.44657197775E+03  0.00000000000E+00 0.  1.
         11    1    1    2    0    0 -0.70241216581E+00 -0.70318982271E+01 -0.48872770615E+03  0.48877879632E+03  0.00000000000E+00 0.  1.
        -15    1    1    2    0    0 -0.21027716079E+02  0.52515071633E+00  0.50361320177E+02  0.54606418357E+02  0.17770000000E+01 0.  1.
         15    1    1    2    0    0 -0.32761340878E+01  0.55370802309E+01 -0.75038618629E+01  0.10042807571E+02  0.17770000000E+01 0. -1.
</event>
<event>
 6    1  0.1782050E-003  0.5024026E+03  0.7546771E-02  0.9394450E-01
        -11   -1    0    0    0    0  0.00000000000E+00  0.00000000000E+00  0.50000000000E+03  0.50000000000E+03  0.00000000000E+00 0.  1.
         11   -1    0    0    0    0 -0.00000000000E+00 -0.00000000000E+00 -0.50000000000E+03  0.50000000000E+03  0.00000000000E+00 0.  1.
        -11    1    1    2    0    0 -0.85949013133E+01 -0.87387281300E+01  0.49744637246E+03  0.49759735848E+03  0.00000000000E+00 0.  1.
         11    1    1    2    0    0  0.13430776056E+02 -0.16305066201E+02 -0.35921961890E+03  0.35984020834E+03  0.00000000000E+00 0.  1.
        -15    1    1    2    0    0 -0.76303590868E+01  0.18310588106E+02 -0.47238748003E+02  0.51265554308E+02  0.17770000000E+01 0.  1.
         15    1    1    2    0    0  0.27944843444E+01  0.67332062245E+01 -0.90988005551E+02  0.91296878873E+02  0.17770000000E+01 0. -1.
</event>
<event>
 6    1  0.1782050E-003  0.5030581E+03  0.7546771E-02  0.9392993E-01
        -11   -1    0    0    0    0  0.00000000000E+00  0.00000000000E+00  0.50000000000E+03  0.50000000000E+03  0.00000000000E+00 0. -1.
         11   -1    0    0    0    0 -0.00000000000E+00 -0.00000000000E+00 -0.50000000000E+03  0.50000000000E+03  0.00000000000E+00 0.  1.
        -11    1    1    2    0    0 -0.14349289559E+01  0.92895600422E+01  0.38435451543E+03  0.38446943764E+03  0.00000000000E+00 0. -1.
         11    1    1    2    0    0  0.38493468473E+01  0.13957539204E+02 -0.49673089937E+03  0.49694186457E+03  0.00000000000E+00 0.  1.
        -15    1    1    2    0    0 -0.10889210397E+02 -0.14363455939E+02  0.97731852391E+02  0.99395958018E+02  0.17770000000E+01 0. -1.
         15    1    1    2    0    0  0.84747925058E+01 -0.88836433064E+01  0.14644531551E+02  0.19192739767E+02  0.17770000000E+01 0.  1.
</event>
<event>
 6    1  0.1782050E-003  0.5137477E+03  0.7546771E-02  0.9369563E-01
        -11   -1    0    0    0    0  0.00000000000E+00  0.00000000000E+00  0.50000000000E+03  0.50000000000E+03  0.00000000000E+00 0.  1.
         11   -1    0    0    0    0 -0.00000000000E+00 -0.00000000000E+00 -0.50000000000E+03  0.50000000000E+03  0.00000000000E+00 0.  1.
        -11    1    1    2    0    0  0.17292936754E+02  0.13604358971E+02  0.45496332019E+03  0.45549505701E+03  0.00000000000E+00 0.  1.
         11    1    1    2    0    0 -0.34057138879E+01 -0.39384514984E+02 -0.48464272511E+03  0.48625231096E+03  0.00000000000E+00 0.  1.
        -15    1    1    2    0    0 -0.17936806942E+02  0.97262849400E-01 -0.93367475980E+00  0.18049043766E+02  0.17770000000E+01 0. -1.
         15    1    1    2    0    0  0.40495840756E+01  0.25682893164E+02  0.30613079682E+02  0.40203588261E+02  0.17770000000E+01 0.  1.
</event>
<event>
 6    1  0.1782050E-003  0.4921533E+03  0.7546771E-02  0.9417541E-01
        -11   -1    0    0    0    0  0.00000000000E+00  0.00000000000E+00  0.50000000000E+03  0.50000000000E+03  0.00000000000E+00 0. -1.
         11   -1    0    0    0    0 -0.00000000000E+00 -0.00000000000E+00 -0.50000000000E+03  0.50000000000E+03  0.00000000000E+00 0. -1.
        -11    1    1    2    0    0  0.71360669023E+01  0.36365849839E+01  0.49081997201E+03  0.49088531565E+03  0.00000000000E+00 0. -1.
         11    1    1    2    0    0  0.66445663466E+01  0.32340784915E+01 -0.30930967515E+02  0.31801482309E+02  0.00000000000E+00 0. -1.
        -15    1    1    2    0    0 -0.69137316708E+02  0.76058597567E+01 -0.22281493230E+03  0.23342551156E+03  0.17770000000E+01 0.  1.
         15    1    1    2    0    0  0.55356683459E+02 -0.14476523232E+02 -0.23707407220E+03  0.24388769048E+03  0.17770000000E+01 0. -1.
</event>
<event>
 6    1  0.1782050E-003  0.5076152E+03  0.7546771E-02  0.9382929E-01
        -11   -1    0    0    0    0  0.00000000000E+00  0.00000000000E+00  0.50000000000E+03  0.50000000000E+03  0.00000000000E+00 0.  1.
         11   -1    0    0    0    0 -0.00000000000E+00 -0.00000000000E+00 -0.50000000000E+03  0.50000000000E+03  0.00000000000E+00 0.  1.
        -11    1    1    2    0    0 -0.32576719502E+02 -0.15411474325E+02  0.49106415378E+03  0.49238476756E+03  0.00000000000E+00 0.  1.
         11    1    1    2    0    0 -0.53320094008E+01  0.38322908070E+01 -0.42187802521E+03  0.42192912312E+03  0.00000000000E+00 0.  1.
        -15    1    1    2    0    0  0.14679653192E+01 -0.85578863650E+01 -0.12957665029E+02  0.15698762792E+02  0.17770000000E+01 0. -1.
         15    1    1    2    0    0  0.36440763583E+02  0.20137069883E+02 -0.56228463541E+02  0.69987346536E+02  0.17770000000E+01 0.  1.
</event>
<event>
 6    1  0.1782050E-003  0.5016855E+03  0.7546771E-02  0.9396046E-01
        -11   -1    0    0    0    0  0.00000000000E+00  0.00000000000E+00  0.50000000000E+03  0.50000000000E+03  0.00000000000E+00 0.  1.
         11   -1    0    0    0    0 -0.00000000000E+00 -0.00000000000E+00 -0.50000000000E+03  0.50000000000E+03  0.00000000000E+00 0. -1.
        -11    1    1    2    0    0 -0.84472297206E+01  0.32889489867E+01  0.49823200482E+03  0.49831446246E+03  0.00000000000E+00 0.  1.
         11    1    1    2    0    0 -0.24597196459E+00  0.28229148698E+01 -0.10331671129E+03  0.10335556194E+03  0.00000000000E+00 0. -1.
        -15    1    1    2    0    0 -0.12676311166E+01 -0.98465426752E+01 -0.37882567363E+03  0.37895990556E+03  0.17770000000E+01 0. -1.
         15    1    1    2    0    0  0.99608328018E+01  0.37346788188E+01 -0.16089619895E+02  0.19370070040E+02  0.17770000000E+01 0.  1.
</event>
<event>
 6    1  0.1782050E-003  0.5023921E+03  0.7546771E-02  0.9394473E-01
        -11   -1    0    0    0    0  0.00000000000E+00  0.00000000000E+00  0.50000000000E+03  0.50000000000E+03  0.00000000000E+00 0. -1.
         11   -1    0    0    0    0 -0.00000000000E+00 -0.00000000000E+00 -0.50000000000E+03  0.50000000000E+03  0.00000000000E+00 0.  1.
        -11    1    1    2    0    0 -0.45442663382E+01 -0.78863748341E+01  0.49752467682E+03  0.49760792730E+03  0.00000000000E+00 0. -1.
         11    1    1    2    0    0 -0.83928641460E+01  0.48312882995E+01 -0.36282916884E+03  0.36295838229E+03  0.00000000000E+00 0.  1.
        -15    1    1    2    0    0  0.22223235594E+02 -0.92742364397E+00 -0.59588117353E+02  0.63628875313E+02  0.17770000000E+01 0. -1.
         15    1    1    2    0    0 -0.92861051095E+01  0.39825101785E+01 -0.75107390631E+02  0.75804815096E+02  0.17770000000E+01 0.  1.
</event>
<event>
 6    1  0.1782050E-003  0.4871777E+03  0.7546771E-02  0.9428967E-01
        -11   -1    0    0    0    0  0.00000000000E+00  0.00000000000E+00  0.50000000000E+03  0.50000000000E+03  0.00000000000E+00 0. -1.
         11   -1    0    0    0    0 -0.00000000000E+00 -0.00000000000E+00 -0.50000000000E+03  0.50000000000E+03  0.00000000000E+00 0.  1.
        -11    1    1    2    0    0 -0.61569802312E+01 -0.62374554658E+01  0.48568191188E+03  0.48576098421E+03  0.00000000000E+00 0. -1.
         11    1    1    2    0    0 -0.42758700500E+01 -0.53468886844E+01 -0.48867575769E+03  0.48872371380E+03  0.00000000000E+00 0.  1.
        -15    1    1    2    0    0 -0.37573365128E+01  0.55188755251E+00 -0.43278390140E+01  0.60257843533E+01  0.17770000000E+01 0. -1.
         15    1    1    2    0    0  0.14190186794E+02  0.11032456598E+02  0.73216848232E+01  0.19489517631E+02  0.17770000000E+01 0.  1.
</event>
<event>
 6    1  0.1782050E-003  0.5042880E+03  0.7546771E-02  0.9390266E-01
        -11   -1    0    0    0    0  0.00000000000E+00  0.00000000000E+00  0.50000000000E+03  0.50000000000E+03  0.00000000000E+00 0. -1.
         11   -1    0    0    0    0 -0.00000000000E+00 -0.00000000000E+00 -0.50000000000E+03  0.50000000000E+03  0.00000000000E+00 0.  1.
        -11    1    1    2    0    0 -0.37078384616E+02 -0.18955126508E+01  0.49431974892E+03  0.49571202703E+03  0.00000000000E+00 0. -1.
         11    1    1    2    0    0  0.17379788419E+02  0.82031564390E+01 -0.17680981079E+03  0.17785122438E+03  0.00000000000E+00 0.  1.
        -15    1    1    2    0    0  0.23863534538E+02  0.49810934148E+01 -0.30121348111E+02  0.38790886987E+02  0.17770000000E+01 0. -1.
         15    1    1    2    0    0 -0.41649383411E+01 -0.11288737203E+02 -0.28738859001E+03  0.28764586160E+03  0.17770000000E+01 0.  1.
</event>
<event>
 6    1  0.1782050E-003  0.5015071E+03  0.7546771E-02  0.9396444E-01
        -11   -1    0    0    0    0  0.00000000000E+00  0.00000000000E+00  0.50000000000E+03  0.50000000000E+03  0.00000000000E+00 0. -1.
         11   -1    0    0    0    0 -0.00000000000E+00 -0.00000000000E+00 -0.50000000000E+03  0.50000000000E+03  0.00000000000E+00 0. -1.
        -11    1    1    2    0    0 -0.62984828890E+01  0.18479850997E+01  0.46453660664E+03  0.46458297950E+03  0.00000000000E+00 0. -1.
         11    1    1    2    0    0 -0.35516894746E+01 -0.68020573254E+01 -0.49843385720E+03  0.49849292120E+03  0.00000000000E+00 0. -1.
        -15    1    1    2    0    0  0.50138544912E+01  0.67509480462E+01  0.25500780468E+02  0.26910250275E+02  0.17770000000E+01 0. -1.
         15    1    1    2    0    0  0.48363178724E+01 -0.17968758205E+01  0.83964700943E+01  0.10013849026E+02  0.17770000000E+01 0.  1.
</event>
<event>
 6    1  0.1782050E-003  0.5008157E+03  0.7546771E-02  0.9397986E-01
        -11   -1    0    0    0    0  0.00000000000E+00  0.00000000000E+00  0.50000000000E+03  0.50000000000E+03  0.00000000000E+00 0. -1.
         11   -1    0    0    0    0 -0.00000000000E+00 -0.00000000000E+00 -0.50000000000E+03  0.50000000000E+03  0.00000000000E+00 0. -1.
        -11    1    1    2    0    0 -0.97221449768E+01 -0.46237166737E+01  0.49906815529E+03  0.49918425705E+03  0.00000000000E+00 0. -1.
         11    1    1    2    0    0  0.51394910201E+01  0.65115158058E+01 -0.35562589723E+03  0.35572263491E+03  0.00000000000E+00 0. -1.
        -15    1    1    2    0    0  0.47652071706E+01  0.33424959633E+01 -0.11294047847E+02  0.12829369603E+02  0.17770000000E+01 0. -1.
         15    1    1    2    0    0 -0.18255321393E+00 -0.52302950955E+01 -0.13214821022E+03  0.13226373843E+03  0.17770000000E+01 0.  1.
</event>
<event>
 6    1  0.1782050E-003  0.5012172E+03  0.7546771E-02  0.9397090E-01
        -11   -1    0    0    0    0  0.00000000000E+00  0.00000000000E+00  0.50000000000E+03  0.50000000000E+03  0.00000000000E+00 0.  1.
         11   -1    0    0    0    0 -0.00000000000E+00 -0.00000000000E+00 -0.50000000000E+03  0.50000000000E+03  0.00000000000E+00 0.  1.
        -11    1    1    2    0    0  0.34268707689E+01 -0.68080242737E+00  0.11354651420E+03  0.11360025450E+03  0.00000000000E+00 0.  1.
         11    1    1    2    0    0  0.71756874618E+01  0.61256533040E+01 -0.49869355943E+03  0.49878279876E+03  0.00000000000E+00 0.  1.
        -15    1    1    2    0    0  0.10836842168E+02 -0.13819644256E+02  0.10076129276E+03  0.10229572603E+03  0.17770000000E+01 0.  1.
         15    1    1    2    0    0 -0.21439400398E+02  0.83747933791E+01  0.28438575247E+03  0.28532122072E+03  0.17770000000E+01 0. -1.
</event>
<event>
 6    1  0.1782050E-003  0.4727705E+03  0.7546771E-02  0.9462888E-01
        -11   -1    0    0    0    0  0.00000000000E+00  0.00000000000E+00  0.50000000000E+03  0.50000000000E+03  0.00000000000E+00 0. -1.
         11   -1    0    0    0    0 -0.00000000000E+00 -0.00000000000E+00 -0.50000000000E+03  0.50000000000E+03  0.00000000000E+00 0.  1.
        -11    1    1    2    0    0 -0.75574232678E+01  0.96554617806E+01  0.46818421542E+03  0.46834474713E+03  0.00000000000E+00 0. -1.
         11    1    1    2    0    0 -0.80262419879E+01 -0.72711348500E+01 -0.47724814748E+03  0.47737101319E+03  0.00000000000E+00 0.  1.
        -15    1    1    2    0    0  0.12620719824E+02 -0.82599034408E+01  0.29261154412E+02  0.32967885286E+02  0.17770000000E+01 0. -1.
         15    1    1    2    0    0  0.29629454315E+01  0.58755765101E+01 -0.20197222359E+02  0.21316354402E+02  0.17770000000E+01 0.  1.
</event>
<event>
 6    1  0.1905866E-003  0.5404269E+03  0.7546771E-02  0.9313634E-01
        -11   -1    0    0    0    0  0.00000000000E+00  0.00000000000E+00  0.50000000000E+03  0.50000000000E+03  0.00000000000E+00 0. -1.
         11   -1    0    0    0    0 -0.00000000000E+00 -0.00000000000E+00 -0.50000000000E+03  0.50000000000E+03  0.00000000000E+00 0. -1.
        -11    1    1    2    0    0 -0.57391702938E+01 -0.29020808893E+01  0.45952811664E+03  0.45957311728E+03  0.00000000000E+00 0. -1.
         11    1    1    2    0    0 -0.14402026047E+02  0.51906703866E+01 -0.29691426219E+03  0.29730866201E+03  0.00000000000E+00 0. -1.
        -15    1    1    2    0    0  0.17207792259E+02  0.79938396257E+01 -0.20167890518E+03  0.20257726454E+03  0.17770000000E+01 0. -1.
         15    1    1    2    0    0  0.29334040819E+01 -0.10282429123E+02  0.39065050737E+02  0.40540956159E+02  0.17770000000E+01 0.  1.
</event>
<event>
 6    1  0.1782050E-003  0.5018738E+03  0.7546771E-02  0.9395627E-01
        -11   -1    0    0    0    0  0.00000000000E+00  0.00000000000E+00  0.50000000000E+03  0.50000000000E+03  0.00000000000E+00 0.  1.
         11   -1    0    0    0    0 -0.00000000000E+00 -0.00000000000E+00 -0.50000000000E+03  0.50000000000E+03  0.00000000000E+00 0. -1.
        -11    1    1    2    0    0  0.11581042076E+01  0.58136677201E+00  0.93245981343E+02  0.93254985011E+02  0.00000000000E+00 0.  1.
         11    1    1    2    0    0  0.13297294365E+02  0.31548992408E+01 -0.49793869878E+03  0.49812620807E+03  0.00000000000E+00 0. -1.
        -15    1    1    2    0    0  0.12554076211E+02 -0.14627300554E+02  0.27519136668E+03  0.27587136273E+03  0.17770000000E+01 0.  1.
         15    1    1    2    0    0 -0.27009474784E+02  0.10891034542E+02  0.12950135075E+03  0.13274744419E+03  0.17770000000E+01 0. -1.
</event>
<event>
 6    1  0.1782050E-003  0.3718779E+03  0.7546771E-02  0.9743348E-01
        -11   -1    0    0    0    0  0.00000000000E+00  0.00000000000E+00  0.50000000000E+03  0.50000000000E+03  0.00000000000E+00 0.  1.
         11   -1    0    0    0    0 -0.00000000000E+00 -0.00000000000E+00 -0.50000000000E+03  0.50000000000E+03  0.00000000000E+00 0.  1.
        -11    1    1    2    0    0  0.17031640097E+02  0.58390517259E+01  0.37369066559E+03  0.37412415698E+03  0.00000000000E+00 0.  1.
         11    1    1    2    0    0  0.11966463470E+02 -0.29857792952E+01 -0.37000577835E+03  0.37021127365E+03  0.00000000000E+00 0.  1.
        -15    1    1    2    0    0 -0.18504673334E+02 -0.65138820011E+01  0.12497274263E+03  0.12651560269E+03  0.17770000000E+01 0.  1.
         15    1    1    2    0    0 -0.10493430233E+02  0.36606095704E+01 -0.12865762987E+03  0.12914896667E+03  0.17770000000E+01 0. -1.
</event>
<event>
 6    1  0.1782050E-003  0.5002406E+03  0.7546771E-02  0.9399272E-01
        -11   -1    0    0    0    0  0.00000000000E+00  0.00000000000E+00  0.50000000000E+03  0.50000000000E+03  0.00000000000E+00 0.  1.
         11   -1    0    0    0    0 -0.00000000000E+00 -0.00000000000E+00 -0.50000000000E+03  0.50000000000E+03  0.00000000000E+00 0.  1.
        -11    1    1    2    0    0 -0.32206796757E+01 -0.10106681091E+02  0.49964684789E+03  0.49975943251E+03  0.00000000000E+00 0.  1.
         11    1    1    2    0    0  0.17965228718E+01  0.11088755412E+00 -0.12493979676E+03  0.12495276149E+03  0.00000000000E+00 0.  1.
        -15    1    1    2    0    0 -0.94208399646E+00 -0.32749017441E+01 -0.20530941093E+03  0.20534537844E+03  0.17770000000E+01 0. -1.
         15    1    1    2    0    0  0.23662408004E+01  0.13270695281E+02 -0.16939764020E+03  0.16994242755E+03  0.17770000000E+01 0.  1.
</event>
<event>
 6    1  0.1782050E-003  0.5055449E+03  0.7546771E-02  0.9387487E-01
        -11   -1    0    0    0    0  0.00000000000E+00  0.00000000000E+00  0.50000000000E+03  0.50000000000E+03  0.00000000000E+00 0.  1.
         11   -1    0    0    0    0 -0.00000000000E+00 -0.00000000000E+00 -0.50000000000E+03  0.50000000000E+03  0.00000000000E+00 0. -1.
        -11    1    1    2    0    0  0.81049134937E+01  0.17493867270E+02  0.26144645533E+03  0.26215639229E+03  0.00000000000E+00 0.  1.
         11    1    1    2    0    0  0.96369678825E+01  0.12704535053E+02 -0.49419793342E+03  0.49445512815E+03  0.00000000000E+00 0. -1.
        -15    1    1    2    0    0 -0.33141077417E+00 -0.94011057987E+01  0.53672501825E+00  0.95883484545E+01  0.17770000000E+01 0.  1.
         15    1    1    2    0    0 -0.17410470602E+02 -0.20797296524E+02  0.23221475307E+03  0.23380013110E+03  0.17770000000E+01 0. -1.
</event>
<event>
 6    1  0.1782050E-003  0.5077485E+03  0.7546771E-02  0.9382637E-01
        -11   -1    0    0    0    0  0.00000000000E+00  0.00000000000E+00  0.50000000000E+03  0.50000000000E+03  0.00000000000E+00 0. -1.
         11   -1    0    0    0    0 -0.00000000000E+00 -0.00000000000E+00 -0.50000000000E+03  0.50000000000E+03  0.00000000000E+00 0.  1.
        -11    1    1    2    0    0 -0.97265290748E+01 -0.17715537623E+02  0.40404004624E+03  0.40454518240E+03  0.00000000000E+00 0. -1.
         11    1    1    2    0    0  0.10268552276E+02 -0.57336072077E+01 -0.49211100927E+03  0.49225152398E+03  0.00000000000E+00 0.  1.
        -15    1    1    2    0    0 -0.12870192412E+02  0.10046194256E+02  0.36523066712E+01  0.16824534013E+02  0.17770000000E+01 0.  1.
         15    1    1    2    0    0  0.12328169211E+02  0.13402950575E+02  0.84418656358E+02  0.86378759603E+02  0.17770000000E+01 0. -1.
</event>
<event>
 6    1  0.1782050E-003  0.5051095E+03  0.7546771E-02  0.9388449E-01
        -11   -1    0    0    0    0  0.00000000000E+00  0.00000000000E+00  0.50000000000E+03  0.50000000000E+03  0.00000000000E+00 0. -1.
         11   -1    0    0    0    0 -0.00000000000E+00 -0.00000000000E+00 -0.50000000000E+03  0.50000000000E+03  0.00000000000E+00 0. -1.
        -11    1    1    2    0    0  0.17829096561E+01 -0.70296102079E+01  0.49483732687E+03  0.49489046692E+03  0.00000000000E+00 0. -1.
         11    1    1    2    0    0  0.55832345632E+01 -0.40734794641E+01 -0.47726436555E+03  0.47731440411E+03  0.00000000000E+00 0. -1.
        -15    1    1    2    0    0 -0.95754147730E+01  0.86349996832E+01 -0.38596461942E+01  0.13575948783E+02  0.17770000000E+01 0. -1.
         15    1    1    2    0    0  0.22092705538E+01  0.24680899889E+01 -0.13713315122E+02  0.14219180188E+02  0.17770000000E+01 0.  1.
</event>
<event>
 6    1  0.1782050E-003  0.5007917E+03  0.7546771E-02  0.9398040E-01
        -11   -1    0    0    0    0  0.00000000000E+00  0.00000000000E+00  0.50000000000E+03  0.50000000000E+03  0.00000000000E+00 0. -1.
         11   -1    0    0    0    0 -0.00000000000E+00 -0.00000000000E+00 -0.50000000000E+03  0.50000000000E+03  0.00000000000E+00 0.  1.
        -11    1    1    2    0    0 -0.60576671554E+01 -0.27197209686E+01  0.37194084254E+03  0.37200011098E+03  0.00000000000E+00 0. -1.
         11    1    1    2    0    0 -0.33326667242E+01  0.59748018618E+01 -0.49916138623E+03  0.49920826759E+03  0.00000000000E+00 0.  1.
        -15    1    1    2    0    0  0.48180292701E+01  0.16583924585E+01  0.99790801295E+01  0.11344753890E+02  0.17770000000E+01 0. -1.
         15    1    1    2    0    0  0.45723046095E+01 -0.49134733518E+01  0.11724146356E+03  0.11744686754E+03  0.17770000000E+01 0.  1.
</event>
<event>
 6    1  0.1782050E-003  0.5004673E+03  0.7546771E-02  0.9398765E-01
        -11   -1    0    0    0    0  0.00000000000E+00  0.00000000000E+00  0.50000000000E+03  0.50000000000E+03  0.00000000000E+00 0. -1.
         11   -1    0    0    0    0 -0.00000000000E+00 -0.00000000000E+00 -0.50000000000E+03  0.50000000000E+03  0.00000000000E+00 0.  1.
        -11    1    1    2    0    0 -0.26880781105E+02 -0.10680995663E+02  0.49869457216E+03  0.49953271802E+03  0.00000000000E+00 0. -1.
         11    1    1    2    0    0  0.20694263404E-01  0.69989669999E+01 -0.16155615590E+03  0.16170769146E+03  0.00000000000E+00 0.  1.
        -15    1    1    2    0    0  0.23060466621E+02  0.71669732244E+01 -0.19228904685E+03  0.19380760020E+03  0.17770000000E+01 0. -1.
         15    1    1    2    0    0  0.37996202209E+01 -0.34849445611E+01 -0.14484936941E+03  0.14495199033E+03  0.17770000000E+01 0.  1.
</event>
<event>
 6    1  0.1782050E-003  0.5002045E+03  0.7546771E-02  0.9399352E-01
        -11   -1    0    0    0    0  0.00000000000E+00  0.00000000000E+00  0.50000000000E+03  0.50000000000E+03  0.00000000000E+00 0. -1.
         11   -1    0    0    0    0 -0.00000000000E+00 -0.00000000000E+00 -0.50000000000E+03  0.50000000000E+03  0.00000000000E+00 0. -1.
        -11    1    1    2    0    0  0.66066790372E+01 -0.47237357764E+01  0.49972948617E+03  0.49979547941E+03  0.00000000000E+00 0. -1.
         11    1    1    2    0    0 -0.35661075294E+01  0.28253447067E+01 -0.37988074054E+02  0.38259553917E+02  0.00000000000E+00 0. -1.
        -15    1    1    2    0    0 -0.36326244006E-03  0.61096859313E+01 -0.12767432313E+03  0.12783277662E+03  0.17770000000E+01 0. -1.
         15    1    1    2    0    0 -0.30402082453E+01 -0.42112948616E+01 -0.33406708899E+03  0.33411219006E+03  0.17770000000E+01 0.  1.
</event>
<event>
 6    1  0.1782050E-003  0.5025175E+03  0.7546771E-02  0.9394194E-01
        -11   -1    0    0    0    0  0.00000000000E+00  0.00000000000E+00  0.50000000000E+03  0.50000000000E+03  0.00000000000E+00 0. -1.
         11   -1    0    0    0    0 -0.00000000000E+00 -0.00000000000E+00 -0.50000000000E+03  0.50000000000E+03  0.00000000000E+00 0.  1.
        -11    1    1    2    0    0  0.35581756886E+00  0.12369936249E+01  0.48162698037E+02  0.48179894578E+02  0.00000000000E+00 0. -1.
         11    1    1    2    0    0 -0.33628790839E+02 -0.87917623034E+01 -0.49626667867E+03  0.49748246906E+03  0.00000000000E+00 0.  1.
        -15    1    1    2    0    0  0.28300946793E+02  0.16830266852E+02  0.86438732579E+02  0.92514937661E+02  0.17770000000E+01 0.  1.
         15    1    1    2    0    0  0.49720264771E+01 -0.92754981734E+01  0.36166524806E+03  0.36182269870E+03  0.17770000000E+01 0. -1.
</event>
<event>
 6    1  0.1782050E-003  0.5021299E+03  0.7546771E-02  0.9395056E-01
        -11   -1    0    0    0    0  0.00000000000E+00  0.00000000000E+00  0.50000000000E+03  0.50000000000E+03  0.00000000000E+00 0. -1.
         11   -1    0    0    0    0 -0.00000000000E+00 -0.00000000000E+00 -0.50000000000E+03  0.50000000000E+03  0.00000000000E+00 0. -1.
        -11    1    1    2    0    0  0.41088214534E+01 -0.15758089839E+01  0.29147670684E+03  0.29150992473E+03  0.00000000000E+00 0. -1.
         11    1    1    2    0    0 -0.34490223174E+01 -0.24574789592E+02 -0.49725122145E+03  0.49787005662E+03  0.00000000000E+00 0. -1.
        -15    1    1    2    0    0  0.40728268281E+01  0.22117749282E+02  0.51674147769E+02  0.56384022811E+02  0.17770000000E+01 0. -1.
         15    1    1    2    0    0 -0.47326259642E+01  0.40328492940E+01  0.15410036684E+03  0.15423599584E+03  0.17770000000E+01 0.  1.
</event>
<event>
 6    1  0.1782050E-003  0.5801833E+03  0.7546771E-02  0.9236351E-01
        -11   -1    0    0    0    0  0.00000000000E+00  0.00000000000E+00  0.50000000000E+03  0.50000000000E+03  0.00000000000E+00 0. -1.
         11   -1    0    0    0    0 -0.00000000000E+00 -0.00000000000E+00 -0.50000000000E+03  0.50000000000E+03  0.00000000000E+00 0.  1.
        -11    1    1    2    0    0  0.23150933949E+02 -0.99332454116E+00  0.41917670400E+03  0.41981670002E+03  0.00000000000E+00 0. -1.
         11    1    1    2    0    0  0.36988520421E+02 -0.26491158194E+02 -0.16036486786E+03  0.16669379997E+03  0.00000000000E+00 0.  1.
        -15    1    1    2    0    0 -0.11355373220E+03 -0.97557784561E+01 -0.31022631714E+03  0.33050438860E+03  0.17770000000E+01 0.  1.
         15    1    1    2    0    0  0.53414277833E+02  0.37240261192E+02  0.51414480998E+02  0.82985111408E+02  0.17770000000E+01 0. -1.
</event>
<event>
 6    1  0.1782050E-003  0.5247125E+03  0.7546771E-02  0.9346150E-01
        -11   -1    0    0    0    0  0.00000000000E+00  0.00000000000E+00  0.50000000000E+03  0.50000000000E+03  0.00000000000E+00 0. -1.
         11   -1    0    0    0    0 -0.00000000000E+00 -0.00000000000E+00 -0.50000000000E+03  0.50000000000E+03  0.00000000000E+00 0. -1.
        -11    1    1    2    0    0 -0.58045113524E+01  0.49820894198E+01  0.45969652382E+03  0.45976016311E+03  0.00000000000E+00 0. -1.
         11    1    1    2    0    0  0.13741664763E+02  0.11395528606E+02 -0.47495208915E+03  0.47528746923E+03  0.00000000000E+00 0. -1.
        -15    1    1    2    0    0  0.62748401822E+01 -0.72253169907E+01  0.36482678408E+02  0.37758739091E+02  0.17770000000E+01 0. -1.
         15    1    1    2    0    0 -0.14211993592E+02 -0.91523010347E+01 -0.21227113082E+02  0.27193628572E+02  0.17770000000E+01 0.  1.
</event>
<event>
 6    1  0.1782050E-003  0.5125551E+03  0.7546771E-02  0.9372147E-01
        -11   -1    0    0    0    0  0.00000000000E+00  0.00000000000E+00  0.50000000000E+03  0.50000000000E+03  0.00000000000E+00 0.  1.
         11   -1    0    0    0    0 -0.00000000000E+00 -0.00000000000E+00 -0.50000000000E+03  0.50000000000E+03  0.00000000000E+00 0.  1.
        -11    1    1    2    0    0 -0.40710344917E+01 -0.18637302548E+02  0.48707146627E+03  0.48744490522E+03  0.00000000000E+00 0.  1.
         11    1    1    2    0    0  0.27695371083E+01 -0.52697021665E+01 -0.42798211939E+03  0.42802352110E+03  0.00000000000E+00 0.  1.
        -15    1    1    2    0    0  0.10058202343E+02  0.21508515079E+01 -0.60090920679E+02  0.60990737605E+02  0.17770000000E+01 0.  1.
         15    1    1    2    0    0 -0.87567049601E+01  0.21756153207E+02  0.10015737962E+01  0.23540836076E+02  0.17770000000E+01 0. -1.
</event>
<event>
 6    1  0.1782050E-003  0.5001101E+03  0.7546771E-02  0.9399563E-01
        -11   -1    0    0    0    0  0.00000000000E+00  0.00000000000E+00  0.50000000000E+03  0.50000000000E+03  0.00000000000E+00 0. -1.
         11   -1    0    0    0    0 -0.00000000000E+00 -0.00000000000E+00 -0.50000000000E+03  0.50000000000E+03  0.00000000000E+00 0. -1.
        -11    1    1    2    0    0 -0.94761215987E+00  0.82514725059E+01  0.49982085053E+03  0.49988985526E+03  0.00000000000E+00 0. -1.
         11    1    1    2    0    0  0.23055824051E+01 -0.64975657960E+01 -0.14254103149E+03  0.14270767229E+03  0.00000000000E+00 0. -1.
        -15    1    1    2    0    0  0.28951563121E+01 -0.22618596061E+01 -0.23378007687E+03  0.23381569667E+03  0.17770000000E+01 0. -1.
         15    1    1    2    0    0 -0.42531265573E+01  0.50795289617E+00 -0.12349974217E+03  0.12358677578E+03  0.17770000000E+01 0.  1.
</event>
<event>
 6    1  0.1782050E-003  0.5016717E+03  0.7546771E-02  0.9396077E-01
        -11   -1    0    0    0    0  0.00000000000E+00  0.00000000000E+00  0.50000000000E+03  0.50000000000E+03  0.00000000000E+00 0. -1.
         11   -1    0    0    0    0 -0.00000000000E+00 -0.00000000000E+00 -0.50000000000E+03  0.50000000000E+03  0.00000000000E+00 0. -1.
        -11    1    1    2    0    0 -0.58182926867E+01  0.11003156147E+02  0.30042351596E+03  0.30068124470E+03  0.00000000000E+00 0. -1.
         11    1    1    2    0    0 -0.21822198608E+01  0.66459208980E+01 -0.49827915435E+03  0.49832825127E+03  0.00000000000E+00 0. -1.
        -15    1    1    2    0    0  0.58531034864E+01 -0.19771778450E+02  0.19587595239E+03  0.19696631310E+03  0.17770000000E+01 0. -1.
         15    1    1    2    0    0  0.21474090610E+01  0.21227014050E+01  0.19796860057E+01  0.40241909263E+01  0.17770000000E+01 0. -1.
</event>
<event>
 6    1  0.1782050E-003  0.5386052E+03  0.7546771E-02  0.9317343E-01
        -11   -1    0    0    0    0  0.00000000000E+00  0.00000000000E+00  0.50000000000E+03  0.50000000000E+03  0.00000000000E+00 0. -1.
         11   -1    0    0    0    0 -0.00000000000E+00 -0.00000000000E+00 -0.50000000000E+03  0.50000000000E+03  0.00000000000E+00 0.  1.
        -11    1    1    2    0    0  0.11777181070E+02  0.22380795831E+02  0.40995223253E+03  0.41073158507E+03  0.00000000000E+00 0. -1.
         11    1    1    2    0    0  0.33662083010E+00  0.12189672264E+02 -0.46123363654E+03  0.46139480805E+03  0.00000000000E+00 0.  1.
        -15    1    1    2    0    0 -0.92520742923E+01 -0.23015330392E+02  0.86841268322E+02  0.90331998343E+02  0.17770000000E+01 0. -1.
         15    1    1    2    0    0 -0.28617276081E+01 -0.11555137703E+02 -0.35559864318E+02  0.37541608537E+02  0.17770000000E+01 0.  1.
</event>
<event>
 6    1  0.1782050E-003  0.5027568E+03  0.7546771E-02  0.9393662E-01
        -11   -1    0    0    0    0  0.00000000000E+00  0.00000000000E+00  0.50000000000E+03  0.50000000000E+03  0.00000000000E+00 0.  1.
         11   -1    0    0    0    0 -0.00000000000E+00 -0.00000000000E+00 -0.50000000000E+03  0.50000000000E+03  0.00000000000E+00 0. -1.
        -11    1    1    2    0    0 -0.31954097659E+01  0.14135375053E+02  0.38118278060E+03  0.38145816507E+03  0.00000000000E+00 0.  1.
         11    1    1    2    0    0 -0.11829510929E+02  0.63922151541E+00 -0.49710201115E+03  0.49724315523E+03  0.00000000000E+00 0. -1.
        -15    1    1    2    0    0  0.94198603079E+01 -0.62948933183E+01  0.10713546229E+03  0.10774750326E+03  0.17770000000E+01 0.  1.
         15    1    1    2    0    0  0.56050603871E+01 -0.84797032502E+01  0.87837682582E+01  0.13551176442E+02  0.17770000000E+01 0. -1.
</event>
<event>
 6    1  0.1782050E-003  0.5028946E+03  0.7546771E-02  0.9393356E-01
        -11   -1    0    0    0    0  0.00000000000E+00  0.00000000000E+00  0.50000000000E+03  0.50000000000E+03  0.00000000000E+00 0. -1.
         11   -1    0    0    0    0 -0.00000000000E+00 -0.00000000000E+00 -0.50000000000E+03  0.50000000000E+03  0.00000000000E+00 0. -1.
        -11    1    1    2    0    0 -0.64929967378E+01 -0.16600659757E+00  0.87578339105E+02  0.87818859280E+02  0.00000000000E+00 0. -1.
         11    1    1    2    0    0 -0.95229781884E+01  0.16252270722E+01 -0.49701155149E+03  0.49710543227E+03  0.00000000000E+00 0. -1.
        -15    1    1    2    0    0  0.65406596678E+01  0.32485445750E+00  0.14046771626E+01  0.69294015788E+01  0.17770000000E+01 0.  1.
         15    1    1    2    0    0  0.94753152584E+01 -0.17840749322E+01  0.40802853523E+03  0.40814630687E+03  0.17770000000E+01 0. -1.
</event>
<event>
 6    1  0.1782050E-003  0.4725077E+03  0.7546771E-02  0.9463518E-01
        -11   -1    0    0    0    0  0.00000000000E+00  0.00000000000E+00  0.50000000000E+03  0.50000000000E+03  0.00000000000E+00 0. -1.
         11   -1    0    0    0    0 -0.00000000000E+00 -0.00000000000E+00 -0.50000000000E+03  0.50000000000E+03  0.00000000000E+00 0.  1.
        -11    1    1    2    0    0 -0.21265946912E+02 -0.80702459498E+00  0.47318424407E+03  0.47366255988E+03  0.00000000000E+00 0. -1.
         11    1    1    2    0    0 -0.94549236355E+01  0.12271122978E+01 -0.47175691030E+03  0.47185324392E+03  0.00000000000E+00 0.  1.
        -15    1    1    2    0    0  0.32033373502E+02 -0.14150662740E+01  0.16699415584E+02  0.36196237931E+02  0.17770000000E+01 0.  1.
         15    1    1    2    0    0 -0.13125029545E+01  0.99497857118E+00 -0.18126749361E+02  0.18287958272E+02  0.17770000000E+01 0.  1.
</event>
<event>
 6    1  0.1782050E-003  0.5800537E+03  0.7546771E-02  0.9236593E-01
        -11   -1    0    0    0    0  0.00000000000E+00  0.00000000000E+00  0.50000000000E+03  0.50000000000E+03  0.00000000000E+00 0.  1.
         11   -1    0    0    0    0 -0.00000000000E+00 -0.00000000000E+00 -0.50000000000E+03  0.50000000000E+03  0.00000000000E+00 0. -1.
        -11    1    1    2    0    0  0.27460132673E+02  0.51225362535E+01  0.41901621208E+03  0.41994628853E+03  0.00000000000E+00 0.  1.
         11    1    1    2    0    0  0.24797128433E+00  0.80391971449E+01 -0.39531257951E+03  0.39539439260E+03  0.00000000000E+00 0. -1.
        -15    1    1    2    0    0 -0.13733422967E+02 -0.12128072006E+02  0.78935153015E+02  0.81053150139E+02  0.17770000000E+01 0.  1.
         15    1    1    2    0    0 -0.13974680991E+02 -0.10336613925E+01 -0.10263878558E+03  0.10360616873E+03  0.17770000000E+01 0. -1.
</event>
<event>
 6    1  0.1782050E-003  0.5036011E+03  0.7546771E-02  0.9391788E-01
        -11   -1    0    0    0    0  0.00000000000E+00  0.00000000000E+00  0.50000000000E+03  0.50000000000E+03  0.00000000000E+00 0. -1.
         11   -1    0    0    0    0 -0.00000000000E+00 -0.00000000000E+00 -0.50000000000E+03  0.50000000000E+03  0.00000000000E+00 0.  1.
        -11    1    1    2    0    0 -0.23073014900E+01  0.77481856709E+01  0.49633305168E+03  0.49639888821E+03  0.00000000000E+00 0. -1.
         11    1    1    2    0    0  0.72515435815E+01  0.45057640169E+01 -0.46426537348E+03  0.46434386375E+03  0.00000000000E+00 0.  1.
        -15    1    1    2    0    0 -0.15058805485E+00 -0.84082393923E+01 -0.24231875099E+01  0.89303265981E+01  0.17770000000E+01 0. -1.
         15    1    1    2    0    0 -0.47936540366E+01 -0.38457102955E+01 -0.29644490695E+02  0.30326921444E+02  0.17770000000E+01 0.  1.
</event>
<event>
 6    1  0.1782050E-003  0.5058828E+03  0.7546771E-02  0.9386742E-01
        -11   -1    0    0    0    0  0.00000000000E+00  0.00000000000E+00  0.50000000000E+03  0.50000000000E+03  0.00000000000E+00 0. -1.
         11   -1    0    0    0    0 -0.00000000000E+00 -0.00000000000E+00 -0.50000000000E+03  0.50000000000E+03  0.00000000000E+00 0.  1.
        -11    1    1    2    0    0 -0.76236174079E+01 -0.23930726493E+01  0.49405258306E+03  0.49411719376E+03  0.00000000000E+00 0. -1.
         11    1    1    2    0    0  0.18926336113E+01 -0.91396482142E+01 -0.44168893098E+03  0.44178753602E+03  0.00000000000E+00 0.  1.
        -15    1    1    2    0    0 -0.12010845343E+01  0.39736318790E+01 -0.53440134748E+02  0.53630570436E+02  0.17770000000E+01 0.  1.
         15    1    1    2    0    0  0.69320683308E+01  0.75590889844E+01  0.10764826697E+01  0.10464699783E+02  0.17770000000E+01 0. -1.
</event>
<event>
 6    1  0.1782050E-003  0.5012145E+03  0.7546771E-02  0.9397096E-01
        -11   -1    0    0    0    0  0.00000000000E+00  0.00000000000E+00  0.50000000000E+03  0.50000000000E+03  0.00000000000E+00 0. -1.
         11   -1    0    0    0    0 -0.00000000000E+00 -0.00000000000E+00 -0.50000000000E+03  0.50000000000E+03  0.00000000000E+00 0.  1.
        -11    1    1    2    0    0  0.19081753531E+02  0.14950948321E+02  0.49819606763E+03  0.49878549095E+03  0.00000000000E+00 0. -1.
         11    1    1    2    0    0  0.76093566355E+00  0.99011456718E+01 -0.27077723426E+03  0.27095926318E+03  0.00000000000E+00 0.  1.
        -15    1    1    2    0    0 -0.38029334947E+01 -0.77238664087E+01 -0.25563952309E+02  0.27033198148E+02  0.17770000000E+01 0.  1.
         15    1    1    2    0    0 -0.16039755700E+02 -0.17128227585E+02 -0.20185488107E+03  0.20322204773E+03  0.17770000000E+01 0. -1.
</event>
<event>
 6    1  0.1782050E-003  0.5007960E+03  0.7546771E-02  0.9398030E-01
        -11   -1    0    0    0    0  0.00000000000E+00  0.00000000000E+00  0.50000000000E+03  0.50000000000E+03  0.00000000000E+00 0. -1.
         11   -1    0    0    0    0 -0.00000000000E+00 -0.00000000000E+00 -0.50000000000E+03  0.50000000000E+03  0.00000000000E+00 0. -1.
        -11    1    1    2    0    0  0.22857609578E+01  0.46217084892E+01  0.32775445714E+03  0.32779501074E+03  0.00000000000E+00 0. -1.
         11    1    1    2    0    0 -0.17962724353E+00 -0.84614809917E+01 -0.49913223518E+03  0.49920398348E+03  0.00000000000E+00 0. -1.
        -15    1    1    2    0    0 -0.46186172812E+01  0.63685436493E+01  0.16653701755E+03  0.16673219821E+03  0.17770000000E+01 0.  1.
         15    1    1    2    0    0  0.25124835669E+01 -0.25287711468E+01  0.48407604894E+01  0.62688075663E+01  0.17770000000E+01 0. -1.
</event>
<event>
 6    1  0.1782050E-003  0.4947627E+03  0.7546771E-02  0.9411605E-01
        -11   -1    0    0    0    0  0.00000000000E+00  0.00000000000E+00  0.50000000000E+03  0.50000000000E+03  0.00000000000E+00 0. -1.
         11   -1    0    0    0    0 -0.00000000000E+00 -0.00000000000E+00 -0.50000000000E+03  0.50000000000E+03  0.00000000000E+00 0. -1.
        -11    1    1    2    0    0  0.27609161609E+00  0.45161267808E+00  0.15827573020E+02  0.15836421575E+02  0.00000000000E+00 0. -1.
         11    1    1    2    0    0 -0.11835113472E+01  0.77608635497E+01 -0.49714001979E+03  0.49720200218E+03  0.00000000000E+00 0. -1.
        -15    1    1    2    0    0  0.31006305425E+02  0.40062672587E+01  0.36010536632E+03  0.36146434643E+03  0.17770000000E+01 0. -1.
         15    1    1    2    0    0 -0.30098885694E+02 -0.12218743486E+02  0.12120708044E+03  0.12549722981E+03  0.17770000000E+01 0.  1.
</event>
<event>
 6    1  0.1782050E-003  0.4746600E+03  0.7546771E-02  0.9458366E-01
        -11   -1    0    0    0    0  0.00000000000E+00  0.00000000000E+00  0.50000000000E+03  0.50000000000E+03  0.00000000000E+00 0. -1.
         11   -1    0    0    0    0 -0.00000000000E+00 -0.00000000000E+00 -0.50000000000E+03  0.50000000000E+03  0.00000000000E+00 0. -1.
        -11    1    1    2    0    0 -0.50445416417E+01  0.99348004536E+01  0.47508014586E+03  0.47521078760E+03  0.00000000000E+00 0. -1.
         11    1    1    2    0    0  0.56289331905E+01 -0.48185514027E+01 -0.47406585159E+03  0.47412375491E+03  0.00000000000E+00 0. -1.
        -15    1    1    2    0    0 -0.86404411264E+00 -0.29748429011E+01 -0.25636942487E+02  0.25884489788E+02  0.17770000000E+01 0. -1.
         15    1    1    2    0    0  0.27965256387E+00 -0.21414061498E+01  0.24622648218E+02  0.24780967699E+02  0.17770000000E+01 0.  1.
</event>
<event>
 6    1  0.1782050E-003  0.5034718E+03  0.7546771E-02  0.9392075E-01
        -11   -1    0    0    0    0  0.00000000000E+00  0.00000000000E+00  0.50000000000E+03  0.50000000000E+03  0.00000000000E+00 0.  1.
         11   -1    0    0    0    0 -0.00000000000E+00 -0.00000000000E+00 -0.50000000000E+03  0.50000000000E+03  0.00000000000E+00 0. -1.
        -11    1    1    2    0    0  0.50350896484E+01  0.29012016235E+01  0.29695390078E+03  0.29701075450E+03  0.00000000000E+00 0.  1.
         11    1    1    2    0    0 -0.22089865842E+00  0.12204936815E+02 -0.49637807906E+03  0.49652815292E+03  0.00000000000E+00 0. -1.
        -15    1    1    2    0    0 -0.20176347144E+01 -0.18954995030E+02  0.22833788555E+02  0.29797689763E+02  0.17770000000E+01 0.  1.
         15    1    1    2    0    0 -0.27965562755E+01  0.38488565913E+01  0.17659038972E+03  0.17666340282E+03  0.17770000000E+01 0. -1.
</event>
<event>
 6    1  0.1782050E-003  0.5022448E+03  0.7546771E-02  0.9394801E-01
        -11   -1    0    0    0    0  0.00000000000E+00  0.00000000000E+00  0.50000000000E+03  0.50000000000E+03  0.00000000000E+00 0. -1.
         11   -1    0    0    0    0 -0.00000000000E+00 -0.00000000000E+00 -0.50000000000E+03  0.50000000000E+03  0.00000000000E+00 0.  1.
        -11    1    1    2    0    0  0.44074233960E+01  0.95117296069E+01  0.11782055690E+03  0.11828601781E+03  0.00000000000E+00 0. -1.
         11    1    1    2    0    0  0.25682240038E+01  0.13402108693E+02 -0.49756810690E+03  0.49775519414E+03  0.00000000000E+00 0.  1.
        -15    1    1    2    0    0 -0.89359601527E+01  0.84156623282E+00  0.31171956374E+03  0.31185381794E+03  0.17770000000E+01 0. -1.
         15    1    1    2    0    0  0.19603127528E+01 -0.23755404532E+02  0.68027986262E+02  0.72104970109E+02  0.17770000000E+01 0.  1.
</event>
<event>
 6    1  0.1782050E-003  0.5007811E+03  0.7546771E-02  0.9398064E-01
        -11   -1    0    0    0    0  0.00000000000E+00  0.00000000000E+00  0.50000000000E+03  0.50000000000E+03  0.00000000000E+00 0.  1.
         11   -1    0    0    0    0 -0.00000000000E+00 -0.00000000000E+00 -0.50000000000E+03  0.50000000000E+03  0.00000000000E+00 0. -1.
        -11    1    1    2    0    0 -0.10098215531E+02 -0.19462385343E+02  0.49873710820E+03  0.49921885130E+03  0.00000000000E+00 0.  1.
         11    1    1    2    0    0 -0.11269764638E+02  0.76193228863E+01 -0.19460160413E+03  0.19507651321E+03  0.00000000000E+00 0. -1.
        -15    1    1    2    0    0  0.75726737686E+01 -0.18107224429E+01 -0.36655211391E+02  0.37515148339E+02  0.17770000000E+01 0.  1.
         15    1    1    2    0    0  0.13795306400E+02  0.13653784900E+02 -0.26748029268E+03  0.26818948716E+03  0.17770000000E+01 0. -1.
</event>
<event>
 6    1  0.1782050E-003  0.5004095E+03  0.7546771E-02  0.9398894E-01
        -11   -1    0    0    0    0  0.00000000000E+00  0.00000000000E+00  0.50000000000E+03  0.50000000000E+03  0.00000000000E+00 0.  1.
         11   -1    0    0    0    0 -0.00000000000E+00 -0.00000000000E+00 -0.50000000000E+03  0.50000000000E+03  0.00000000000E+00 0. -1.
        -11    1    1    2    0    0 -0.79780993163E+01  0.58116947840E+01  0.49949302007E+03  0.49959053530E+03  0.00000000000E+00 0.  1.
         11    1    1    2    0    0 -0.34274639413E+01 -0.22496136714E+01 -0.20535985507E+03  0.20540077494E+03  0.00000000000E+00 0. -1.
        -15    1    1    2    0    0 -0.25538665785E+00  0.26783677925E+01 -0.89435392265E+01  0.95070236811E+01  0.17770000000E+01 0. -1.
         15    1    1    2    0    0  0.11660949915E+02 -0.62404489050E+01 -0.28518962578E+03  0.28550166608E+03  0.17770000000E+01 0.  1.
</event>
<event>
 6    1  0.1782050E-003  0.5208294E+03  0.7546771E-02  0.9354372E-01
        -11   -1    0    0    0    0  0.00000000000E+00  0.00000000000E+00  0.50000000000E+03  0.50000000000E+03  0.00000000000E+00 0. -1.
         11   -1    0    0    0    0 -0.00000000000E+00 -0.00000000000E+00 -0.50000000000E+03  0.50000000000E+03  0.00000000000E+00 0.  1.
        -11    1    1    2    0    0 -0.15558868485E+02 -0.16577037546E+01  0.47891506877E+03  0.47917060581E+03  0.00000000000E+00 0. -1.
         11    1    1    2    0    0  0.75415868193E+01 -0.22405906218E+01 -0.45801086730E+03  0.45807843253E+03  0.00000000000E+00 0.  1.
        -15    1    1    2    0    0 -0.12185227984E+02  0.17368876489E+02 -0.29977124321E+02  0.36768782453E+02  0.17770000000E+01 0.  1.
         15    1    1    2    0    0  0.20202509650E+02 -0.13470582113E+02  0.90729228502E+01  0.25982179213E+02  0.17770000000E+01 0. -1.
</event>
<event>
 6    1  0.1782050E-003  0.5021263E+03  0.7546771E-02  0.9395064E-01
        -11   -1    0    0    0    0  0.00000000000E+00  0.00000000000E+00  0.50000000000E+03  0.50000000000E+03  0.00000000000E+00 0.  1.
         11   -1    0    0    0    0 -0.00000000000E+00 -0.00000000000E+00 -0.50000000000E+03  0.50000000000E+03  0.00000000000E+00 0.  1.
        -11    1    1    2    0    0 -0.86650001759E+01  0.15982526930E+02  0.49754165727E+03  0.49787370297E+03  0.00000000000E+00 0.  1.
         11    1    1    2    0    0 -0.58701814658E+01 -0.15680336589E+02 -0.44110521368E+03  0.44142286022E+03  0.00000000000E+00 0.  1.
        -15    1    1    2    0    0  0.31530151039E+01  0.10005956140E+01 -0.75800413191E+00  0.38307956213E+01  0.17770000000E+01 0. -1.
         15    1    1    2    0    0  0.11382166538E+02 -0.13027859551E+01 -0.55678439457E+02  0.56872641188E+02  0.17770000000E+01 0.  1.
</event>
<event>
 6    1  0.1782050E-003  0.5047166E+03  0.7546771E-02  0.9389317E-01
        -11   -1    0    0    0    0  0.00000000000E+00  0.00000000000E+00  0.50000000000E+03  0.50000000000E+03  0.00000000000E+00 0. -1.
         11   -1    0    0    0    0 -0.00000000000E+00 -0.00000000000E+00 -0.50000000000E+03  0.50000000000E+03  0.00000000000E+00 0. -1.
        -11    1    1    2    0    0  0.31162589712E+01 -0.59550757439E+01  0.45474161958E+03  0.45479128683E+03  0.00000000000E+00 0. -1.
         11    1    1    2    0    0  0.83821392780E+01 -0.13078531974E+01 -0.49521077289E+03  0.49528343433E+03  0.00000000000E+00 0. -1.
        -15    1    1    2    0    0 -0.13641236145E+02  0.41756750047E+00  0.66077187578E+01  0.15266871401E+02  0.17770000000E+01 0.  1.
         15    1    1    2    0    0  0.21428378959E+01  0.68453614408E+01  0.33861434551E+02  0.34658407442E+02  0.17770000000E+01 0. -1.
</event>
<event>
 6    1  0.1782050E-003  0.5018356E+03  0.7546771E-02  0.9395712E-01
        -11   -1    0    0    0    0  0.00000000000E+00  0.00000000000E+00  0.50000000000E+03  0.50000000000E+03  0.00000000000E+00 0.  1.
         11   -1    0    0    0    0 -0.00000000000E+00 -0.00000000000E+00 -0.50000000000E+03  0.50000000000E+03  0.00000000000E+00 0. -1.
        -11    1    1    2    0    0 -0.10978079501E+02 -0.31169300284E+01  0.49803370049E+03  0.49816443099E+03  0.00000000000E+00 0.  1.
         11    1    1    2    0    0  0.48210281792E+01 -0.50009559221E+01 -0.21542779156E+03  0.21553975329E+03  0.00000000000E+00 0. -1.
        -15    1    1    2    0    0  0.19448263524E+02  0.12090523421E+01 -0.58555205135E+02  0.61737885768E+02  0.17770000000E+01 0.  1.
         15    1    1    2    0    0 -0.13291212202E+02  0.69088336084E+01 -0.22405070379E+03  0.22455792995E+03  0.17770000000E+01 0. -1.
</event>
<event>
 6    1  0.1782050E-003  0.5001072E+03  0.7546771E-02  0.9399570E-01
        -11   -1    0    0    0    0  0.00000000000E+00  0.00000000000E+00  0.50000000000E+03  0.50000000000E+03  0.00000000000E+00 0. -1.
         11   -1    0    0    0    0 -0.00000000000E+00 -0.00000000000E+00 -0.50000000000E+03  0.50000000000E+03  0.00000000000E+00 0. -1.
        -11    1    1    2    0    0  0.14697477396E+01 -0.19102724624E+01  0.41276628179E+02  0.41346938619E+02  0.00000000000E+00 0. -1.
         11    1    1    2    0    0  0.21388767675E+00 -0.82998190017E+01 -0.49982384560E+03  0.49989279788E+03  0.00000000000E+00 0. -1.
        -15    1    1    2    0    0  0.33758548134E+00  0.99480238989E+01  0.41836527596E+03  0.41848744187E+03  0.17770000000E+01 0. -1.
         15    1    1    2    0    0 -0.20212208977E+01  0.26206756527E+00  0.40181941461E+02  0.40272821628E+02  0.17770000000E+01 0.  1.
</event>
<event>
 6    1  0.1782050E-003  0.5003097E+03  0.7546771E-02  0.9399117E-01
        -11   -1    0    0    0    0  0.00000000000E+00  0.00000000000E+00  0.50000000000E+03  0.50000000000E+03  0.00000000000E+00 0.  1.
         11   -1    0    0    0    0 -0.00000000000E+00 -0.00000000000E+00 -0.50000000000E+03  0.50000000000E+03  0.00000000000E+00 0. -1.
        -11    1    1    2    0    0  0.13686579077E+01  0.84308028220E+01  0.38693032518E+03  0.38702458346E+03  0.00000000000E+00 0.  1.
         11    1    1    2    0    0 -0.64857186369E+01 -0.33111905316E+01 -0.49963720643E+03  0.49969027064E+03  0.00000000000E+00 0. -1.
        -15    1    1    2    0    0  0.43639966076E+01  0.44088244098E+00  0.30196844194E+02  0.30565437540E+02  0.17770000000E+01 0.  1.
         15    1    1    2    0    0  0.75306412157E+00 -0.55604947313E+01  0.82510037055E+02  0.82719708360E+02  0.17770000000E+01 0. -1.
</event>
<event>
 6    1  0.1782050E-003  0.5029272E+03  0.7546771E-02  0.9393284E-01
        -11   -1    0    0    0    0  0.00000000000E+00  0.00000000000E+00  0.50000000000E+03  0.50000000000E+03  0.00000000000E+00 0.  1.
         11   -1    0    0    0    0 -0.00000000000E+00 -0.00000000000E+00 -0.50000000000E+03  0.50000000000E+03  0.00000000000E+00 0.  1.
        -11    1    1    2    0    0  0.93916878955E+01  0.52711688969E+01  0.32262705669E+03  0.32280676376E+03  0.00000000000E+00 0.  1.
         11    1    1    2    0    0 -0.57157688122E+01  0.76672495895E+01 -0.49698080642E+03  0.49707281023E+03  0.00000000000E+00 0.  1.
        -15    1    1    2    0    0 -0.62209533544E+01 -0.94417673806E+00  0.16355433825E+03  0.16368497494E+03  0.17770000000E+01 0. -1.
         15    1    1    2    0    0  0.25450342712E+01 -0.11994241748E+02  0.10799411479E+02  0.16435451069E+02  0.17770000000E+01 0.  1.
</event>
<event>
 6    1  0.1782050E-003  0.5337542E+03  0.7546771E-02  0.9327296E-01
        -11   -1    0    0    0    0  0.00000000000E+00  0.00000000000E+00  0.50000000000E+03  0.50000000000E+03  0.00000000000E+00 0.  1.
         11   -1    0    0    0    0 -0.00000000000E+00 -0.00000000000E+00 -0.50000000000E+03  0.50000000000E+03  0.00000000000E+00 0.  1.
        -11    1    1    2    0    0  0.21682646459E+02 -0.80814295386E+01  0.43718764579E+03  0.43779959375E+03  0.00000000000E+00 0.  1.
         11    1    1    2    0    0 -0.11242399823E+01 -0.10103329740E+02 -0.46613492265E+03  0.46624575848E+03  0.00000000000E+00 0.  1.
        -15    1    1    2    0    0 -0.82611643318E+01  0.51263873768E+02  0.31101809847E+02  0.60553380538E+02  0.17770000000E+01 0.  1.
         15    1    1    2    0    0 -0.12297242145E+02 -0.33079114489E+02 -0.21545329850E+01  0.35401267225E+02  0.17770000000E+01 0. -1.
</event>
<event>
 6    1  0.1782050E-003  0.5007859E+03  0.7546771E-02  0.9398053E-01
        -11   -1    0    0    0    0  0.00000000000E+00  0.00000000000E+00  0.50000000000E+03  0.50000000000E+03  0.00000000000E+00 0.  1.
         11   -1    0    0    0    0 -0.00000000000E+00 -0.00000000000E+00 -0.50000000000E+03  0.50000000000E+03  0.00000000000E+00 0. -1.
        -11    1    1    2    0    0  0.67705632796E+01  0.82012047558E+01  0.49910084644E+03  0.49921413763E+03  0.00000000000E+00 0.  1.
         11    1    1    2    0    0 -0.89321533721E+00 -0.10600605208E+01 -0.85848689352E+02  0.85859880185E+02  0.00000000000E+00 0. -1.
        -15    1    1    2    0    0 -0.16414174337E+02 -0.10074781769E+02 -0.12746198849E+03  0.12892107114E+03  0.17770000000E+01 0.  1.
         15    1    1    2    0    0  0.10536826395E+02  0.29336375344E+01 -0.28579016861E+03  0.28600491104E+03  0.17770000000E+01 0. -1.
</event>
<event>
 6    1  0.1782050E-003  0.5011331E+03  0.7546771E-02  0.9397278E-01
        -11   -1    0    0    0    0  0.00000000000E+00  0.00000000000E+00  0.50000000000E+03  0.50000000000E+03  0.00000000000E+00 0.  1.
         11   -1    0    0    0    0 -0.00000000000E+00 -0.00000000000E+00 -0.50000000000E+03  0.50000000000E+03  0.00000000000E+00 0. -1.
        -11    1    1    2    0    0  0.84498369241E+01 -0.19215004062E+01  0.52502785097E+02  0.53213103187E+02  0.00000000000E+00 0.  1.
         11    1    1    2    0    0 -0.36497301474E+01  0.75652388200E+01 -0.49879618548E+03  0.49886690411E+03  0.00000000000E+00 0. -1.
        -15    1    1    2    0    0 -0.82185701520E+01 -0.11511486897E+02  0.42926328654E+03  0.42949992564E+03  0.17770000000E+01 0.  1.
         15    1    1    2    0    0  0.34184633753E+01  0.58677484828E+01  0.17030113847E+02  0.18420067067E+02  0.17770000000E+01 0. -1.
</event>
<event>
 6    1  0.1782050E-003  0.5083281E+03  0.7546771E-02  0.9381365E-01
        -11   -1    0    0    0    0  0.00000000000E+00  0.00000000000E+00  0.50000000000E+03  0.50000000000E+03  0.00000000000E+00 0. -1.
         11   -1    0    0    0    0 -0.00000000000E+00 -0.00000000000E+00 -0.50000000000E+03  0.50000000000E+03  0.00000000000E+00 0. -1.
        -11    1    1    2    0    0 -0.95584206361E+01  0.15037468499E+01  0.47142443124E+03  0.47152372053E+03  0.00000000000E+00 0. -1.
         11    1    1    2    0    0 -0.68337063056E+01 -0.11646128335E+02 -0.49148644727E+03  0.49167190249E+03  0.00000000000E+00 0. -1.
        -15    1    1    2    0    0  0.27769455050E+01 -0.57511895083E+00 -0.51612758308E+01  0.61513157412E+01  0.17770000000E+01 0. -1.
         15    1    1    2    0    0  0.13615181437E+02  0.10717500436E+02  0.25223291869E+02  0.30653061231E+02  0.17770000000E+01 0.  1.
</event>
<event>
 6    1  0.1782050E-003  0.5006007E+03  0.7546771E-02  0.9398467E-01
        -11   -1    0    0    0    0  0.00000000000E+00  0.00000000000E+00  0.50000000000E+03  0.50000000000E+03  0.00000000000E+00 0. -1.
         11   -1    0    0    0    0 -0.00000000000E+00 -0.00000000000E+00 -0.50000000000E+03  0.50000000000E+03  0.00000000000E+00 0. -1.
        -11    1    1    2    0    0  0.38073706129E+01  0.60112620354E+01  0.44074418894E+03  0.44080162366E+03  0.00000000000E+00 0. -1.
         11    1    1    2    0    0 -0.25781221597E+01 -0.85642451239E+01 -0.49931919603E+03  0.49939929168E+03  0.00000000000E+00 0. -1.
        -15    1    1    2    0    0 -0.61111507675E+01  0.86940898291E+00  0.26865193402E+02  0.27622425332E+02  0.17770000000E+01 0.  1.
         15    1    1    2    0    0  0.48819023143E+01  0.16835741055E+01  0.31709813689E+02  0.32176659323E+02  0.17770000000E+01 0. -1.
</event>
<event>
 6    1  0.1782050E-003  0.5069727E+03  0.7546771E-02  0.9384342E-01
        -11   -1    0    0    0    0  0.00000000000E+00  0.00000000000E+00  0.50000000000E+03  0.50000000000E+03  0.00000000000E+00 0.  1.
         11   -1    0    0    0    0 -0.00000000000E+00 -0.00000000000E+00 -0.50000000000E+03  0.50000000000E+03  0.00000000000E+00 0.  1.
        -11    1    1    2    0    0 -0.16918782747E+02 -0.65079803804E+01  0.27030864625E+03  0.27091578628E+03  0.00000000000E+00 0.  1.
         11    1    1    2    0    0 -0.25251041001E+01 -0.76545375120E+01 -0.49296145580E+03  0.49302734711E+03  0.00000000000E+00 0.  1.
        -15    1    1    2    0    0  0.16430444235E+02 -0.49157496200E+01  0.21420981750E+03  0.21490260057E+03  0.17770000000E+01 0.  1.
         15    1    1    2    0    0  0.30134426125E+01  0.19078267512E+02  0.84429920560E+01  0.21154266036E+02  0.17770000000E+01 0. -1.
</event>
<event>
 6    1  0.1782050E-003  0.4915495E+03  0.7546771E-02  0.9418919E-01
        -11   -1    0    0    0    0  0.00000000000E+00  0.00000000000E+00  0.50000000000E+03  0.50000000000E+03  0.00000000000E+00 0. -1.
         11   -1    0    0    0    0 -0.00000000000E+00 -0.00000000000E+00 -0.50000000000E+03  0.50000000000E+03  0.00000000000E+00 0. -1.
        -11    1    1    2    0    0  0.75360623185E+01 -0.13611290855E+01  0.49282317171E+03  0.49288266705E+03  0.00000000000E+00 0. -1.
         11    1    1    2    0    0  0.63467258216E+01 -0.31114241224E+01 -0.49027684140E+03  0.49032779148E+03  0.00000000000E+00 0. -1.
        -15    1    1    2    0    0 -0.13082544458E+02  0.56013696680E+01 -0.22748043687E+01  0.14521045953E+02  0.17770000000E+01 0. -1.
         15    1    1    2    0    0 -0.80024368183E+00 -0.11288164601E+01 -0.27152594128E+00  0.22684955119E+01  0.17770000000E+01 0.  1.
</event>
<event>
 6    1  0.1782050E-003  0.5103263E+03  0.7546771E-02  0.9376996E-01
        -11   -1    0    0    0    0  0.00000000000E+00  0.00000000000E+00  0.50000000000E+03  0.50000000000E+03  0.00000000000E+00 0. -1.
         11   -1    0    0    0    0 -0.00000000000E+00 -0.00000000000E+00 -0.50000000000E+03  0.50000000000E+03  0.00000000000E+00 0.  1.
        -11    1    1    2    0    0  0.68957877446E+01 -0.26318423870E+01  0.45597992573E+03  0.45603965962E+03  0.00000000000E+00 0. -1.
         11    1    1    2    0    0 -0.94632639631E+01 -0.49682741981E+01 -0.48955702876E+03  0.48967368882E+03  0.00000000000E+00 0.  1.
        -15    1    1    2    0    0 -0.80203637541E+01 -0.11266603695E+02 -0.42065220656E+00  0.13949812574E+02  0.17770000000E+01 0. -1.
         15    1    1    2    0    0  0.10587839973E+02  0.18866720280E+02  0.33997755235E+02  0.40336838986E+02  0.17770000000E+01 0.  1.
</event>
<event>
 6    1  0.1782050E-003  0.4834527E+03  0.7546771E-02  0.9437616E-01
        -11   -1    0    0    0    0  0.00000000000E+00  0.00000000000E+00  0.50000000000E+03  0.50000000000E+03  0.00000000000E+00 0. -1.
         11   -1    0    0    0    0 -0.00000000000E+00 -0.00000000000E+00 -0.50000000000E+03  0.50000000000E+03  0.00000000000E+00 0. -1.
        -11    1    1    2    0    0  0.26202014039E+02  0.25621777600E+01  0.48320862037E+03  0.48392528462E+03  0.00000000000E+00 0. -1.
         11    1    1    2    0    0  0.16825530845E+01 -0.91919311535E+01 -0.48331443281E+03  0.48340476161E+03  0.00000000000E+00 0. -1.
        -15    1    1    2    0    0 -0.31060717219E+01  0.53275980056E+01 -0.38456649038E+01  0.74818346415E+01  0.17770000000E+01 0. -1.
         15    1    1    2    0    0 -0.24778495402E+02  0.13021553880E+01  0.39514773423E+01  0.25188119128E+02  0.17770000000E+01 0.  1.
</event>
<event>
 6    1  0.1782050E-003  0.4756540E+03  0.7546771E-02  0.9455997E-01
        -11   -1    0    0    0    0  0.00000000000E+00  0.00000000000E+00  0.50000000000E+03  0.50000000000E+03  0.00000000000E+00 0. -1.
         11   -1    0    0    0    0 -0.00000000000E+00 -0.00000000000E+00 -0.50000000000E+03  0.50000000000E+03  0.00000000000E+00 0. -1.
        -11    1    1    2    0    0 -0.32270709404E+01 -0.15464337289E+02  0.48638547782E+03  0.48664195540E+03  0.00000000000E+00 0. -1.
         11    1    1    2    0    0 -0.26413612864E+02 -0.81014014011E+01 -0.46484271259E+03  0.46566303171E+03  0.00000000000E+00 0. -1.
        -15    1    1    2    0    0  0.16404039149E+02  0.42079849504E+01 -0.16358231047E+02  0.23612477416E+02  0.17770000000E+01 0.  1.
         15    1    1    2    0    0  0.13236644656E+02  0.19357753739E+02 -0.51845341850E+01  0.24082535483E+02  0.17770000000E+01 0. -1.
</event>
<event>
 6    1  0.1782050E-003  0.5022078E+03  0.7546771E-02  0.9394883E-01
        -11   -1    0    0    0    0  0.00000000000E+00  0.00000000000E+00  0.50000000000E+03  0.50000000000E+03  0.00000000000E+00 0.  1.
         11   -1    0    0    0    0 -0.00000000000E+00 -0.00000000000E+00 -0.50000000000E+03  0.50000000000E+03  0.00000000000E+00 0.  1.
        -11    1    1    2    0    0  0.76712383251E+01 -0.13582963532E+02  0.25440234670E+03  0.25488016557E+03  0.00000000000E+00 0.  1.
         11    1    1    2    0    0 -0.10063988295E+02 -0.70005335292E+01 -0.49764123050E+03  0.49779221129E+03  0.00000000000E+00 0.  1.
        -15    1    1    2    0    0 -0.92423009672E+00  0.30521710209E+02  0.21482362294E+03  0.21699026637E+03  0.17770000000E+01 0.  1.
         15    1    1    2    0    0  0.33169800668E+01 -0.99382131476E+01  0.28415260853E+02  0.30337356768E+02  0.17770000000E+01 0. -1.
</event>
<event>
 6    1  0.1782050E-003  0.5082062E+03  0.7546771E-02  0.9381633E-01
        -11   -1    0    0    0    0  0.00000000000E+00  0.00000000000E+00  0.50000000000E+03  0.50000000000E+03  0.00000000000E+00 0.  1.
         11   -1    0    0    0    0 -0.00000000000E+00 -0.00000000000E+00 -0.50000000000E+03  0.50000000000E+03  0.00000000000E+00 0.  1.
        -11    1    1    2    0    0  0.39035522056E+00  0.70621880571E+01  0.44849298685E+03  0.44854875558E+03  0.00000000000E+00 0.  1.
         11    1    1    2    0    0 -0.11325058239E+02  0.68881713628E+01 -0.49161516076E+03  0.49179382889E+03  0.00000000000E+00 0.  1.
        -15    1    1    2    0    0 -0.57658176566E+01  0.51779871416E+00 -0.42209797256E+01  0.73815423593E+01  0.17770000000E+01 0.  1.
         15    1    1    2    0    0  0.16700520675E+02 -0.14468158134E+02  0.47343153634E+02  0.52275873169E+02  0.17770000000E+01 0. -1.
</event>
<event>
 6    1  0.1782050E-003  0.5117663E+03  0.7546771E-02  0.9373860E-01
        -11   -1    0    0    0    0  0.00000000000E+00  0.00000000000E+00  0.50000000000E+03  0.50000000000E+03  0.00000000000E+00 0. -1.
         11   -1    0    0    0    0 -0.00000000000E+00 -0.00000000000E+00 -0.50000000000E+03  0.50000000000E+03  0.00000000000E+00 0. -1.
        -11    1    1    2    0    0 -0.10934258725E+01  0.58672330275E+01  0.33547721532E+03  0.33553029968E+03  0.00000000000E+00 0. -1.
         11    1    1    2    0    0 -0.79848163576E+01  0.27343320746E+01 -0.48816070619E+03  0.48823366223E+03  0.00000000000E+00 0. -1.
        -15    1    1    2    0    0  0.43639126240E+02  0.99440095240E+01  0.10700770362E+03  0.11600458193E+03  0.17770000000E+01 0. -1.
         15    1    1    2    0    0 -0.34560884010E+02 -0.18545574626E+02  0.45675787252E+02  0.60231456166E+02  0.17770000000E+01 0.  1.
</event>
<event>
 6    1  0.1782050E-003  0.5025828E+03  0.7546771E-02  0.9394049E-01
        -11   -1    0    0    0    0  0.00000000000E+00  0.00000000000E+00  0.50000000000E+03  0.50000000000E+03  0.00000000000E+00 0. -1.
         11   -1    0    0    0    0 -0.00000000000E+00 -0.00000000000E+00 -0.50000000000E+03  0.50000000000E+03  0.00000000000E+00 0.  1.
        -11    1    1    2    0    0  0.62904796031E+01 -0.11186890996E+01  0.36399890367E+03  0.36405497315E+03  0.00000000000E+00 0. -1.
         11    1    1    2    0    0  0.45941637808E+01  0.12346715651E+02 -0.49724271353E+03  0.49741719299E+03  0.00000000000E+00 0.  1.
        -15    1    1    2    0    0  0.79850721238E+01  0.11635298841E+01  0.83079400579E+02  0.83489279002E+02  0.17770000000E+01 0.  1.
         15    1    1    2    0    0 -0.18869715508E+02 -0.12391556436E+02  0.50164409272E+02  0.55038554858E+02  0.17770000000E+01 0. -1.
</event>
<event>
 6    1  0.1782050E-003  0.5023127E+03  0.7546771E-02  0.9394650E-01
        -11   -1    0    0    0    0  0.00000000000E+00  0.00000000000E+00  0.50000000000E+03  0.50000000000E+03  0.00000000000E+00 0. -1.
         11   -1    0    0    0    0 -0.00000000000E+00 -0.00000000000E+00 -0.50000000000E+03  0.50000000000E+03  0.00000000000E+00 0. -1.
        -11    1    1    2    0    0  0.92500216859E+01  0.14845515355E+02  0.37154586270E+03  0.37195736357E+03  0.00000000000E+00 0. -1.
         11    1    1    2    0    0  0.78166654833E+01 -0.27453771336E+01 -0.49761829958E+03  0.49768726067E+03  0.00000000000E+00 0. -1.
        -15    1    1    2    0    0 -0.22602300478E+02 -0.38358949974E+01  0.84521634710E+02  0.87593621573E+02  0.17770000000E+01 0.  1.
         15    1    1    2    0    0  0.55356133087E+01 -0.82642432239E+01  0.41550802176E+02  0.42761754188E+02  0.17770000000E+01 0. -1.
</event>
<event>
 6    1  0.1782050E-003  0.5031436E+03  0.7546771E-02  0.9392803E-01
        -11   -1    0    0    0    0  0.00000000000E+00  0.00000000000E+00  0.50000000000E+03  0.50000000000E+03  0.00000000000E+00 0.  1.
         11   -1    0    0    0    0 -0.00000000000E+00 -0.00000000000E+00 -0.50000000000E+03  0.50000000000E+03  0.00000000000E+00 0.  1.
        -11    1    1    2    0    0  0.84244512386E+01 -0.36790972972E+01  0.44354599981E+03  0.44364125268E+03  0.00000000000E+00 0.  1.
         11    1    1    2    0    0  0.80574721582E+01 -0.26592608286E+01 -0.49678397096E+03  0.49685642628E+03  0.00000000000E+00 0.  1.
        -15    1    1    2    0    0 -0.13288229376E+02  0.44842806289E+01  0.53557433736E+02  0.55391716440E+02  0.17770000000E+01 0.  1.
         15    1    1    2    0    0 -0.31936940206E+01  0.18540774969E+01 -0.31946258158E+00  0.41106046031E+01  0.17770000000E+01 0. -1.
</event>
<event>
 6    1  0.1782050E-003  0.5015157E+03  0.7546771E-02  0.9396425E-01
        -11   -1    0    0    0    0  0.00000000000E+00  0.00000000000E+00  0.50000000000E+03  0.50000000000E+03  0.00000000000E+00 0.  1.
         11   -1    0    0    0    0 -0.00000000000E+00 -0.00000000000E+00 -0.50000000000E+03  0.50000000000E+03  0.00000000000E+00 0. -1.
        -11    1    1    2    0    0 -0.62696315683E+01 -0.58566743546E+01  0.49841047401E+03  0.49848431220E+03  0.00000000000E+00 0.  1.
         11    1    1    2    0    0  0.23513679145E+01 -0.12955622186E+02 -0.42969931168E+03  0.42990100667E+03  0.00000000000E+00 0. -1.
        -15    1    1    2    0    0  0.22660438215E+01  0.43080232140E+01 -0.12984803506E+02  0.13980589032E+02  0.17770000000E+01 0.  1.
         15    1    1    2    0    0  0.16522198322E+01  0.14504273326E+02 -0.55726358817E+02  0.57634092090E+02  0.17770000000E+01 0. -1.
</event>
<event>
 6    1  0.1782050E-003  0.5026288E+03  0.7546771E-02  0.9393947E-01
        -11   -1    0    0    0    0  0.00000000000E+00  0.00000000000E+00  0.50000000000E+03  0.50000000000E+03  0.00000000000E+00 0. -1.
         11   -1    0    0    0    0 -0.00000000000E+00 -0.00000000000E+00 -0.50000000000E+03  0.50000000000E+03  0.00000000000E+00 0.  1.
        -11    1    1    2    0    0  0.45814929385E+01  0.20505784840E+02  0.49692723243E+03  0.49737124124E+03  0.00000000000E+00 0. -1.
         11    1    1    2    0    0 -0.17932480601E+01 -0.15088605972E+02 -0.40283375779E+03  0.40312022795E+03  0.00000000000E+00 0.  1.
        -15    1    1    2    0    0 -0.55995769347E+01 -0.14406348195E+02 -0.22975585724E+02  0.27747673750E+02  0.17770000000E+01 0.  1.
         15    1    1    2    0    0  0.28113320563E+01  0.89891693266E+01 -0.71117888916E+02  0.71760857060E+02  0.17770000000E+01 0. -1.
</event>
<event>
 6    1  0.1782050E-003  0.5017907E+03  0.7546771E-02  0.9395812E-01
        -11   -1    0    0    0    0  0.00000000000E+00  0.00000000000E+00  0.50000000000E+03  0.50000000000E+03  0.00000000000E+00 0.  1.
         11   -1    0    0    0    0 -0.00000000000E+00 -0.00000000000E+00 -0.50000000000E+03  0.50000000000E+03  0.00000000000E+00 0.  1.
        -11    1    1    2    0    0  0.43098017268E+01 -0.13977031610E+02  0.44147443377E+03  0.44171665972E+03  0.00000000000E+00 0.  1.
         11    1    1    2    0    0  0.42668396146E+01  0.75930271992E+01 -0.49813313248E+03  0.49820927094E+03  0.00000000000E+00 0.  1.
        -15    1    1    2    0    0 -0.39936227821E+01  0.69953643030E+01  0.53646047139E+02  0.54276516536E+02  0.17770000000E+01 0. -1.
         15    1    1    2    0    0 -0.45830185593E+01 -0.61135989191E+00  0.30126515710E+01  0.57975528045E+01  0.17770000000E+01 0.  1.
</event>
<event>
 6    1  0.1782050E-003  0.5059957E+03  0.7546771E-02  0.9386493E-01
        -11   -1    0    0    0    0  0.00000000000E+00  0.00000000000E+00  0.50000000000E+03  0.50000000000E+03  0.00000000000E+00 0.  1.
         11   -1    0    0    0    0 -0.00000000000E+00 -0.00000000000E+00 -0.50000000000E+03  0.50000000000E+03  0.00000000000E+00 0.  1.
        -11    1    1    2    0    0  0.14716755683E+02 -0.22203170023E+01  0.49378007417E+03  0.49400432625E+03  0.00000000000E+00 0.  1.
         11    1    1    2    0    0 -0.75765914642E+01 -0.55824031284E+01 -0.43583497908E+03  0.43593657446E+03  0.00000000000E+00 0.  1.
        -15    1    1    2    0    0 -0.97304253550E+01  0.79820397083E+01 -0.62910031443E+02  0.64181180424E+02  0.17770000000E+01 0. -1.
         15    1    1    2    0    0  0.25902611366E+01 -0.17931957757E+00  0.49649363452E+01  0.58779188645E+01  0.17770000000E+01 0.  1.
</event>
<event>
 6    1  0.1782050E-003  0.5015880E+03  0.7546771E-02  0.9396263E-01
        -11   -1    0    0    0    0  0.00000000000E+00  0.00000000000E+00  0.50000000000E+03  0.50000000000E+03  0.00000000000E+00 0. -1.
         11   -1    0    0    0    0 -0.00000000000E+00 -0.00000000000E+00 -0.50000000000E+03  0.50000000000E+03  0.00000000000E+00 0.  1.
        -11    1    1    2    0    0 -0.49558499198E+00  0.21584888072E+01  0.50726006583E+02  0.50774328379E+02  0.00000000000E+00 0. -1.
         11    1    1    2    0    0 -0.28119185986E+02 -0.61205152081E+01 -0.49758051556E+03  0.49841199704E+03  0.00000000000E+00 0.  1.
        -15    1    1    2    0    0  0.24486330240E+02 -0.21146118857E+02  0.19534629946E+03  0.19801533565E+03  0.17770000000E+01 0. -1.
         15    1    1    2    0    0  0.41284407386E+01  0.25108145257E+02  0.25150820952E+03  0.25279833893E+03  0.17770000000E+01 0.  1.
</event>
<event>
 6    1  0.1782050E-003  0.5069392E+03  0.7546771E-02  0.9384415E-01
        -11   -1    0    0    0    0  0.00000000000E+00  0.00000000000E+00  0.50000000000E+03  0.50000000000E+03  0.00000000000E+00 0. -1.
         11   -1    0    0    0    0 -0.00000000000E+00 -0.00000000000E+00 -0.50000000000E+03  0.50000000000E+03  0.00000000000E+00 0. -1.
        -11    1    1    2    0    0  0.98654111909E+01  0.52710045605E+01  0.45585472056E+03  0.45599192546E+03  0.00000000000E+00 0. -1.
         11    1    1    2    0    0 -0.52613874281E+00  0.16388785922E+02 -0.49278809855E+03  0.49306082708E+03  0.00000000000E+00 0. -1.
        -15    1    1    2    0    0  0.68020353340E-01 -0.23573079767E+02  0.32591403784E+02  0.40262290621E+02  0.17770000000E+01 0. -1.
         15    1    1    2    0    0 -0.94072928015E+01  0.19132892847E+01  0.43419742046E+01  0.10684956843E+02  0.17770000000E+01 0.  1.
</event>
<event>
 6    1  0.1782050E-003  0.4351319E+03  0.7546771E-02  0.9557938E-01
        -11   -1    0    0    0    0  0.00000000000E+00  0.00000000000E+00  0.50000000000E+03  0.50000000000E+03  0.00000000000E+00 0. -1.
         11   -1    0    0    0    0 -0.00000000000E+00 -0.00000000000E+00 -0.50000000000E+03  0.50000000000E+03  0.00000000000E+00 0. -1.
        -11    1    1    2    0    0  0.89713832677E+01  0.66427226635E+01  0.14730886466E+03  0.14773121908E+03  0.00000000000E+00 0. -1.
         11    1    1    2    0    0 -0.11595739965E+02 -0.32160174078E+02 -0.48028834430E+03  0.48150351157E+03  0.00000000000E+00 0. -1.
        -15    1    1    2    0    0  0.22095015591E+01 -0.68457386380E+02  0.15573727047E+03  0.17014273652E+03  0.17770000000E+01 0. -1.
         15    1    1    2    0    0  0.41485513784E+00  0.93974837795E+02  0.17724220916E+03  0.20062253283E+03  0.17770000000E+01 0.  1.
</event>
<event>
 6    1  0.1782050E-003  0.5200296E+03  0.7546771E-02  0.9356075E-01
        -11   -1    0    0    0    0  0.00000000000E+00  0.00000000000E+00  0.50000000000E+03  0.50000000000E+03  0.00000000000E+00 0. -1.
         11   -1    0    0    0    0 -0.00000000000E+00 -0.00000000000E+00 -0.50000000000E+03  0.50000000000E+03  0.00000000000E+00 0.  1.
        -11    1    1    2    0    0 -0.16361726589E+01 -0.64776786137E+01  0.45394220429E+03  0.45399136800E+03  0.00000000000E+00 0. -1.
         11    1    1    2    0    0  0.19217009879E+02 -0.10489636322E+01 -0.47958442457E+03  0.47997043043E+03  0.00000000000E+00 0.  1.
        -15    1    1    2    0    0  0.20706474057E+02 -0.27737736180E+01  0.11442712823E+02  0.23886089963E+02  0.17770000000E+01 0. -1.
         15    1    1    2    0    0 -0.38287311277E+02  0.10300415864E+02  0.14199507457E+02  0.42152111606E+02  0.17770000000E+01 0.  1.
</event>
<event>
 6    1  0.1782050E-003  0.4962587E+03  0.7546771E-02  0.9408220E-01
        -11   -1    0    0    0    0  0.00000000000E+00  0.00000000000E+00  0.50000000000E+03  0.50000000000E+03  0.00000000000E+00 0.  1.
         11   -1    0    0    0    0 -0.00000000000E+00 -0.00000000000E+00 -0.50000000000E+03  0.50000000000E+03  0.00000000000E+00 0.  1.
        -11    1    1    2    0    0 -0.70313897589E+01  0.29109674620E+01  0.49923617448E+03  0.49929417389E+03  0.00000000000E+00 0.  1.
         11    1    1    2    0    0  0.16263179416E+00  0.21532261525E+01 -0.82779790375E+01  0.85549850326E+01  0.00000000000E+00 0.  1.
        -15    1    1    2    0    0  0.11377069076E+02 -0.12697647043E+02 -0.13579809453E+03  0.13687566674E+03  0.17770000000E+01 0. -1.
         15    1    1    2    0    0 -0.45083111116E+01  0.76334534288E+01 -0.35516010092E+03  0.35527517433E+03  0.17770000000E+01 0.  1.
</event>
<event>
 6    1  0.1782050E-003  0.5166399E+03  0.7546771E-02  0.9363328E-01
        -11   -1    0    0    0    0  0.00000000000E+00  0.00000000000E+00  0.50000000000E+03  0.50000000000E+03  0.00000000000E+00 0. -1.
         11   -1    0    0    0    0 -0.00000000000E+00 -0.00000000000E+00 -0.50000000000E+03  0.50000000000E+03  0.00000000000E+00 0.  1.
        -11    1    1    2    0    0  0.67325359442E+01  0.75865873395E+01  0.48325365889E+03  0.48336009577E+03  0.00000000000E+00 0. -1.
         11    1    1    2    0    0 -0.95291408310E+01 -0.10554888207E+02 -0.40551146898E+03  0.40576071972E+03  0.00000000000E+00 0.  1.
        -15    1    1    2    0    0 -0.94568705565E+01 -0.49065179080E+01  0.14162051404E+02  0.17810888458E+02  0.17770000000E+01 0.  1.
         15    1    1    2    0    0  0.12253475443E+02  0.78748187752E+01 -0.91904241309E+02  0.93068296056E+02  0.17770000000E+01 0. -1.
</event>
<event>
 6    1  0.1782050E-003  0.5004902E+03  0.7546771E-02  0.9398714E-01
        -11   -1    0    0    0    0  0.00000000000E+00  0.00000000000E+00  0.50000000000E+03  0.50000000000E+03  0.00000000000E+00 0. -1.
         11   -1    0    0    0    0 -0.00000000000E+00 -0.00000000000E+00 -0.50000000000E+03  0.50000000000E+03  0.00000000000E+00 0.  1.
        -11    1    1    2    0    0 -0.11431460238E+01 -0.26927946645E+01  0.76410168883E+02  0.76466148292E+02  0.00000000000E+00 0. -1.
         11    1    1    2    0    0  0.48089968245E+01  0.10395175417E+02 -0.49937847755E+03  0.49950980968E+03  0.00000000000E+00 0.  1.
        -15    1    1    2    0    0 -0.31854297324E+01 -0.15020370152E+02  0.12388326297E+03  0.12484381865E+03  0.17770000000E+01 0. -1.
         15    1    1    2    0    0 -0.48042106824E+00  0.73179894000E+01  0.29908504570E+03  0.29918022339E+03  0.17770000000E+01 0.  1.
</event>
<event>
 6    1  0.1782050E-003  0.5089925E+03  0.7546771E-02  0.9379910E-01
        -11   -1    0    0    0    0  0.00000000000E+00  0.00000000000E+00  0.50000000000E+03  0.50000000000E+03  0.00000000000E+00 0. -1.
         11   -1    0    0    0    0 -0.00000000000E+00 -0.00000000000E+00 -0.50000000000E+03  0.50000000000E+03  0.00000000000E+00 0.  1.
        -11    1    1    2    0    0  0.70424832799E+01  0.34317589012E+02  0.48975612717E+03  0.49100749239E+03  0.00000000000E+00 0. -1.
         11    1    1    2    0    0  0.16574677081E+01 -0.65547101729E+01 -0.39936730151E+03  0.39942452721E+03  0.00000000000E+00 0.  1.
        -15    1    1    2    0    0 -0.17055690872E+02 -0.25609540078E+02 -0.16125852433E+02  0.34784277767E+02  0.17770000000E+01 0. -1.
         15    1    1    2    0    0  0.83557398836E+01 -0.21533387617E+01 -0.74262973229E+02  0.74783702627E+02  0.17770000000E+01 0.  1.
</event>
<event>
 6    1  0.1782050E-003  0.5130278E+03  0.7546771E-02  0.9371122E-01
        -11   -1    0    0    0    0  0.00000000000E+00  0.00000000000E+00  0.50000000000E+03  0.50000000000E+03  0.00000000000E+00 0.  1.
         11   -1    0    0    0    0 -0.00000000000E+00 -0.00000000000E+00 -0.50000000000E+03  0.50000000000E+03  0.00000000000E+00 0. -1.
        -11    1    1    2    0    0 -0.10077546347E+02  0.14106787746E+02  0.48666350717E+03  0.48697220415E+03  0.00000000000E+00 0.  1.
         11    1    1    2    0    0 -0.71317959832E+01  0.94358369087E+01 -0.46393732046E+03  0.46408806798E+03  0.00000000000E+00 0. -1.
        -15    1    1    2    0    0 -0.18908059881E+00  0.59455518239E+01  0.21622411292E+01  0.65740667523E+01  0.17770000000E+01 0. -1.
         15    1    1    2    0    0  0.17398422929E+02 -0.29488176478E+02 -0.24888427841E+02  0.42365661117E+02  0.17770000000E+01 0.  1.
</event>
<event>
 6    1  0.1782050E-003  0.5225451E+03  0.7546771E-02  0.9350730E-01
        -11   -1    0    0    0    0  0.00000000000E+00  0.00000000000E+00  0.50000000000E+03  0.50000000000E+03  0.00000000000E+00 0.  1.
         11   -1    0    0    0    0 -0.00000000000E+00 -0.00000000000E+00 -0.50000000000E+03  0.50000000000E+03  0.00000000000E+00 0. -1.
        -11    1    1    2    0    0  0.33212101759E+01 -0.10360173911E+02  0.47733088998E+03  0.47745485877E+03  0.00000000000E+00 0.  1.
         11    1    1    2    0    0 -0.76458424515E+01 -0.84630478877E+00 -0.46460429279E+03  0.46466797180E+03  0.00000000000E+00 0. -1.
        -15    1    1    2    0    0 -0.82381846209E+01  0.29822147441E+02  0.18484161001E+01  0.31045169268E+02  0.17770000000E+01 0.  1.
         15    1    1    2    0    0  0.12562816896E+02 -0.18615668741E+02 -0.14575013288E+02  0.26832000156E+02  0.17770000000E+01 0. -1.
</event>
<event>
 6    1  0.1782050E-003  0.5006712E+03  0.7546771E-02  0.9398309E-01
        -11   -1    0    0    0    0  0.00000000000E+00  0.00000000000E+00  0.50000000000E+03  0.50000000000E+03  0.00000000000E+00 0.  1.
         11   -1    0    0    0    0 -0.00000000000E+00 -0.00000000000E+00 -0.50000000000E+03  0.50000000000E+03  0.00000000000E+00 0. -1.
        -11    1    1    2    0    0 -0.12126853814E+02 -0.81631627177E+01  0.49911480426E+03  0.49932883518E+03  0.00000000000E+00 0.  1.
         11    1    1    2    0    0  0.75814077905E+01  0.19998558238E+01 -0.33150625350E+03  0.33159896453E+03  0.00000000000E+00 0. -1.
        -15    1    1    2    0    0 -0.36930302887E+01  0.18126476500E+01 -0.79018734318E+01  0.90841343533E+01  0.17770000000E+01 0. -1.
         15    1    1    2    0    0  0.82384763117E+01  0.43506592438E+01 -0.15970667733E+03  0.15998806593E+03  0.17770000000E+01 0.  1.
</event>
<event>
 6    1  0.1782050E-003  0.5053541E+03  0.7546771E-02  0.9387909E-01
        -11   -1    0    0    0    0  0.00000000000E+00  0.00000000000E+00  0.50000000000E+03  0.50000000000E+03  0.00000000000E+00 0.  1.
         11   -1    0    0    0    0 -0.00000000000E+00 -0.00000000000E+00 -0.50000000000E+03  0.50000000000E+03  0.00000000000E+00 0. -1.
        -11    1    1    2    0    0  0.24900028365E+01  0.10684680455E+02  0.49452422751E+03  0.49464590780E+03  0.00000000000E+00 0.  1.
         11    1    1    2    0    0  0.11751649936E+02 -0.15759400324E+01 -0.42230294052E+03  0.42246935798E+03  0.00000000000E+00 0. -1.
        -15    1    1    2    0    0 -0.10770884175E+02 -0.71242836425E+01 -0.28090675177E+01  0.13334764814E+02  0.17770000000E+01 0.  1.
         15    1    1    2    0    0 -0.34707685982E+01 -0.19844567805E+01 -0.69412219474E+02  0.69549969409E+02  0.17770000000E+01 0. -1.
</event>
<event>
 6    1  0.1782050E-003  0.5085147E+03  0.7546771E-02  0.9380956E-01
        -11   -1    0    0    0    0  0.00000000000E+00  0.00000000000E+00  0.50000000000E+03  0.50000000000E+03  0.00000000000E+00 0.  1.
         11   -1    0    0    0    0 -0.00000000000E+00 -0.00000000000E+00 -0.50000000000E+03  0.50000000000E+03  0.00000000000E+00 0. -1.
        -11    1    1    2    0    0  0.12761095517E+02 -0.94779291254E+01  0.49122819582E+03  0.49148531725E+03  0.00000000000E+00 0.  1.
         11    1    1    2    0    0 -0.73292330722E+01  0.38821077378E+01 -0.48223393581E+03  0.48230525320E+03  0.00000000000E+00 0. -1.
        -15    1    1    2    0    0  0.51090778210E+01  0.36209579537E+01 -0.13068922621E+02  0.14600290413E+02  0.17770000000E+01 0.  1.
         15    1    1    2    0    0 -0.10540940266E+02  0.19748634339E+01  0.40746626023E+01  0.11609139141E+02  0.17770000000E+01 0. -1.
</event>
<event>
 6    1  0.1782050E-003  0.5017351E+03  0.7546771E-02  0.9395936E-01
        -11   -1    0    0    0    0  0.00000000000E+00  0.00000000000E+00  0.50000000000E+03  0.50000000000E+03  0.00000000000E+00 0. -1.
         11   -1    0    0    0    0 -0.00000000000E+00 -0.00000000000E+00 -0.50000000000E+03  0.50000000000E+03  0.00000000000E+00 0. -1.
        -11    1    1    2    0    0 -0.48529045634E+01 -0.48723632394E+01  0.46105056781E+03  0.46110185067E+03  0.00000000000E+00 0. -1.
         11    1    1    2    0    0  0.10097088278E+02  0.87930656210E+00 -0.49816176212E+03  0.49826485488E+03  0.00000000000E+00 0. -1.
        -15    1    1    2    0    0 -0.37955615598E+01 -0.39167467205E+01  0.54282088897E+01  0.78974915750E+01  0.17770000000E+01 0. -1.
         15    1    1    2    0    0 -0.14486221545E+01  0.79098033979E+01  0.31682985417E+02  0.32735802875E+02  0.17770000000E+01 0.  1.
</event>
<event>
 6    1  0.1782050E-003  0.5009994E+03  0.7546771E-02  0.9397576E-01
        -11   -1    0    0    0    0  0.00000000000E+00  0.00000000000E+00  0.50000000000E+03  0.50000000000E+03  0.00000000000E+00 0.  1.
         11   -1    0    0    0    0 -0.00000000000E+00 -0.00000000000E+00 -0.50000000000E+03  0.50000000000E+03  0.00000000000E+00 0.  1.
        -11    1    1    2    0    0 -0.52468908839E+00 -0.88824024924E+01  0.40458454767E+03  0.40468237988E+03  0.00000000000E+00 0.  1.
         11    1    1    2    0    0  0.41477675355E+01  0.17010735117E+02 -0.49869331603E+03  0.49900059373E+03  0.00000000000E+00 0.  1.
        -15    1    1    2    0    0 -0.70762450005E+01  0.32410388836E+01  0.27583828695E+02  0.28715899965E+02  0.17770000000E+01 0.  1.
         15    1    1    2    0    0  0.34531665534E+01 -0.11369371508E+02  0.66524939669E+02  0.67601126431E+02  0.17770000000E+01 0. -1.
</event>
<event>
 6    1  0.1782050E-003  0.5264292E+03  0.7546771E-02  0.9342540E-01
        -11   -1    0    0    0    0  0.00000000000E+00  0.00000000000E+00  0.50000000000E+03  0.50000000000E+03  0.00000000000E+00 0. -1.
         11   -1    0    0    0    0 -0.00000000000E+00 -0.00000000000E+00 -0.50000000000E+03  0.50000000000E+03  0.00000000000E+00 0. -1.
        -11    1    1    2    0    0  0.82602109840E+01 -0.46046623336E+01  0.47347633442E+03  0.47357076901E+03  0.00000000000E+00 0. -1.
         11    1    1    2    0    0  0.11716148082E+02 -0.34516287404E+01 -0.44291537558E+03  0.44308375257E+03  0.00000000000E+00 0. -1.
        -15    1    1    2    0    0 -0.32559300935E+01  0.10287429062E+02 -0.53617774935E+02  0.54721620914E+02  0.17770000000E+01 0. -1.
         15    1    1    2    0    0 -0.16720428973E+02 -0.22311379875E+01  0.23056816086E+02  0.28623857511E+02  0.17770000000E+01 0.  1.
</event>
<event>
 6    1  0.1782050E-003  0.5044488E+03  0.7546771E-02  0.9389910E-01
        -11   -1    0    0    0    0  0.00000000000E+00  0.00000000000E+00  0.50000000000E+03  0.50000000000E+03  0.00000000000E+00 0.  1.
         11   -1    0    0    0    0 -0.00000000000E+00 -0.00000000000E+00 -0.50000000000E+03  0.50000000000E+03  0.00000000000E+00 0. -1.
        -11    1    1    2    0    0 -0.41512440799E+01 -0.20167293221E+01  0.32327282714E+03  0.32330576981E+03  0.00000000000E+00 0.  1.
         11    1    1    2    0    0  0.93301230271E+01 -0.23957450822E+02 -0.49488376543E+03  0.49555115975E+03  0.00000000000E+00 0. -1.
        -15    1    1    2    0    0 -0.19815591410E+02 -0.20908645553E+01  0.30218222357E+02  0.36239868501E+02  0.17770000000E+01 0. -1.
         15    1    1    2    0    0  0.14636712463E+02  0.28065044700E+02  0.14139271593E+03  0.14490320194E+03  0.17770000000E+01 0.  1.
</event>
<event>
 6    1  0.1782050E-003  0.5153126E+03  0.7546771E-02  0.9366184E-01
        -11   -1    0    0    0    0  0.00000000000E+00  0.00000000000E+00  0.50000000000E+03  0.50000000000E+03  0.00000000000E+00 0.  1.
         11   -1    0    0    0    0 -0.00000000000E+00 -0.00000000000E+00 -0.50000000000E+03  0.50000000000E+03  0.00000000000E+00 0.  1.
        -11    1    1    2    0    0 -0.73601864042E+01 -0.17111621590E+01  0.85248308811E+02  0.85582559993E+02  0.00000000000E+00 0.  1.
         11    1    1    2    0    0  0.33402960542E+00  0.91376250184E+01 -0.48460115420E+03  0.48468741104E+03  0.00000000000E+00 0.  1.
        -15    1    1    2    0    0 -0.23771387624E+01 -0.52676419365E+01 -0.14526444448E+02  0.15734489429E+02  0.17770000000E+01 0. -1.
         15    1    1    2    0    0  0.94032955612E+01 -0.21588209229E+01  0.41387928984E+03  0.41399553954E+03  0.17770000000E+01 0.  1.
</event>
<event>
 6    1  0.1782050E-003  0.5006772E+03  0.7546771E-02  0.9398296E-01
        -11   -1    0    0    0    0  0.00000000000E+00  0.00000000000E+00  0.50000000000E+03  0.50000000000E+03  0.00000000000E+00 0.  1.
         11   -1    0    0    0    0 -0.00000000000E+00 -0.00000000000E+00 -0.50000000000E+03  0.50000000000E+03  0.00000000000E+00 0.  1.
        -11    1    1    2    0    0  0.14922241176E+01 -0.22969410827E+01  0.18956839616E+03  0.18958818395E+03  0.00000000000E+00 0.  1.
         11    1    1    2    0    0 -0.94131346659E+01  0.88596383367E+01 -0.49915544272E+03  0.49932279769E+03  0.00000000000E+00 0.  1.
        -15    1    1    2    0    0  0.18243509162E+02 -0.53734294626E+01  0.23270283307E+03  0.23348547196E+03  0.17770000000E+01 0.  1.
         15    1    1    2    0    0 -0.10322598613E+02 -0.11892677914E+01  0.76884213491E+02  0.77603546396E+02  0.17770000000E+01 0. -1.
</event>
<event>
 6    1  0.1782050E-003  0.5009158E+03  0.7546771E-02  0.9397763E-01
        -11   -1    0    0    0    0  0.00000000000E+00  0.00000000000E+00  0.50000000000E+03  0.50000000000E+03  0.00000000000E+00 0.  1.
         11   -1    0    0    0    0 -0.00000000000E+00 -0.00000000000E+00 -0.50000000000E+03  0.50000000000E+03  0.00000000000E+00 0. -1.
        -11    1    1    2    0    0 -0.70944006886E+01  0.58276282967E+01  0.49899970658E+03  0.49908416018E+03  0.00000000000E+00 0.  1.
         11    1    1    2    0    0  0.60490547651E+01  0.49274703391E+01 -0.43432424600E+03  0.43439431590E+03  0.00000000000E+00 0. -1.
        -15    1    1    2    0    0 -0.42801620789E+01 -0.79934010259E+01 -0.35498399455E+02  0.36681171467E+02  0.17770000000E+01 0. -1.
         15    1    1    2    0    0  0.53255080024E+01 -0.27616976099E+01 -0.29177061133E+02  0.29840352453E+02  0.17770000000E+01 0.  1.
</event>
<event>
 6    1  0.1782050E-003  0.4810510E+03  0.7546771E-02  0.9443237E-01
        -11   -1    0    0    0    0  0.00000000000E+00  0.00000000000E+00  0.50000000000E+03  0.50000000000E+03  0.00000000000E+00 0.  1.
         11   -1    0    0    0    0 -0.00000000000E+00 -0.00000000000E+00 -0.50000000000E+03  0.50000000000E+03  0.00000000000E+00 0.  1.
        -11    1    1    2    0    0 -0.15764606792E+02  0.99476187079E+01  0.48017922384E+03  0.48054090872E+03  0.00000000000E+00 0.  1.
         11    1    1    2    0    0 -0.11511567954E+02  0.57983988807E+01 -0.48190569108E+03  0.48207803592E+03  0.00000000000E+00 0.  1.
        -15    1    1    2    0    0 -0.53539430868E+00 -0.43480676908E+01  0.52519319851E+01  0.70663185808E+01  0.17770000000E+01 0.  1.
         15    1    1    2    0    0  0.27811569055E+02 -0.11397949898E+02 -0.35254647456E+01  0.30314736777E+02  0.17770000000E+01 0. -1.
</event>
<event>
 6    1  0.1782050E-003  0.5034283E+03  0.7546771E-02  0.9392171E-01
        -11   -1    0    0    0    0  0.00000000000E+00  0.00000000000E+00  0.50000000000E+03  0.50000000000E+03  0.00000000000E+00 0. -1.
         11   -1    0    0    0    0 -0.00000000000E+00 -0.00000000000E+00 -0.50000000000E+03  0.50000000000E+03  0.00000000000E+00 0. -1.
        -11    1    1    2    0    0  0.30210063868E+02 -0.76759570993E+01  0.17445419962E+03  0.17721691804E+03  0.00000000000E+00 0. -1.
         11    1    1    2    0    0 -0.10027064216E+02 -0.78289170012E+00 -0.49646981045E+03  0.49657167420E+03  0.00000000000E+00 0. -1.
        -15    1    1    2    0    0 -0.20024138288E+02  0.23863069170E+02  0.13522178056E+03  0.13877499721E+03  0.17770000000E+01 0.  1.
         15    1    1    2    0    0 -0.15886136354E+00 -0.15404220370E+02  0.18679383026E+03  0.18743641054E+03  0.17770000000E+01 0. -1.
</event>
<event>
 6    1  0.1782050E-003  0.5058824E+03  0.7546771E-02  0.9386743E-01
        -11   -1    0    0    0    0  0.00000000000E+00  0.00000000000E+00  0.50000000000E+03  0.50000000000E+03  0.00000000000E+00 0. -1.
         11   -1    0    0    0    0 -0.00000000000E+00 -0.00000000000E+00 -0.50000000000E+03  0.50000000000E+03  0.00000000000E+00 0.  1.
        -11    1    1    2    0    0  0.86626345492E+01 -0.24984401559E+00  0.49404156199E+03  0.49411756560E+03  0.00000000000E+00 0. -1.
         11    1    1    2    0    0 -0.25256269929E+00 -0.77664659663E+01 -0.48583463034E+03  0.48589676869E+03  0.00000000000E+00 0.  1.
        -15    1    1    2    0    0  0.14900666236E+01  0.72089247898E+01 -0.11204586232E+01  0.76551976914E+01  0.17770000000E+01 0.  1.
         15    1    1    2    0    0 -0.99001384735E+01  0.80738519206E+00 -0.70864730271E+01  0.12330468021E+02  0.17770000000E+01 0. -1.
</event>
<event>
 6    1  0.1782050E-003  0.5029759E+03  0.7546771E-02  0.9393175E-01
        -11   -1    0    0    0    0  0.00000000000E+00  0.00000000000E+00  0.50000000000E+03  0.50000000000E+03  0.00000000000E+00 0. -1.
         11   -1    0    0    0    0 -0.00000000000E+00 -0.00000000000E+00 -0.50000000000E+03  0.50000000000E+03  0.00000000000E+00 0.  1.
        -11    1    1    2    0    0 -0.12491680744E+02  0.16712900598E+02  0.49658593525E+03  0.49702409823E+03  0.00000000000E+00 0. -1.
         11    1    1    2    0    0 -0.81797141417E+01 -0.74689318055E+01 -0.35485695815E+03  0.35502979229E+03  0.00000000000E+00 0.  1.
        -15    1    1    2    0    0  0.26415252792E+01  0.10181739475E+02 -0.80495886511E+02  0.81199697960E+02  0.17770000000E+01 0.  1.
         15    1    1    2    0    0  0.18029869606E+02 -0.19425708268E+02 -0.61233090589E+02  0.66746411527E+02  0.17770000000E+01 0. -1.
</event>
<event>
 6    1  0.1782050E-003  0.5014431E+03  0.7546771E-02  0.9396587E-01
        -11   -1    0    0    0    0  0.00000000000E+00  0.00000000000E+00  0.50000000000E+03  0.50000000000E+03  0.00000000000E+00 0.  1.
         11   -1    0    0    0    0 -0.00000000000E+00 -0.00000000000E+00 -0.50000000000E+03  0.50000000000E+03  0.00000000000E+00 0.  1.
        -11    1    1    2    0    0 -0.54628226633E+01  0.35898616528E+01  0.16227330043E+03  0.16240490624E+03  0.00000000000E+00 0.  1.
         11    1    1    2    0    0  0.50418558985E+01 -0.25203572835E+02 -0.49789393024E+03  0.49855692370E+03  0.00000000000E+00 0.  1.
        -15    1    1    2    0    0 -0.19117253216E+01  0.14993358956E+02  0.33101918136E+02  0.36432817895E+02  0.17770000000E+01 0. -1.
         15    1    1    2    0    0  0.23326920864E+01  0.66203522254E+01  0.30251871168E+03  0.30260535217E+03  0.17770000000E+01 0.  1.
</event>
<event>
 6    1  0.2344884E-003  0.5018230E+03  0.7546771E-02  0.9395740E-01
        -11   -1    0    0    0    0  0.00000000000E+00  0.00000000000E+00  0.50000000000E+03  0.50000000000E+03  0.00000000000E+00 0. -1.
         11   -1    0    0    0    0 -0.00000000000E+00 -0.00000000000E+00 -0.50000000000E+03  0.50000000000E+03  0.00000000000E+00 0. -1.
        -11    1    1    2    0    0  0.36211390905E+01  0.21620320094E+01  0.30262269967E+03  0.30265208637E+03  0.00000000000E+00 0. -1.
         11    1    1    2    0    0  0.20792374450E+02  0.76593415397E+01 -0.49768395350E+03  0.49817698252E+03  0.00000000000E+00 0. -1.
        -15    1    1    2    0    0 -0.20204865331E+02 -0.11567566981E+02  0.65850849573E+02  0.69867999165E+02  0.17770000000E+01 0.  1.
         15    1    1    2    0    0 -0.42086482091E+01  0.17461934322E+01  0.12921040426E+03  0.12930293194E+03  0.17770000000E+01 0. -1.
</event>
<event>
 6    1  0.1782050E-003  0.5005955E+03  0.7546771E-02  0.9398478E-01
        -11   -1    0    0    0    0  0.00000000000E+00  0.00000000000E+00  0.50000000000E+03  0.50000000000E+03  0.00000000000E+00 0. -1.
         11   -1    0    0    0    0 -0.00000000000E+00 -0.00000000000E+00 -0.50000000000E+03  0.50000000000E+03  0.00000000000E+00 0. -1.
        -11    1    1    2    0    0  0.60060296197E+01  0.28905046878E+01  0.41358921250E+03  0.41364291860E+03  0.00000000000E+00 0. -1.
         11    1    1    2    0    0 -0.89192426145E+01  0.16094830415E+01 -0.49932225159E+03  0.49940449963E+03  0.00000000000E+00 0. -1.
        -15    1    1    2    0    0  0.21245526995E+01 -0.50192818816E+01  0.13193893558E+02  0.14385529917E+02  0.17770000000E+01 0.  1.
         15    1    1    2    0    0  0.78866029527E+00  0.51929415230E+00  0.72539145531E+02  0.72567051854E+02  0.17770000000E+01 0. -1.
</event>
<event>
 6    1  0.1782050E-003  0.2342299E+03  0.7546771E-02  0.1033415E+00
        -11   -1    0    0    0    0  0.00000000000E+00  0.00000000000E+00  0.50000000000E+03  0.50000000000E+03  0.00000000000E+00 0.  1.
         11   -1    0    0    0    0 -0.00000000000E+00 -0.00000000000E+00 -0.50000000000E+03  0.50000000000E+03  0.00000000000E+00 0.  1.
        -11    1    1    2    0    0 -0.10831968357E+02 -0.64240361167E+01  0.36919068534E+03  0.36940541674E+03  0.00000000000E+00 0.  1.
         11    1    1    2    0    0  0.28079336795E+01 -0.25828134974E+01 -0.27009154092E+03  0.27011848492E+03  0.00000000000E+00 0.  1.
        -15    1    1    2    0    0 -0.14911320033E+03  0.63647878064E+02 -0.10641251321E+03  0.19393962873E+03  0.17770000000E+01 0.  1.
         15    1    1    2    0    0  0.15713723501E+03 -0.54641028450E+02  0.73133687866E+01  0.16653646961E+03  0.17770000000E+01 0. -1.
</event>
<event>
 6    1  0.1782050E-003  0.5759586E+03  0.7546771E-02  0.9244248E-01
        -11   -1    0    0    0    0  0.00000000000E+00  0.00000000000E+00  0.50000000000E+03  0.50000000000E+03  0.00000000000E+00 0. -1.
         11   -1    0    0    0    0 -0.00000000000E+00 -0.00000000000E+00 -0.50000000000E+03  0.50000000000E+03  0.00000000000E+00 0. -1.
        -11    1    1    2    0    0 -0.12527966653E+02 -0.88825460225E+02  0.30223137073E+03  0.31526292802E+03  0.00000000000E+00 0. -1.
         11    1    1    2    0    0 -0.50122167982E+01 -0.85137610902E+01 -0.42392630795E+03  0.42404141427E+03  0.00000000000E+00 0. -1.
        -15    1    1    2    0    0 -0.30260042057E+02  0.13699386313E+03  0.13764190928E+03  0.19654882752E+03  0.17770000000E+01 0. -1.
         15    1    1    2    0    0  0.47800225509E+02 -0.39654641811E+02 -0.15946972070E+02  0.64146830187E+02  0.17770000000E+01 0.  1.
</event>
<event>
 6    1  0.1782050E-003  0.5060987E+03  0.7546771E-02  0.9386266E-01
        -11   -1    0    0    0    0  0.00000000000E+00  0.00000000000E+00  0.50000000000E+03  0.50000000000E+03  0.00000000000E+00 0. -1.
         11   -1    0    0    0    0 -0.00000000000E+00 -0.00000000000E+00 -0.50000000000E+03  0.50000000000E+03  0.00000000000E+00 0. -1.
        -11    1    1    2    0    0 -0.19809575649E+01 -0.19203104688E+02  0.49352388635E+03  0.49390131587E+03  0.00000000000E+00 0. -1.
         11    1    1    2    0    0  0.24735586148E+01 -0.64918171674E+01 -0.46773690233E+03  0.46778849065E+03  0.00000000000E+00 0. -1.
        -15    1    1    2    0    0  0.24843676683E+01  0.24449235837E+02 -0.22746710213E+02  0.33533681132E+02  0.17770000000E+01 0. -1.
         15    1    1    2    0    0 -0.29769687182E+01  0.12456860182E+01 -0.30402738067E+01  0.47765123495E+01  0.17770000000E+01 0.  1.
</event>
<event>
 6    1  0.1782050E-003  0.5029783E+03  0.7546771E-02  0.9393170E-01
        -11   -1    0    0    0    0  0.00000000000E+00  0.00000000000E+00  0.50000000000E+03  0.50000000000E+03  0.00000000000E+00 0.  1.
         11   -1    0    0    0    0 -0.00000000000E+00 -0.00000000000E+00 -0.50000000000E+03  0.50000000000E+03  0.00000000000E+00 0.  1.
        -11    1    1    2    0    0  0.10171232952E+02  0.19879822037E+01  0.42586404868E+03  0.42599013370E+03  0.00000000000E+00 0.  1.
         11    1    1    2    0    0 -0.62554715348E+01  0.33931451389E+01 -0.49697074699E+03  0.49702169743E+03  0.00000000000E+00 0.  1.
        -15    1    1    2    0    0 -0.59953694620E+00 -0.52882812335E+01 -0.16866666075E+00  0.56135140862E+01  0.17770000000E+01 0. -1.
         15    1    1    2    0    0 -0.33162244710E+01 -0.92846109114E-01  0.71275364967E+02  0.71374654782E+02  0.17770000000E+01 0.  1.
</event>
<event>
 6    1  0.1782050E-003  0.5071563E+03  0.7546771E-02  0.9383938E-01
        -11   -1    0    0    0    0  0.00000000000E+00  0.00000000000E+00  0.50000000000E+03  0.50000000000E+03  0.00000000000E+00 0.  1.
         11   -1    0    0    0    0 -0.00000000000E+00 -0.00000000000E+00 -0.50000000000E+03  0.50000000000E+03  0.00000000000E+00 0.  1.
        -11    1    1    2    0    0 -0.38157973227E+01 -0.10595655070E+02  0.49271499286E+03  0.49284367948E+03  0.00000000000E+00 0.  1.
         11    1    1    2    0    0  0.50892713960E+01  0.93636004670E+01 -0.49136919147E+03  0.49148475055E+03  0.00000000000E+00 0.  1.
        -15    1    1    2    0    0  0.36557594640E+01 -0.46738143366E+01 -0.39635756553E+01  0.73536915007E+01  0.17770000000E+01 0.  1.
         15    1    1    2    0    0 -0.49292335373E+01  0.59058689400E+01  0.26177742632E+01  0.83178784732E+01  0.17770000000E+01 0. -1.
</event>
<event>
 6    1  0.1782050E-003  0.5004909E+03  0.7546771E-02  0.9398712E-01
        -11   -1    0    0    0    0  0.00000000000E+00  0.00000000000E+00  0.50000000000E+03  0.50000000000E+03  0.00000000000E+00 0. -1.
         11   -1    0    0    0    0 -0.00000000000E+00 -0.00000000000E+00 -0.50000000000E+03  0.50000000000E+03  0.00000000000E+00 0. -1.
        -11    1    1    2    0    0 -0.27803163667E+01  0.74441226424E+01  0.49944590092E+03  0.49950911210E+03  0.00000000000E+00 0. -1.
         11    1    1    2    0    0  0.69616484915E+01  0.38532194240E+01 -0.36225438225E+03  0.36234175761E+03  0.00000000000E+00 0. -1.
        -15    1    1    2    0    0  0.14965890051E+01 -0.97649029016E+01 -0.79386082063E+02  0.80018128331E+02  0.17770000000E+01 0. -1.
         15    1    1    2    0    0 -0.56779211300E+01 -0.15324391648E+01 -0.57805436610E+02  0.58131001959E+02  0.17770000000E+01 0.  1.
</event>
<event>
 6    1  0.1782050E-003  0.5075737E+03  0.7546771E-02  0.9383021E-01
        -11   -1    0    0    0    0  0.00000000000E+00  0.00000000000E+00  0.50000000000E+03  0.50000000000E+03  0.00000000000E+00 0. -1.
         11   -1    0    0    0    0 -0.00000000000E+00 -0.00000000000E+00 -0.50000000000E+03  0.50000000000E+03  0.00000000000E+00 0. -1.
        -11    1    1    2    0    0 -0.31733192524E+01 -0.90110388057E+01  0.49233357763E+03  0.49242625889E+03  0.00000000000E+00 0. -1.
         11    1    1    2    0    0  0.17309571719E+01  0.28811543883E+02 -0.46441808356E+03  0.46531414938E+03  0.00000000000E+00 0. -1.
        -15    1    1    2    0    0  0.48991175399E+01 -0.20227047331E+02 -0.86609585825E+01  0.22612048314E+02  0.17770000000E+01 0.  1.
         15    1    1    2    0    0 -0.34567554595E+01  0.42654225377E+00 -0.19254535486E+02  0.19647543418E+02  0.17770000000E+01 0. -1.
</event>
<event>
 6    1  0.1782050E-003  0.5028090E+03  0.7546771E-02  0.9393546E-01
        -11   -1    0    0    0    0  0.00000000000E+00  0.00000000000E+00  0.50000000000E+03  0.50000000000E+03  0.00000000000E+00 0. -1.
         11   -1    0    0    0    0 -0.00000000000E+00 -0.00000000000E+00 -0.50000000000E+03  0.50000000000E+03  0.00000000000E+00 0.  1.
        -11    1    1    2    0    0 -0.11525391579E+02  0.64445570009E+01  0.21717566960E+03  0.21757674147E+03  0.00000000000E+00 0. -1.
         11    1    1    2    0    0 -0.24629802730E+02  0.48812419123E+00 -0.49658031531E+03  0.49719098444E+03  0.00000000000E+00 0.  1.
        -15    1    1    2    0    0  0.31615721454E+02 -0.24205633301E+01  0.85398234902E+02  0.91112179336E+02  0.17770000000E+01 0.  1.
         15    1    1    2    0    0  0.45394728548E+01 -0.45121178620E+01  0.19400641081E+03  0.19412009475E+03  0.17770000000E+01 0. -1.
</event>
<event>
 6    1  0.1782050E-003  0.5184326E+03  0.7546771E-02  0.9359484E-01
        -11   -1    0    0    0    0  0.00000000000E+00  0.00000000000E+00  0.50000000000E+03  0.50000000000E+03  0.00000000000E+00 0.  1.
         11   -1    0    0    0    0 -0.00000000000E+00 -0.00000000000E+00 -0.50000000000E+03  0.50000000000E+03  0.00000000000E+00 0.  1.
        -11    1    1    2    0    0  0.99213930079E+01  0.89415983706E+01  0.46955664269E+03  0.46974655605E+03  0.00000000000E+00 0.  1.
         11    1    1    2    0    0 -0.50933960506E+01  0.47489790205E+01 -0.48151705522E+03  0.48156740956E+03  0.00000000000E+00 0.  1.
        -15    1    1    2    0    0 -0.14992639996E+01 -0.41266488769E+01  0.28674407373E+02  0.29062972847E+02  0.17770000000E+01 0.  1.
         15    1    1    2    0    0 -0.33287329577E+01 -0.95639285142E+01 -0.16713994850E+02  0.19623061550E+02  0.17770000000E+01 0. -1.
</event>
<event>
 6    1  0.1782050E-003  0.5109195E+03  0.7546771E-02  0.9375703E-01
        -11   -1    0    0    0    0  0.00000000000E+00  0.00000000000E+00  0.50000000000E+03  0.50000000000E+03  0.00000000000E+00 0.  1.
         11   -1    0    0    0    0 -0.00000000000E+00 -0.00000000000E+00 -0.50000000000E+03  0.50000000000E+03  0.00000000000E+00 0.  1.
        -11    1    1    2    0    0  0.31930300723E+01 -0.25266138323E+02  0.42127849831E+03  0.42204756405E+03  0.00000000000E+00 0.  1.
         11    1    1    2    0    0  0.24941565151E+02 -0.92540179308E+01 -0.48835646952E+03  0.48908052491E+03  0.00000000000E+00 0.  1.
        -15    1    1    2    0    0 -0.15785394655E+02  0.40606496166E+02  0.44032486928E+02  0.61968410092E+02  0.17770000000E+01 0. -1.
         15    1    1    2    0    0 -0.12349200568E+02 -0.60863399121E+01  0.23045484288E+02  0.26903500949E+02  0.17770000000E+01 0.  1.
</event>
<event>
 6    1  0.1782050E-003  0.5009844E+03  0.7546771E-02  0.9397610E-01
        -11   -1    0    0    0    0  0.00000000000E+00  0.00000000000E+00  0.50000000000E+03  0.50000000000E+03  0.00000000000E+00 0. -1.
         11   -1    0    0    0    0 -0.00000000000E+00 -0.00000000000E+00 -0.50000000000E+03  0.50000000000E+03  0.00000000000E+00 0. -1.
        -11    1    1    2    0    0  0.33503667558E+01  0.70480489523E+01  0.49895458078E+03  0.49901560460E+03  0.00000000000E+00 0. -1.
         11    1    1    2    0    0  0.42348762092E+01 -0.26796919083E+01 -0.36812040761E+03  0.36815451841E+03  0.00000000000E+00 0. -1.
        -15    1    1    2    0    0 -0.14140908585E+02 -0.27502795519E+01 -0.63661101211E+02  0.65294891604E+02  0.17770000000E+01 0.  1.
         15    1    1    2    0    0  0.65556656200E+01 -0.16180774921E+01 -0.67173071960E+02  0.67534985393E+02  0.17770000000E+01 0. -1.
</event>
<event>
 6    1  0.1782050E-003  0.5038335E+03  0.7546771E-02  0.9391273E-01
        -11   -1    0    0    0    0  0.00000000000E+00  0.00000000000E+00  0.50000000000E+03  0.50000000000E+03  0.00000000000E+00 0. -1.
         11   -1    0    0    0    0 -0.00000000000E+00 -0.00000000000E+00 -0.50000000000E+03  0.50000000000E+03  0.00000000000E+00 0. -1.
        -11    1    1    2    0    0 -0.24453006248E+01  0.74542623015E+01  0.45809057907E+03  0.45815775029E+03  0.00000000000E+00 0. -1.
         11    1    1    2    0    0 -0.13213732534E+02 -0.14492447908E+00 -0.49599050504E+03  0.49616650917E+03  0.00000000000E+00 0. -1.
        -15    1    1    2    0    0  0.17901547939E+02 -0.69995653517E+00  0.29985273467E+02  0.34974701023E+02  0.17770000000E+01 0.  1.
         15    1    1    2    0    0 -0.22425147802E+01 -0.66093812873E+01  0.79146525056E+01  0.10701039521E+02  0.17770000000E+01 0. -1.
</event>
<event>
 6    1  0.1782050E-003  0.5021411E+03  0.7546771E-02  0.9395031E-01
        -11   -1    0    0    0    0  0.00000000000E+00  0.00000000000E+00  0.50000000000E+03  0.50000000000E+03  0.00000000000E+00 0. -1.
         11   -1    0    0    0    0 -0.00000000000E+00 -0.00000000000E+00 -0.50000000000E+03  0.50000000000E+03  0.00000000000E+00 0.  1.
        -11    1    1    2    0    0 -0.88078568560E+01 -0.61883953890E+01  0.31254931049E+03  0.31273462563E+03  0.00000000000E+00 0. -1.
         11    1    1    2    0    0  0.16366547168E+02 -0.57892584609E+01 -0.49755610976E+03  0.49785887733E+03  0.00000000000E+00 0.  1.
        -15    1    1    2    0    0 -0.17919180766E+02  0.18709878528E+02  0.15021878270E+03  0.15244670215E+03  0.17770000000E+01 0. -1.
         15    1    1    2    0    0  0.10360490455E+02 -0.67322246785E+01  0.34788016574E+02  0.36959794882E+02  0.17770000000E+01 0.  1.
</event>
<event>
 6    1  0.1782050E-003  0.5022057E+03  0.7546771E-02  0.9394888E-01
        -11   -1    0    0    0    0  0.00000000000E+00  0.00000000000E+00  0.50000000000E+03  0.50000000000E+03  0.00000000000E+00 0. -1.
         11   -1    0    0    0    0 -0.00000000000E+00 -0.00000000000E+00 -0.50000000000E+03  0.50000000000E+03  0.00000000000E+00 0. -1.
        -11    1    1    2    0    0  0.72285013042E+01  0.11256070731E+01  0.36654790443E+03  0.36662090020E+03  0.00000000000E+00 0. -1.
         11    1    1    2    0    0  0.10772880180E+02 -0.13298169581E+02 -0.49750006150E+03  0.49779434253E+03  0.00000000000E+00 0. -1.
        -15    1    1    2    0    0 -0.28806996914E+01  0.11388901100E+02  0.10353319086E+03  0.10421269038E+03  0.17770000000E+01 0.  1.
         15    1    1    2    0    0 -0.15120681793E+02  0.78366140738E+00  0.27418966217E+02  0.31372066882E+02  0.17770000000E+01 0. -1.
</event>
<event>
 6    1  0.1782050E-003  0.5053205E+03  0.7546771E-02  0.9387983E-01
        -11   -1    0    0    0    0  0.00000000000E+00  0.00000000000E+00  0.50000000000E+03  0.50000000000E+03  0.00000000000E+00 0. -1.
         11   -1    0    0    0    0 -0.00000000000E+00 -0.00000000000E+00 -0.50000000000E+03  0.50000000000E+03  0.00000000000E+00 0. -1.
        -11    1    1    2    0    0 -0.12100779500E+02 -0.64280254022E+01  0.49448966309E+03  0.49467946721E+03  0.00000000000E+00 0. -1.
         11    1    1    2    0    0  0.29654434587E+01 -0.13638259268E+02 -0.97101201797E+02  0.98099130278E+02  0.00000000000E+00 0. -1.
        -15    1    1    2    0    0  0.27431382916E+02 -0.26451707874E+02 -0.19908701399E+03  0.20270907845E+03  0.17770000000E+01 0.  1.
         15    1    1    2    0    0 -0.18296046875E+02  0.46517992544E+02 -0.19830144730E+03  0.20451232406E+03  0.17770000000E+01 0. -1.
</event>
<event>
 6    1  0.1782050E-003  0.5072401E+03  0.7546771E-02  0.9383753E-01
        -11   -1    0    0    0    0  0.00000000000E+00  0.00000000000E+00  0.50000000000E+03  0.50000000000E+03  0.00000000000E+00 0. -1.
         11   -1    0    0    0    0 -0.00000000000E+00 -0.00000000000E+00 -0.50000000000E+03  0.50000000000E+03  0.00000000000E+00 0. -1.
        -11    1    1    2    0    0 -0.61697574823E+01 -0.11361208623E+02  0.49259022358E+03  0.49275985158E+03  0.00000000000E+00 0. -1.
         11    1    1    2    0    0 -0.60056997535E+01 -0.38048072414E+01 -0.42502143599E+03  0.42508089352E+03  0.00000000000E+00 0. -1.
        -15    1    1    2    0    0 -0.70149257843E+00  0.12520859480E+02 -0.67718733831E+02  0.68893023265E+02  0.17770000000E+01 0. -1.
         15    1    1    2    0    0  0.12876949814E+02  0.26451563840E+01  0.14994624191E+00  0.13266231631E+02  0.17770000000E+01 0.  1.
</event>
<event>
 6    1  0.1782050E-003  0.5004939E+03  0.7546771E-02  0.9398705E-01
        -11   -1    0    0    0    0  0.00000000000E+00  0.00000000000E+00  0.50000000000E+03  0.50000000000E+03  0.00000000000E+00 0.  1.
         11   -1    0    0    0    0 -0.00000000000E+00 -0.00000000000E+00 -0.50000000000E+03  0.50000000000E+03  0.00000000000E+00 0. -1.
        -11    1    1    2    0    0  0.93270605957E+01  0.22963519527E+01  0.49941373498E+03  0.49950610204E+03  0.00000000000E+00 0.  1.
         11    1    1    2    0    0 -0.40813611832E+01 -0.53124300832E+00 -0.27974164688E+03  0.27977192269E+03  0.00000000000E+00 0. -1.
        -15    1    1    2    0    0 -0.64676253200E+01 -0.55747797312E+01 -0.37639106103E+02  0.38636360900E+02  0.17770000000E+01 0.  1.
         15    1    1    2    0    0  0.12219259076E+01  0.38096707868E+01 -0.18203298200E+03  0.18208561436E+03  0.17770000000E+01 0. -1.
</event>
<event>
 6    1  0.1782050E-003  0.5037213E+03  0.7546771E-02  0.9391521E-01
        -11   -1    0    0    0    0  0.00000000000E+00  0.00000000000E+00  0.50000000000E+03  0.50000000000E+03  0.00000000000E+00 0.  1.
         11   -1    0    0    0    0 -0.00000000000E+00 -0.00000000000E+00 -0.50000000000E+03  0.50000000000E+03  0.00000000000E+00 0.  1.
        -11    1    1    2    0    0 -0.24239073805E+02  0.20543723668E+01  0.49568217813E+03  0.49627872699E+03  0.00000000000E+00 0.  1.
         11    1    1    2    0    0 -0.45118696356E+00  0.25244420776E+01 -0.80432915245E+02  0.80473785994E+02  0.00000000000E+00 0.  1.
        -15    1    1    2    0    0  0.30129020879E+02 -0.84854871137E+01 -0.58000990797E+02  0.65932041172E+02  0.17770000000E+01 0. -1.
         15    1    1    2    0    0 -0.54387601111E+01  0.39066726693E+01 -0.35724827209E+03  0.35731544585E+03  0.17770000000E+01 0.  1.
</event>
<event>
 6    1  0.1782050E-003  0.5001702E+03  0.7546771E-02  0.9399429E-01
        -11   -1    0    0    0    0  0.00000000000E+00  0.00000000000E+00  0.50000000000E+03  0.50000000000E+03  0.00000000000E+00 0.  1.
         11   -1    0    0    0    0 -0.00000000000E+00 -0.00000000000E+00 -0.50000000000E+03  0.50000000000E+03  0.00000000000E+00 0. -1.
        -11    1    1    2    0    0 -0.26708181916E+01  0.38545748346E+00  0.23025541789E+02  0.23183127959E+02  0.00000000000E+00 0.  1.
         11    1    1    2    0    0  0.66217435325E+01  0.17588407977E+01 -0.49978286998E+03  0.49982982918E+03  0.00000000000E+00 0. -1.
        -15    1    1    2    0    0  0.26309698673E+01  0.33420543521E+01  0.27672268377E+03  0.27676107524E+03  0.17770000000E+01 0. -1.
         15    1    1    2    0    0 -0.65818952082E+01 -0.54863526332E+01  0.20003464443E+03  0.20022596762E+03  0.17770000000E+01 0.  1.
</event>
<event>
 6    1  0.1782050E-003  0.5016754E+03  0.7546771E-02  0.9396069E-01
        -11   -1    0    0    0    0  0.00000000000E+00  0.00000000000E+00  0.50000000000E+03  0.50000000000E+03  0.00000000000E+00 0. -1.
         11   -1    0    0    0    0 -0.00000000000E+00 -0.00000000000E+00 -0.50000000000E+03  0.50000000000E+03  0.00000000000E+00 0.  1.
        -11    1    1    2    0    0 -0.47724906532E+01  0.77978975845E+01  0.45852576676E+03  0.45861690185E+03  0.00000000000E+00 0. -1.
         11    1    1    2    0    0  0.49825710253E+01  0.69863194261E+01 -0.49825074764E+03  0.49832463535E+03  0.00000000000E+00 0.  1.
        -15    1    1    2    0    0  0.19057569757E+01 -0.25601316181E+01  0.13614928011E+02  0.14096459743E+02  0.17770000000E+01 0.  1.
         15    1    1    2    0    0 -0.21158373477E+01 -0.12224085393E+02  0.26110052869E+02  0.28962003059E+02  0.17770000000E+01 0. -1.
</event>
<event>
 6    1  0.1782050E-003  0.5059529E+03  0.7546771E-02  0.9386587E-01
        -11   -1    0    0    0    0  0.00000000000E+00  0.00000000000E+00  0.50000000000E+03  0.50000000000E+03  0.00000000000E+00 0.  1.
         11   -1    0    0    0    0 -0.00000000000E+00 -0.00000000000E+00 -0.50000000000E+03  0.50000000000E+03  0.00000000000E+00 0. -1.
        -11    1    1    2    0    0  0.14156026703E+02  0.10354196227E+01  0.49384313990E+03  0.49404707470E+03  0.00000000000E+00 0.  1.
         11    1    1    2    0    0 -0.46246169835E+01 -0.98555385359E+01 -0.43932103908E+03  0.43945590689E+03  0.00000000000E+00 0. -1.
        -15    1    1    2    0    0 -0.14251834946E+02  0.11257965279E+01 -0.37339239437E+01  0.14882275840E+02  0.17770000000E+01 0.  1.
         15    1    1    2    0    0  0.47204252264E+01  0.76943223853E+01 -0.50788176875E+02  0.51614742570E+02  0.17770000000E+01 0. -1.
</event>
<event>
 6    1  0.1782050E-003  0.5004574E+03  0.7546771E-02  0.9398787E-01
        -11   -1    0    0    0    0  0.00000000000E+00  0.00000000000E+00  0.50000000000E+03  0.50000000000E+03  0.00000000000E+00 0. -1.
         11   -1    0    0    0    0 -0.00000000000E+00 -0.00000000000E+00 -0.50000000000E+03  0.50000000000E+03  0.00000000000E+00 0. -1.
        -11    1    1    2    0    0  0.64948124328E+01 -0.77813623705E+01  0.49943974328E+03  0.49954258012E+03  0.00000000000E+00 0. -1.
         11    1    1    2    0    0 -0.18372683925E+01 -0.47530398399E+01 -0.20659318253E+03  0.20665601857E+03  0.00000000000E+00 0. -1.
        -15    1    1    2    0    0 -0.44419458630E+01  0.11843848153E+00 -0.20579636252E+03  0.20585199894E+03  0.17770000000E+01 0.  1.
         15    1    1    2    0    0 -0.21559817745E+00  0.12415963729E+02 -0.87050198225E+02  0.87949402374E+02  0.17770000000E+01 0. -1.
</event>
<event>
 6    1  0.1782050E-003  0.5016886E+03  0.7546771E-02  0.9396039E-01
        -11   -1    0    0    0    0  0.00000000000E+00  0.00000000000E+00  0.50000000000E+03  0.50000000000E+03  0.00000000000E+00 0. -1.
         11   -1    0    0    0    0 -0.00000000000E+00 -0.00000000000E+00 -0.50000000000E+03  0.50000000000E+03  0.00000000000E+00 0. -1.
        -11    1    1    2    0    0 -0.10280692206E+02  0.11224588553E+02  0.49807885525E+03  0.49831137862E+03  0.00000000000E+00 0. -1.
         11    1    1    2    0    0  0.23703176715E+01  0.58454378339E+01 -0.33933085596E+03  0.33938947738E+03  0.00000000000E+00 0. -1.
        -15    1    1    2    0    0  0.11524899641E+02  0.97974046388E-03 -0.27301470560E+02  0.29687561981E+02  0.17770000000E+01 0.  1.
         15    1    1    2    0    0 -0.36145251064E+01 -0.17071006127E+02 -0.13144652873E+03  0.13261158202E+03  0.17770000000E+01 0. -1.
</event>
<event>
 6    1  0.1782050E-003  0.5169519E+03  0.7546771E-02  0.9362658E-01
        -11   -1    0    0    0    0  0.00000000000E+00  0.00000000000E+00  0.50000000000E+03  0.50000000000E+03  0.00000000000E+00 0.  1.
         11   -1    0    0    0    0 -0.00000000000E+00 -0.00000000000E+00 -0.50000000000E+03  0.50000000000E+03  0.00000000000E+00 0.  1.
        -11    1    1    2    0    0  0.54704320706E+01 -0.65747506836E+01  0.48297239347E+03  0.48304811958E+03  0.00000000000E+00 0.  1.
         11    1    1    2    0    0  0.68863100319E+01 -0.67415904475E+01 -0.42676694101E+03  0.42687573396E+03  0.00000000000E+00 0.  1.
        -15    1    1    2    0    0  0.18877380423E+02  0.13052664977E+02 -0.54013063856E+02  0.58713681121E+02  0.17770000000E+01 0. -1.
         15    1    1    2    0    0 -0.31234122526E+02  0.26367615459E+00 -0.21923886079E+01  0.31362465335E+02  0.17770000000E+01 0.  1.
</event>
<event>
 6    1  0.1782050E-003  0.5031915E+03  0.7546771E-02  0.9392697E-01
        -11   -1    0    0    0    0  0.00000000000E+00  0.00000000000E+00  0.50000000000E+03  0.50000000000E+03  0.00000000000E+00 0. -1.
         11   -1    0    0    0    0 -0.00000000000E+00 -0.00000000000E+00 -0.50000000000E+03  0.50000000000E+03  0.00000000000E+00 0. -1.
        -11    1    1    2    0    0 -0.11815766577E+02  0.10303169299E+01  0.49666691680E+03  0.49680851456E+03  0.00000000000E+00 0. -1.
         11    1    1    2    0    0  0.20885565208E+02 -0.16946127228E+02 -0.22933033982E+03  0.23090210658E+03  0.00000000000E+00 0. -1.
        -15    1    1    2    0    0 -0.11227680187E+02  0.30889294575E+02 -0.12965041437E+03  0.13376321242E+03  0.17770000000E+01 0. -1.
         15    1    1    2    0    0  0.21578815561E+01 -0.14973484277E+02 -0.13768616261E+03  0.13852616644E+03  0.17770000000E+01 0.  1.
</event>
<event>
 6    1  0.1782050E-003  0.5004541E+03  0.7546771E-02  0.9398794E-01
        -11   -1    0    0    0    0  0.00000000000E+00  0.00000000000E+00  0.50000000000E+03  0.50000000000E+03  0.00000000000E+00 0.  1.
         11   -1    0    0    0    0 -0.00000000000E+00 -0.00000000000E+00 -0.50000000000E+03  0.50000000000E+03  0.00000000000E+00 0.  1.
        -11    1    1    2    0    0  0.31049978585E+01  0.10418860481E+02  0.49942758563E+03  0.49954590075E+03  0.00000000000E+00 0.  1.
         11    1    1    2    0    0 -0.97990195999E+01 -0.14545171484E+01 -0.35733298655E+03  0.35747027804E+03  0.00000000000E+00 0.  1.
        -15    1    1    2    0    0 -0.41376923732E+00 -0.65499798459E+01 -0.37979316438E+02  0.38583152373E+02  0.17770000000E+01 0. -1.
         15    1    1    2    0    0  0.71077909787E+01 -0.24143634862E+01 -0.10411528264E+03  0.10440066883E+03  0.17770000000E+01 0.  1.
</event>
<event>
 6    1  0.1782050E-003  0.5125393E+03  0.7546771E-02  0.9372181E-01
        -11   -1    0    0    0    0  0.00000000000E+00  0.00000000000E+00  0.50000000000E+03  0.50000000000E+03  0.00000000000E+00 0. -1.
         11   -1    0    0    0    0 -0.00000000000E+00 -0.00000000000E+00 -0.50000000000E+03  0.50000000000E+03  0.00000000000E+00 0. -1.
        -11    1    1    2    0    0 -0.18110820465E+01  0.70336360954E+01  0.48740659454E+03  0.48746070658E+03  0.00000000000E+00 0. -1.
         11    1    1    2    0    0  0.71914585347E+01 -0.11521879952E+02 -0.41793049044E+03  0.41815112774E+03  0.00000000000E+00 0. -1.
        -15    1    1    2    0    0 -0.35876492829E+01  0.44691530829E+01  0.11712687516E+02  0.13160141888E+02  0.17770000000E+01 0.  1.
         15    1    1    2    0    0 -0.17927272054E+01  0.19090773707E-01 -0.81188791619E+02  0.81228023790E+02  0.17770000000E+01 0. -1.
</event>
<event>
 6    1  0.1782050E-003  0.5055070E+03  0.7546771E-02  0.9387571E-01
        -11   -1    0    0    0    0  0.00000000000E+00  0.00000000000E+00  0.50000000000E+03  0.50000000000E+03  0.00000000000E+00 0. -1.
         11   -1    0    0    0    0 -0.00000000000E+00 -0.00000000000E+00 -0.50000000000E+03  0.50000000000E+03  0.00000000000E+00 0.  1.
        -11    1    1    2    0    0 -0.21646452368E+01 -0.80572955855E+01  0.49442262555E+03  0.49449301143E+03  0.00000000000E+00 0. -1.
         11    1    1    2    0    0  0.53319534306E+01  0.58455268199E+01 -0.49096061148E+03  0.49102435982E+03  0.00000000000E+00 0.  1.
        -15    1    1    2    0    0 -0.35842985677E+01 -0.41202144189E+01  0.18337669121E+01  0.60285813562E+01  0.17770000000E+01 0.  1.
         15    1    1    2    0    0  0.41699037385E+00  0.63319831845E+01 -0.52957809795E+01  0.84540473859E+01  0.17770000000E+01 0. -1.
</event>
<event>
 6    1  0.1782050E-003  0.5015055E+03  0.7546771E-02  0.9396447E-01
        -11   -1    0    0    0    0  0.00000000000E+00  0.00000000000E+00  0.50000000000E+03  0.50000000000E+03  0.00000000000E+00 0.  1.
         11   -1    0    0    0    0 -0.00000000000E+00 -0.00000000000E+00 -0.50000000000E+03  0.50000000000E+03  0.00000000000E+00 0. -1.
        -11    1    1    2    0    0 -0.10341637024E+02 -0.45071499871E+00  0.49838698819E+03  0.49849447599E+03  0.00000000000E+00 0.  1.
         11    1    1    2    0    0 -0.27859586746E+01  0.44951213305E+01 -0.25469507979E+03  0.25474997811E+03  0.00000000000E+00 0. -1.
        -15    1    1    2    0    0  0.68238484683E+01 -0.10359638136E+02 -0.25887695067E+02  0.28761388964E+02  0.17770000000E+01 0.  1.
         15    1    1    2    0    0  0.63037472305E+01  0.63152318039E+01 -0.21780421333E+03  0.21799415693E+03  0.17770000000E+01 0. -1.
</event>
<event>
 6    1  0.1782050E-003  0.5014526E+03  0.7546771E-02  0.9396565E-01
        -11   -1    0    0    0    0  0.00000000000E+00  0.00000000000E+00  0.50000000000E+03  0.50000000000E+03  0.00000000000E+00 0.  1.
         11   -1    0    0    0    0 -0.00000000000E+00 -0.00000000000E+00 -0.50000000000E+03  0.50000000000E+03  0.00000000000E+00 0.  1.
        -11    1    1    2    0    0  0.83116159518E+01  0.15141134295E+02  0.49824808807E+03  0.49854738408E+03  0.00000000000E+00 0.  1.
         11    1    1    2    0    0 -0.82278625527E+00 -0.13064215664E+01 -0.33849927922E+02  0.33885119667E+02  0.00000000000E+00 0.  1.
        -15    1    1    2    0    0 -0.35788562037E+01 -0.21128654068E+02 -0.73580307664E+02  0.76657991360E+02  0.17770000000E+01 0. -1.
         15    1    1    2    0    0 -0.39099734929E+01  0.72939413392E+01 -0.39081785248E+03  0.39090950490E+03  0.17770000000E+01 0.  1.
</event>
<event>
 6    1  0.1782050E-003  0.4118584E+03  0.7546771E-02  0.9621998E-01
        -11   -1    0    0    0    0  0.00000000000E+00  0.00000000000E+00  0.50000000000E+03  0.50000000000E+03  0.00000000000E+00 0.  1.
         11   -1    0    0    0    0 -0.00000000000E+00 -0.00000000000E+00 -0.50000000000E+03  0.50000000000E+03  0.00000000000E+00 0. -1.
        -11    1    1    2    0    0 -0.66898169901E+00 -0.14864515132E+02  0.36636062416E+03  0.36666266278E+03  0.00000000000E+00 0.  1.
         11    1    1    2    0    0  0.11082662337E+03 -0.27909601524E+02 -0.24867022307E+03  0.27367565867E+03  0.00000000000E+00 0. -1.
        -15    1    1    2    0    0  0.64778252211E+02  0.18012982559E+01  0.73017141569E+02  0.97642855995E+02  0.17770000000E+01 0.  1.
         15    1    1    2    0    0 -0.17493589388E+03  0.40972818400E+02 -0.19070754266E+03  0.26201882255E+03  0.17770000000E+01 0. -1.
</event>
<event>
 6    1  0.1782050E-003  0.5019787E+03  0.7546771E-02  0.9395393E-01
        -11   -1    0    0    0    0  0.00000000000E+00  0.00000000000E+00  0.50000000000E+03  0.50000000000E+03  0.00000000000E+00 0.  1.
         11   -1    0    0    0    0 -0.00000000000E+00 -0.00000000000E+00 -0.50000000000E+03  0.50000000000E+03  0.00000000000E+00 0.  1.
        -11    1    1    2    0    0 -0.83074625554E+01 -0.35282649162E+01  0.30441468602E+03  0.30454845863E+03  0.00000000000E+00 0.  1.
         11    1    1    2    0    0 -0.58291893140E+01  0.61146103332E+01 -0.49794966181E+03  0.49802131843E+03  0.00000000000E+00 0.  1.
        -15    1    1    2    0    0  0.11877665777E+02 -0.57709223660E+01  0.21185035051E+02  0.25026904091E+02  0.17770000000E+01 0.  1.
         15    1    1    2    0    0  0.22589860919E+01  0.31845769489E+01  0.17234994074E+03  0.17240331885E+03  0.17770000000E+01 0. -1.
</event>
<event>
 6    1  0.1782050E-003  0.5018842E+03  0.7546771E-02  0.9395604E-01
        -11   -1    0    0    0    0  0.00000000000E+00  0.00000000000E+00  0.50000000000E+03  0.50000000000E+03  0.00000000000E+00 0.  1.
         11   -1    0    0    0    0 -0.00000000000E+00 -0.00000000000E+00 -0.50000000000E+03  0.50000000000E+03  0.00000000000E+00 0.  1.
        -11    1    1    2    0    0  0.75957397380E+01  0.96549725405E+00  0.49805694163E+03  0.49811579432E+03  0.00000000000E+00 0.  1.
         11    1    1    2    0    0 -0.83596476148E+01 -0.57548448013E+01 -0.47286002801E+03  0.47296892926E+03  0.00000000000E+00 0.  1.
        -15    1    1    2    0    0 -0.57619712679E+01  0.56272237009E+00 -0.88116388347E+01  0.10692038034E+02  0.17770000000E+01 0.  1.
         15    1    1    2    0    0  0.65258791448E+01  0.42266251772E+01 -0.16385274777E+02  0.18223238393E+02  0.17770000000E+01 0. -1.
</event>
<event>
 6    1  0.1782050E-003  0.5241122E+03  0.7546771E-02  0.9347416E-01
        -11   -1    0    0    0    0  0.00000000000E+00  0.00000000000E+00  0.50000000000E+03  0.50000000000E+03  0.00000000000E+00 0. -1.
         11   -1    0    0    0    0 -0.00000000000E+00 -0.00000000000E+00 -0.50000000000E+03  0.50000000000E+03  0.00000000000E+00 0.  1.
        -11    1    1    2    0    0 -0.22473379490E+02  0.29551991500E+01  0.47534767984E+03  0.47588780475E+03  0.00000000000E+00 0. -1.
         11    1    1    2    0    0 -0.58709363797E+00  0.10201837173E+02 -0.42599732896E+03  0.42611987332E+03  0.00000000000E+00 0.  1.
        -15    1    1    2    0    0  0.50320656927E+01 -0.12033722032E+02 -0.69579602361E+02  0.70813917734E+02  0.17770000000E+01 0.  1.
         15    1    1    2    0    0  0.18028407435E+02 -0.11233142918E+01  0.20229251483E+02  0.27178404188E+02  0.17770000000E+01 0. -1.
</event>
<event>
 6    1  0.1782050E-003  0.5540467E+03  0.7546771E-02  0.9286387E-01
        -11   -1    0    0    0    0  0.00000000000E+00  0.00000000000E+00  0.50000000000E+03  0.50000000000E+03  0.00000000000E+00 0.  1.
         11   -1    0    0    0    0 -0.00000000000E+00 -0.00000000000E+00 -0.50000000000E+03  0.50000000000E+03  0.00000000000E+00 0. -1.
        -11    1    1    2    0    0 -0.82605029820E+01  0.49896675751E+01  0.38547944415E+03  0.38560022635E+03  0.00000000000E+00 0.  1.
         11    1    1    2    0    0  0.65374200635E+01  0.11023751025E+02 -0.44576909928E+03  0.44595330565E+03  0.00000000000E+00 0. -1.
        -15    1    1    2    0    0 -0.37090991555E+02  0.11827748782E+02  0.99347883444E+02  0.10671830663E+03  0.17770000000E+01 0.  1.
         15    1    1    2    0    0  0.38814074474E+02 -0.27841167382E+02 -0.39058228321E+02  0.61728161378E+02  0.17770000000E+01 0. -1.
</event>
<event>
 6    1  0.1782050E-003  0.5016450E+03  0.7546771E-02  0.9396137E-01
        -11   -1    0    0    0    0  0.00000000000E+00  0.00000000000E+00  0.50000000000E+03  0.50000000000E+03  0.00000000000E+00 0. -1.
         11   -1    0    0    0    0 -0.00000000000E+00 -0.00000000000E+00 -0.50000000000E+03  0.50000000000E+03  0.00000000000E+00 0. -1.
        -11    1    1    2    0    0 -0.39855408806E+01 -0.48144965681E+01  0.45983683998E+03  0.45987931386E+03  0.00000000000E+00 0. -1.
         11    1    1    2    0    0  0.45155489349E+01 -0.62382754228E+01 -0.49829554272E+03  0.49835504829E+03  0.00000000000E+00 0. -1.
        -15    1    1    2    0    0  0.27467963229E+00  0.35018664987E+01  0.30012497772E+02  0.30269560113E+02  0.17770000000E+01 0. -1.
         15    1    1    2    0    0 -0.80468768656E+00  0.75509054921E+01  0.84462049676E+01  0.11496077739E+02  0.17770000000E+01 0.  1.
</event>
<event>
 6    1  0.1782050E-003  0.5108218E+03  0.7546771E-02  0.9375915E-01
        -11   -1    0    0    0    0  0.00000000000E+00  0.00000000000E+00  0.50000000000E+03  0.50000000000E+03  0.00000000000E+00 0.  1.
         11   -1    0    0    0    0 -0.00000000000E+00 -0.00000000000E+00 -0.50000000000E+03  0.50000000000E+03  0.00000000000E+00 0. -1.
        -11    1    1    2    0    0 -0.14913061647E+01  0.15549556224E+02  0.48892871755E+03  0.48917819201E+03  0.00000000000E+00 0.  1.
         11    1    1    2    0    0 -0.19238975860E+01 -0.93980080302E+01 -0.47324489098E+03  0.47334210755E+03  0.00000000000E+00 0. -1.
        -15    1    1    2    0    0 -0.12341178676E+01 -0.90475711782E+01  0.85112663409E+01  0.12608765795E+02  0.17770000000E+01 0.  1.
         15    1    1    2    0    0  0.46493216182E+01  0.28960229846E+01 -0.24195092905E+02  0.24870934649E+02  0.17770000000E+01 0. -1.
</event>
<event>
 6    1  0.1782050E-003  0.5009995E+03  0.7546771E-02  0.9397576E-01
        -11   -1    0    0    0    0  0.00000000000E+00  0.00000000000E+00  0.50000000000E+03  0.50000000000E+03  0.00000000000E+00 0.  1.
         11   -1    0    0    0    0 -0.00000000000E+00 -0.00000000000E+00 -0.50000000000E+03  0.50000000000E+03  0.00000000000E+00 0.  1.
        -11    1    1    2    0    0  0.25443120634E+01 -0.67977531232E+01  0.31464808337E+03  0.31473178953E+03  0.00000000000E+00 0.  1.
         11    1    1    2    0    0 -0.12183317735E+02  0.15241429473E+01 -0.49884943141E+03  0.49900051249E+03  0.00000000000E+00 0.  1.
        -15    1    1    2    0    0 -0.61366523903E+01  0.90132751485E+01  0.88433946650E+02  0.89121368260E+02  0.17770000000E+01 0.  1.
         15    1    1    2    0    0  0.15775658062E+02 -0.37396649726E+01  0.95767401391E+02  0.97146329728E+02  0.17770000000E+01 0. -1.
</event>
<event>
 6    1  0.1782050E-003  0.5200324E+03  0.7546771E-02  0.9356068E-01
        -11   -1    0    0    0    0  0.00000000000E+00  0.00000000000E+00  0.50000000000E+03  0.50000000000E+03  0.00000000000E+00 0.  1.
         11   -1    0    0    0    0 -0.00000000000E+00 -0.00000000000E+00 -0.50000000000E+03  0.50000000000E+03  0.00000000000E+00 0.  1.
        -11    1    1    2    0    0  0.15117945976E+02 -0.12055657340E+02  0.47957789979E+03  0.47996755424E+03  0.00000000000E+00 0.  1.
         11    1    1    2    0    0  0.22313023221E+01  0.16174392214E+02 -0.45998807787E+03  0.46027776555E+03  0.00000000000E+00 0.  1.
        -15    1    1    2    0    0 -0.14480248094E+02  0.23912410803E+02 -0.12314715855E+02  0.30598871398E+02  0.17770000000E+01 0. -1.
         15    1    1    2    0    0 -0.28690002045E+01 -0.28031145676E+02 -0.72751060579E+01  0.29155808808E+02  0.17770000000E+01 0.  1.
</event>
<event>
 6    1  0.1782050E-003  0.5129845E+03  0.7546771E-02  0.9371216E-01
        -11   -1    0    0    0    0  0.00000000000E+00  0.00000000000E+00  0.50000000000E+03  0.50000000000E+03  0.00000000000E+00 0. -1.
         11   -1    0    0    0    0 -0.00000000000E+00 -0.00000000000E+00 -0.50000000000E+03  0.50000000000E+03  0.00000000000E+00 0. -1.
        -11    1    1    2    0    0 -0.29646059834E+02 -0.46034481565E+02  0.24921716349E+03  0.25516123714E+03  0.00000000000E+00 0. -1.
         11    1    1    2    0    0  0.53559632121E+01 -0.21254225623E+02 -0.48652203012E+03  0.48701551746E+03  0.00000000000E+00 0. -1.
        -15    1    1    2    0    0 -0.76861129904E+01  0.12052735688E+02  0.26623557195E+01  0.14648912501E+02  0.17770000000E+01 0.  1.
         15    1    1    2    0    0  0.31976209612E+02  0.55235971500E+02  0.23464251091E+03  0.24317433291E+03  0.17770000000E+01 0. -1.
</event>
<event>
 6    1  0.1782050E-003  0.5026049E+03  0.7546771E-02  0.9394000E-01
        -11   -1    0    0    0    0  0.00000000000E+00  0.00000000000E+00  0.50000000000E+03  0.50000000000E+03  0.00000000000E+00 0.  1.
         11   -1    0    0    0    0 -0.00000000000E+00 -0.00000000000E+00 -0.50000000000E+03  0.50000000000E+03  0.00000000000E+00 0. -1.
        -11    1    1    2    0    0 -0.54630885009E+01  0.10910370644E+02  0.49724543201E+03  0.49739511576E+03  0.00000000000E+00 0.  1.
         11    1    1    2    0    0 -0.71797134989E+01 -0.54265795679E+01 -0.42040999551E+03  0.42050631431E+03  0.00000000000E+00 0. -1.
        -15    1    1    2    0    0 -0.39748998099E+01  0.68552821186E+01 -0.20030197202E+02  0.21613913351E+02  0.17770000000E+01 0. -1.
         15    1    1    2    0    0  0.16617701810E+02 -0.12339073194E+02 -0.56805239298E+02  0.60484656579E+02  0.17770000000E+01 0.  1.
</event>
<event>
 6    1  0.1782050E-003  0.5020761E+03  0.7546771E-02  0.9395176E-01
        -11   -1    0    0    0    0  0.00000000000E+00  0.00000000000E+00  0.50000000000E+03  0.50000000000E+03  0.00000000000E+00 0.  1.
         11   -1    0    0    0    0 -0.00000000000E+00 -0.00000000000E+00 -0.50000000000E+03  0.50000000000E+03  0.00000000000E+00 0. -1.
        -11    1    1    2    0    0 -0.12733811866E+02  0.52928861771E+01  0.32345756260E+03  0.32375138519E+03  0.00000000000E+00 0.  1.
         11    1    1    2    0    0 -0.10150334756E+02  0.47236713813E+01 -0.49779802524E+03  0.49792390614E+03  0.00000000000E+00 0. -1.
        -15    1    1    2    0    0 -0.19574730706E+01 -0.30841584949E+01  0.30125686760E+01  0.50573741676E+01  0.17770000000E+01 0.  1.
         15    1    1    2    0    0  0.24841619692E+02 -0.69323990636E+01  0.17132789397E+03  0.17326733450E+03  0.17770000000E+01 0.  1.
</event>
<event>
 6    1  0.1782050E-003  0.5078598E+03  0.7546771E-02  0.9382393E-01
        -11   -1    0    0    0    0  0.00000000000E+00  0.00000000000E+00  0.50000000000E+03  0.50000000000E+03  0.00000000000E+00 0. -1.
         11   -1    0    0    0    0 -0.00000000000E+00 -0.00000000000E+00 -0.50000000000E+03  0.50000000000E+03  0.00000000000E+00 0.  1.
        -11    1    1    2    0    0  0.14120120302E+02  0.10004727726E+01  0.49193659044E+03  0.49214021148E+03  0.00000000000E+00 0. -1.
         11    1    1    2    0    0  0.93071855637E+01 -0.99726210880E+00 -0.43209436357E+03  0.43219573952E+03  0.00000000000E+00 0.  1.
        -15    1    1    2    0    0 -0.21956596709E+02  0.12901025420E+01 -0.75752417937E+01  0.23330206189E+02  0.17770000000E+01 0.  1.
         15    1    1    2    0    0 -0.14707091569E+01 -0.12933132058E+01 -0.52266985081E+02  0.52333842807E+02  0.17770000000E+01 0. -1.
</event>
<event>
 6    1  0.1782050E-003  0.4860210E+03  0.7546771E-02  0.9431644E-01
        -11   -1    0    0    0    0  0.00000000000E+00  0.00000000000E+00  0.50000000000E+03  0.50000000000E+03  0.00000000000E+00 0.  1.
         11   -1    0    0    0    0 -0.00000000000E+00 -0.00000000000E+00 -0.50000000000E+03  0.50000000000E+03  0.00000000000E+00 0.  1.
        -11    1    1    2    0    0  0.73146672736E+01  0.69314267623E+01  0.48416544369E+03  0.48427030251E+03  0.00000000000E+00 0.  1.
         11    1    1    2    0    0 -0.12885942637E+00  0.69256951841E+01 -0.48785488480E+03  0.48790405868E+03  0.00000000000E+00 0.  1.
        -15    1    1    2    0    0  0.68480715108E+01 -0.89125464885E+01  0.56639240349E+01  0.12710913925E+02  0.17770000000E+01 0. -1.
         15    1    1    2    0    0 -0.14033879358E+02 -0.49445754579E+01 -0.19744829263E+01  0.15114724877E+02  0.17770000000E+01 0.  1.
</event>
<event>
 6    1  0.1782050E-003  0.5007925E+03  0.7546771E-02  0.9398038E-01
        -11   -1    0    0    0    0  0.00000000000E+00  0.00000000000E+00  0.50000000000E+03  0.50000000000E+03  0.00000000000E+00 0. -1.
         11   -1    0    0    0    0 -0.00000000000E+00 -0.00000000000E+00 -0.50000000000E+03  0.50000000000E+03  0.00000000000E+00 0. -1.
        -11    1    1    2    0    0  0.88591834817E+01 -0.78475491030E+01  0.39658788632E+03  0.39676443986E+03  0.00000000000E+00 0. -1.
         11    1    1    2    0    0  0.12301825856E+01  0.10588554598E+02 -0.49909364274E+03  0.49920746695E+03  0.00000000000E+00 0. -1.
        -15    1    1    2    0    0  0.23420720062E+01  0.27502698117E+01  0.23249271643E+02  0.23595246263E+02  0.17770000000E+01 0. -1.
         15    1    1    2    0    0 -0.12431438074E+02 -0.54912753070E+01  0.79256484774E+02  0.80432846928E+02  0.17770000000E+01 0.  1.
</event>
<event>
 6    1  0.1782050E-003  0.5578748E+03  0.7546771E-02  0.9278878E-01
        -11   -1    0    0    0    0  0.00000000000E+00  0.00000000000E+00  0.50000000000E+03  0.50000000000E+03  0.00000000000E+00 0.  1.
         11   -1    0    0    0    0 -0.00000000000E+00 -0.00000000000E+00 -0.50000000000E+03  0.50000000000E+03  0.00000000000E+00 0.  1.
        -11    1    1    2    0    0 -0.20004280584E+02  0.35601373977E+01  0.27689312389E+03  0.27763761971E+03  0.00000000000E+00 0.  1.
         11    1    1    2    0    0  0.12473015278E+01 -0.80949463927E+01 -0.44204928521E+03  0.44212515702E+03  0.00000000000E+00 0.  1.
        -15    1    1    2    0    0  0.10178649847E+03 -0.31775030967E+01  0.78082664234E+01  0.10215045057E+03  0.17770000000E+01 0.  1.
         15    1    1    2    0    0 -0.83029519418E+02  0.77123120917E+01  0.15734789490E+03  0.17808677270E+03  0.17770000000E+01 0. -1.
</event>
<event>
 6    1  0.1782050E-003  0.5009115E+03  0.7546771E-02  0.9397772E-01
        -11   -1    0    0    0    0  0.00000000000E+00  0.00000000000E+00  0.50000000000E+03  0.50000000000E+03  0.00000000000E+00 0.  1.
         11   -1    0    0    0    0 -0.00000000000E+00 -0.00000000000E+00 -0.50000000000E+03  0.50000000000E+03  0.00000000000E+00 0. -1.
        -11    1    1    2    0    0  0.15347329106E+01  0.72885511147E+00  0.10948211103E+03  0.10949529337E+03  0.00000000000E+00 0.  1.
         11    1    1    2    0    0 -0.11354083432E+02 -0.40722120863E+01 -0.49894270835E+03  0.49908849349E+03  0.00000000000E+00 0. -1.
        -15    1    1    2    0    0  0.10922243380E+02  0.97481687924E+00  0.38757998762E+03  0.38773915227E+03  0.17770000000E+01 0.  1.
         15    1    1    2    0    0 -0.11028928585E+01  0.23685400955E+01  0.18806096981E+01  0.36770608750E+01  0.17770000000E+01 0. -1.
</event>
<event>
 6    1  0.1782050E-003  0.5056772E+03  0.7546771E-02  0.9387195E-01
        -11   -1    0    0    0    0  0.00000000000E+00  0.00000000000E+00  0.50000000000E+03  0.50000000000E+03  0.00000000000E+00 0.  1.
         11   -1    0    0    0    0 -0.00000000000E+00 -0.00000000000E+00 -0.50000000000E+03  0.50000000000E+03  0.00000000000E+00 0. -1.
        -11    1    1    2    0    0  0.41219330003E+01  0.33919087302E+01  0.37383047441E+03  0.37386858517E+03  0.00000000000E+00 0.  1.
         11    1    1    2    0    0  0.13872307560E+02 -0.15424014839E+02 -0.49388733810E+03  0.49432281344E+03  0.00000000000E+00 0. -1.
        -15    1    1    2    0    0  0.20280564604E+01 -0.38249387813E+01  0.97719064923E+02  0.97831061264E+02  0.17770000000E+01 0.  1.
         15    1    1    2    0    0 -0.20022297021E+02  0.15857044890E+02  0.22337798765E+02  0.33977540130E+02  0.17770000000E+01 0. -1.
</event>
<event>
 6    1  0.1782050E-003  0.5006198E+03  0.7546771E-02  0.9398424E-01
        -11   -1    0    0    0    0  0.00000000000E+00  0.00000000000E+00  0.50000000000E+03  0.50000000000E+03  0.00000000000E+00 0.  1.
         11   -1    0    0    0    0 -0.00000000000E+00 -0.00000000000E+00 -0.50000000000E+03  0.50000000000E+03  0.00000000000E+00 0. -1.
        -11    1    1    2    0    0  0.57148437105E-01 -0.58166448409E+01  0.36091382166E+03  0.36096069493E+03  0.00000000000E+00 0.  1.
         11    1    1    2    0    0 -0.70044438742E+01  0.51204178328E+01 -0.49930477468E+03  0.49938015472E+03  0.00000000000E+00 0. -1.
        -15    1    1    2    0    0  0.52527911364E+01 -0.76211193282E+01  0.53248860925E+02  0.54076540138E+02  0.17770000000E+01 0.  1.
         15    1    1    2    0    0  0.16945043007E+01  0.83173463362E+01  0.85142092093E+02  0.85582610208E+02  0.17770000000E+01 0.  1.
</event>
<event>
 6    1  0.1782050E-003  0.5030152E+03  0.7546771E-02  0.9393088E-01
        -11   -1    0    0    0    0  0.00000000000E+00  0.00000000000E+00  0.50000000000E+03  0.50000000000E+03  0.00000000000E+00 0. -1.
         11   -1    0    0    0    0 -0.00000000000E+00 -0.00000000000E+00 -0.50000000000E+03  0.50000000000E+03  0.00000000000E+00 0.  1.
        -11    1    1    2    0    0 -0.71860387392E+01 -0.17963187634E+01  0.48068575723E+03  0.48074282431E+03  0.00000000000E+00 0. -1.
         11    1    1    2    0    0  0.16050058573E+01 -0.82935234664E+01 -0.49691298160E+03  0.49698477830E+03  0.00000000000E+00 0.  1.
        -15    1    1    2    0    0 -0.50627456881E-02  0.17777801021E+01  0.10078311366E+02  0.10387040807E+02  0.17770000000E+01 0.  1.
         15    1    1    2    0    0  0.55860956276E+01  0.83120621277E+01  0.61489130017E+01  0.11885356590E+02  0.17770000000E+01 0. -1.
</event>
<event>
 6    1  0.1782050E-003  0.5007620E+03  0.7546771E-02  0.9398106E-01
        -11   -1    0    0    0    0  0.00000000000E+00  0.00000000000E+00  0.50000000000E+03  0.50000000000E+03  0.00000000000E+00 0.  1.
         11   -1    0    0    0    0 -0.00000000000E+00 -0.00000000000E+00 -0.50000000000E+03  0.50000000000E+03  0.00000000000E+00 0.  1.
        -11    1    1    2    0    0 -0.14775876403E+02 -0.54575617624E+01  0.34885542927E+03  0.34921085613E+03  0.00000000000E+00 0.  1.
         11    1    1    2    0    0  0.11997210503E+02 -0.49816292728E+01 -0.49906896128E+03  0.49923799716E+03  0.00000000000E+00 0.  1.
        -15    1    1    2    0    0 -0.42836655896E+01  0.16139010388E+01  0.96865082879E+02  0.96989465808E+02  0.17770000000E+01 0. -1.
         15    1    1    2    0    0  0.70623314898E+01  0.88252899964E+01  0.53348449130E+02  0.54561680905E+02  0.17770000000E+01 0.  1.
</event>
<event>
 6    1  0.1782050E-003  0.5143405E+03  0.7546771E-02  0.9368281E-01
        -11   -1    0    0    0    0  0.00000000000E+00  0.00000000000E+00  0.50000000000E+03  0.50000000000E+03  0.00000000000E+00 0.  1.
         11   -1    0    0    0    0 -0.00000000000E+00 -0.00000000000E+00 -0.50000000000E+03  0.50000000000E+03  0.00000000000E+00 0. -1.
        -11    1    1    2    0    0 -0.91515713416E+01  0.20694926320E+01  0.48556887632E+03  0.48565951830E+03  0.00000000000E+00 0.  1.
         11    1    1    2    0    0 -0.70326320838E+01 -0.29568624111E+01 -0.35139086291E+03  0.35147366827E+03  0.00000000000E+00 0. -1.
        -15    1    1    2    0    0  0.13198523537E+02 -0.61126761380E+01  0.10468911419E+02  0.18008933018E+02  0.17770000000E+01 0.  1.
         15    1    1    2    0    0  0.29856798879E+01  0.70000459171E+01 -0.14464692483E+03  0.14485788042E+03  0.17770000000E+01 0. -1.
</event>
<event>
 6    1  0.1782050E-003  0.4874868E+03  0.7546771E-02  0.9428253E-01
        -11   -1    0    0    0    0  0.00000000000E+00  0.00000000000E+00  0.50000000000E+03  0.50000000000E+03  0.00000000000E+00 0.  1.
         11   -1    0    0    0    0 -0.00000000000E+00 -0.00000000000E+00 -0.50000000000E+03  0.50000000000E+03  0.00000000000E+00 0.  1.
        -11    1    1    2    0    0 -0.19973125606E+01  0.20345944334E+02  0.48720835027E+03  0.48763708153E+03  0.00000000000E+00 0.  1.
         11    1    1    2    0    0  0.56427272541E+00 -0.14389343915E+02 -0.48714304267E+03  0.48735584089E+03  0.00000000000E+00 0.  1.
        -15    1    1    2    0    0  0.66797593379E+00  0.71494177651E+01 -0.68861125101E+01  0.10106267398E+02  0.17770000000E+01 0. -1.
         15    1    1    2    0    0  0.76506390138E+00 -0.13106018184E+02  0.68208049117E+01  0.14900810181E+02  0.17770000000E+01 0.  1.
</event>
<event>
 6    1  0.1782050E-003  0.4910247E+03  0.7546771E-02  0.9420120E-01
        -11   -1    0    0    0    0  0.00000000000E+00  0.00000000000E+00  0.50000000000E+03  0.50000000000E+03  0.00000000000E+00 0.  1.
         11   -1    0    0    0    0 -0.00000000000E+00 -0.00000000000E+00 -0.50000000000E+03  0.50000000000E+03  0.00000000000E+00 0. -1.
        -11    1    1    2    0    0 -0.59476567786E+01 -0.38050486013E+01  0.48769823968E+03  0.48774934752E+03  0.00000000000E+00 0.  1.
         11    1    1    2    0    0  0.12629709981E+01 -0.80301975537E+01 -0.49433813218E+03  0.49440496366E+03  0.00000000000E+00 0. -1.
        -15    1    1    2    0    0  0.27267191565E+01  0.12829607812E+02  0.36450044065E+01  0.13728715166E+02  0.17770000000E+01 0. -1.
         15    1    1    2    0    0  0.19579666240E+01 -0.99436165724E+00  0.29948880908E+01  0.41169736558E+01  0.17770000000E+01 0.  1.
</event>
<event>
 6    1  0.1782050E-003  0.5004223E+03  0.7546771E-02  0.9398865E-01
        -11   -1    0    0    0    0  0.00000000000E+00  0.00000000000E+00  0.50000000000E+03  0.50000000000E+03  0.00000000000E+00 0. -1.
         11   -1    0    0    0    0 -0.00000000000E+00 -0.00000000000E+00 -0.50000000000E+03  0.50000000000E+03  0.00000000000E+00 0. -1.
        -11    1    1    2    0    0  0.82641741278E+01 -0.54827160897E+01  0.49947924308E+03  0.49957769267E+03  0.00000000000E+00 0. -1.
         11    1    1    2    0    0 -0.62137845537E+01 -0.30167106439E+01 -0.35373564748E+03  0.35380308076E+03  0.00000000000E+00 0. -1.
        -15    1    1    2    0    0  0.19920543893E+01  0.29376208671E+01 -0.11490360520E+03  0.11497214495E+03  0.17770000000E+01 0.  1.
         15    1    1    2    0    0 -0.40424439634E+01  0.55618058665E+01 -0.30839990400E+02  0.31647081612E+02  0.17770000000E+01 0. -1.
</event>
<event>
 6    1  0.1782050E-003  0.5102054E+03  0.7546771E-02  0.9377260E-01
        -11   -1    0    0    0    0  0.00000000000E+00  0.00000000000E+00  0.50000000000E+03  0.50000000000E+03  0.00000000000E+00 0.  1.
         11   -1    0    0    0    0 -0.00000000000E+00 -0.00000000000E+00 -0.50000000000E+03  0.50000000000E+03  0.00000000000E+00 0. -1.
        -11    1    1    2    0    0  0.17668705414E+02 -0.10418953048E+02  0.48936495143E+03  0.48979464414E+03  0.00000000000E+00 0.  1.
         11    1    1    2    0    0 -0.19034833743E+02  0.11940183419E+02 -0.42289790104E+03  0.42349442450E+03  0.00000000000E+00 0. -1.
        -15    1    1    2    0    0 -0.14055380096E+02  0.24350587339E+01  0.36138983241E+01  0.14822321369E+02  0.17770000000E+01 0. -1.
         15    1    1    2    0    0  0.15421508425E+02 -0.39562891057E+01 -0.70080948717E+02  0.71888610000E+02  0.17770000000E+01 0.  1.
</event>
<event>
 6    1  0.1782050E-003  0.5019214E+03  0.7546771E-02  0.9395521E-01
        -11   -1    0    0    0    0  0.00000000000E+00  0.00000000000E+00  0.50000000000E+03  0.50000000000E+03  0.00000000000E+00 0. -1.
         11   -1    0    0    0    0 -0.00000000000E+00 -0.00000000000E+00 -0.50000000000E+03  0.50000000000E+03  0.00000000000E+00 0. -1.
        -11    1    1    2    0    0 -0.89440691178E+01 -0.14495711757E+01  0.39615717214E+03  0.39626077609E+03  0.00000000000E+00 0. -1.
         11    1    1    2    0    0 -0.70484953096E+01 -0.46553490224E+01 -0.49800697677E+03  0.49807861074E+03  0.00000000000E+00 0. -1.
        -15    1    1    2    0    0  0.79338235037E+00 -0.72211347606E+01  0.35410215954E+02  0.36191371426E+02  0.17770000000E+01 0. -1.
         15    1    1    2    0    0  0.15199182077E+02  0.13326054959E+02  0.66439588680E+02  0.69469241752E+02  0.17770000000E+01 0.  1.
</event>
<event>
 6    1  0.1782050E-003  0.5011717E+03  0.7546771E-02  0.9397192E-01
        -11   -1    0    0    0    0  0.00000000000E+00  0.00000000000E+00  0.50000000000E+03  0.50000000000E+03  0.00000000000E+00 0.  1.
         11   -1    0    0    0    0 -0.00000000000E+00 -0.00000000000E+00 -0.50000000000E+03  0.50000000000E+03  0.00000000000E+00 0. -1.
        -11    1    1    2    0    0  0.10948282581E+02  0.42150882534E+01  0.49869034016E+03  0.49882831438E+03  0.00000000000E+00 0.  1.
         11    1    1    2    0    0 -0.11348519480E+01 -0.65817958163E+01 -0.26209881382E+03  0.26218389754E+03  0.00000000000E+00 0. -1.
        -15    1    1    2    0    0 -0.27989419029E+01 -0.22738619903E+01 -0.24908426453E+01  0.47293287272E+01  0.17770000000E+01 0.  1.
         15    1    1    2    0    0 -0.70144887305E+01  0.46405695532E+01 -0.23410068370E+03  0.23425845934E+03  0.17770000000E+01 0. -1.
</event>
<event>
 6    1  0.1782050E-003  0.5025367E+03  0.7546771E-02  0.9394151E-01
        -11   -1    0    0    0    0  0.00000000000E+00  0.00000000000E+00  0.50000000000E+03  0.50000000000E+03  0.00000000000E+00 0.  1.
         11   -1    0    0    0    0 -0.00000000000E+00 -0.00000000000E+00 -0.50000000000E+03  0.50000000000E+03  0.00000000000E+00 0. -1.
        -11    1    1    2    0    0 -0.15922720125E+02  0.54432885626E+01  0.25338061834E+03  0.25393877246E+03  0.00000000000E+00 0.  1.
         11    1    1    2    0    0  0.48821539355E+01 -0.52072112661E+01 -0.49741206872E+03  0.49746328165E+03  0.00000000000E+00 0. -1.
        -15    1    1    2    0    0 -0.62979371321E+01  0.10973224999E+01  0.36327764171E+01  0.75645834178E+01  0.17770000000E+01 0. -1.
         15    1    1    2    0    0  0.17338503322E+02 -0.13333997964E+01  0.24039867397E+03  0.24103336248E+03  0.17770000000E+01 0.  1.
</event>
<event>
 6    1  0.1782050E-003  0.5002370E+03  0.7546771E-02  0.9399280E-01
        -11   -1    0    0    0    0  0.00000000000E+00  0.00000000000E+00  0.50000000000E+03  0.50000000000E+03  0.00000000000E+00 0.  1.
         11   -1    0    0    0    0 -0.00000000000E+00 -0.00000000000E+00 -0.50000000000E+03  0.50000000000E+03  0.00000000000E+00 0.  1.
        -11    1    1    2    0    0  0.63177999819E+01  0.70052252431E+01  0.49967400825E+03  0.49976304615E+03  0.00000000000E+00 0.  1.
         11    1    1    2    0    0 -0.39049316453E+01  0.71200933696E+00 -0.18665787763E+03  0.18670007694E+03  0.00000000000E+00 0.  1.
        -15    1    1    2    0    0 -0.62902909153E+01 -0.10748364637E+02 -0.24306067963E+03  0.24338600373E+03  0.17770000000E+01 0. -1.
         15    1    1    2    0    0  0.38774225787E+01  0.30311300573E+01 -0.69955450998E+02  0.70150873185E+02  0.17770000000E+01 0.  1.
</event>
<event>
 6    1  0.1782050E-003  0.5187142E+03  0.7546771E-02  0.9358882E-01
        -11   -1    0    0    0    0  0.00000000000E+00  0.00000000000E+00  0.50000000000E+03  0.50000000000E+03  0.00000000000E+00 0.  1.
         11   -1    0    0    0    0 -0.00000000000E+00 -0.00000000000E+00 -0.50000000000E+03  0.50000000000E+03  0.00000000000E+00 0. -1.
        -11    1    1    2    0    0  0.74176342465E+01  0.45649112729E+01  0.48120694900E+03  0.48128576489E+03  0.00000000000E+00 0.  1.
         11    1    1    2    0    0  0.61436156088E+01  0.12837007178E+02 -0.46534259848E+03  0.46556016446E+03  0.00000000000E+00 0. -1.
        -15    1    1    2    0    0  0.31142556443E+01 -0.54502880915E+01 -0.28337056637E+02  0.29078355118E+02  0.17770000000E+01 0. -1.
         15    1    1    2    0    0 -0.16675505500E+02 -0.11951630359E+02  0.12472706115E+02  0.24075715539E+02  0.17770000000E+01 0.  1.
</event>
<event>
 6    1  0.1782050E-003  0.5151661E+03  0.7546771E-02  0.9366500E-01
        -11   -1    0    0    0    0  0.00000000000E+00  0.00000000000E+00  0.50000000000E+03  0.50000000000E+03  0.00000000000E+00 0. -1.
         11   -1    0    0    0    0 -0.00000000000E+00 -0.00000000000E+00 -0.50000000000E+03  0.50000000000E+03  0.00000000000E+00 0.  1.
        -11    1    1    2    0    0 -0.11942709556E+02  0.70136099477E+01  0.48463604130E+03  0.48483390101E+03  0.00000000000E+00 0. -1.
         11    1    1    2    0    0 -0.18981024161E+02  0.10125328033E+02 -0.21681127669E+03  0.21787595380E+03  0.00000000000E+00 0.  1.
        -15    1    1    2    0    0 -0.16342105342E+01 -0.41197979244E+01 -0.26158733161E+03  0.26163091019E+03  0.17770000000E+01 0.  1.
         15    1    1    2    0    0  0.32557944251E+02 -0.13019140056E+02 -0.62374330052E+01  0.35659235005E+02  0.17770000000E+01 0. -1.
</event>
<event>
 6    1  0.1782050E-003  0.5296590E+03  0.7546771E-02  0.9335786E-01
        -11   -1    0    0    0    0  0.00000000000E+00  0.00000000000E+00  0.50000000000E+03  0.50000000000E+03  0.00000000000E+00 0.  1.
         11   -1    0    0    0    0 -0.00000000000E+00 -0.00000000000E+00 -0.50000000000E+03  0.50000000000E+03  0.00000000000E+00 0. -1.
        -11    1    1    2    0    0  0.14085039321E+02  0.18333185542E+02  0.18273317677E+03  0.18418986920E+03  0.00000000000E+00 0.  1.
         11    1    1    2    0    0 -0.32624306058E+02 -0.36405504527E+02 -0.46779366735E+03  0.47034096284E+03  0.00000000000E+00 0. -1.
        -15    1    1    2    0    0  0.28072130045E+02 -0.47754953105E+02  0.27209219966E+03  0.27767949668E+03  0.17770000000E+01 0.  1.
         15    1    1    2    0    0 -0.95328633073E+01  0.65827272090E+02  0.12968290925E+02  0.67789671280E+02  0.17770000000E+01 0. -1.
</event>
<event>
 6    1  0.1782050E-003  0.5022564E+03  0.7546771E-02  0.9394775E-01
        -11   -1    0    0    0    0  0.00000000000E+00  0.00000000000E+00  0.50000000000E+03  0.50000000000E+03  0.00000000000E+00 0. -1.
         11   -1    0    0    0    0 -0.00000000000E+00 -0.00000000000E+00 -0.50000000000E+03  0.50000000000E+03  0.00000000000E+00 0.  1.
        -11    1    1    2    0    0 -0.50722124446E+01  0.47928818905E+01  0.49769465050E+03  0.49774357273E+03  0.00000000000E+00 0. -1.
         11    1    1    2    0    0  0.58019756186E+00  0.78867995369E+01 -0.27078598497E+03  0.27090143575E+03  0.00000000000E+00 0.  1.
        -15    1    1    2    0    0  0.67994340374E+01  0.30611840779E+01 -0.56618634336E+01  0.95298256925E+01  0.17770000000E+01 0. -1.
         15    1    1    2    0    0 -0.23074191547E+01 -0.15740865505E+02 -0.22124680210E+03  0.22182516583E+03  0.17770000000E+01 0.  1.
</event>
<event>
 6    1  0.1782050E-003  0.5006503E+03  0.7546771E-02  0.9398356E-01
        -11   -1    0    0    0    0  0.00000000000E+00  0.00000000000E+00  0.50000000000E+03  0.50000000000E+03  0.00000000000E+00 0. -1.
         11   -1    0    0    0    0 -0.00000000000E+00 -0.00000000000E+00 -0.50000000000E+03  0.50000000000E+03  0.00000000000E+00 0. -1.
        -11    1    1    2    0    0  0.46215233484E+01  0.85362628043E+01  0.49925537453E+03  0.49934973241E+03  0.00000000000E+00 0. -1.
         11    1    1    2    0    0  0.22332442788E+01 -0.25720786646E+01 -0.20585711119E+03  0.20588529135E+03  0.00000000000E+00 0. -1.
        -15    1    1    2    0    0  0.43495520754E+01  0.70591519490E+01 -0.46757621884E+02  0.47520344725E+02  0.17770000000E+01 0. -1.
         15    1    1    2    0    0 -0.11204319703E+02 -0.13023336089E+02 -0.24664064146E+03  0.24724463151E+03  0.17770000000E+01 0.  1.
</event>
<event>
 6    1  0.1782050E-003  0.5002144E+03  0.7546771E-02  0.9399330E-01
        -11   -1    0    0    0    0  0.00000000000E+00  0.00000000000E+00  0.50000000000E+03  0.50000000000E+03  0.00000000000E+00 0.  1.
         11   -1    0    0    0    0 -0.00000000000E+00 -0.00000000000E+00 -0.50000000000E+03  0.50000000000E+03  0.00000000000E+00 0.  1.
        -11    1    1    2    0    0  0.11000724774E+01 -0.28374502053E+01  0.14829686602E+03  0.14832808822E+03  0.00000000000E+00 0.  1.
         11    1    1    2    0    0 -0.59593014001E+00 -0.75814703196E+01 -0.49972769335E+03  0.49978555534E+03  0.00000000000E+00 0.  1.
        -15    1    1    2    0    0  0.26747329433E+01  0.10362090157E+02  0.13843997723E+03  0.13886436596E+03  0.17770000000E+01 0.  1.
         15    1    1    2    0    0 -0.31788752806E+01  0.56830367452E-01  0.21299085010E+03  0.21302199049E+03  0.17770000000E+01 0.  1.
</event>
<event>
 6    1  0.1782050E-003  0.5004921E+03  0.7546771E-02  0.9398709E-01
        -11   -1    0    0    0    0  0.00000000000E+00  0.00000000000E+00  0.50000000000E+03  0.50000000000E+03  0.00000000000E+00 0.  1.
         11   -1    0    0    0    0 -0.00000000000E+00 -0.00000000000E+00 -0.50000000000E+03  0.50000000000E+03  0.00000000000E+00 0.  1.
        -11    1    1    2    0    0 -0.30441989345E+01 -0.61294642333E+01  0.49946097582E+03  0.49950786164E+03  0.00000000000E+00 0.  1.
         11    1    1    2    0    0 -0.41164576783E+01  0.54325756545E+01 -0.39839236824E+03  0.39845067094E+03  0.00000000000E+00 0.  1.
        -15    1    1    2    0    0  0.61000305834E+01  0.21193541309E+00 -0.98511108169E+02  0.98716014159E+02  0.17770000000E+01 0.  1.
         15    1    1    2    0    0  0.10606260294E+01  0.48495316572E+00 -0.25574994101E+01  0.33254532593E+01  0.17770000000E+01 0. -1.
</event>
<event>
 6    1  0.1782050E-003  0.5014458E+03  0.7546771E-02  0.9396580E-01
        -11   -1    0    0    0    0  0.00000000000E+00  0.00000000000E+00  0.50000000000E+03  0.50000000000E+03  0.00000000000E+00 0. -1.
         11   -1    0    0    0    0 -0.00000000000E+00 -0.00000000000E+00 -0.50000000000E+03  0.50000000000E+03  0.00000000000E+00 0.  1.
        -11    1    1    2    0    0  0.35276283340E+01  0.74556765487E+01  0.49848595668E+03  0.49855418991E+03  0.00000000000E+00 0. -1.
         11    1    1    2    0    0 -0.79050147317E+01 -0.36220323896E+01 -0.46848247671E+03  0.46856316475E+03  0.00000000000E+00 0.  1.
        -15    1    1    2    0    0 -0.24865050979E+01 -0.36055051483E+01 -0.49497764955E+01  0.68440040423E+01  0.17770000000E+01 0. -1.
         15    1    1    2    0    0  0.68638914957E+01 -0.22813901083E+00 -0.25053703467E+02  0.26038641292E+02  0.17770000000E+01 0.  1.
</event>
<event>
 6    1  0.1782050E-003  0.5010091E+03  0.7546771E-02  0.9397555E-01
        -11   -1    0    0    0    0  0.00000000000E+00  0.00000000000E+00  0.50000000000E+03  0.50000000000E+03  0.00000000000E+00 0. -1.
         11   -1    0    0    0    0 -0.00000000000E+00 -0.00000000000E+00 -0.50000000000E+03  0.50000000000E+03  0.00000000000E+00 0. -1.
        -11    1    1    2    0    0  0.42354503521E+00 -0.68307635784E+01  0.49894394280E+03  0.49899087845E+03  0.00000000000E+00 0. -1.
         11    1    1    2    0    0  0.62490885477E+01  0.19516919557E+01 -0.42017909473E+03  0.42023009395E+03  0.00000000000E+00 0. -1.
        -15    1    1    2    0    0 -0.98890276688E+01 -0.17521871222E+01 -0.50173233789E+02  0.51199356888E+02  0.17770000000E+01 0.  1.
         15    1    1    2    0    0  0.32163940859E+01  0.66312587449E+01 -0.28591614276E+02  0.29579670711E+02  0.17770000000E+01 0. -1.
</event>
<event>
 6    1  0.1782050E-003  0.5013490E+03  0.7546771E-02  0.9396796E-01
        -11   -1    0    0    0    0  0.00000000000E+00  0.00000000000E+00  0.50000000000E+03  0.50000000000E+03  0.00000000000E+00 0. -1.
         11   -1    0    0    0    0 -0.00000000000E+00 -0.00000000000E+00 -0.50000000000E+03  0.50000000000E+03  0.00000000000E+00 0.  1.
        -11    1    1    2    0    0  0.89291664211E+01 -0.12412928142E+02  0.49841646983E+03  0.49865096831E+03  0.00000000000E+00 0. -1.
         11    1    1    2    0    0  0.93757307541E+01 -0.70338920475E+00 -0.33593819917E+03  0.33606974387E+03  0.00000000000E+00 0.  1.
        -15    1    1    2    0    0  0.37805522438E+01  0.53392995347E+01 -0.33055211179E+02  0.33743227615E+02  0.17770000000E+01 0.  1.
         15    1    1    2    0    0 -0.22085449419E+02  0.77770178120E+01 -0.12942305947E+03  0.13153606021E+03  0.17770000000E+01 0. -1.
</event>
<event>
 6    1  0.1782050E-003  0.4860721E+03  0.7546771E-02  0.9431525E-01
        -11   -1    0    0    0    0  0.00000000000E+00  0.00000000000E+00  0.50000000000E+03  0.50000000000E+03  0.00000000000E+00 0. -1.
         11   -1    0    0    0    0 -0.00000000000E+00 -0.00000000000E+00 -0.50000000000E+03  0.50000000000E+03  0.00000000000E+00 0. -1.
        -11    1    1    2    0    0  0.18761703386E+02  0.42502647839E+02  0.49533395316E+03  0.49750799163E+03  0.00000000000E+00 0. -1.
         11    1    1    2    0    0  0.58467279075E+00  0.18227033294E+00 -0.31955907224E+02  0.31961775158E+02  0.00000000000E+00 0. -1.
        -15    1    1    2    0    0 -0.43821396494E+02 -0.20322564445E+02 -0.25871561105E+03  0.26319241354E+03  0.17770000000E+01 0. -1.
         15    1    1    2    0    0  0.24475020318E+02 -0.22362353727E+02 -0.20466243488E+03  0.20733781967E+03  0.17770000000E+01 0.  1.
</event>
<event>
 6    1  0.1782050E-003  0.5017336E+03  0.7546771E-02  0.9395939E-01
        -11   -1    0    0    0    0  0.00000000000E+00  0.00000000000E+00  0.50000000000E+03  0.50000000000E+03  0.00000000000E+00 0.  1.
         11   -1    0    0    0    0 -0.00000000000E+00 -0.00000000000E+00 -0.50000000000E+03  0.50000000000E+03  0.00000000000E+00 0. -1.
        -11    1    1    2    0    0 -0.94338088785E+00  0.51134532601E+00  0.31250478296E+01  0.33041436832E+01  0.00000000000E+00 0.  1.
         11    1    1    2    0    0 -0.79025965358E+01  0.26112328979E+01 -0.49643201229E+03  0.49650177482E+03  0.00000000000E+00 0. -1.
        -15    1    1    2    0    0 -0.20939192074E+02  0.88223262580E+01  0.42350402099E+02  0.48093632554E+02  0.17770000000E+01 0.  1.
         15    1    1    2    0    0  0.29785169497E+02 -0.11944904482E+02  0.45095656237E+03  0.45210044894E+03  0.17770000000E+01 0.  1.
</event>
<event>
 6    1  0.1782050E-003  0.5051542E+03  0.7546771E-02  0.9388350E-01
        -11   -1    0    0    0    0  0.00000000000E+00  0.00000000000E+00  0.50000000000E+03  0.50000000000E+03  0.00000000000E+00 0.  1.
         11   -1    0    0    0    0 -0.00000000000E+00 -0.00000000000E+00 -0.50000000000E+03  0.50000000000E+03  0.00000000000E+00 0. -1.
        -11    1    1    2    0    0  0.50410675977E+01  0.13815998923E+02  0.49462722922E+03  0.49484582455E+03  0.00000000000E+00 0.  1.
         11    1    1    2    0    0  0.31096251051E+01  0.74834185581E+01 -0.43198486074E+03  0.43206086519E+03  0.00000000000E+00 0. -1.
        -15    1    1    2    0    0  0.11085012094E+02 -0.76394426216E+01 -0.17756714657E+02  0.22353908408E+02  0.17770000000E+01 0. -1.
         15    1    1    2    0    0 -0.19235704797E+02 -0.13659974859E+02 -0.44885653824E+02  0.50739401853E+02  0.17770000000E+01 0.  1.
</event>
<event>
 6    1  0.1782050E-003  0.5013675E+03  0.7546771E-02  0.9396755E-01
        -11   -1    0    0    0    0  0.00000000000E+00  0.00000000000E+00  0.50000000000E+03  0.50000000000E+03  0.00000000000E+00 0. -1.
         11   -1    0    0    0    0 -0.00000000000E+00 -0.00000000000E+00 -0.50000000000E+03  0.50000000000E+03  0.00000000000E+00 0. -1.
        -11    1    1    2    0    0  0.14303523445E+02  0.15728013090E+01  0.17569536149E+03  0.17628364795E+03  0.00000000000E+00 0. -1.
         11    1    1    2    0    0 -0.47943202550E+01 -0.18031453651E+02 -0.49828333083E+03  0.49863252663E+03  0.00000000000E+00 0. -1.
        -15    1    1    2    0    0 -0.81612477811E+01  0.19457627149E+01  0.27816326854E+03  0.27829544310E+03  0.17770000000E+01 0. -1.
         15    1    1    2    0    0 -0.13479554091E+01  0.14512889627E+02  0.44424700803E+02  0.46788382314E+02  0.17770000000E+01 0.  1.
</event>
<event>
 6    1  0.1782050E-003  0.5033424E+03  0.7546771E-02  0.9392362E-01
        -11   -1    0    0    0    0  0.00000000000E+00  0.00000000000E+00  0.50000000000E+03  0.50000000000E+03  0.00000000000E+00 0.  1.
         11   -1    0    0    0    0 -0.00000000000E+00 -0.00000000000E+00 -0.50000000000E+03  0.50000000000E+03  0.00000000000E+00 0. -1.
        -11    1    1    2    0    0  0.47552811621E+00  0.97440086892E+01  0.49656181149E+03  0.49665763305E+03  0.00000000000E+00 0.  1.
         11    1    1    2    0    0 -0.56418290384E+01 -0.58608382475E+01 -0.48421870576E+03  0.48428703748E+03  0.00000000000E+00 0. -1.
        -15    1    1    2    0    0  0.47267022189E+01  0.25831631341E+01 -0.84135026593E+00  0.57341123911E+01  0.17770000000E+01 0.  1.
         15    1    1    2    0    0  0.43959870323E+00 -0.64663335758E+01 -0.11501755459E+02  0.13321217083E+02  0.17770000000E+01 0. -1.
</event>
<event>
 6    1  0.1782050E-003  0.5057990E+03  0.7546771E-02  0.9386927E-01
        -11   -1    0    0    0    0  0.00000000000E+00  0.00000000000E+00  0.50000000000E+03  0.50000000000E+03  0.00000000000E+00 0. -1.
         11   -1    0    0    0    0 -0.00000000000E+00 -0.00000000000E+00 -0.50000000000E+03  0.50000000000E+03  0.00000000000E+00 0. -1.
        -11    1    1    2    0    0  0.10863504313E+02  0.10282364206E+01  0.45474735027E+03  0.45487825357E+03  0.00000000000E+00 0. -1.
         11    1    1    2    0    0 -0.36692812819E+01  0.75324746500E+01 -0.49412991972E+03  0.49420095039E+03  0.00000000000E+00 0. -1.
        -15    1    1    2    0    0 -0.10144644645E+02  0.47750787217E+01  0.34480278708E+02  0.36300999167E+02  0.17770000000E+01 0. -1.
         15    1    1    2    0    0  0.29504216142E+01 -0.13335789792E+02  0.49022907460E+01  0.14619796874E+02  0.17770000000E+01 0.  1.
</event>
<event>
 6    1  0.1782050E-003  0.5212901E+03  0.7546771E-02  0.9353392E-01
        -11   -1    0    0    0    0  0.00000000000E+00  0.00000000000E+00  0.50000000000E+03  0.50000000000E+03  0.00000000000E+00 0. -1.
         11   -1    0    0    0    0 -0.00000000000E+00 -0.00000000000E+00 -0.50000000000E+03  0.50000000000E+03  0.00000000000E+00 0. -1.
        -11    1    1    2    0    0 -0.19472273148E+02  0.87662327652E+00  0.41636550490E+03  0.41682151043E+03  0.00000000000E+00 0. -1.
         11    1    1    2    0    0 -0.57175044828E+01 -0.11196572620E+02 -0.47854477839E+03  0.47870988920E+03  0.00000000000E+00 0. -1.
        -15    1    1    2    0    0  0.13384540460E+02  0.15775905794E+02 -0.15358529653E+02  0.25827645829E+02  0.17770000000E+01 0. -1.
         15    1    1    2    0    0  0.11805237170E+02 -0.54559564506E+01  0.77537803143E+02  0.78640954538E+02  0.17770000000E+01 0.  1.
</event>
<event>
 6    1  0.1782050E-003  0.5003973E+03  0.7546771E-02  0.9398921E-01
        -11   -1    0    0    0    0  0.00000000000E+00  0.00000000000E+00  0.50000000000E+03  0.50000000000E+03  0.00000000000E+00 0.  1.
         11   -1    0    0    0    0 -0.00000000000E+00 -0.00000000000E+00 -0.50000000000E+03  0.50000000000E+03  0.00000000000E+00 0.  1.
        -11    1    1    2    0    0  0.44390930538E+01  0.38156798851E+01  0.31342381930E+03  0.31347847688E+03  0.00000000000E+00 0.  1.
         11    1    1    2    0    0 -0.98175951585E+01  0.11195666899E+01 -0.49950495310E+03  0.49960267891E+03  0.00000000000E+00 0.  1.
        -15    1    1    2    0    0  0.56342899480E+01  0.41814955570E+01  0.50039272251E+02  0.50560029912E+02  0.17770000000E+01 0.  1.
         15    1    1    2    0    0 -0.25578784330E+00 -0.91167421319E+01  0.13604186154E+03  0.13635881430E+03  0.17770000000E+01 0. -1.
</event>
<event>
 6    1  0.1782050E-003  0.5030527E+03  0.7546771E-02  0.9393005E-01
        -11   -1    0    0    0    0  0.00000000000E+00  0.00000000000E+00  0.50000000000E+03  0.50000000000E+03  0.00000000000E+00 0.  1.
         11   -1    0    0    0    0 -0.00000000000E+00 -0.00000000000E+00 -0.50000000000E+03  0.50000000000E+03  0.00000000000E+00 0.  1.
        -11    1    1    2    0    0 -0.21475098421E+01  0.79727857129E+01  0.47480261078E+03  0.47487440057E+03  0.00000000000E+00 0.  1.
         11    1    1    2    0    0  0.90636134577E+01  0.43000061482E+01 -0.49684600022E+03  0.49694726791E+03  0.00000000000E+00 0.  1.
        -15    1    1    2    0    0 -0.38178320654E+01 -0.11251094633E+02  0.21202526647E+02  0.24369403713E+02  0.17770000000E+01 0.  1.
         15    1    1    2    0    0 -0.30982715502E+01 -0.10216972277E+01  0.84086279616E+00  0.38089278105E+01  0.17770000000E+01 0. -1.
</event>
<event>
 6    1  0.1782050E-003  0.5057120E+03  0.7546771E-02  0.9387119E-01
        -11   -1    0    0    0    0  0.00000000000E+00  0.00000000000E+00  0.50000000000E+03  0.50000000000E+03  0.00000000000E+00 0.  1.
         11   -1    0    0    0    0 -0.00000000000E+00 -0.00000000000E+00 -0.50000000000E+03  0.50000000000E+03  0.00000000000E+00 0.  1.
        -11    1    1    2    0    0 -0.77802313542E+01  0.16988562315E+01  0.45508462363E+03  0.45515429557E+03  0.00000000000E+00 0.  1.
         11    1    1    2    0    0 -0.51500345300E-01 -0.13243153280E+02 -0.49411051673E+03  0.49428795909E+03  0.00000000000E+00 0.  1.
        -15    1    1    2    0    0 -0.89303520997E+00 -0.80943572087E+01  0.20499277316E+02  0.22129035903E+02  0.17770000000E+01 0. -1.
         15    1    1    2    0    0  0.87247669095E+01  0.19638654257E+02  0.18526615781E+02  0.28428709432E+02  0.17770000000E+01 0.  1.
</event>
<event>
 6    1  0.1782050E-003  0.4862227E+03  0.7546771E-02  0.9431176E-01
        -11   -1    0    0    0    0  0.00000000000E+00  0.00000000000E+00  0.50000000000E+03  0.50000000000E+03  0.00000000000E+00 0.  1.
         11   -1    0    0    0    0 -0.00000000000E+00 -0.00000000000E+00 -0.50000000000E+03  0.50000000000E+03  0.00000000000E+00 0.  1.
        -11    1    1    2    0    0  0.96871865572E+01 -0.10223447500E+02  0.48787910700E+03  0.48808235320E+03  0.00000000000E+00 0.  1.
         11    1    1    2    0    0  0.45134326169E+01 -0.70575120109E+01 -0.48455357762E+03  0.48462598892E+03  0.00000000000E+00 0.  1.
        -15    1    1    2    0    0 -0.13450057348E+02  0.86553378465E+01 -0.72136561257E+01  0.17635574264E+02  0.17770000000E+01 0.  1.
         15    1    1    2    0    0 -0.75056182588E+00  0.86256216644E+01  0.38881267470E+01  0.96560836136E+01  0.17770000000E+01 0. -1.
</event>
<event>
 6    1  0.1782050E-003  0.5017999E+03  0.7546771E-02  0.9395791E-01
        -11   -1    0    0    0    0  0.00000000000E+00  0.00000000000E+00  0.50000000000E+03  0.50000000000E+03  0.00000000000E+00 0.  1.
         11   -1    0    0    0    0 -0.00000000000E+00 -0.00000000000E+00 -0.50000000000E+03  0.50000000000E+03  0.00000000000E+00 0.  1.
        -11    1    1    2    0    0 -0.21375471702E+02  0.12462219634E+01  0.35395365477E+03  0.35460069597E+03  0.00000000000E+00 0.  1.
         11    1    1    2    0    0  0.98338172010E+01 -0.53262319245E+01 -0.49807456526E+03  0.49820010565E+03  0.00000000000E+00 0.  1.
        -15    1    1    2    0    0 -0.75885986283E+01  0.29810942767E+00  0.18737693688E+02  0.20296171859E+02  0.17770000000E+01 0. -1.
         15    1    1    2    0    0  0.19130253129E+02  0.37819005335E+01  0.12538321680E+03  0.12690302653E+03  0.17770000000E+01 0.  1.
</event>
<event>
 6    1  0.1782050E-003  0.4242002E+03  0.7546771E-02  0.9587481E-01
        -11   -1    0    0    0    0  0.00000000000E+00  0.00000000000E+00  0.50000000000E+03  0.50000000000E+03  0.00000000000E+00 0. -1.
         11   -1    0    0    0    0 -0.00000000000E+00 -0.00000000000E+00 -0.50000000000E+03  0.50000000000E+03  0.00000000000E+00 0.  1.
        -11    1    1    2    0    0  0.47527388636E+02  0.17529505184E+02  0.42572752231E+03  0.42873075405E+03  0.00000000000E+00 0. -1.
         11    1    1    2    0    0 -0.18810140572E+01 -0.62605992928E+01 -0.42093423118E+03  0.42098498820E+03  0.00000000000E+00 0.  1.
        -15    1    1    2    0    0 -0.87433713290E+02 -0.74125466257E+01 -0.39071841540E+02  0.96069592471E+02  0.17770000000E+01 0.  1.
         15    1    1    2    0    0  0.41787338712E+02 -0.38563592652E+01  0.34278550408E+02  0.54214665271E+02  0.17770000000E+01 0. -1.
</event>
<event>
 6    1  0.1782050E-003  0.5000563E+03  0.7546771E-02  0.9399684E-01
        -11   -1    0    0    0    0  0.00000000000E+00  0.00000000000E+00  0.50000000000E+03  0.50000000000E+03  0.00000000000E+00 0. -1.
         11   -1    0    0    0    0 -0.00000000000E+00 -0.00000000000E+00 -0.50000000000E+03  0.50000000000E+03  0.00000000000E+00 0.  1.
        -11    1    1    2    0    0  0.86785647717E+00  0.58903467498E+00  0.62314590826E+02  0.62323417481E+02  0.00000000000E+00 0. -1.
         11    1    1    2    0    0  0.66797083223E+01  0.19102615345E+01 -0.49989538879E+03  0.49994366416E+03  0.00000000000E+00 0.  1.
        -15    1    1    2    0    0 -0.65999100397E+01 -0.48921114082E+01  0.31233959977E+03  0.31245267622E+03  0.17770000000E+01 0. -1.
         15    1    1    2    0    0 -0.94765475976E+00  0.23928151987E+01  0.12524119820E+03  0.12528024213E+03  0.17770000000E+01 0.  1.
</event>
<event>
 6    1  0.1782050E-003  0.4464498E+03  0.7546771E-02  0.9528311E-01
        -11   -1    0    0    0    0  0.00000000000E+00  0.00000000000E+00  0.50000000000E+03  0.50000000000E+03  0.00000000000E+00 0. -1.
         11   -1    0    0    0    0 -0.00000000000E+00 -0.00000000000E+00 -0.50000000000E+03  0.50000000000E+03  0.00000000000E+00 0. -1.
        -11    1    1    2    0    0 -0.44802886219E+02  0.26549469377E+01  0.45441032109E+03  0.45662138284E+03  0.00000000000E+00 0. -1.
         11    1    1    2    0    0 -0.23808145879E+02  0.17893544102E+02 -0.43828066687E+03  0.43929141772E+03  0.00000000000E+00 0. -1.
        -15    1    1    2    0    0  0.38069336009E+02 -0.11856140306E+02 -0.45689392942E+02  0.60667295668E+02  0.17770000000E+01 0. -1.
         15    1    1    2    0    0  0.30541696089E+02 -0.86923507338E+01  0.29559738723E+02  0.43419903773E+02  0.17770000000E+01 0.  1.
</event>
<event>
 6    1  0.1782050E-003  0.5018713E+03  0.7546771E-02  0.9395632E-01
        -11   -1    0    0    0    0  0.00000000000E+00  0.00000000000E+00  0.50000000000E+03  0.50000000000E+03  0.00000000000E+00 0. -1.
         11   -1    0    0    0    0 -0.00000000000E+00 -0.00000000000E+00 -0.50000000000E+03  0.50000000000E+03  0.00000000000E+00 0. -1.
        -11    1    1    2    0    0  0.86526286873E+00  0.47645603903E+01  0.19790458934E+03  0.19796382548E+03  0.00000000000E+00 0. -1.
         11    1    1    2    0    0 -0.71316864485E+01 -0.47473502779E+02 -0.49581004588E+03  0.49812869423E+03  0.00000000000E+00 0. -1.
        -15    1    1    2    0    0  0.65520202114E+00  0.20169064761E+00 -0.85005518429E+00  0.20857352713E+01  0.17770000000E+01 0.  1.
         15    1    1    2    0    0  0.56112215587E+01  0.42507251741E+02  0.29875551172E+03  0.30182174503E+03  0.17770000000E+01 0. -1.
</event>
<event>
 6    1  0.1782050E-003  0.5024730E+03  0.7546771E-02  0.9394293E-01
        -11   -1    0    0    0    0  0.00000000000E+00  0.00000000000E+00  0.50000000000E+03  0.50000000000E+03  0.00000000000E+00 0. -1.
         11   -1    0    0    0    0 -0.00000000000E+00 -0.00000000000E+00 -0.50000000000E+03  0.50000000000E+03  0.00000000000E+00 0.  1.
        -11    1    1    2    0    0 -0.39679599412E+00  0.65309949420E+01  0.44935696791E+03  0.44940460161E+03  0.00000000000E+00 0. -1.
         11    1    1    2    0    0 -0.98634616491E+01 -0.41362588658E+00 -0.49742907912E+03  0.49752703215E+03  0.00000000000E+00 0.  1.
        -15    1    1    2    0    0  0.67003770480E+01 -0.88000173035E+01  0.46774636919E+02  0.48097398527E+02  0.17770000000E+01 0.  1.
         15    1    1    2    0    0  0.35598805952E+01  0.26826482480E+01  0.12974742958E+01  0.49709677149E+01  0.17770000000E+01 0. -1.
</event>
<event>
 6    1  0.1782050E-003  0.5049188E+03  0.7546771E-02  0.9388870E-01
        -11   -1    0    0    0    0  0.00000000000E+00  0.00000000000E+00  0.50000000000E+03  0.50000000000E+03  0.00000000000E+00 0.  1.
         11   -1    0    0    0    0 -0.00000000000E+00 -0.00000000000E+00 -0.50000000000E+03  0.50000000000E+03  0.00000000000E+00 0. -1.
        -11    1    1    2    0    0  0.94738877200E+01  0.27503974439E+01  0.49498287079E+03  0.49508116669E+03  0.00000000000E+00 0.  1.
         11    1    1    2    0    0 -0.14558309905E+02 -0.34913319865E+02 -0.24869939003E+03  0.25155967660E+03  0.00000000000E+00 0. -1.
        -15    1    1    2    0    0 -0.74647243726E+01 -0.35473404653E+01 -0.66703902968E+01  0.10768359673E+02  0.17770000000E+01 0.  1.
         15    1    1    2    0    0  0.12549146558E+02  0.35710262887E+02 -0.23961309046E+03  0.24259079703E+03  0.17770000000E+01 0. -1.
</event>
<event>
 6    1  0.1782050E-003  0.5010317E+03  0.7546771E-02  0.9397504E-01
        -11   -1    0    0    0    0  0.00000000000E+00  0.00000000000E+00  0.50000000000E+03  0.50000000000E+03  0.00000000000E+00 0. -1.
         11   -1    0    0    0    0 -0.00000000000E+00 -0.00000000000E+00 -0.50000000000E+03  0.50000000000E+03  0.00000000000E+00 0. -1.
        -11    1    1    2    0    0  0.85749475945E+01 -0.11770964405E+01  0.49889327210E+03  0.49896834792E+03  0.00000000000E+00 0. -1.
         11    1    1    2    0    0  0.77814768452E+01  0.32406320560E+01 -0.28310629082E+03  0.28323175137E+03  0.00000000000E+00 0. -1.
        -15    1    1    2    0    0 -0.17123996217E+01 -0.11389740527E+02 -0.68743519592E+02  0.69724369603E+02  0.17770000000E+01 0.  1.
         15    1    1    2    0    0 -0.14644024818E+02  0.93262049110E+01 -0.14704346168E+03  0.14807553111E+03  0.17770000000E+01 0. -1.
</event>
<event>
 6    1  0.1782050E-003  0.5057381E+03  0.7546771E-02  0.9387061E-01
        -11   -1    0    0    0    0  0.00000000000E+00  0.00000000000E+00  0.50000000000E+03  0.50000000000E+03  0.00000000000E+00 0.  1.
         11   -1    0    0    0    0 -0.00000000000E+00 -0.00000000000E+00 -0.50000000000E+03  0.50000000000E+03  0.00000000000E+00 0. -1.
        -11    1    1    2    0    0  0.21037198867E+01 -0.41082552273E+01  0.34146698047E+03  0.34149817298E+03  0.00000000000E+00 0.  1.
         11    1    1    2    0    0  0.20544025715E+02 -0.16761545634E+02 -0.49355017265E+03  0.49426185299E+03  0.00000000000E+00 0. -1.
        -15    1    1    2    0    0 -0.18589274249E+02  0.26739371612E+02  0.38664685954E+02  0.50583305351E+02  0.17770000000E+01 0.  1.
         15    1    1    2    0    0 -0.40584713527E+01 -0.58695707511E+01  0.11341850622E+03  0.11365666867E+03  0.17770000000E+01 0. -1.
</event>
<event>
 6    1  0.1782050E-003  0.5012559E+03  0.7546771E-02  0.9397004E-01
        -11   -1    0    0    0    0  0.00000000000E+00  0.00000000000E+00  0.50000000000E+03  0.50000000000E+03  0.00000000000E+00 0.  1.
         11   -1    0    0    0    0 -0.00000000000E+00 -0.00000000000E+00 -0.50000000000E+03  0.50000000000E+03  0.00000000000E+00 0. -1.
        -11    1    1    2    0    0 -0.70579238233E+01 -0.91599086030E+01  0.38605318978E+03  0.38622633721E+03  0.00000000000E+00 0.  1.
         11    1    1    2    0    0 -0.86758555242E+01 -0.26777629275E+01 -0.49866144684E+03  0.49874410217E+03  0.00000000000E+00 0. -1.
        -15    1    1    2    0    0 -0.11211667906E+01  0.38358563692E+01  0.14426123474E+02  0.15074534040E+02  0.17770000000E+01 0.  1.
         15    1    1    2    0    0  0.16854946138E+02  0.80018151613E+01  0.98182133581E+02  0.99955026580E+02  0.17770000000E+01 0. -1.
</event>
<event>
 6    1  0.1782050E-003  0.5020342E+03  0.7546771E-02  0.9395270E-01
        -11   -1    0    0    0    0  0.00000000000E+00  0.00000000000E+00  0.50000000000E+03  0.50000000000E+03  0.00000000000E+00 0. -1.
         11   -1    0    0    0    0 -0.00000000000E+00 -0.00000000000E+00 -0.50000000000E+03  0.50000000000E+03  0.00000000000E+00 0.  1.
        -11    1    1    2    0    0  0.13059660680E+01 -0.64279731528E+01  0.45811628815E+03  0.45816324368E+03  0.00000000000E+00 0. -1.
         11    1    1    2    0    0  0.37423867120E+01  0.13285873861E+02 -0.49777451439E+03  0.49796584931E+03  0.00000000000E+00 0.  1.
        -15    1    1    2    0    0 -0.81077759305E+01 -0.41182610610E+01  0.37976587338E+02  0.39090600143E+02  0.17770000000E+01 0. -1.
         15    1    1    2    0    0  0.30594231505E+01 -0.27396396476E+01  0.16816389001E+01  0.47803068733E+01  0.17770000000E+01 0.  1.
</event>
<event>
 6    1  0.1782050E-003  0.5063144E+03  0.7546771E-02  0.9385791E-01
        -11   -1    0    0    0    0  0.00000000000E+00  0.00000000000E+00  0.50000000000E+03  0.50000000000E+03  0.00000000000E+00 0. -1.
         11   -1    0    0    0    0 -0.00000000000E+00 -0.00000000000E+00 -0.50000000000E+03  0.50000000000E+03  0.00000000000E+00 0.  1.
        -11    1    1    2    0    0 -0.69623921217E+01  0.36968789768E+01  0.49068178709E+03  0.49074510492E+03  0.00000000000E+00 0. -1.
         11    1    1    2    0    0  0.97291834400E+01 -0.11569554445E+01 -0.49358837646E+03  0.49368560941E+03  0.00000000000E+00 0.  1.
        -15    1    1    2    0    0 -0.64830624773E+01 -0.66195300522E+01  0.24868637221E+01  0.97565617596E+01  0.17770000000E+01 0. -1.
         15    1    1    2    0    0  0.37162711589E+01  0.40796065200E+01  0.41972565023E+00  0.58127239145E+01  0.17770000000E+01 0.  1.
</event>
<event>
 6    1  0.1782050E-003  0.5013966E+03  0.7546771E-02  0.9396690E-01
        -11   -1    0    0    0    0  0.00000000000E+00  0.00000000000E+00  0.50000000000E+03  0.50000000000E+03  0.00000000000E+00 0. -1.
         11   -1    0    0    0    0 -0.00000000000E+00 -0.00000000000E+00 -0.50000000000E+03  0.50000000000E+03  0.00000000000E+00 0.  1.
        -11    1    1    2    0    0 -0.35122340709E+00  0.45752415055E+01  0.23947975140E+03  0.23952370973E+03  0.00000000000E+00 0. -1.
         11    1    1    2    0    0  0.40833101524E+00 -0.10211044213E+02 -0.49849865244E+03  0.49860338812E+03  0.00000000000E+00 0.  1.
        -15    1    1    2    0    0 -0.16337215938E+01  0.91219757064E+01  0.14391213642E+02  0.17208842092E+02  0.17770000000E+01 0. -1.
         15    1    1    2    0    0  0.15766139856E+01 -0.34861729988E+01  0.24462768740E+03  0.24466406006E+03  0.17770000000E+01 0.  1.
</event>
<event>
 6    1  0.1782050E-003  0.5013279E+03  0.7546771E-02  0.9396843E-01
        -11   -1    0    0    0    0  0.00000000000E+00  0.00000000000E+00  0.50000000000E+03  0.50000000000E+03  0.00000000000E+00 0. -1.
         11   -1    0    0    0    0 -0.00000000000E+00 -0.00000000000E+00 -0.50000000000E+03  0.50000000000E+03  0.00000000000E+00 0.  1.
        -11    1    1    2    0    0 -0.49317993579E+01 -0.67894861779E+01  0.49860149011E+03  0.49867210240E+03  0.00000000000E+00 0. -1.
         11    1    1    2    0    0  0.42825934277E+01  0.39943873966E+01 -0.25013172070E+03  0.25020026666E+03  0.00000000000E+00 0.  1.
        -15    1    1    2    0    0 -0.33592882819E+01 -0.50876864249E+01 -0.23393640019E+03  0.23402257676E+03  0.17770000000E+01 0.  1.
         15    1    1    2    0    0  0.40084942122E+01  0.78827852063E+01 -0.14533369227E+02  0.17105054181E+02  0.17770000000E+01 0.  1.
</event>
<event>
 6    1  0.1782050E-003  0.5224044E+03  0.7546771E-02  0.9351028E-01
        -11   -1    0    0    0    0  0.00000000000E+00  0.00000000000E+00  0.50000000000E+03  0.50000000000E+03  0.00000000000E+00 0.  1.
         11   -1    0    0    0    0 -0.00000000000E+00 -0.00000000000E+00 -0.50000000000E+03  0.50000000000E+03  0.00000000000E+00 0.  1.
        -11    1    1    2    0    0 -0.22780831822E+01  0.65841967818E+01  0.47754474161E+03  0.47759556274E+03  0.00000000000E+00 0.  1.
         11    1    1    2    0    0  0.14741194875E+02  0.30798087185E+01 -0.44982874132E+03  0.45008075339E+03  0.00000000000E+00 0.  1.
        -15    1    1    2    0    0 -0.28646914098E+02 -0.26754998267E+02 -0.49847885833E+01  0.39553526592E+02  0.17770000000E+01 0.  1.
         15    1    1    2    0    0  0.16183802406E+02  0.17090992767E+02 -0.22731211699E+02  0.32770157284E+02  0.17770000000E+01 0. -1.
</event>
<event>
 6    1  0.1782050E-003  0.5014532E+03  0.7546771E-02  0.9396564E-01
        -11   -1    0    0    0    0  0.00000000000E+00  0.00000000000E+00  0.50000000000E+03  0.50000000000E+03  0.00000000000E+00 0. -1.
         11   -1    0    0    0    0 -0.00000000000E+00 -0.00000000000E+00 -0.50000000000E+03  0.50000000000E+03  0.00000000000E+00 0. -1.
        -11    1    1    2    0    0 -0.28812756623E+01 -0.62597804364E+01  0.49849917343E+03  0.49854680072E+03  0.00000000000E+00 0. -1.
         11    1    1    2    0    0  0.82448407330E+01 -0.19198621949E+01 -0.44310675602E+03  0.44318761321E+03  0.00000000000E+00 0. -1.
        -15    1    1    2    0    0 -0.17243590512E+01  0.32960722978E+01 -0.49292070877E+02  0.49464163665E+02  0.17770000000E+01 0.  1.
         15    1    1    2    0    0 -0.36392060195E+01  0.48835703336E+01 -0.61003465256E+01  0.88014224071E+01  0.17770000000E+01 0. -1.
</event>
<event>
 6    1  0.1782050E-003  0.5007291E+03  0.7546771E-02  0.9398180E-01
        -11   -1    0    0    0    0  0.00000000000E+00  0.00000000000E+00  0.50000000000E+03  0.50000000000E+03  0.00000000000E+00 0.  1.
         11   -1    0    0    0    0 -0.00000000000E+00 -0.00000000000E+00 -0.50000000000E+03  0.50000000000E+03  0.00000000000E+00 0. -1.
        -11    1    1    2    0    0 -0.24613397753E+02  0.11879777371E+01  0.49866244776E+03  0.49927093591E+03  0.00000000000E+00 0.  1.
         11    1    1    2    0    0 -0.18838732345E+01 -0.20555214762E+01 -0.10976572077E+03  0.10980112752E+03  0.00000000000E+00 0. -1.
        -15    1    1    2    0    0  0.13738836838E+02 -0.83024025618E+01 -0.31223902044E+03  0.31265643947E+03  0.17770000000E+01 0. -1.
         15    1    1    2    0    0  0.12758434150E+02  0.91699463009E+01 -0.76657706549E+02  0.78271497108E+02  0.17770000000E+01 0.  1.
</event>
<event>
 6    1  0.1782050E-003  0.5026267E+03  0.7546771E-02  0.9393951E-01
        -11   -1    0    0    0    0  0.00000000000E+00  0.00000000000E+00  0.50000000000E+03  0.50000000000E+03  0.00000000000E+00 0. -1.
         11   -1    0    0    0    0 -0.00000000000E+00 -0.00000000000E+00 -0.50000000000E+03  0.50000000000E+03  0.00000000000E+00 0. -1.
        -11    1    1    2    0    0  0.10071201241E+01  0.49903843282E+01  0.30965647445E+03  0.30969832159E+03  0.00000000000E+00 0. -1.
         11    1    1    2    0    0  0.14428849026E+01  0.11642656105E+02 -0.49723490062E+03  0.49737328010E+03  0.00000000000E+00 0. -1.
        -15    1    1    2    0    0  0.35376748670E+01 -0.30028252918E+02  0.13029071201E+03  0.13376486265E+03  0.17770000000E+01 0. -1.
         15    1    1    2    0    0 -0.59876798937E+01  0.13395212484E+02  0.57287714167E+02  0.59163535657E+02  0.17770000000E+01 0.  1.
</event>
<event>
 6    1  0.1782050E-003  0.5003976E+03  0.7546771E-02  0.9398921E-01
        -11   -1    0    0    0    0  0.00000000000E+00  0.00000000000E+00  0.50000000000E+03  0.50000000000E+03  0.00000000000E+00 0.  1.
         11   -1    0    0    0    0 -0.00000000000E+00 -0.00000000000E+00 -0.50000000000E+03  0.50000000000E+03  0.00000000000E+00 0. -1.
        -11    1    1    2    0    0  0.42838302396E+01  0.12745166134E+01  0.24753422522E+03  0.24757457109E+03  0.00000000000E+00 0.  1.
         11    1    1    2    0    0  0.60952748384E+01  0.12617352490E+02 -0.49940588119E+03  0.49960242607E+03  0.00000000000E+00 0. -1.
        -15    1    1    2    0    0  0.91063991267E+00 -0.60009427295E+01  0.13164725509E+03  0.13179908224E+03  0.17770000000E+01 0.  1.
         15    1    1    2    0    0 -0.11289744991E+02 -0.78909263734E+01  0.12022440089E+03  0.12102392060E+03  0.17770000000E+01 0. -1.
</event>
<event>
 6    1  0.1782050E-003  0.5002819E+03  0.7546771E-02  0.9399179E-01
        -11   -1    0    0    0    0  0.00000000000E+00  0.00000000000E+00  0.50000000000E+03  0.50000000000E+03  0.00000000000E+00 0. -1.
         11   -1    0    0    0    0 -0.00000000000E+00 -0.00000000000E+00 -0.50000000000E+03  0.50000000000E+03  0.00000000000E+00 0. -1.
        -11    1    1    2    0    0 -0.27346788894E+01  0.42457870280E+01  0.24936369806E+03  0.24941483333E+03  0.00000000000E+00 0. -1.
         11    1    1    2    0    0  0.39730515553E+01  0.85758221066E+01 -0.49962872879E+03  0.49971811704E+03  0.00000000000E+00 0. -1.
        -15    1    1    2    0    0  0.47193650610E-01 -0.11493841128E+02  0.24017292455E+03  0.24045436579E+03  0.17770000000E+01 0. -1.
         15    1    1    2    0    0 -0.12855663165E+01 -0.13277680062E+01  0.10092106182E+02  0.10412683843E+02  0.17770000000E+01 0.  1.
</event>
<event>
 6    1  0.1782050E-003  0.5197913E+03  0.7546771E-02  0.9356583E-01
        -11   -1    0    0    0    0  0.00000000000E+00  0.00000000000E+00  0.50000000000E+03  0.50000000000E+03  0.00000000000E+00 0.  1.
         11   -1    0    0    0    0 -0.00000000000E+00 -0.00000000000E+00 -0.50000000000E+03  0.50000000000E+03  0.00000000000E+00 0.  1.
        -11    1    1    2    0    0  0.15943915456E+02 -0.43779776672E+01  0.45748352578E+03  0.45778220966E+03  0.00000000000E+00 0.  1.
         11    1    1    2    0    0 -0.29597459148E+00 -0.20168717199E+02 -0.47978490928E+03  0.48020872954E+03  0.00000000000E+00 0.  1.
        -15    1    1    2    0    0 -0.33922506718E+02  0.17294345295E+02  0.14550782850E+02  0.40800905036E+02  0.17770000000E+01 0.  1.
         15    1    1    2    0    0  0.18274565853E+02  0.72523495719E+01  0.77506006492E+01  0.21208155763E+02  0.17770000000E+01 0. -1.
</event>
<event>
 6    1  0.1782050E-003  0.5089170E+03  0.7546771E-02  0.9380075E-01
        -11   -1    0    0    0    0  0.00000000000E+00  0.00000000000E+00  0.50000000000E+03  0.50000000000E+03  0.00000000000E+00 0. -1.
         11   -1    0    0    0    0 -0.00000000000E+00 -0.00000000000E+00 -0.50000000000E+03  0.50000000000E+03  0.00000000000E+00 0.  1.
        -11    1    1    2    0    0 -0.29450349263E+02  0.12992068676E+02  0.32437188588E+03  0.32596508596E+03  0.00000000000E+00 0. -1.
         11    1    1    2    0    0 -0.40362050769E+01  0.26405639997E+02 -0.49035599123E+03  0.49108303464E+03  0.00000000000E+00 0.  1.
        -15    1    1    2    0    0  0.46585170136E+02 -0.41766652599E+02  0.14625622876E+03  0.15908699986E+03  0.17770000000E+01 0.  1.
         15    1    1    2    0    0 -0.13098615797E+02  0.23689439260E+01  0.19727876600E+02  0.23864879535E+02  0.17770000000E+01 0. -1.
</event>
<event>
 6    1  0.1782050E-003  0.5072698E+03  0.7546771E-02  0.9383688E-01
        -11   -1    0    0    0    0  0.00000000000E+00  0.00000000000E+00  0.50000000000E+03  0.50000000000E+03  0.00000000000E+00 0.  1.
         11   -1    0    0    0    0 -0.00000000000E+00 -0.00000000000E+00 -0.50000000000E+03  0.50000000000E+03  0.00000000000E+00 0.  1.
        -11    1    1    2    0    0  0.67023249160E+01  0.11218113895E+02  0.46380140242E+03  0.46398546111E+03  0.00000000000E+00 0.  1.
         11    1    1    2    0    0  0.10225089766E+02  0.70182248586E+01 -0.49257411170E+03  0.49273021366E+03  0.00000000000E+00 0.  1.
        -15    1    1    2    0    0 -0.16078622478E+02 -0.21176937852E+02  0.29410961110E+02  0.39688123664E+02  0.17770000000E+01 0. -1.
         15    1    1    2    0    0 -0.84879220436E+00  0.29405990984E+01 -0.63825183347E+00  0.35962015609E+01  0.17770000000E+01 0. -1.
</event>
<event>
 6    1  0.1782050E-003  0.5003316E+03  0.7546771E-02  0.9399068E-01
        -11   -1    0    0    0    0  0.00000000000E+00  0.00000000000E+00  0.50000000000E+03  0.50000000000E+03  0.00000000000E+00 0.  1.
         11   -1    0    0    0    0 -0.00000000000E+00 -0.00000000000E+00 -0.50000000000E+03  0.50000000000E+03  0.00000000000E+00 0. -1.
        -11    1    1    2    0    0  0.72101078586E+01 -0.59638317496E+01  0.49958074572E+03  0.49966836446E+03  0.00000000000E+00 0.  1.
         11    1    1    2    0    0 -0.28540744406E+01 -0.41808497944E+01 -0.34410959102E+03  0.34414682314E+03  0.00000000000E+00 0. -1.
        -15    1    1    2    0    0  0.22200704421E+00  0.49933454782E+01 -0.11276327646E+03  0.11288798445E+03  0.17770000000E+01 0. -1.
         15    1    1    2    0    0 -0.45780404622E+01  0.51513360658E+01 -0.42707878241E+02  0.43296827950E+02  0.17770000000E+01 0.  1.
</event>
<event>
 6    1  0.1782050E-003  0.5206980E+03  0.7546771E-02  0.9354651E-01
        -11   -1    0    0    0    0  0.00000000000E+00  0.00000000000E+00  0.50000000000E+03  0.50000000000E+03  0.00000000000E+00 0.  1.
         11   -1    0    0    0    0 -0.00000000000E+00 -0.00000000000E+00 -0.50000000000E+03  0.50000000000E+03  0.00000000000E+00 0.  1.
        -11    1    1    2    0    0 -0.38242238608E+01 -0.14284480240E+02  0.47907378224E+03  0.47930195065E+03  0.00000000000E+00 0.  1.
         11    1    1    2    0    0 -0.20706400142E+02  0.10455463278E+02 -0.40542804460E+03  0.40609108716E+03  0.00000000000E+00 0.  1.
        -15    1    1    2    0    0  0.14518583527E+02 -0.18830506325E+02 -0.84281166352E+02  0.87589097306E+02  0.17770000000E+01 0.  1.
         15    1    1    2    0    0  0.10012040475E+02  0.22659523287E+02  0.10635428713E+02  0.27017864886E+02  0.17770000000E+01 0. -1.
</event>
<event>
 6    1  0.1782050E-003  0.5002350E+03  0.7546771E-02  0.9399284E-01
        -11   -1    0    0    0    0  0.00000000000E+00  0.00000000000E+00  0.50000000000E+03  0.50000000000E+03  0.00000000000E+00 0.  1.
         11   -1    0    0    0    0 -0.00000000000E+00 -0.00000000000E+00 -0.50000000000E+03  0.50000000000E+03  0.00000000000E+00 0. -1.
        -11    1    1    2    0    0  0.28745693590E+01 -0.87687428304E+01  0.49967979577E+03  0.49976499707E+03  0.00000000000E+00 0.  1.
         11    1    1    2    0    0 -0.61783928667E+01  0.20680566255E+01 -0.16704172905E+03  0.16716874301E+03  0.00000000000E+00 0. -1.
        -15    1    1    2    0    0 -0.51842259512E+01  0.36353311418E+01 -0.83548085997E+02  0.83806516656E+02  0.17770000000E+01 0.  1.
         15    1    1    2    0    0  0.84880494589E+01  0.30653550631E+01 -0.24908998072E+03  0.24925974326E+03  0.17770000000E+01 0. -1.
</event>
<event>
 6    1  0.1782050E-003  0.4548512E+03  0.7546771E-02  0.9506918E-01
        -11   -1    0    0    0    0  0.00000000000E+00  0.00000000000E+00  0.50000000000E+03  0.50000000000E+03  0.00000000000E+00 0.  1.
         11   -1    0    0    0    0 -0.00000000000E+00 -0.00000000000E+00 -0.50000000000E+03  0.50000000000E+03  0.00000000000E+00 0.  1.
        -11    1    1    2    0    0 -0.17254254916E+02  0.30177948546E+02  0.45587841727E+03  0.45720186923E+03  0.00000000000E+00 0.  1.
         11    1    1    2    0    0  0.15322238738E+02  0.34063507766E+02 -0.45323543794E+03  0.45477187223E+03  0.00000000000E+00 0.  1.
        -15    1    1    2    0    0  0.28932709224E+02 -0.42501140956E+02  0.72007764133E+01  0.51946679928E+02  0.17770000000E+01 0. -1.
         15    1    1    2    0    0 -0.27000693046E+02 -0.21740315356E+02 -0.98437557430E+01  0.36079578613E+02  0.17770000000E+01 0.  1.
</event>
<event>
 6    1  0.1782050E-003  0.5015333E+03  0.7546771E-02  0.9396385E-01
        -11   -1    0    0    0    0  0.00000000000E+00  0.00000000000E+00  0.50000000000E+03  0.50000000000E+03  0.00000000000E+00 0. -1.
         11   -1    0    0    0    0 -0.00000000000E+00 -0.00000000000E+00 -0.50000000000E+03  0.50000000000E+03  0.00000000000E+00 0. -1.
        -11    1    1    2    0    0 -0.56625278095E+01  0.51673756679E+01  0.49840772998E+03  0.49846668023E+03  0.00000000000E+00 0. -1.
         11    1    1    2    0    0  0.12746537797E+02 -0.61801317474E+01 -0.37910400968E+03  0.37936857857E+03  0.00000000000E+00 0. -1.
        -15    1    1    2    0    0 -0.38968656330E+01  0.37751460867E+01 -0.11681632081E+03  0.11695575157E+03  0.17770000000E+01 0. -1.
         15    1    1    2    0    0 -0.31871443547E+01 -0.27623900072E+01 -0.24873994917E+01  0.52089896257E+01  0.17770000000E+01 0.  1.
</event>
<event>
 6    1  0.1782050E-003  0.5057369E+03  0.7546771E-02  0.9387064E-01
        -11   -1    0    0    0    0  0.00000000000E+00  0.00000000000E+00  0.50000000000E+03  0.50000000000E+03  0.00000000000E+00 0. -1.
         11   -1    0    0    0    0 -0.00000000000E+00 -0.00000000000E+00 -0.50000000000E+03  0.50000000000E+03  0.00000000000E+00 0.  1.
        -11    1    1    2    0    0 -0.17845651765E+02 -0.13141483735E+02  0.49376601871E+03  0.49426313550E+03  0.00000000000E+00 0. -1.
         11    1    1    2    0    0 -0.85695188859E+01 -0.38917864883E+01 -0.44774731326E+03  0.44784622270E+03  0.00000000000E+00 0.  1.
        -15    1    1    2    0    0  0.45891206614E+00  0.67202934789E+01 -0.11583205718E+02  0.13516705532E+02  0.17770000000E+01 0.  1.
         15    1    1    2    0    0  0.25956258585E+02  0.10312976744E+02 -0.34435499734E+02  0.44373936268E+02  0.17770000000E+01 0. -1.
</event>
<event>
 6    1  0.1782050E-003  0.5355743E+03  0.7546771E-02  0.9323549E-01
        -11   -1    0    0    0    0  0.00000000000E+00  0.00000000000E+00  0.50000000000E+03  0.50000000000E+03  0.00000000000E+00 0. -1.
         11   -1    0    0    0    0 -0.00000000000E+00 -0.00000000000E+00 -0.50000000000E+03  0.50000000000E+03  0.00000000000E+00 0. -1.
        -11    1    1    2    0    0 -0.69115963427E+01  0.67861538625E+02  0.45938901876E+03  0.46442569819E+03  0.00000000000E+00 0. -1.
         11    1    1    2    0    0  0.57183749636E+01 -0.15342983882E+02 -0.24422323646E+03  0.24477151834E+03  0.00000000000E+00 0. -1.
        -15    1    1    2    0    0  0.78716549095E+01  0.16599597243E+01 -0.23315386240E+03  0.23329937783E+03  0.17770000000E+01 0.  1.
         15    1    1    2    0    0 -0.66784335305E+01 -0.54178514467E+02  0.17988080098E+02  0.57503405628E+02  0.17770000000E+01 0. -1.
</event>
<event>
 6    1  0.1782050E-003  0.5337846E+03  0.7546771E-02  0.9327234E-01
        -11   -1    0    0    0    0  0.00000000000E+00  0.00000000000E+00  0.50000000000E+03  0.50000000000E+03  0.00000000000E+00 0. -1.
         11   -1    0    0    0    0 -0.00000000000E+00 -0.00000000000E+00 -0.50000000000E+03  0.50000000000E+03  0.00000000000E+00 0. -1.
        -11    1    1    2    0    0 -0.24968241795E+01 -0.16769274585E+02  0.46590698828E+03  0.46621536271E+03  0.00000000000E+00 0. -1.
         11    1    1    2    0    0 -0.94862145775E+01  0.30576318379E+02 -0.38250518901E+03  0.38384257077E+03  0.00000000000E+00 0. -1.
        -15    1    1    2    0    0 -0.12679956479E+02  0.11370030121E+02  0.28145883422E+02  0.32945521150E+02  0.17770000000E+01 0.  1.
         15    1    1    2    0    0  0.24662995236E+02 -0.25177073916E+02 -0.11154768269E+03  0.11699654537E+03  0.17770000000E+01 0. -1.
</event>
<event>
 6    1  0.1782050E-003  0.5017356E+03  0.7546771E-02  0.9395935E-01
        -11   -1    0    0    0    0  0.00000000000E+00  0.00000000000E+00  0.50000000000E+03  0.50000000000E+03  0.00000000000E+00 0. -1.
         11   -1    0    0    0    0 -0.00000000000E+00 -0.00000000000E+00 -0.50000000000E+03  0.50000000000E+03  0.00000000000E+00 0.  1.
        -11    1    1    2    0    0  0.79921362952E+01 -0.25313001637E+01  0.49819385759E+03  0.49826438912E+03  0.00000000000E+00 0. -1.
         11    1    1    2    0    0 -0.16621043828E+02  0.13049305622E+02 -0.31071436522E+03  0.31143211175E+03  0.00000000000E+00 0.  1.
        -15    1    1    2    0    0  0.13911409944E+02 -0.17919425911E+02 -0.11458732200E+03  0.11682484857E+03  0.17770000000E+01 0. -1.
         15    1    1    2    0    0 -0.52825024114E+01  0.74014204522E+01 -0.72892170378E+02  0.73478650558E+02  0.17770000000E+01 0.  1.
</event>
<event>
 6    1  0.1782050E-003  0.5002353E+03  0.7546771E-02  0.9399283E-01
        -11   -1    0    0    0    0  0.00000000000E+00  0.00000000000E+00  0.50000000000E+03  0.50000000000E+03  0.00000000000E+00 0.  1.
         11   -1    0    0    0    0 -0.00000000000E+00 -0.00000000000E+00 -0.50000000000E+03  0.50000000000E+03  0.00000000000E+00 0.  1.
        -11    1    1    2    0    0  0.13087538402E+01  0.86807450870E+00  0.25783792914E+01  0.30190113841E+01  0.00000000000E+00 0.  1.
         11    1    1    2    0    0  0.61011553173E+01 -0.30760905703E+01 -0.49971802291E+03  0.49976473350E+03  0.00000000000E+00 0.  1.
        -15    1    1    2    0    0 -0.30929219100E+01  0.57524371319E+00  0.25949953716E+03  0.25952468974E+03  0.17770000000E+01 0.  1.
         15    1    1    2    0    0 -0.43169872475E+01  0.16327723484E+01  0.23764010646E+03  0.23769156537E+03  0.17770000000E+01 0.  1.
</event>
<event>
 6    1  0.1782050E-003  0.4916189E+03  0.7546771E-02  0.9418761E-01
        -11   -1    0    0    0    0  0.00000000000E+00  0.00000000000E+00  0.50000000000E+03  0.50000000000E+03  0.00000000000E+00 0. -1.
         11   -1    0    0    0    0 -0.00000000000E+00 -0.00000000000E+00 -0.50000000000E+03  0.50000000000E+03  0.00000000000E+00 0. -1.
        -11    1    1    2    0    0  0.10836400168E+02  0.49031862754E+01  0.49206390575E+03  0.49220763520E+03  0.00000000000E+00 0. -1.
         11    1    1    2    0    0 -0.54754016626E+01  0.40678679832E+01 -0.49103889767E+03  0.49108627206E+03  0.00000000000E+00 0. -1.
        -15    1    1    2    0    0  0.18259527039E+01 -0.84886337993E+01 -0.23513632138E+01  0.91693862945E+01  0.17770000000E+01 0.  1.
         15    1    1    2    0    0 -0.71869512090E+01 -0.48242045926E+00  0.13263551383E+01  0.75367064513E+01  0.17770000000E+01 0. -1.
</event>
<event>
 6    1  0.1782050E-003  0.5046453E+03  0.7546771E-02  0.9389475E-01
        -11   -1    0    0    0    0  0.00000000000E+00  0.00000000000E+00  0.50000000000E+03  0.50000000000E+03  0.00000000000E+00 0. -1.
         11   -1    0    0    0    0 -0.00000000000E+00 -0.00000000000E+00 -0.50000000000E+03  0.50000000000E+03  0.00000000000E+00 0.  1.
        -11    1    1    2    0    0  0.25815632804E+00 -0.69223716317E+01  0.34819415976E+03  0.34826305972E+03  0.00000000000E+00 0. -1.
         11    1    1    2    0    0 -0.32547293504E+01  0.95676905608E+01 -0.49525161407E+03  0.49535471654E+03  0.00000000000E+00 0.  1.
        -15    1    1    2    0    0  0.15577051783E+02 -0.79656645781E+01  0.13639508619E+02  0.22255118036E+02  0.17770000000E+01 0.  1.
         15    1    1    2    0    0 -0.12580478760E+02  0.53203456490E+01  0.13341794569E+03  0.13412710570E+03  0.17770000000E+01 0. -1.
</event>
<event>
 6    1  0.1782050E-003  0.5014326E+03  0.7546771E-02  0.9396610E-01
        -11   -1    0    0    0    0  0.00000000000E+00  0.00000000000E+00  0.50000000000E+03  0.50000000000E+03  0.00000000000E+00 0. -1.
         11   -1    0    0    0    0 -0.00000000000E+00 -0.00000000000E+00 -0.50000000000E+03  0.50000000000E+03  0.00000000000E+00 0.  1.
        -11    1    1    2    0    0  0.80199851055E+01  0.16653567791E+02  0.49822467597E+03  0.49856743699E+03  0.00000000000E+00 0. -1.
         11    1    1    2    0    0  0.38956029600E+01 -0.68039876049E+01 -0.22202985207E+03  0.22216823621E+03  0.00000000000E+00 0.  1.
        -15    1    1    2    0    0 -0.47461237672E+01 -0.25776807809E+01 -0.25983537568E+03  0.25989757659E+03  0.17770000000E+01 0.  1.
         15    1    1    2    0    0 -0.71694642982E+01 -0.72718994054E+01 -0.16359448208E+02  0.19366750217E+02  0.17770000000E+01 0. -1.
</event>
<event>
 6    1  0.1782050E-003  0.5002003E+03  0.7546771E-02  0.9399362E-01
        -11   -1    0    0    0    0  0.00000000000E+00  0.00000000000E+00  0.50000000000E+03  0.50000000000E+03  0.00000000000E+00 0. -1.
         11   -1    0    0    0    0 -0.00000000000E+00 -0.00000000000E+00 -0.50000000000E+03  0.50000000000E+03  0.00000000000E+00 0. -1.
        -11    1    1    2    0    0  0.15607892490E+00 -0.18307351281E+01  0.58337750928E+02  0.58366678294E+02  0.00000000000E+00 0. -1.
         11    1    1    2    0    0  0.10012125553E+02  0.38370987400E+01 -0.49968471597E+03  0.49979974126E+03  0.00000000000E+00 0. -1.
        -15    1    1    2    0    0 -0.80628039057E+01 -0.80858603378E+01  0.36858457110E+03  0.36876568947E+03  0.17770000000E+01 0. -1.
         15    1    1    2    0    0 -0.21054005725E+01  0.60794967259E+01  0.72762393942E+02  0.73067890986E+02  0.17770000000E+01 0.  1.
</event>
<event>
 6    1  0.1782050E-003  0.5099999E+03  0.7546771E-02  0.9377708E-01
        -11   -1    0    0    0    0  0.00000000000E+00  0.00000000000E+00  0.50000000000E+03  0.50000000000E+03  0.00000000000E+00 0.  1.
         11   -1    0    0    0    0 -0.00000000000E+00 -0.00000000000E+00 -0.50000000000E+03  0.50000000000E+03  0.00000000000E+00 0.  1.
        -11    1    1    2    0    0  0.51283784451E+00 -0.13647902695E+02  0.48980973429E+03  0.49000010618E+03  0.00000000000E+00 0.  1.
         11    1    1    2    0    0  0.28105076525E+01 -0.28803605574E+01 -0.12707744853E+03  0.12714115524E+03  0.00000000000E+00 0.  1.
        -15    1    1    2    0    0 -0.14883155051E+02  0.25117476466E+02 -0.36666078798E+03  0.36782562050E+03  0.17770000000E+01 0.  1.
         15    1    1    2    0    0  0.11559809554E+02 -0.85892132135E+01  0.39285022155E+01  0.15033118080E+02  0.17770000000E+01 0. -1.
</event>
<event>
 6    1  0.1782050E-003  0.5053019E+03  0.7546771E-02  0.9388024E-01
        -11   -1    0    0    0    0  0.00000000000E+00  0.00000000000E+00  0.50000000000E+03  0.50000000000E+03  0.00000000000E+00 0. -1.
         11   -1    0    0    0    0 -0.00000000000E+00 -0.00000000000E+00 -0.50000000000E+03  0.50000000000E+03  0.00000000000E+00 0.  1.
        -11    1    1    2    0    0  0.93776659872E+01 -0.50324999621E+01  0.40158212466E+03  0.40172312545E+03  0.00000000000E+00 0. -1.
         11    1    1    2    0    0 -0.28913044218E+01 -0.17310622874E+02 -0.49438672664E+03  0.49469814310E+03  0.00000000000E+00 0.  1.
        -15    1    1    2    0    0  0.57306502641E+01  0.13799271383E+02  0.72245045907E+01  0.16691657759E+02  0.17770000000E+01 0.  1.
         15    1    1    2    0    0 -0.12217011830E+02  0.85438514536E+01  0.85580097396E+02  0.86887073693E+02  0.17770000000E+01 0. -1.
</event>
<event>
 6    1  0.1782050E-003  0.5010448E+03  0.7546771E-02  0.9397475E-01
        -11   -1    0    0    0    0  0.00000000000E+00  0.00000000000E+00  0.50000000000E+03  0.50000000000E+03  0.00000000000E+00 0.  1.
         11   -1    0    0    0    0 -0.00000000000E+00 -0.00000000000E+00 -0.50000000000E+03  0.50000000000E+03  0.00000000000E+00 0.  1.
        -11    1    1    2    0    0  0.71396950347E+01 -0.45011093379E+01  0.49888380712E+03  0.49895519662E+03  0.00000000000E+00 0.  1.
         11    1    1    2    0    0 -0.11455282276E+02  0.77877961087E+00 -0.37877413804E+03  0.37894811998E+03  0.00000000000E+00 0.  1.
        -15    1    1    2    0    0  0.58702370514E+01  0.71239735003E+01 -0.11557206977E+03  0.11595374820E+03  0.17770000000E+01 0.  1.
         15    1    1    2    0    0 -0.15546498097E+01 -0.34016437732E+01 -0.45375993118E+01  0.61429352027E+01  0.17770000000E+01 0. -1.
</event>
<event>
 6    1  0.1782050E-003  0.5010082E+03  0.7546771E-02  0.9397557E-01
        -11   -1    0    0    0    0  0.00000000000E+00  0.00000000000E+00  0.50000000000E+03  0.50000000000E+03  0.00000000000E+00 0. -1.
         11   -1    0    0    0    0 -0.00000000000E+00 -0.00000000000E+00 -0.50000000000E+03  0.50000000000E+03  0.00000000000E+00 0.  1.
        -11    1    1    2    0    0 -0.11999766828E+01  0.37715971437E-01  0.74110100023E+02  0.74119823880E+02  0.00000000000E+00 0. -1.
         11    1    1    2    0    0 -0.13649492435E+02 -0.12112459997E+02 -0.49865795952E+03  0.49899176438E+03  0.00000000000E+00 0.  1.
        -15    1    1    2    0    0  0.64354563139E+01  0.25367359097E+02  0.18934931240E+03  0.19115762564E+03  0.17770000000E+01 0.  1.
         15    1    1    2    0    0  0.84140128041E+01 -0.13292615071E+02  0.23519854709E+03  0.23573078609E+03  0.17770000000E+01 0. -1.
</event>
<event>
 6    1  0.1782050E-003  0.5003034E+03  0.7546771E-02  0.9399131E-01
        -11   -1    0    0    0    0  0.00000000000E+00  0.00000000000E+00  0.50000000000E+03  0.50000000000E+03  0.00000000000E+00 0.  1.
         11   -1    0    0    0    0 -0.00000000000E+00 -0.00000000000E+00 -0.50000000000E+03  0.50000000000E+03  0.00000000000E+00 0.  1.
        -11    1    1    2    0    0 -0.30227397002E+01 -0.45442951424E+01  0.14238278754E+03  0.14248735299E+03  0.00000000000E+00 0.  1.
         11    1    1    2    0    0  0.56124627254E+01  0.45067969399E+01 -0.49964479149E+03  0.49969663659E+03  0.00000000000E+00 0.  1.
        -15    1    1    2    0    0 -0.10723421090E+02 -0.39591671209E+00  0.15431925798E+03  0.15470209960E+03  0.17770000000E+01 0.  1.
         15    1    1    2    0    0  0.81336980652E+01  0.43341491458E+00  0.20294274598E+03  0.20311391081E+03  0.17770000000E+01 0.  1.
</event>
<event>
 6    1  0.1782050E-003  0.5046022E+03  0.7546771E-02  0.9389570E-01
        -11   -1    0    0    0    0  0.00000000000E+00  0.00000000000E+00  0.50000000000E+03  0.50000000000E+03  0.00000000000E+00 0. -1.
         11   -1    0    0    0    0 -0.00000000000E+00 -0.00000000000E+00 -0.50000000000E+03  0.50000000000E+03  0.00000000000E+00 0.  1.
        -11    1    1    2    0    0  0.59502546303E+01  0.77428866469E+01  0.49530156561E+03  0.49539781865E+03  0.00000000000E+00 0. -1.
         11    1    1    2    0    0  0.78367139278E+01 -0.88661550390E+00 -0.44512208363E+03  0.44519194681E+03  0.00000000000E+00 0.  1.
        -15    1    1    2    0    0 -0.10603861721E+02  0.17479641640E+01 -0.48755713449E+02  0.49957727981E+02  0.17770000000E+01 0. -1.
         15    1    1    2    0    0 -0.31831068374E+01 -0.86042353070E+01 -0.14237685358E+01  0.94525065564E+01  0.17770000000E+01 0.  1.
</event>
<event>
 6    1  0.1782050E-003  0.5274306E+03  0.7546771E-02  0.9340441E-01
        -11   -1    0    0    0    0  0.00000000000E+00  0.00000000000E+00  0.50000000000E+03  0.50000000000E+03  0.00000000000E+00 0. -1.
         11   -1    0    0    0    0 -0.00000000000E+00 -0.00000000000E+00 -0.50000000000E+03  0.50000000000E+03  0.00000000000E+00 0.  1.
        -11    1    1    2    0    0  0.55789294931E+01  0.42543527145E+01  0.31383989199E+03  0.31391830430E+03  0.00000000000E+00 0. -1.
         11    1    1    2    0    0  0.10377576808E+02  0.51431063100E+01 -0.47242748209E+03  0.47256943562E+03  0.00000000000E+00 0.  1.
        -15    1    1    2    0    0 -0.12903857310E+02 -0.10245406586E+01 -0.25789969148E+02  0.28910888169E+02  0.17770000000E+01 0.  1.
         15    1    1    2    0    0 -0.30526489907E+01 -0.83729183658E+01  0.18437755926E+03  0.18460137192E+03  0.17770000000E+01 0. -1.
</event>
<event>
 6    1  0.1782050E-003  0.5066058E+03  0.7546771E-02  0.9385149E-01
        -11   -1    0    0    0    0  0.00000000000E+00  0.00000000000E+00  0.50000000000E+03  0.50000000000E+03  0.00000000000E+00 0.  1.
         11   -1    0    0    0    0 -0.00000000000E+00 -0.00000000000E+00 -0.50000000000E+03  0.50000000000E+03  0.00000000000E+00 0.  1.
        -11    1    1    2    0    0 -0.51410438495E+01 -0.93272028597E+01  0.49327923945E+03  0.49339419851E+03  0.00000000000E+00 0.  1.
         11    1    1    2    0    0  0.25291946177E+02 -0.97544576353E+01 -0.27827647631E+03  0.27959368601E+03  0.00000000000E+00 0.  1.
        -15    1    1    2    0    0 -0.42616273056E+02  0.16247352809E+02 -0.17652897294E+03  0.18233419651E+03  0.17770000000E+01 0.  1.
         15    1    1    2    0    0  0.22465370728E+02  0.28343076856E+01 -0.38473790203E+02  0.44677918971E+02  0.17770000000E+01 0. -1.
</event>
<event>
 6    1  0.1782050E-003  0.5003796E+03  0.7546771E-02  0.9398961E-01
        -11   -1    0    0    0    0  0.00000000000E+00  0.00000000000E+00  0.50000000000E+03  0.50000000000E+03  0.00000000000E+00 0. -1.
         11   -1    0    0    0    0 -0.00000000000E+00 -0.00000000000E+00 -0.50000000000E+03  0.50000000000E+03  0.00000000000E+00 0.  1.
        -11    1    1    2    0    0  0.72264655448E+00  0.19366421897E+01  0.80167192973E+02  0.80193837856E+02  0.00000000000E+00 0. -1.
         11    1    1    2    0    0  0.94516589506E+01  0.13422186917E+01 -0.49952914906E+03  0.49962036204E+03  0.00000000000E+00 0.  1.
        -15    1    1    2    0    0 -0.17134696398E+01 -0.28659337004E+01  0.93999906541E+01  0.10132477855E+02  0.17770000000E+01 0.  1.
         15    1    1    2    0    0 -0.84608358653E+01 -0.41292718106E+00  0.40996196543E+03  0.41005332224E+03  0.17770000000E+01 0. -1.
</event>
<event>
 6    1  0.1782050E-003  0.5206172E+03  0.7546771E-02  0.9354823E-01
        -11   -1    0    0    0    0  0.00000000000E+00  0.00000000000E+00  0.50000000000E+03  0.50000000000E+03  0.00000000000E+00 0. -1.
         11   -1    0    0    0    0 -0.00000000000E+00 -0.00000000000E+00 -0.50000000000E+03  0.50000000000E+03  0.00000000000E+00 0.  1.
        -11    1    1    2    0    0  0.27949580738E+02 -0.23358672623E+02  0.39647801225E+03  0.39814773747E+03  0.00000000000E+00 0. -1.
         11    1    1    2    0    0  0.24550564377E+02  0.14096349225E+02 -0.47854616550E+03  0.47938280088E+03  0.00000000000E+00 0.  1.
        -15    1    1    2    0    0  0.45340519193E+01 -0.73927889905E+01 -0.96993025308E+01  0.13131837436E+02  0.17770000000E+01 0. -1.
         15    1    1    2    0    0 -0.57034197035E+02  0.16655112389E+02  0.91767455773E+02  0.10933762421E+03  0.17770000000E+01 0.  1.
</event>
<event>
 6    1  0.1782050E-003  0.5105547E+03  0.7546771E-02  0.9376498E-01
        -11   -1    0    0    0    0  0.00000000000E+00  0.00000000000E+00  0.50000000000E+03  0.50000000000E+03  0.00000000000E+00 0.  1.
         11   -1    0    0    0    0 -0.00000000000E+00 -0.00000000000E+00 -0.50000000000E+03  0.50000000000E+03  0.00000000000E+00 0. -1.
        -11    1    1    2    0    0  0.14750666155E+02  0.12058037082E+02  0.48907434526E+03  0.48944529173E+03  0.00000000000E+00 0.  1.
         11    1    1    2    0    0 -0.96787998797E+01  0.28302130053E+02 -0.39491076164E+03  0.39604191620E+03  0.00000000000E+00 0. -1.
        -15    1    1    2    0    0  0.21165335780E+00 -0.37415827084E+02 -0.99459400188E+02  0.10627943794E+03  0.17770000000E+01 0. -1.
         15    1    1    2    0    0 -0.52835196335E+01 -0.29443400506E+01  0.52958165695E+01  0.82333541275E+01  0.17770000000E+01 0.  1.
</event>
<event>
 6    1  0.1782050E-003  0.5037676E+03  0.7546771E-02  0.9391419E-01
        -11   -1    0    0    0    0  0.00000000000E+00  0.00000000000E+00  0.50000000000E+03  0.50000000000E+03  0.00000000000E+00 0. -1.
         11   -1    0    0    0    0 -0.00000000000E+00 -0.00000000000E+00 -0.50000000000E+03  0.50000000000E+03  0.00000000000E+00 0.  1.
        -11    1    1    2    0    0 -0.48435060789E+02  0.90070363318E+01  0.49378081920E+03  0.49623238430E+03  0.00000000000E+00 0. -1.
         11    1    1    2    0    0  0.49521141255E+01  0.34018497343E+01 -0.26125230167E+03  0.26132137522E+03  0.00000000000E+00 0.  1.
        -15    1    1    2    0    0  0.17056348616E+02 -0.31130606114E+02 -0.10474819137E+03  0.11061362931E+03  0.17770000000E+01 0. -1.
         15    1    1    2    0    0  0.26426598047E+02  0.18721720048E+02 -0.12778032616E+03  0.13183261118E+03  0.17770000000E+01 0.  1.
</event>
<event>
 6    1  0.2204635E-003  0.5002024E+03  0.7546771E-02  0.9399357E-01
        -11   -1    0    0    0    0  0.00000000000E+00  0.00000000000E+00  0.50000000000E+03  0.50000000000E+03  0.00000000000E+00 0.  1.
         11   -1    0    0    0    0 -0.00000000000E+00 -0.00000000000E+00 -0.50000000000E+03  0.50000000000E+03  0.00000000000E+00 0.  1.
        -11    1    1    2    0    0  0.56980193360E+01 -0.43724165215E+01  0.49974600525E+03  0.49979761426E+03  0.00000000000E+00 0.  1.
         11    1    1    2    0    0  0.57209845426E+00 -0.71315534446E+00 -0.57380210882E+02  0.57387494178E+02  0.00000000000E+00 0.  1.
        -15    1    1    2    0    0  0.15374882701E+01  0.60003216001E+01 -0.35957747044E+03  0.35963520783E+03  0.17770000000E+01 0.  1.
         15    1    1    2    0    0 -0.78076060603E+01 -0.91474973411E+00 -0.82788323926E+02  0.83179683739E+02  0.17770000000E+01 0. -1.
</event>
<event>
 6    1  0.1782050E-003  0.5430130E+03  0.7546771E-02  0.9308396E-01
        -11   -1    0    0    0    0  0.00000000000E+00  0.00000000000E+00  0.50000000000E+03  0.50000000000E+03  0.00000000000E+00 0.  1.
         11   -1    0    0    0    0 -0.00000000000E+00 -0.00000000000E+00 -0.50000000000E+03  0.50000000000E+03  0.00000000000E+00 0. -1.
        -11    1    1    2    0    0 -0.98087713949E+01 -0.16662104509E+02  0.45657777912E+03  0.45698698681E+03  0.00000000000E+00 0.  1.
         11    1    1    2    0    0 -0.48996384345E+01  0.45469575232E+01 -0.34458742159E+03  0.34465224850E+03  0.00000000000E+00 0. -1.
        -15    1    1    2    0    0  0.12888124358E+02  0.15256841645E+02  0.40829658537E+02  0.45487291760E+02  0.17770000000E+01 0. -1.
         15    1    1    2    0    0  0.18202854714E+01 -0.31416946597E+01 -0.15282001607E+03  0.15287347293E+03  0.17770000000E+01 0.  1.
</event>
<event>
 6    1  0.1782050E-003  0.5072413E+03  0.7546771E-02  0.9383751E-01
        -11   -1    0    0    0    0  0.00000000000E+00  0.00000000000E+00  0.50000000000E+03  0.50000000000E+03  0.00000000000E+00 0.  1.
         11   -1    0    0    0    0 -0.00000000000E+00 -0.00000000000E+00 -0.50000000000E+03  0.50000000000E+03  0.00000000000E+00 0. -1.
        -11    1    1    2    0    0 -0.69494503794E+01  0.53681072913E+01  0.47673554124E+03  0.47681640881E+03  0.00000000000E+00 0.  1.
         11    1    1    2    0    0 -0.11791810028E+02 -0.12854704911E+02 -0.49244984246E+03  0.49275870115E+03  0.00000000000E+00 0. -1.
        -15    1    1    2    0    0 -0.46675481410E+00 -0.18237088060E+01  0.67060525180E+01  0.71883686077E+01  0.17770000000E+01 0.  1.
         15    1    1    2    0    0  0.19208015221E+02  0.93103064254E+01  0.90082487042E+01  0.23236521430E+02  0.17770000000E+01 0. -1.
</event>
<event>
 6    1  0.2383448E-003  0.5125868E+03  0.7546771E-02  0.9372078E-01
        -11   -1    0    0    0    0  0.00000000000E+00  0.00000000000E+00  0.50000000000E+03  0.50000000000E+03  0.00000000000E+00 0. -1.
         11   -1    0    0    0    0 -0.00000000000E+00 -0.00000000000E+00 -0.50000000000E+03  0.50000000000E+03  0.00000000000E+00 0. -1.
        -11    1    1    2    0    0  0.13468265576E+02  0.45136861247E+00  0.42803815439E+03  0.42825023003E+03  0.00000000000E+00 0. -1.
         11    1    1    2    0    0 -0.10570049178E+02 -0.62873931965E+01 -0.48725804862E+03  0.48741323659E+03  0.00000000000E+00 0. -1.
        -15    1    1    2    0    0  0.96907083740E+01  0.78110924057E+01 -0.86478696471E+01  0.15259959757E+02  0.17770000000E+01 0.  1.
         15    1    1    2    0    0 -0.12588924772E+02 -0.19750678217E+01  0.67867763885E+02  0.69076573623E+02  0.17770000000E+01 0. -1.
</event>
<event>
 6    1  0.1782050E-003  0.5026000E+03  0.7546771E-02  0.9394011E-01
        -11   -1    0    0    0    0  0.00000000000E+00  0.00000000000E+00  0.50000000000E+03  0.50000000000E+03  0.00000000000E+00 0.  1.
         11   -1    0    0    0    0 -0.00000000000E+00 -0.00000000000E+00 -0.50000000000E+03  0.50000000000E+03  0.00000000000E+00 0.  1.
        -11    1    1    2    0    0 -0.73853238803E+01  0.10198807318E+02  0.47907627813E+03  0.47924173331E+03  0.00000000000E+00 0.  1.
         11    1    1    2    0    0  0.69531661973E+01 -0.22718675477E+01 -0.49734617795E+03  0.49739996845E+03  0.00000000000E+00 0.  1.
        -15    1    1    2    0    0  0.37965538599E+01 -0.87489367163E+01  0.87152324305E+01  0.13041116524E+02  0.17770000000E+01 0.  1.
         15    1    1    2    0    0 -0.33643961769E+01  0.82199694645E+00  0.95546673851E+01  0.10317181711E+02  0.17770000000E+01 0. -1.
</event>
<event>
 6    1  0.1782050E-003  0.5094125E+03  0.7546771E-02  0.9378991E-01
        -11   -1    0    0    0    0  0.00000000000E+00  0.00000000000E+00  0.50000000000E+03  0.50000000000E+03  0.00000000000E+00 0.  1.
         11   -1    0    0    0    0 -0.00000000000E+00 -0.00000000000E+00 -0.50000000000E+03  0.50000000000E+03  0.00000000000E+00 0.  1.
        -11    1    1    2    0    0  0.55370508309E+01 -0.14953608111E+02  0.49032830004E+03  0.49058751630E+03  0.00000000000E+00 0.  1.
         11    1    1    2    0    0  0.56905187335E+01  0.95134396752E+01 -0.47218350457E+03  0.47231361353E+03  0.00000000000E+00 0.  1.
        -15    1    1    2    0    0 -0.11976358434E+01 -0.25216520068E+01 -0.23038622625E+02  0.23275070825E+02  0.17770000000E+01 0.  1.
         15    1    1    2    0    0 -0.10029933721E+02  0.79618204427E+01  0.48938271565E+01  0.13823799349E+02  0.17770000000E+01 0. -1.
</event>
<event>
 6    1  0.1782050E-003  0.5156053E+03  0.7546771E-02  0.9365553E-01
        -11   -1    0    0    0    0  0.00000000000E+00  0.00000000000E+00  0.50000000000E+03  0.50000000000E+03  0.00000000000E+00 0. -1.
         11   -1    0    0    0    0 -0.00000000000E+00 -0.00000000000E+00 -0.50000000000E+03  0.50000000000E+03  0.00000000000E+00 0.  1.
        -11    1    1    2    0    0  0.66326539687E+01 -0.13374846239E+01  0.48434742095E+03  0.48439467910E+03  0.00000000000E+00 0. -1.
         11    1    1    2    0    0 -0.10678077114E+02 -0.21566786104E+02 -0.43527517435E+03  0.43593993279E+03  0.00000000000E+00 0.  1.
        -15    1    1    2    0    0  0.51309849577E+01  0.13761731963E+02 -0.61974458773E+02  0.63715802926E+02  0.17770000000E+01 0. -1.
         15    1    1    2    0    0 -0.10855618128E+01  0.91425387647E+01  0.12902212172E+02  0.15949585181E+02  0.17770000000E+01 0.  1.
</event>
<event>
 6    1  0.1782050E-003  0.5002080E+03  0.7546771E-02  0.9399344E-01
        -11   -1    0    0    0    0  0.00000000000E+00  0.00000000000E+00  0.50000000000E+03  0.50000000000E+03  0.00000000000E+00 0. -1.
         11   -1    0    0    0    0 -0.00000000000E+00 -0.00000000000E+00 -0.50000000000E+03  0.50000000000E+03  0.00000000000E+00 0.  1.
        -11    1    1    2    0    0  0.20894936966E+01 -0.80988821966E+01  0.49972197322E+03  0.49979196512E+03  0.00000000000E+00 0. -1.
         11    1    1    2    0    0 -0.39954904232E+01  0.52079178282E+01 -0.30822331484E+03  0.30829320161E+03  0.00000000000E+00 0.  1.
        -15    1    1    2    0    0  0.43507953437E+01 -0.26494580011E+01 -0.53351734092E+02  0.53623822201E+02  0.17770000000E+01 0. -1.
         15    1    1    2    0    0 -0.24447986171E+01  0.55404223695E+01 -0.13814692429E+03  0.13829101106E+03  0.17770000000E+01 0.  1.
</event>
<event>
 6    1  0.1782050E-003  0.5016598E+03  0.7546771E-02  0.9396103E-01
        -11   -1    0    0    0    0  0.00000000000E+00  0.00000000000E+00  0.50000000000E+03  0.50000000000E+03  0.00000000000E+00 0.  1.
         11   -1    0    0    0    0 -0.00000000000E+00 -0.00000000000E+00 -0.50000000000E+03  0.50000000000E+03  0.00000000000E+00 0.  1.
        -11    1    1    2    0    0 -0.20436722790E+01 -0.73777103076E+01  0.49828141394E+03  0.49834021982E+03  0.00000000000E+00 0.  1.
         11    1    1    2    0    0  0.72570896377E+01 -0.13221992100E+02 -0.34546310103E+03  0.34579219279E+03  0.00000000000E+00 0.  1.
        -15    1    1    2    0    0 -0.17085178342E+01  0.20767396565E+02 -0.72578998893E+02  0.75531931013E+02  0.17770000000E+01 0.  1.
         15    1    1    2    0    0 -0.35048995245E+01 -0.16769415692E+00 -0.80239314021E+02  0.80335656378E+02  0.17770000000E+01 0. -1.
</event>
<event>
 6    1  0.1782050E-003  0.5039113E+03  0.7546771E-02  0.9391100E-01
        -11   -1    0    0    0    0  0.00000000000E+00  0.00000000000E+00  0.50000000000E+03  0.50000000000E+03  0.00000000000E+00 0. -1.
         11   -1    0    0    0    0 -0.00000000000E+00 -0.00000000000E+00 -0.50000000000E+03  0.50000000000E+03  0.00000000000E+00 0. -1.
        -11    1    1    2    0    0  0.38191679674E+00 -0.81682380278E+01  0.49602133985E+03  0.49608873759E+03  0.00000000000E+00 0. -1.
         11    1    1    2    0    0 -0.76130616116E+01  0.40454751662E+01 -0.41368596210E+03  0.41377578447E+03  0.00000000000E+00 0. -1.
        -15    1    1    2    0    0  0.82503070017E+00  0.14985770621E+02 -0.13927170972E+02  0.20551832449E+02  0.17770000000E+01 0.  1.
         15    1    1    2    0    0  0.64061141147E+01 -0.10863007759E+02 -0.68408206778E+02  0.69583645487E+02  0.17770000000E+01 0. -1.
</event>
<event>
 6    1  0.1782050E-003  0.5002573E+03  0.7546771E-02  0.9399234E-01
        -11   -1    0    0    0    0  0.00000000000E+00  0.00000000000E+00  0.50000000000E+03  0.50000000000E+03  0.00000000000E+00 0. -1.
         11   -1    0    0    0    0 -0.00000000000E+00 -0.00000000000E+00 -0.50000000000E+03  0.50000000000E+03  0.00000000000E+00 0. -1.
        -11    1    1    2    0    0 -0.11935476296E+02 -0.23557498744E+01  0.49959455576E+03  0.49974265907E+03  0.00000000000E+00 0. -1.
         11    1    1    2    0    0 -0.40980676413E+01  0.17140340228E-01 -0.60958438174E+02  0.61096036179E+02  0.00000000000E+00 0. -1.
        -15    1    1    2    0    0  0.14213676850E+02  0.56984146103E+01 -0.39982326870E+03  0.40012036246E+03  0.17770000000E+01 0. -1.
         15    1    1    2    0    0  0.18198670882E+01 -0.33598050762E+01 -0.38812848891E+02  0.39040942283E+02  0.17770000000E+01 0.  1.
</event>
<event>
 6    1  0.1782050E-003  0.5087811E+03  0.7546771E-02  0.9380373E-01
        -11   -1    0    0    0    0  0.00000000000E+00  0.00000000000E+00  0.50000000000E+03  0.50000000000E+03  0.00000000000E+00 0. -1.
         11   -1    0    0    0    0 -0.00000000000E+00 -0.00000000000E+00 -0.50000000000E+03  0.50000000000E+03  0.00000000000E+00 0.  1.
        -11    1    1    2    0    0 -0.78988350733E+01  0.70828027984E+01  0.49110436592E+03  0.49121894906E+03  0.00000000000E+00 0. -1.
         11    1    1    2    0    0  0.26998569900E+02  0.27190998798E+02 -0.42510829617E+03  0.42683174280E+03  0.00000000000E+00 0.  1.
        -15    1    1    2    0    0 -0.12470320664E+02 -0.35625533585E+02 -0.39988926161E+02  0.55017810618E+02  0.17770000000E+01 0. -1.
         15    1    1    2    0    0 -0.66294141627E+01  0.13517319883E+01 -0.26007143596E+02  0.26931497518E+02  0.17770000000E+01 0.  1.
</event>
<event>
 6    1  0.1782050E-003  0.5051577E+03  0.7546771E-02  0.9388342E-01
        -11   -1    0    0    0    0  0.00000000000E+00  0.00000000000E+00  0.50000000000E+03  0.50000000000E+03  0.00000000000E+00 0. -1.
         11   -1    0    0    0    0 -0.00000000000E+00 -0.00000000000E+00 -0.50000000000E+03  0.50000000000E+03  0.00000000000E+00 0.  1.
        -11    1    1    2    0    0 -0.93028478607E+01 -0.35481392463E+01  0.49474215407E+03  0.49484232972E+03  0.00000000000E+00 0. -1.
         11    1    1    2    0    0  0.58105524153E+00  0.44391486687E+01 -0.15339975837E+03  0.15346507595E+03  0.00000000000E+00 0.  1.
        -15    1    1    2    0    0  0.13795080763E+02  0.28794852218E+01 -0.46639261585E+01  0.14950104502E+02  0.17770000000E+01 0. -1.
         15    1    1    2    0    0 -0.50732881436E+01 -0.37704946442E+01 -0.33667846954E+03  0.33674248983E+03  0.17770000000E+01 0.  1.
</event>
<event>
 6    1  0.1782050E-003  0.5001705E+03  0.7546771E-02  0.9399428E-01
        -11   -1    0    0    0    0  0.00000000000E+00  0.00000000000E+00  0.50000000000E+03  0.50000000000E+03  0.00000000000E+00 0.  1.
         11   -1    0    0    0    0 -0.00000000000E+00 -0.00000000000E+00 -0.50000000000E+03  0.50000000000E+03  0.00000000000E+00 0.  1.
        -11    1    1    2    0    0  0.52005033277E+01 -0.44197353227E+01  0.49978291398E+03  0.49982951134E+03  0.00000000000E+00 0.  1.
         11    1    1    2    0    0  0.36530657035E+01 -0.14823278388E+01 -0.24742821823E+03  0.24745962370E+03  0.00000000000E+00 0.  1.
        -15    1    1    2    0    0 -0.68724140614E+01  0.71662793903E+01 -0.21670462490E+03  0.21693924914E+03  0.17770000000E+01 0.  1.
         15    1    1    2    0    0 -0.19811549697E+01 -0.12642162288E+01 -0.35650070854E+02  0.35771615823E+02  0.17770000000E+01 0. -1.
</event>
<event>
 6    1  0.1782050E-003  0.5181990E+03  0.7546771E-02  0.9359984E-01
        -11   -1    0    0    0    0  0.00000000000E+00  0.00000000000E+00  0.50000000000E+03  0.50000000000E+03  0.00000000000E+00 0.  1.
         11   -1    0    0    0    0 -0.00000000000E+00 -0.00000000000E+00 -0.50000000000E+03  0.50000000000E+03  0.00000000000E+00 0.  1.
        -11    1    1    2    0    0  0.70619572316E+01 -0.18387892350E+02  0.45703638610E+03  0.45746064753E+03  0.00000000000E+00 0.  1.
         11    1    1    2    0    0  0.10371200773E+02  0.60597970783E+01 -0.48165127495E+03  0.48180103114E+03  0.00000000000E+00 0.  1.
        -15    1    1    2    0    0  0.10124655028E+01 -0.15090030610E+02  0.23027478703E+02  0.27607184113E+02  0.17770000000E+01 0. -1.
         15    1    1    2    0    0 -0.18445623508E+02  0.27418125882E+02  0.15874101489E+01  0.33131137219E+02  0.17770000000E+01 0.  1.
</event>
<event>
 6    1  0.1782050E-003  0.5001157E+03  0.7546771E-02  0.9399551E-01
        -11   -1    0    0    0    0  0.00000000000E+00  0.00000000000E+00  0.50000000000E+03  0.50000000000E+03  0.00000000000E+00 0.  1.
         11   -1    0    0    0    0 -0.00000000000E+00 -0.00000000000E+00 -0.50000000000E+03  0.50000000000E+03  0.00000000000E+00 0. -1.
        -11    1    1    2    0    0  0.71705068448E+00 -0.13899034536E+01  0.81537238339E+02  0.81552236200E+02  0.00000000000E+00 0.  1.
         11    1    1    2    0    0 -0.71735900750E+01 -0.50166092513E+01 -0.49980767322E+03  0.49988432359E+03  0.00000000000E+00 0. -1.
        -15    1    1    2    0    0 -0.31348767692E+01  0.28074836208E+01  0.19188414904E+03  0.19193851567E+03  0.17770000000E+01 0. -1.
         15    1    1    2    0    0  0.95914161597E+01  0.35990290841E+01  0.22638628585E+03  0.22662492454E+03  0.17770000000E+01 0.  1.
</event>
<event>
 6    1  0.2297086E-003  0.5027569E+03  0.7546771E-02  0.9393662E-01
        -11   -1    0    0    0    0  0.00000000000E+00  0.00000000000E+00  0.50000000000E+03  0.50000000000E+03  0.00000000000E+00 0. -1.
         11   -1    0    0    0    0 -0.00000000000E+00 -0.00000000000E+00 -0.50000000000E+03  0.50000000000E+03  0.00000000000E+00 0.  1.
        -11    1    1    2    0    0  0.11268341774E+02 -0.24072679327E+02  0.49653223058E+03  0.49724312506E+03  0.00000000000E+00 0. -1.
         11    1    1    2    0    0 -0.21013241341E+01 -0.20246236811E+01 -0.16829428735E+03  0.16831958240E+03  0.00000000000E+00 0.  1.
        -15    1    1    2    0    0  0.65719419115E+00  0.65439911424E+01 -0.29191750723E+03  0.29199699396E+03  0.17770000000E+01 0. -1.
         15    1    1    2    0    0 -0.98242118313E+01  0.19553311866E+02 -0.36320435997E+02  0.42440298574E+02  0.17770000000E+01 0.  1.
</event>
<event>
 6    1  0.1782050E-003  0.5010140E+03  0.7546771E-02  0.9397544E-01
        -11   -1    0    0    0    0  0.00000000000E+00  0.00000000000E+00  0.50000000000E+03  0.50000000000E+03  0.00000000000E+00 0.  1.
         11   -1    0    0    0    0 -0.00000000000E+00 -0.00000000000E+00 -0.50000000000E+03  0.50000000000E+03  0.00000000000E+00 0. -1.
        -11    1    1    2    0    0  0.46794071540E+01  0.72773596278E+01  0.49891096769E+03  0.49898598226E+03  0.00000000000E+00 0.  1.
         11    1    1    2    0    0 -0.98731276840E+01  0.46850703541E+01 -0.42263487813E+03  0.42277614496E+03  0.00000000000E+00 0. -1.
        -15    1    1    2    0    0  0.22474980837E+01 -0.49506633473E+00 -0.38271819080E+01  0.48063903991E+01  0.17770000000E+01 0. -1.
         15    1    1    2    0    0  0.29462224462E+01 -0.11467363647E+02 -0.72448907646E+02  0.73431482375E+02  0.17770000000E+01 0.  1.
</event>
<event>
 6    1  0.1782050E-003  0.5041208E+03  0.7546771E-02  0.9390636E-01
        -11   -1    0    0    0    0  0.00000000000E+00  0.00000000000E+00  0.50000000000E+03  0.50000000000E+03  0.00000000000E+00 0. -1.
         11   -1    0    0    0    0 -0.00000000000E+00 -0.00000000000E+00 -0.50000000000E+03  0.50000000000E+03  0.00000000000E+00 0.  1.
        -11    1    1    2    0    0 -0.29836566165E+01 -0.30502966795E+00  0.11191409163E+03  0.11195427261E+03  0.00000000000E+00 0. -1.
         11    1    1    2    0    0 -0.16672707379E+02 -0.13021426314E+02 -0.49542774745E+03  0.49587920873E+03  0.00000000000E+00 0.  1.
        -15    1    1    2    0    0  0.24809459798E+02  0.15830841531E+02  0.46242738067E+02  0.54842259180E+02  0.17770000000E+01 0. -1.
         15    1    1    2    0    0 -0.51530958018E+01 -0.25043855488E+01  0.33727091775E+03  0.33732425948E+03  0.17770000000E+01 0. -1.
</event>
<event>
 6    1  0.1782050E-003  0.5027536E+03  0.7546771E-02  0.9393669E-01
        -11   -1    0    0    0    0  0.00000000000E+00  0.00000000000E+00  0.50000000000E+03  0.50000000000E+03  0.00000000000E+00 0. -1.
         11   -1    0    0    0    0 -0.00000000000E+00 -0.00000000000E+00 -0.50000000000E+03  0.50000000000E+03  0.00000000000E+00 0. -1.
        -11    1    1    2    0    0  0.10411042630E+01 -0.72404912751E+01  0.49719260344E+03  0.49724641128E+03  0.00000000000E+00 0. -1.
         11    1    1    2    0    0  0.99637332638E+01  0.41046861372E+01 -0.44452816325E+03  0.44465875945E+03  0.00000000000E+00 0. -1.
        -15    1    1    2    0    0 -0.77788360985E+01  0.62284966276E+01 -0.52301285029E+02  0.53271818122E+02  0.17770000000E+01 0. -1.
         15    1    1    2    0    0 -0.32260014283E+01 -0.30926914897E+01 -0.36315516138E+00  0.48230111484E+01  0.17770000000E+01 0.  1.
</event>
<event>
 6    1  0.1782050E-003  0.5028630E+03  0.7546771E-02  0.9393426E-01
        -11   -1    0    0    0    0  0.00000000000E+00  0.00000000000E+00  0.50000000000E+03  0.50000000000E+03  0.00000000000E+00 0.  1.
         11   -1    0    0    0    0 -0.00000000000E+00 -0.00000000000E+00 -0.50000000000E+03  0.50000000000E+03  0.00000000000E+00 0.  1.
        -11    1    1    2    0    0 -0.18983641279E+02  0.83378728349E+01  0.35334878940E+03  0.35395658736E+03  0.00000000000E+00 0.  1.
         11    1    1    2    0    0 -0.70329129029E+01  0.36790506023E+01 -0.49707368204E+03  0.49713704615E+03  0.00000000000E+00 0.  1.
        -15    1    1    2    0    0  0.67118879060E+01  0.95881867626E+00  0.60197812157E+01  0.92392785109E+01  0.17770000000E+01 0. -1.
         15    1    1    2    0    0  0.19304666276E+02 -0.12975742114E+02  0.13770511142E+03  0.13966708798E+03  0.17770000000E+01 0.  1.
</event>
<event>
 6    1  0.1782050E-003  0.5318071E+03  0.7546771E-02  0.9331323E-01
        -11   -1    0    0    0    0  0.00000000000E+00  0.00000000000E+00  0.50000000000E+03  0.50000000000E+03  0.00000000000E+00 0. -1.
         11   -1    0    0    0    0 -0.00000000000E+00 -0.00000000000E+00 -0.50000000000E+03  0.50000000000E+03  0.00000000000E+00 0. -1.
        -11    1    1    2    0    0  0.21787377244E+02 -0.64067473269E+01  0.38324337760E+03  0.38391564529E+03  0.00000000000E+00 0. -1.
         11    1    1    2    0    0  0.19895274757E+02 -0.94237033623E+01 -0.46767508329E+03  0.46819292143E+03  0.00000000000E+00 0. -1.
        -15    1    1    2    0    0 -0.31637569949E+02  0.77916311121E+01  0.11240736439E+03  0.11704793312E+03  0.17770000000E+01 0. -1.
         15    1    1    2    0    0 -0.10045082052E+02  0.80388195771E+01 -0.27975658707E+02  0.30843500169E+02  0.17770000000E+01 0.  1.
</event>
<event>
 6    1  0.1782050E-003  0.5005888E+03  0.7546771E-02  0.9398493E-01
        -11   -1    0    0    0    0  0.00000000000E+00  0.00000000000E+00  0.50000000000E+03  0.50000000000E+03  0.00000000000E+00 0.  1.
         11   -1    0    0    0    0 -0.00000000000E+00 -0.00000000000E+00 -0.50000000000E+03  0.50000000000E+03  0.00000000000E+00 0.  1.
        -11    1    1    2    0    0  0.88175307491E+00  0.94235864902E+01  0.49932148936E+03  0.49941118451E+03  0.00000000000E+00 0.  1.
         11    1    1    2    0    0  0.44041848516E+01  0.42521247673E+00 -0.30278084919E+03  0.30281317720E+03  0.00000000000E+00 0.  1.
        -15    1    1    2    0    0 -0.86249093738E+01 -0.10483992523E+02 -0.79372124568E+02  0.80544366956E+02  0.17770000000E+01 0. -1.
         15    1    1    2    0    0  0.33389714473E+01  0.63519355628E+00 -0.11716851561E+03  0.11723127134E+03  0.17770000000E+01 0.  1.
</event>
<event>
 6    1  0.1782050E-003  0.4816119E+03  0.7546771E-02  0.9441921E-01
        -11   -1    0    0    0    0  0.00000000000E+00  0.00000000000E+00  0.50000000000E+03  0.50000000000E+03  0.00000000000E+00 0. -1.
         11   -1    0    0    0    0 -0.00000000000E+00 -0.00000000000E+00 -0.50000000000E+03  0.50000000000E+03  0.00000000000E+00 0. -1.
        -11    1    1    2    0    0 -0.11761134110E+02 -0.21000251125E+01  0.47747982569E+03  0.47762926870E+03  0.00000000000E+00 0. -1.
         11    1    1    2    0    0 -0.30323502700E+01 -0.11593966644E+02 -0.48569262091E+03  0.48584044419E+03  0.00000000000E+00 0. -1.
        -15    1    1    2    0    0  0.14017330990E+02 -0.51092198016E+01 -0.18117551751E+01  0.15133733210E+02  0.17770000000E+01 0.  1.
         15    1    1    2    0    0  0.77615338942E+00  0.18803211558E+02  0.10024550394E+02  0.21396553895E+02  0.17770000000E+01 0. -1.
</event>
<event>
 6    1  0.1782050E-003  0.5002236E+03  0.7546771E-02  0.9399309E-01
        -11   -1    0    0    0    0  0.00000000000E+00  0.00000000000E+00  0.50000000000E+03  0.50000000000E+03  0.00000000000E+00 0. -1.
         11   -1    0    0    0    0 -0.00000000000E+00 -0.00000000000E+00 -0.50000000000E+03  0.50000000000E+03  0.00000000000E+00 0. -1.
        -11    1    1    2    0    0  0.89630889566E+00  0.10468631233E+02  0.49966589396E+03  0.49977635118E+03  0.00000000000E+00 0. -1.
         11    1    1    2    0    0 -0.22419928645E+01  0.10145541374E+01 -0.14023762990E+03  0.14025921963E+03  0.00000000000E+00 0. -1.
        -15    1    1    2    0    0  0.41326618041E+01  0.24243268481E+01 -0.12118333276E+03  0.12129103067E+03  0.17770000000E+01 0.  1.
         15    1    1    2    0    0 -0.27869778353E+01 -0.13907512219E+02 -0.23824493130E+03  0.23867339852E+03  0.17770000000E+01 0. -1.
</event>
<event>
 6    1  0.1782050E-003  0.5046933E+03  0.7546771E-02  0.9389369E-01
        -11   -1    0    0    0    0  0.00000000000E+00  0.00000000000E+00  0.50000000000E+03  0.50000000000E+03  0.00000000000E+00 0.  1.
         11   -1    0    0    0    0 -0.00000000000E+00 -0.00000000000E+00 -0.50000000000E+03  0.50000000000E+03  0.00000000000E+00 0. -1.
        -11    1    1    2    0    0  0.16270045496E+02 -0.66538416137E+01  0.49499465601E+03  0.49530667012E+03  0.00000000000E+00 0.  1.
         11    1    1    2    0    0 -0.50741921152E+01 -0.50578619651E+01 -0.45874283066E+03  0.45879877296E+03  0.00000000000E+00 0. -1.
        -15    1    1    2    0    0 -0.16789750036E+02  0.74058844961E+01 -0.16129965486E+02  0.24496455806E+02  0.17770000000E+01 0.  1.
         15    1    1    2    0    0  0.55938966561E+01  0.43058190828E+01 -0.20121859864E+02  0.21398101111E+02  0.17770000000E+01 0. -1.
</event>
<event>
 6    1  0.1782050E-003  0.5019856E+03  0.7546771E-02  0.9395378E-01
        -11   -1    0    0    0    0  0.00000000000E+00  0.00000000000E+00  0.50000000000E+03  0.50000000000E+03  0.00000000000E+00 0.  1.
         11   -1    0    0    0    0 -0.00000000000E+00 -0.00000000000E+00 -0.50000000000E+03  0.50000000000E+03  0.00000000000E+00 0.  1.
        -11    1    1    2    0    0  0.49004350382E+01 -0.61900224784E+01  0.35623105261E+03  0.35631852812E+03  0.00000000000E+00 0.  1.
         11    1    1    2    0    0  0.14191961331E+02  0.42745816160E+01 -0.49779378168E+03  0.49801439025E+03  0.00000000000E+00 0.  1.
        -15    1    1    2    0    0 -0.70763344708E+01  0.23382812464E+01  0.64679625483E+01  0.10026681268E+02  0.17770000000E+01 0.  1.
         15    1    1    2    0    0 -0.12016061898E+02 -0.42284038395E+00  0.13509476653E+03  0.13564040036E+03  0.17770000000E+01 0. -1.
</event>
<event>
 6    1  0.1782050E-003  0.5077467E+03  0.7546771E-02  0.9382641E-01
        -11   -1    0    0    0    0  0.00000000000E+00  0.00000000000E+00  0.50000000000E+03  0.50000000000E+03  0.00000000000E+00 0. -1.
         11   -1    0    0    0    0 -0.00000000000E+00 -0.00000000000E+00 -0.50000000000E+03  0.50000000000E+03  0.00000000000E+00 0.  1.
        -11    1    1    2    0    0  0.80881366645E+01 -0.35437426298E+01  0.37430913144E+03  0.37441327693E+03  0.00000000000E+00 0. -1.
         11    1    1    2    0    0  0.33628858685E+02 -0.23284017808E+02 -0.49055096846E+03  0.49225328671E+03  0.00000000000E+00 0.  1.
        -15    1    1    2    0    0 -0.32757084888E+02  0.27204347090E+02  0.11664067204E+03  0.12418255599E+03  0.17770000000E+01 0. -1.
         15    1    1    2    0    0 -0.89599104617E+01 -0.37658665274E+00 -0.39883501286E+00  0.91508803597E+01  0.17770000000E+01 0.  1.
</event>
<event>
 6    1  0.1782050E-003  0.5483214E+03  0.7546771E-02  0.9297739E-01
        -11   -1    0    0    0    0  0.00000000000E+00  0.00000000000E+00  0.50000000000E+03  0.50000000000E+03  0.00000000000E+00 0. -1.
         11   -1    0    0    0    0 -0.00000000000E+00 -0.00000000000E+00 -0.50000000000E+03  0.50000000000E+03  0.00000000000E+00 0. -1.
        -11    1    1    2    0    0  0.70681235158E+01 -0.24496225188E+02  0.40620670327E+03  0.40700603092E+03  0.00000000000E+00 0. -1.
         11    1    1    2    0    0 -0.91133456649E+01  0.52561749268E+01 -0.45155607533E+03  0.45167861319E+03  0.00000000000E+00 0. -1.
        -15    1    1    2    0    0 -0.22819531812E+02 -0.13955944841E+02 -0.38987575941E+02  0.47314778191E+02  0.17770000000E+01 0.  1.
         15    1    1    2    0    0  0.24864753961E+02  0.33195995102E+02  0.84336948003E+02  0.94000577700E+02  0.17770000000E+01 0. -1.
</event>
<event>
 6    1  0.1782050E-003  0.5003035E+03  0.7546771E-02  0.9399131E-01
        -11   -1    0    0    0    0  0.00000000000E+00  0.00000000000E+00  0.50000000000E+03  0.50000000000E+03  0.00000000000E+00 0. -1.
         11   -1    0    0    0    0 -0.00000000000E+00 -0.00000000000E+00 -0.50000000000E+03  0.50000000000E+03  0.00000000000E+00 0.  1.
        -11    1    1    2    0    0  0.37337156990E+01  0.67546547709E+00  0.22808811633E+03  0.22811967407E+03  0.00000000000E+00 0. -1.
         11    1    1    2    0    0  0.62302759644E+01  0.45277016686E+01 -0.49963714251E+03  0.49969649848E+03  0.00000000000E+00 0.  1.
        -15    1    1    2    0    0 -0.80795953437E+01 -0.44034505337E+01  0.70924170700E+02  0.71540659460E+02  0.17770000000E+01 0. -1.
         15    1    1    2    0    0 -0.18843963198E+01 -0.79971661198E+00  0.20062485548E+03  0.20064316799E+03  0.17770000000E+01 0.  1.
</event>
<event>
 6    1  0.1782050E-003  0.5024175E+03  0.7546771E-02  0.9394417E-01
        -11   -1    0    0    0    0  0.00000000000E+00  0.00000000000E+00  0.50000000000E+03  0.50000000000E+03  0.00000000000E+00 0. -1.
         11   -1    0    0    0    0 -0.00000000000E+00 -0.00000000000E+00 -0.50000000000E+03  0.50000000000E+03  0.00000000000E+00 0. -1.
        -11    1    1    2    0    0 -0.13946019069E+01 -0.12073276960E+02  0.44703137846E+03  0.44719655886E+03  0.00000000000E+00 0. -1.
         11    1    1    2    0    0 -0.45294844127E+01 -0.83455795084E+01 -0.49749187493E+03  0.49758248617E+03  0.00000000000E+00 0. -1.
        -15    1    1    2    0    0  0.21219133564E+01  0.15801537406E+02  0.39031225016E+02  0.42199352553E+02  0.17770000000E+01 0.  1.
         15    1    1    2    0    0  0.38021729632E+01  0.46173190623E+01  0.11429271454E+02  0.13021602418E+02  0.17770000000E+01 0. -1.
</event>
<event>
 6    1  0.1782050E-003  0.5017781E+03  0.7546771E-02  0.9395840E-01
        -11   -1    0    0    0    0  0.00000000000E+00  0.00000000000E+00  0.50000000000E+03  0.50000000000E+03  0.00000000000E+00 0.  1.
         11   -1    0    0    0    0 -0.00000000000E+00 -0.00000000000E+00 -0.50000000000E+03  0.50000000000E+03  0.00000000000E+00 0.  1.
        -11    1    1    2    0    0  0.25475053198E+01 -0.18294604003E+01  0.20503137357E+03  0.20505536047E+03  0.00000000000E+00 0.  1.
         11    1    1    2    0    0  0.92865370525E+01 -0.42896092262E+01 -0.49811690856E+03  0.49822193360E+03  0.00000000000E+00 0.  1.
        -15    1    1    2    0    0 -0.77945204738E+01  0.10979648000E+02  0.24150955351E+02  0.27708005937E+02  0.17770000000E+01 0. -1.
         15    1    1    2    0    0 -0.40395218985E+01 -0.48605783733E+01  0.26893457964E+03  0.26901470000E+03  0.17770000000E+01 0.  1.
</event>
<event>
 6    1  0.1782050E-003  0.5079685E+03  0.7546771E-02  0.9382154E-01
        -11   -1    0    0    0    0  0.00000000000E+00  0.00000000000E+00  0.50000000000E+03  0.50000000000E+03  0.00000000000E+00 0. -1.
         11   -1    0    0    0    0 -0.00000000000E+00 -0.00000000000E+00 -0.50000000000E+03  0.50000000000E+03  0.00000000000E+00 0.  1.
        -11    1    1    2    0    0  0.79182249384E+01  0.93672092380E+01  0.49187860841E+03  0.49203151149E+03  0.00000000000E+00 0. -1.
         11    1    1    2    0    0  0.51253843192E+01 -0.67851452103E+01 -0.47227138209E+03  0.47234792908E+03  0.00000000000E+00 0.  1.
        -15    1    1    2    0    0 -0.35450101377E+01 -0.81021697325E+01  0.37333521602E+01  0.97625764326E+01  0.17770000000E+01 0. -1.
         15    1    1    2    0    0 -0.94985991199E+01  0.55201057048E+01 -0.23340578473E+02  0.25857982997E+02  0.17770000000E+01 0.  1.
</event>
<event>
 6    1  0.1782050E-003  0.5041833E+03  0.7546771E-02  0.9390498E-01
        -11   -1    0    0    0    0  0.00000000000E+00  0.00000000000E+00  0.50000000000E+03  0.50000000000E+03  0.00000000000E+00 0.  1.
         11   -1    0    0    0    0 -0.00000000000E+00 -0.00000000000E+00 -0.50000000000E+03  0.50000000000E+03  0.00000000000E+00 0.  1.
        -11    1    1    2    0    0  0.44082113558E+01 -0.68519937771E+01  0.49574977062E+03  0.49581671736E+03  0.00000000000E+00 0.  1.
         11    1    1    2    0    0 -0.87872110783E+01 -0.96898622829E+00 -0.44061490725E+03  0.44070358576E+03  0.00000000000E+00 0.  1.
        -15    1    1    2    0    0 -0.15272818346E+01  0.93188584002E+01 -0.18093634113E+01  0.97777930353E+01  0.17770000000E+01 0. -1.
         15    1    1    2    0    0  0.59062815571E+01 -0.14978783948E+01 -0.53325499958E+02  0.53701903843E+02  0.17770000000E+01 0.  1.
</event>
<event>
 6    1  0.1782050E-003  0.5005897E+03  0.7546771E-02  0.9398491E-01
        -11   -1    0    0    0    0  0.00000000000E+00  0.00000000000E+00  0.50000000000E+03  0.50000000000E+03  0.00000000000E+00 0.  1.
         11   -1    0    0    0    0 -0.00000000000E+00 -0.00000000000E+00 -0.50000000000E+03  0.50000000000E+03  0.00000000000E+00 0. -1.
        -11    1    1    2    0    0  0.83437083099E+01 -0.37657578291E+01  0.92409446285E+02  0.92861747577E+02  0.00000000000E+00 0.  1.
         11    1    1    2    0    0  0.98641957620E+01  0.17710107978E+02 -0.49899873441E+03  0.49941033953E+03  0.00000000000E+00 0. -1.
        -15    1    1    2    0    0 -0.17216450697E+02 -0.57974554450E+01  0.35419263489E+03  0.35466265240E+03  0.17770000000E+01 0.  1.
         15    1    1    2    0    0 -0.99145337455E+00 -0.81468947035E+01  0.52396653230E+02  0.53065260499E+02  0.17770000000E+01 0. -1.
</event>
<event>
 6    1  0.2599354E-003  0.5050339E+03  0.7546771E-02  0.9388616E-01
        -11   -1    0    0    0    0  0.00000000000E+00  0.00000000000E+00  0.50000000000E+03  0.50000000000E+03  0.00000000000E+00 0. -1.
         11   -1    0    0    0    0 -0.00000000000E+00 -0.00000000000E+00 -0.50000000000E+03  0.50000000000E+03  0.00000000000E+00 0. -1.
        -11    1    1    2    0    0 -0.67745095708E+01 -0.95473390713E+01  0.49482764382E+03  0.49496610263E+03  0.00000000000E+00 0. -1.
         11    1    1    2    0    0  0.72716406211E+01 -0.17844939352E+01 -0.30459565955E+03  0.30468767122E+03  0.00000000000E+00 0. -1.
        -15    1    1    2    0    0 -0.43946194293E+01  0.21352862063E+01 -0.19012946159E+03  0.19020053107E+03  0.17770000000E+01 0. -1.
         15    1    1    2    0    0  0.38974883790E+01  0.91965468002E+01 -0.10252267688E+00  0.10145695078E+02  0.17770000000E+01 0. -1.
</event>
<event>
 6    1  0.1782050E-003  0.5012534E+03  0.7546771E-02  0.9397009E-01
        -11   -1    0    0    0    0  0.00000000000E+00  0.00000000000E+00  0.50000000000E+03  0.50000000000E+03  0.00000000000E+00 0.  1.
         11   -1    0    0    0    0 -0.00000000000E+00 -0.00000000000E+00 -0.50000000000E+03  0.50000000000E+03  0.00000000000E+00 0. -1.
        -11    1    1    2    0    0 -0.82645444927E+01  0.25712866860E+01  0.34666154033E+03  0.34676957444E+03  0.00000000000E+00 0.  1.
         11    1    1    2    0    0  0.41590912196E+01  0.80546794569E+01 -0.49866416216E+03  0.49874655139E+03  0.00000000000E+00 0. -1.
        -15    1    1    2    0    0  0.78728430257E+01  0.61100889639E+01  0.65643945494E+02  0.66419877698E+02  0.17770000000E+01 0. -1.
         15    1    1    2    0    0 -0.37673897527E+01 -0.16736055107E+02  0.86358676338E+02  0.88063996468E+02  0.17770000000E+01 0.  1.
</event>
<event>
 6    1  0.1782050E-003  0.5025613E+03  0.7546771E-02  0.9394097E-01
        -11   -1    0    0    0    0  0.00000000000E+00  0.00000000000E+00  0.50000000000E+03  0.50000000000E+03  0.00000000000E+00 0.  1.
         11   -1    0    0    0    0 -0.00000000000E+00 -0.00000000000E+00 -0.50000000000E+03  0.50000000000E+03  0.00000000000E+00 0.  1.
        -11    1    1    2    0    0  0.28031527207E+01 -0.10828063194E+02  0.49731289871E+03  0.49743866339E+03  0.00000000000E+00 0.  1.
         11    1    1    2    0    0  0.49474135565E+01  0.63436058417E+01 -0.45422866483E+03  0.45429989895E+03  0.00000000000E+00 0.  1.
        -15    1    1    2    0    0  0.24440181794E+01  0.14572030282E+01  0.47447296748E+00  0.33881439054E+01  0.17770000000E+01 0. -1.
         15    1    1    2    0    0 -0.10194584457E+02  0.30272543239E+01 -0.43558706842E+02  0.44873293748E+02  0.17770000000E+01 0.  1.
</event>
<event>
 6    1  0.1782050E-003  0.5034634E+03  0.7546771E-02  0.9392093E-01
        -11   -1    0    0    0    0  0.00000000000E+00  0.00000000000E+00  0.50000000000E+03  0.50000000000E+03  0.00000000000E+00 0. -1.
         11   -1    0    0    0    0 -0.00000000000E+00 -0.00000000000E+00 -0.50000000000E+03  0.50000000000E+03  0.00000000000E+00 0.  1.
        -11    1    1    2    0    0  0.58517660114E+01  0.95446495319E+01  0.49641033858E+03  0.49653657242E+03  0.00000000000E+00 0. -1.
         11    1    1    2    0    0  0.44982644582E+01 -0.13338152863E+02 -0.45986711192E+03  0.46008249405E+03  0.00000000000E+00 0.  1.
        -15    1    1    2    0    0 -0.59127278322E+01  0.84363988255E+01 -0.35017716594E+02  0.36544922767E+02  0.17770000000E+01 0.  1.
         15    1    1    2    0    0 -0.44373026375E+01 -0.46428954941E+01 -0.15255100649E+01  0.68360107683E+01  0.17770000000E+01 0. -1.
</event>
<event>
 6    1  0.1782050E-003  0.5118835E+03  0.7546771E-02  0.9373605E-01
        -11   -1    0    0    0    0  0.00000000000E+00  0.00000000000E+00  0.50000000000E+03  0.50000000000E+03  0.00000000000E+00 0.  1.
         11   -1    0    0    0    0 -0.00000000000E+00 -0.00000000000E+00 -0.50000000000E+03  0.50000000000E+03  0.00000000000E+00 0. -1.
        -11    1    1    2    0    0  0.12251428948E+02 -0.75512297698E+01  0.48123582933E+03  0.48145097571E+03  0.00000000000E+00 0.  1.
         11    1    1    2    0    0 -0.76130465451E+01 -0.11980963781E+01 -0.48805568118E+03  0.48811652486E+03  0.00000000000E+00 0. -1.
        -15    1    1    2    0    0  0.77989733960E+01  0.13803257844E+02  0.52734971846E+01  0.16802422881E+02  0.17770000000E+01 0. -1.
         15    1    1    2    0    0 -0.12437355799E+02 -0.50539316959E+01  0.15463546685E+01  0.13630076545E+02  0.17770000000E+01 0.  1.
</event>
<event>
 6    1  0.1782050E-003  0.5028821E+03  0.7546771E-02  0.9393384E-01
        -11   -1    0    0    0    0  0.00000000000E+00  0.00000000000E+00  0.50000000000E+03  0.50000000000E+03  0.00000000000E+00 0.  1.
         11   -1    0    0    0    0 -0.00000000000E+00 -0.00000000000E+00 -0.50000000000E+03  0.50000000000E+03  0.00000000000E+00 0.  1.
        -11    1    1    2    0    0 -0.97436664202E+01 -0.36868970787E-01  0.49702240724E+03  0.49711790724E+03  0.00000000000E+00 0.  1.
         11    1    1    2    0    0 -0.41721606110E+01 -0.69523694632E+01 -0.46872247301E+03  0.46879259707E+03  0.00000000000E+00 0.  1.
        -15    1    1    2    0    0  0.13755768133E+02  0.52080717554E+01 -0.17173861583E+02  0.22681367221E+02  0.17770000000E+01 0. -1.
         15    1    1    2    0    0  0.16005889816E+00  0.17811666786E+01 -0.11126072648E+02  0.11408128468E+02  0.17770000000E+01 0.  1.
</event>
<event>
 6    1  0.1782050E-003  0.5093226E+03  0.7546771E-02  0.9379188E-01
        -11   -1    0    0    0    0  0.00000000000E+00  0.00000000000E+00  0.50000000000E+03  0.50000000000E+03  0.00000000000E+00 0. -1.
         11   -1    0    0    0    0 -0.00000000000E+00 -0.00000000000E+00 -0.50000000000E+03  0.50000000000E+03  0.00000000000E+00 0. -1.
        -11    1    1    2    0    0  0.99273744513E+01  0.56014833588E+00  0.44411685079E+03  0.44422814373E+03  0.00000000000E+00 0. -1.
         11    1    1    2    0    0  0.13279978210E+02  0.18751995665E+02 -0.49013907483E+03  0.49067739691E+03  0.00000000000E+00 0. -1.
        -15    1    1    2    0    0 -0.14071249027E+02 -0.19736956415E+02  0.74613103843E+01  0.25423933200E+02  0.17770000000E+01 0. -1.
         15    1    1    2    0    0 -0.91361036345E+01  0.42481241374E+00  0.38560913651E+02  0.39670526160E+02  0.17770000000E+01 0.  1.
</event>
<event>
 6    1  0.1782050E-003  0.5006089E+03  0.7546771E-02  0.9398448E-01
        -11   -1    0    0    0    0  0.00000000000E+00  0.00000000000E+00  0.50000000000E+03  0.50000000000E+03  0.00000000000E+00 0.  1.
         11   -1    0    0    0    0 -0.00000000000E+00 -0.00000000000E+00 -0.50000000000E+03  0.50000000000E+03  0.00000000000E+00 0. -1.
        -11    1    1    2    0    0 -0.57546793837E+01 -0.50809598769E+00  0.41912060367E+03  0.41916041669E+03  0.00000000000E+00 0.  1.
         11    1    1    2    0    0  0.24056747549E+01 -0.96001120282E+01 -0.49929298429E+03  0.49939106278E+03  0.00000000000E+00 0. -1.
        -15    1    1    2    0    0 -0.21854632396E+01  0.72184644234E+01  0.48830093719E+02  0.49441058442E+02  0.17770000000E+01 0.  1.
         15    1    1    2    0    0  0.55344678684E+01  0.28897435925E+01  0.31342286895E+02  0.32007462090E+02  0.17770000000E+01 0. -1.
</event>
<event>
 6    1  0.1782050E-003  0.5006338E+03  0.7546771E-02  0.9398393E-01
        -11   -1    0    0    0    0  0.00000000000E+00  0.00000000000E+00  0.50000000000E+03  0.50000000000E+03  0.00000000000E+00 0. -1.
         11   -1    0    0    0    0 -0.00000000000E+00 -0.00000000000E+00 -0.50000000000E+03  0.50000000000E+03  0.00000000000E+00 0.  1.
        -11    1    1    2    0    0  0.25016716022E+01 -0.50667754030E+01  0.30382201012E+03  0.30387455374E+03  0.00000000000E+00 0. -1.
         11    1    1    2    0    0  0.14331894114E+02 -0.24649093869E+01 -0.49915440544E+03  0.49936619773E+03  0.00000000000E+00 0.  1.
        -15    1    1    2    0    0 -0.11427016372E+01 -0.21144432436E+01  0.84519737552E+01  0.89649443177E+01  0.17770000000E+01 0.  1.
         15    1    1    2    0    0 -0.15690864079E+02  0.96461280335E+01  0.18688042156E+03  0.18779430421E+03  0.17770000000E+01 0. -1.
</event>
<event>
 6    1  0.1782050E-003  0.5055263E+03  0.7546771E-02  0.9387528E-01
        -11   -1    0    0    0    0  0.00000000000E+00  0.00000000000E+00  0.50000000000E+03  0.50000000000E+03  0.00000000000E+00 0.  1.
         11   -1    0    0    0    0 -0.00000000000E+00 -0.00000000000E+00 -0.50000000000E+03  0.50000000000E+03  0.00000000000E+00 0. -1.
        -11    1    1    2    0    0 -0.14146648344E+02 -0.86290876045E+01  0.49419596102E+03  0.49447369667E+03  0.00000000000E+00 0.  1.
         11    1    1    2    0    0  0.10075068924E+02 -0.44802499267E+01 -0.36167153044E+03  0.36183957161E+03  0.00000000000E+00 0. -1.
        -15    1    1    2    0    0  0.28751798544E+01 -0.82743051336E+01  0.48610200129E+00  0.89512462146E+01  0.17770000000E+01 0. -1.
         15    1    1    2    0    0  0.11963995665E+01  0.21383642665E+02 -0.13301053258E+03  0.13473548550E+03  0.17770000000E+01 0.  1.
</event>
<event>
 6    1  0.1782050E-003  0.5001597E+03  0.7546771E-02  0.9399452E-01
        -11   -1    0    0    0    0  0.00000000000E+00  0.00000000000E+00  0.50000000000E+03  0.50000000000E+03  0.00000000000E+00 0.  1.
         11   -1    0    0    0    0 -0.00000000000E+00 -0.00000000000E+00 -0.50000000000E+03  0.50000000000E+03  0.00000000000E+00 0. -1.
        -11    1    1    2    0    0 -0.36280237985E+01  0.35743425297E+01  0.52449041207E+01  0.73107797421E+01  0.00000000000E+00 0.  1.
         11    1    1    2    0    0 -0.19729634426E+01 -0.11965158779E+02 -0.49499187162E+03  0.49514039481E+03  0.00000000000E+00 0. -1.
        -15    1    1    2    0    0  0.12732733788E+02  0.26586290267E+02  0.55578659866E+02  0.62937258451E+02  0.17770000000E+01 0. -1.
         15    1    1    2    0    0 -0.71317465465E+01 -0.18195474018E+02  0.43416830763E+03  0.43461156699E+03  0.17770000000E+01 0.  1.
</event>
<event>
 6    1  0.1782050E-003  0.5017805E+03  0.7546771E-02  0.9395834E-01
        -11   -1    0    0    0    0  0.00000000000E+00  0.00000000000E+00  0.50000000000E+03  0.50000000000E+03  0.00000000000E+00 0. -1.
         11   -1    0    0    0    0 -0.00000000000E+00 -0.00000000000E+00 -0.50000000000E+03  0.50000000000E+03  0.00000000000E+00 0. -1.
        -11    1    1    2    0    0  0.55427955101E+01  0.31436150256E+01  0.44865091568E+03  0.44869616562E+03  0.00000000000E+00 0. -1.
         11    1    1    2    0    0 -0.11398256768E+02  0.33300927885E+01 -0.49807795408E+03  0.49821948790E+03  0.00000000000E+00 0. -1.
        -15    1    1    2    0    0 -0.56073809196E+01 -0.47694934600E+01  0.21564688525E+02  0.22855728140E+02  0.17770000000E+01 0.  1.
         15    1    1    2    0    0  0.11462842178E+02 -0.17042143541E+01  0.27862349877E+02  0.30228618345E+02  0.17770000000E+01 0. -1.
</event>
<event>
 6    1  0.1782050E-003  0.5007239E+03  0.7546771E-02  0.9398191E-01
        -11   -1    0    0    0    0  0.00000000000E+00  0.00000000000E+00  0.50000000000E+03  0.50000000000E+03  0.00000000000E+00 0. -1.
         11   -1    0    0    0    0 -0.00000000000E+00 -0.00000000000E+00 -0.50000000000E+03  0.50000000000E+03  0.00000000000E+00 0. -1.
        -11    1    1    2    0    0 -0.23844663565E+01  0.91505096915E+01  0.34337789685E+03  0.34350807494E+03  0.00000000000E+00 0. -1.
         11    1    1    2    0    0 -0.12618303662E+02 -0.24997947695E+01 -0.49911033924E+03  0.49927607723E+03  0.00000000000E+00 0. -1.
        -15    1    1    2    0    0  0.11837435695E+01 -0.63597824646E+01  0.31643477118E+02  0.32346799763E+02  0.17770000000E+01 0.  1.
         15    1    1    2    0    0  0.13819026449E+02 -0.29093245744E+00  0.12408896527E+03  0.12486904807E+03  0.17770000000E+01 0. -1.
</event>
<event>
 6    1  0.1782050E-003  0.5138328E+03  0.7546771E-02  0.9369379E-01
        -11   -1    0    0    0    0  0.00000000000E+00  0.00000000000E+00  0.50000000000E+03  0.50000000000E+03  0.00000000000E+00 0.  1.
         11   -1    0    0    0    0 -0.00000000000E+00 -0.00000000000E+00 -0.50000000000E+03  0.50000000000E+03  0.00000000000E+00 0.  1.
        -11    1    1    2    0    0 -0.69892518861E+01  0.27566590007E+01  0.48610916047E+03  0.48616721887E+03  0.00000000000E+00 0.  1.
         11    1    1    2    0    0  0.23496502798E+02 -0.17935215593E+02 -0.46809575412E+03  0.46902813628E+03  0.00000000000E+00 0.  1.
        -15    1    1    2    0    0 -0.18038052266E+02  0.14191110280E+02 -0.26990401470E+02  0.35473912119E+02  0.17770000000E+01 0.  1.
         15    1    1    2    0    0  0.15308013545E+01  0.98744631261E+00  0.89769951111E+01  0.93307327275E+01  0.17770000000E+01 0. -1.
</event>
<event>
 6    1  0.1782050E-003  0.5179638E+03  0.7546771E-02  0.9360488E-01
        -11   -1    0    0    0    0  0.00000000000E+00  0.00000000000E+00  0.50000000000E+03  0.50000000000E+03  0.00000000000E+00 0. -1.
         11   -1    0    0    0    0 -0.00000000000E+00 -0.00000000000E+00 -0.50000000000E+03  0.50000000000E+03  0.00000000000E+00 0.  1.
        -11    1    1    2    0    0  0.35118816114E+01 -0.12876979705E+02  0.48185139434E+03  0.48203621871E+03  0.00000000000E+00 0. -1.
         11    1    1    2    0    0 -0.17452515685E+02 -0.41379090330E+01 -0.32547643786E+03  0.32597028116E+03  0.00000000000E+00 0.  1.
        -15    1    1    2    0    0  0.28665620935E+01 -0.19176678307E+02 -0.15268850468E+03  0.15392497965E+03  0.17770000000E+01 0.  1.
         15    1    1    2    0    0  0.11074071980E+02  0.36191567045E+02 -0.36864517977E+01  0.38068520477E+02  0.17770000000E+01 0. -1.
</event>
<event>
 6    1  0.1782050E-003  0.5002414E+03  0.7546771E-02  0.9399270E-01
        -11   -1    0    0    0    0  0.00000000000E+00  0.00000000000E+00  0.50000000000E+03  0.50000000000E+03  0.00000000000E+00 0.  1.
         11   -1    0    0    0    0 -0.00000000000E+00 -0.00000000000E+00 -0.50000000000E+03  0.50000000000E+03  0.00000000000E+00 0. -1.
        -11    1    1    2    0    0  0.59296869990E+01 -0.59769707951E+01  0.49968769909E+03  0.49975862373E+03  0.00000000000E+00 0.  1.
         11    1    1    2    0    0 -0.34429066083E+01  0.48691380479E+01 -0.28567713875E+03  0.28573937376E+03  0.00000000000E+00 0. -1.
        -15    1    1    2    0    0 -0.74701689514E+01  0.32624906075E+01 -0.99555875658E+02  0.99904841605E+02  0.17770000000E+01 0.  1.
         15    1    1    2    0    0  0.49833885607E+01 -0.21546578603E+01 -0.11445468468E+03  0.11459716090E+03  0.17770000000E+01 0. -1.
</event>
<event>
 6    1  0.1782050E-003  0.5150774E+03  0.7546771E-02  0.9366691E-01
        -11   -1    0    0    0    0  0.00000000000E+00  0.00000000000E+00  0.50000000000E+03  0.50000000000E+03  0.00000000000E+00 0. -1.
         11   -1    0    0    0    0 -0.00000000000E+00 -0.00000000000E+00 -0.50000000000E+03  0.50000000000E+03  0.00000000000E+00 0. -1.
        -11    1    1    2    0    0 -0.82270912595E+01 -0.36661658667E+02  0.48346478327E+03  0.48492263188E+03  0.00000000000E+00 0. -1.
         11    1    1    2    0    0  0.12398667454E+01 -0.11982268647E+01 -0.76529446656E+02  0.76548868200E+02  0.00000000000E+00 0. -1.
        -15    1    1    2    0    0 -0.12651398539E+02 -0.87034181642E+01 -0.38170346454E+03  0.38201636084E+03  0.17770000000E+01 0. -1.
         15    1    1    2    0    0  0.19638623054E+02  0.46563303696E+02 -0.25231872071E+02  0.56512139083E+02  0.17770000000E+01 0.  1.
</event>
<event>
 6    1  0.1782050E-003  0.5107014E+03  0.7546771E-02  0.9376178E-01
        -11   -1    0    0    0    0  0.00000000000E+00  0.00000000000E+00  0.50000000000E+03  0.50000000000E+03  0.00000000000E+00 0. -1.
         11   -1    0    0    0    0 -0.00000000000E+00 -0.00000000000E+00 -0.50000000000E+03  0.50000000000E+03  0.00000000000E+00 0.  1.
        -11    1    1    2    0    0  0.76972484247E+01 -0.88116290200E+01  0.48477549473E+03  0.48491666575E+03  0.00000000000E+00 0. -1.
         11    1    1    2    0    0 -0.66367756614E+01  0.45483561114E+01 -0.48923247320E+03  0.48929862781E+03  0.00000000000E+00 0.  1.
        -15    1    1    2    0    0 -0.21843068959E+01  0.13367186513E+02  0.79548058338E+01  0.15807894760E+02  0.17770000000E+01 0.  1.
         15    1    1    2    0    0  0.11238341326E+01 -0.91039136043E+01 -0.34978273556E+01  0.99768116792E+01  0.17770000000E+01 0. -1.
</event>
<event>
 6    1  0.1782050E-003  0.5055202E+03  0.7546771E-02  0.9387542E-01
        -11   -1    0    0    0    0  0.00000000000E+00  0.00000000000E+00  0.50000000000E+03  0.50000000000E+03  0.00000000000E+00 0. -1.
         11   -1    0    0    0    0 -0.00000000000E+00 -0.00000000000E+00 -0.50000000000E+03  0.50000000000E+03  0.00000000000E+00 0. -1.
        -11    1    1    2    0    0 -0.27603187899E+00 -0.74086059070E+01  0.47099827503E+03  0.47105661943E+03  0.00000000000E+00 0. -1.
         11    1    1    2    0    0  0.80546782191E+01 -0.99541301035E+00 -0.49441316931E+03  0.49447977783E+03  0.00000000000E+00 0. -1.
        -15    1    1    2    0    0 -0.13809030392E+02  0.61870396910E+01  0.23247630043E+02  0.27795301979E+02  0.17770000000E+01 0.  1.
         15    1    1    2    0    0  0.60303840514E+01  0.22169792263E+01  0.16726424401E+00  0.66683007599E+01  0.17770000000E+01 0.  1.
</event>
<event>
 6    1  0.1782050E-003  0.4584989E+03  0.7546771E-02  0.9497782E-01
        -11   -1    0    0    0    0  0.00000000000E+00  0.00000000000E+00  0.50000000000E+03  0.50000000000E+03  0.00000000000E+00 0. -1.
         11   -1    0    0    0    0 -0.00000000000E+00 -0.00000000000E+00 -0.50000000000E+03  0.50000000000E+03  0.00000000000E+00 0. -1.
        -11    1    1    2    0    0  0.92830869709E+01 -0.17607165718E+02  0.45179225798E+03  0.45223050799E+03  0.00000000000E+00 0. -1.
         11    1    1    2    0    0  0.24885531951E+02 -0.23483152661E+02 -0.46516378610E+03  0.46642051419E+03  0.00000000000E+00 0. -1.
        -15    1    1    2    0    0  0.71037270339E+00  0.36055140803E+01  0.27819853935E+02  0.28117723292E+02  0.17770000000E+01 0. -1.
         15    1    1    2    0    0 -0.34878991625E+02  0.37484804299E+02 -0.14448325819E+02  0.53231254523E+02  0.17770000000E+01 0.  1.
</event>
<event>
 6    1  0.1782050E-003  0.5069378E+03  0.7546771E-02  0.9384418E-01
        -11   -1    0    0    0    0  0.00000000000E+00  0.00000000000E+00  0.50000000000E+03  0.50000000000E+03  0.00000000000E+00 0. -1.
         11   -1    0    0    0    0 -0.00000000000E+00 -0.00000000000E+00 -0.50000000000E+03  0.50000000000E+03  0.00000000000E+00 0. -1.
        -11    1    1    2    0    0  0.12896463420E+02 -0.75758355046E+01  0.49283530282E+03  0.49306221489E+03  0.00000000000E+00 0. -1.
         11    1    1    2    0    0  0.26039013872E+01  0.51213542991E+01 -0.28582605988E+03  0.28588379646E+03  0.00000000000E+00 0. -1.
        -15    1    1    2    0    0 -0.29559511422E+02 -0.24323726136E+02 -0.61795861229E+02  0.72713785232E+02  0.17770000000E+01 0. -1.
         15    1    1    2    0    0  0.14059146616E+02  0.26778207341E+02 -0.14521338171E+03  0.14834020342E+03  0.17770000000E+01 0.  1.
</event>
<event>
 6    1  0.1782050E-003  0.4522945E+03  0.7546771E-02  0.9513376E-01
        -11   -1    0    0    0    0  0.00000000000E+00  0.00000000000E+00  0.50000000000E+03  0.50000000000E+03  0.00000000000E+00 0. -1.
         11   -1    0    0    0    0 -0.00000000000E+00 -0.00000000000E+00 -0.50000000000E+03  0.50000000000E+03  0.00000000000E+00 0.  1.
        -11    1    1    2    0    0 -0.52846994602E+02 -0.25762517796E+02  0.45746329425E+03  0.46122573404E+03  0.00000000000E+00 0. -1.
         11    1    1    2    0    0 -0.10004014554E+01 -0.15685004316E+02 -0.44571101268E+03  0.44598803458E+03  0.00000000000E+00 0.  1.
        -15    1    1    2    0    0 -0.94475326900E+01  0.90470326878E+01 -0.16931979095E+02  0.21469846750E+02  0.17770000000E+01 0.  1.
         15    1    1    2    0    0  0.63294928747E+02  0.32400489424E+02  0.51796975331E+01  0.71316384622E+02  0.17770000000E+01 0. -1.
</event>
<event>
 6    1  0.1782050E-003  0.5086495E+03  0.7546771E-02  0.9380661E-01
        -11   -1    0    0    0    0  0.00000000000E+00  0.00000000000E+00  0.50000000000E+03  0.50000000000E+03  0.00000000000E+00 0.  1.
         11   -1    0    0    0    0 -0.00000000000E+00 -0.00000000000E+00 -0.50000000000E+03  0.50000000000E+03  0.00000000000E+00 0.  1.
        -11    1    1    2    0    0  0.66404604663E+01 -0.88931434770E+01  0.49122516181E+03  0.49135052998E+03  0.00000000000E+00 0.  1.
         11    1    1    2    0    0  0.57608853981E+01 -0.52481761068E+01 -0.45881562137E+03  0.45888179913E+03  0.00000000000E+00 0.  1.
        -15    1    1    2    0    0 -0.19586333090E+02  0.17637775418E+02 -0.14638511531E+02  0.30201975340E+02  0.17770000000E+01 0. -1.
         15    1    1    2    0    0  0.71849872253E+01 -0.34964558346E+01 -0.17771028910E+02  0.19565695550E+02  0.17770000000E+01 0.  1.
</event>
<event>
 6    1  0.1782050E-003  0.5004968E+03  0.7546771E-02  0.9398699E-01
        -11   -1    0    0    0    0  0.00000000000E+00  0.00000000000E+00  0.50000000000E+03  0.50000000000E+03  0.00000000000E+00 0.  1.
         11   -1    0    0    0    0 -0.00000000000E+00 -0.00000000000E+00 -0.50000000000E+03  0.50000000000E+03  0.00000000000E+00 0.  1.
        -11    1    1    2    0    0 -0.10339401575E+02  0.10223850643E+02  0.49929153991E+03  0.49950322538E+03  0.00000000000E+00 0.  1.
         11    1    1    2    0    0 -0.25287615684E+01 -0.29796371918E+01 -0.28855085400E+03  0.28857731757E+03  0.00000000000E+00 0.  1.
        -15    1    1    2    0    0  0.13906904767E+02 -0.27009205774E+01 -0.94568146634E+02  0.95639892613E+02  0.17770000000E+01 0. -1.
         15    1    1    2    0    0 -0.10387416236E+01 -0.45432928742E+01 -0.11617253927E+03  0.11627956443E+03  0.17770000000E+01 0.  1.
</event>
<event>
 6    1  0.1782050E-003  0.5012324E+03  0.7546771E-02  0.9397056E-01
        -11   -1    0    0    0    0  0.00000000000E+00  0.00000000000E+00  0.50000000000E+03  0.50000000000E+03  0.00000000000E+00 0. -1.
         11   -1    0    0    0    0 -0.00000000000E+00 -0.00000000000E+00 -0.50000000000E+03  0.50000000000E+03  0.00000000000E+00 0.  1.
        -11    1    1    2    0    0  0.48341921206E+01  0.52606228081E+01  0.16062746814E+03  0.16078627767E+03  0.00000000000E+00 0. -1.
         11    1    1    2    0    0  0.12402943769E+02 -0.16344646810E+00 -0.49861328639E+03  0.49876755016E+03  0.00000000000E+00 0.  1.
        -15    1    1    2    0    0 -0.23236452915E+01  0.26994712817E+01  0.28793786434E+01  0.49127408861E+01  0.17770000000E+01 0.  1.
         15    1    1    2    0    0 -0.14913490598E+02 -0.77966476218E+01  0.33510643961E+03  0.33553343129E+03  0.17770000000E+01 0. -1.
</event>
<event>
 6    1  0.1782050E-003  0.5026632E+03  0.7546771E-02  0.9393870E-01
        -11   -1    0    0    0    0  0.00000000000E+00  0.00000000000E+00  0.50000000000E+03  0.50000000000E+03  0.00000000000E+00 0.  1.
         11   -1    0    0    0    0 -0.00000000000E+00 -0.00000000000E+00 -0.50000000000E+03  0.50000000000E+03  0.00000000000E+00 0.  1.
        -11    1    1    2    0    0 -0.17757699592E+01  0.50218768699E+01  0.37423354914E+03  0.37427145484E+03  0.00000000000E+00 0.  1.
         11    1    1    2    0    0 -0.14634195211E+02 -0.10732174296E+02 -0.49700558771E+03  0.49733680081E+03  0.00000000000E+00 0.  1.
        -15    1    1    2    0    0 -0.35267312000E+01 -0.53451151345E+01  0.76400771091E+02  0.76689266792E+02  0.17770000000E+01 0.  1.
         15    1    1    2    0    0  0.19936696370E+02  0.11055412561E+02  0.46371267477E+02  0.51702477557E+02  0.17770000000E+01 0. -1.
</event>
<event>
 6    1  0.1782050E-003  0.5029624E+03  0.7546771E-02  0.9393205E-01
        -11   -1    0    0    0    0  0.00000000000E+00  0.00000000000E+00  0.50000000000E+03  0.50000000000E+03  0.00000000000E+00 0.  1.
         11   -1    0    0    0    0 -0.00000000000E+00 -0.00000000000E+00 -0.50000000000E+03  0.50000000000E+03  0.00000000000E+00 0.  1.
        -11    1    1    2    0    0 -0.29956719176E+01 -0.44938702270E+01  0.34805625611E+03  0.34809815618E+03  0.00000000000E+00 0.  1.
         11    1    1    2    0    0 -0.86498547672E+01  0.33380182561E+01 -0.49695115323E+03  0.49703763544E+03  0.00000000000E+00 0.  1.
        -15    1    1    2    0    0  0.36596565583E+01 -0.24416976277E+01 -0.87765278742E+00  0.48252437084E+01  0.17770000000E+01 0. -1.
         15    1    1    2    0    0  0.79858701265E+01  0.35975495986E+01  0.14977254991E+03  0.15003896467E+03  0.17770000000E+01 0.  1.
</event>
<event>
 6    1  0.1782050E-003  0.4784231E+03  0.7546771E-02  0.9449428E-01
        -11   -1    0    0    0    0  0.00000000000E+00  0.00000000000E+00  0.50000000000E+03  0.50000000000E+03  0.00000000000E+00 0.  1.
         11   -1    0    0    0    0 -0.00000000000E+00 -0.00000000000E+00 -0.50000000000E+03  0.50000000000E+03  0.00000000000E+00 0. -1.
        -11    1    1    2    0    0  0.14152440808E+02  0.15778537143E+02  0.48323555265E+03  0.48370016866E+03  0.00000000000E+00 0.  1.
         11    1    1    2    0    0 -0.15680649028E+02  0.92361359173E+01 -0.47317710873E+03  0.47352694241E+03  0.00000000000E+00 0. -1.
        -15    1    1    2    0    0  0.16627983597E+02 -0.18326915433E+02 -0.42156575865E+01  0.25165356459E+02  0.17770000000E+01 0. -1.
         15    1    1    2    0    0 -0.15099775378E+02 -0.66877576271E+01 -0.58427863354E+01  0.17607532471E+02  0.17770000000E+01 0.  1.
</event>
<event>
 6    1  0.1782050E-003  0.5012785E+03  0.7546771E-02  0.9396954E-01
        -11   -1    0    0    0    0  0.00000000000E+00  0.00000000000E+00  0.50000000000E+03  0.50000000000E+03  0.00000000000E+00 0. -1.
         11   -1    0    0    0    0 -0.00000000000E+00 -0.00000000000E+00 -0.50000000000E+03  0.50000000000E+03  0.00000000000E+00 0.  1.
        -11    1    1    2    0    0  0.11722295312E+02  0.13278675618E+02  0.49840687368E+03  0.49872151264E+03  0.00000000000E+00 0. -1.
         11    1    1    2    0    0 -0.12656187139E+01 -0.56973941224E+01 -0.34071161047E+03  0.34076159350E+03  0.00000000000E+00 0.  1.
        -15    1    1    2    0    0  0.88635617031E+01 -0.45163974609E+01 -0.44796675729E+02  0.45922330706E+02  0.17770000000E+01 0. -1.
         15    1    1    2    0    0 -0.19320238301E+02 -0.30648840345E+01 -0.11289858748E+03  0.11459456316E+03  0.17770000000E+01 0.  1.
</event>
<event>
 6    1  0.1782050E-003  0.5049473E+03  0.7546771E-02  0.9388807E-01
        -11   -1    0    0    0    0  0.00000000000E+00  0.00000000000E+00  0.50000000000E+03  0.50000000000E+03  0.00000000000E+00 0.  1.
         11   -1    0    0    0    0 -0.00000000000E+00 -0.00000000000E+00 -0.50000000000E+03  0.50000000000E+03  0.00000000000E+00 0. -1.
        -11    1    1    2    0    0  0.12449242078E+02 -0.34586295975E+00  0.49489603314E+03  0.49505271120E+03  0.00000000000E+00 0.  1.
         11    1    1    2    0    0  0.28229746298E+01 -0.52247518119E+01 -0.41925553544E+03  0.41929759267E+03  0.00000000000E+00 0. -1.
        -15    1    1    2    0    0  0.10738908029E+01  0.10768497916E+02 -0.63790120022E+02  0.64725967975E+02  0.17770000000E+01 0.  1.
         15    1    1    2    0    0 -0.16346107511E+02 -0.51978831448E+01 -0.11850377674E+02  0.20923728157E+02  0.17770000000E+01 0. -1.
</event>
<event>
 6    1  0.1782050E-003  0.5033348E+03  0.7546771E-02  0.9392379E-01
        -11   -1    0    0    0    0  0.00000000000E+00  0.00000000000E+00  0.50000000000E+03  0.50000000000E+03  0.00000000000E+00 0. -1.
         11   -1    0    0    0    0 -0.00000000000E+00 -0.00000000000E+00 -0.50000000000E+03  0.50000000000E+03  0.00000000000E+00 0.  1.
        -11    1    1    2    0    0 -0.72448342462E+01  0.93916155335E+01  0.47161230286E+03  0.47176143788E+03  0.00000000000E+00 0. -1.
         11    1    1    2    0    0 -0.68416645197E+01 -0.95281977964E+00 -0.49661714306E+03  0.49666518201E+03  0.00000000000E+00 0.  1.
        -15    1    1    2    0    0  0.17298942462E+01 -0.20707238292E+01  0.39741053125E+00  0.32551644214E+01  0.17770000000E+01 0. -1.
         15    1    1    2    0    0  0.12356604520E+02 -0.63680719246E+01  0.24607429674E+02  0.28318215683E+02  0.17770000000E+01 0.  1.
</event>
<event>
 6    1  0.1782050E-003  0.5006562E+03  0.7546771E-02  0.9398343E-01
        -11   -1    0    0    0    0  0.00000000000E+00  0.00000000000E+00  0.50000000000E+03  0.50000000000E+03  0.00000000000E+00 0.  1.
         11   -1    0    0    0    0 -0.00000000000E+00 -0.00000000000E+00 -0.50000000000E+03  0.50000000000E+03  0.00000000000E+00 0. -1.
        -11    1    1    2    0    0  0.76101968347E+01 -0.10133171585E+01  0.49928474303E+03  0.49934376589E+03  0.00000000000E+00 0.  1.
         11    1    1    2    0    0 -0.69540502613E+01 -0.22899713224E+01 -0.38648880154E+03  0.38655814116E+03  0.00000000000E+00 0. -1.
        -15    1    1    2    0    0 -0.99440398842E+00  0.56115078236E+01 -0.13524656947E+02  0.14783502085E+02  0.17770000000E+01 0.  1.
         15    1    1    2    0    0  0.33825741496E+00 -0.23082193427E+01 -0.99271284542E+02  0.99314590863E+02  0.17770000000E+01 0. -1.
</event>
<event>
 6    1  0.1782050E-003  0.5066763E+03  0.7546771E-02  0.9384994E-01
        -11   -1    0    0    0    0  0.00000000000E+00  0.00000000000E+00  0.50000000000E+03  0.50000000000E+03  0.00000000000E+00 0.  1.
         11   -1    0    0    0    0 -0.00000000000E+00 -0.00000000000E+00 -0.50000000000E+03  0.50000000000E+03  0.00000000000E+00 0.  1.
        -11    1    1    2    0    0  0.83947627260E+01  0.13372826768E+02  0.49307098567E+03  0.49332372885E+03  0.00000000000E+00 0.  1.
         11    1    1    2    0    0 -0.56384535074E+01 -0.19471333216E+01 -0.33350141779E+03  0.33355476185E+03  0.00000000000E+00 0.  1.
        -15    1    1    2    0    0 -0.12019460870E+01 -0.23924509130E+01 -0.16310591909E+03  0.16313757099E+03  0.17770000000E+01 0. -1.
         15    1    1    2    0    0 -0.15543631316E+01 -0.90332425330E+01  0.35363512095E+01  0.99839383152E+01  0.17770000000E+01 0.  1.
</event>
<event>
 6    1  0.1782050E-003  0.4808537E+03  0.7546771E-02  0.9443700E-01
        -11   -1    0    0    0    0  0.00000000000E+00  0.00000000000E+00  0.50000000000E+03  0.50000000000E+03  0.00000000000E+00 0.  1.
         11   -1    0    0    0    0 -0.00000000000E+00 -0.00000000000E+00 -0.50000000000E+03  0.50000000000E+03  0.00000000000E+00 0.  1.
        -11    1    1    2    0    0  0.34379339437E+02 -0.17012483792E+02  0.48167680010E+03  0.48320172116E+03  0.00000000000E+00 0.  1.
         11    1    1    2    0    0 -0.10015031266E+02  0.31396169593E+02 -0.47779453551E+03  0.47892968010E+03  0.00000000000E+00 0.  1.
        -15    1    1    2    0    0 -0.20162512163E+02  0.19858101392E+01 -0.46323163153E+01  0.20858725322E+02  0.17770000000E+01 0. -1.
         15    1    1    2    0    0 -0.42017960077E+01 -0.16369495940E+02  0.75005172758E+00  0.17009873416E+02  0.17770000000E+01 0.  1.
</event>
<event>
 6    1  0.1782050E-003  0.5261003E+03  0.7546771E-02  0.9343230E-01
        -11   -1    0    0    0    0  0.00000000000E+00  0.00000000000E+00  0.50000000000E+03  0.50000000000E+03  0.00000000000E+00 0.  1.
         11   -1    0    0    0    0 -0.00000000000E+00 -0.00000000000E+00 -0.50000000000E+03  0.50000000000E+03  0.00000000000E+00 0. -1.
        -11    1    1    2    0    0  0.11482818056E+02 -0.13154160477E+02  0.43551093086E+03  0.43586082405E+03  0.00000000000E+00 0.  1.
         11    1    1    2    0    0 -0.16143217439E+01 -0.10392380025E+02 -0.47378300045E+03  0.47389971420E+03  0.00000000000E+00 0. -1.
        -15    1    1    2    0    0  0.11241939942E+02 -0.68147459136E+01  0.49742802821E+02  0.51481318330E+02  0.17770000000E+01 0.  1.
         15    1    1    2    0    0 -0.21110436254E+02  0.30361286415E+02 -0.11470733225E+02  0.38758143420E+02  0.17770000000E+01 0. -1.
</event>
<event>
 6    1  0.1782050E-003  0.5001699E+03  0.7546771E-02  0.9399430E-01
        -11   -1    0    0    0    0  0.00000000000E+00  0.00000000000E+00  0.50000000000E+03  0.50000000000E+03  0.00000000000E+00 0.  1.
         11   -1    0    0    0    0 -0.00000000000E+00 -0.00000000000E+00 -0.50000000000E+03  0.50000000000E+03  0.00000000000E+00 0. -1.
        -11    1    1    2    0    0  0.74982453509E+01  0.89268212951E+00  0.49977305768E+03  0.49983010088E+03  0.00000000000E+00 0.  1.
         11    1    1    2    0    0 -0.30782585546E+01  0.53549361591E+01 -0.32737120060E+03  0.32742946415E+03  0.00000000000E+00 0. -1.
        -15    1    1    2    0    0 -0.27450325026E+00 -0.37311777875E+01 -0.12292041685E+03  0.12299017704E+03  0.17770000000E+01 0.  1.
         15    1    1    2    0    0 -0.41454835460E+01 -0.25164405012E+01 -0.49481440236E+02  0.49750257924E+02  0.17770000000E+01 0. -1.
</event>
<event>
 6    1  0.1782050E-003  0.5045602E+03  0.7546771E-02  0.9389663E-01
        -11   -1    0    0    0    0  0.00000000000E+00  0.00000000000E+00  0.50000000000E+03  0.50000000000E+03  0.00000000000E+00 0.  1.
         11   -1    0    0    0    0 -0.00000000000E+00 -0.00000000000E+00 -0.50000000000E+03  0.50000000000E+03  0.00000000000E+00 0. -1.
        -11    1    1    2    0    0 -0.61452840607E+01 -0.43976100381E+01  0.49538216094E+03  0.49543979338E+03  0.00000000000E+00 0.  1.
         11    1    1    2    0    0 -0.49532262338E+01  0.46507858827E+01 -0.47656844569E+03  0.47661687726E+03  0.00000000000E+00 0. -1.
        -15    1    1    2    0    0  0.91267967363E+01 -0.77625100558E+01 -0.80113500501E+01  0.14522205055E+02  0.17770000000E+01 0.  1.
         15    1    1    2    0    0  0.19717135581E+01  0.75093342112E+01 -0.10802365203E+02  0.13421124306E+02  0.17770000000E+01 0. -1.
</event>
<event>
 6    1  0.1782050E-003  0.5064237E+03  0.7546771E-02  0.9385550E-01
        -11   -1    0    0    0    0  0.00000000000E+00  0.00000000000E+00  0.50000000000E+03  0.50000000000E+03  0.00000000000E+00 0. -1.
         11   -1    0    0    0    0 -0.00000000000E+00 -0.00000000000E+00 -0.50000000000E+03  0.50000000000E+03  0.00000000000E+00 0.  1.
        -11    1    1    2    0    0 -0.19750059606E+02  0.10980202190E+02  0.45254222162E+03  0.45310604944E+03  0.00000000000E+00 0. -1.
         11    1    1    2    0    0  0.35556165367E+01 -0.61973440817E+01 -0.49352463251E+03  0.49357634908E+03  0.00000000000E+00 0.  1.
        -15    1    1    2    0    0  0.21992556060E+02  0.48617897239E+01  0.29303695543E+02  0.37002348883E+02  0.17770000000E+01 0.  1.
         15    1    1    2    0    0 -0.57981129909E+01 -0.96446478323E+01  0.11678715347E+02  0.16315252594E+02  0.17770000000E+01 0. -1.
</event>
<event>
 6    1  0.1782050E-003  0.5004778E+03  0.7546771E-02  0.9398741E-01
        -11   -1    0    0    0    0  0.00000000000E+00  0.00000000000E+00  0.50000000000E+03  0.50000000000E+03  0.00000000000E+00 0. -1.
         11   -1    0    0    0    0 -0.00000000000E+00 -0.00000000000E+00 -0.50000000000E+03  0.50000000000E+03  0.00000000000E+00 0. -1.
        -11    1    1    2    0    0 -0.95771414811E+01 -0.58487525434E+01  0.49939615969E+03  0.49952222559E+03  0.00000000000E+00 0. -1.
         11    1    1    2    0    0 -0.39923675845E+01 -0.91248268392E+00 -0.26498282546E+03  0.26501447020E+03  0.00000000000E+00 0. -1.
        -15    1    1    2    0    0  0.66934098894E+01  0.42892410570E+01 -0.36109089243E+02  0.37016528467E+02  0.17770000000E+01 0.  1.
         15    1    1    2    0    0  0.68760991763E+01  0.24719941703E+01 -0.19830424499E+03  0.19844677575E+03  0.17770000000E+01 0. -1.
</event>
<event>
 6    1  0.1782050E-003  0.5094016E+03  0.7546771E-02  0.9379015E-01
        -11   -1    0    0    0    0  0.00000000000E+00  0.00000000000E+00  0.50000000000E+03  0.50000000000E+03  0.00000000000E+00 0. -1.
         11   -1    0    0    0    0 -0.00000000000E+00 -0.00000000000E+00 -0.50000000000E+03  0.50000000000E+03  0.00000000000E+00 0. -1.
        -11    1    1    2    0    0  0.38843013331E+01 -0.84434056548E+01  0.49051036984E+03  0.49059841196E+03  0.00000000000E+00 0. -1.
         11    1    1    2    0    0 -0.79712467546E+01 -0.15914332973E+01 -0.45732822408E+03  0.45740045690E+03  0.00000000000E+00 0. -1.
        -15    1    1    2    0    0  0.10340598097E+02 -0.10401879971E+02 -0.25015952011E+02  0.29053100694E+02  0.17770000000E+01 0. -1.
         15    1    1    2    0    0 -0.62536526751E+01  0.20436718924E+02 -0.81661937456E+01  0.22948030448E+02  0.17770000000E+01 0. -1.
</event>
<event>
 6    1  0.1782050E-003  0.5003640E+03  0.7546771E-02  0.9398996E-01
        -11   -1    0    0    0    0  0.00000000000E+00  0.00000000000E+00  0.50000000000E+03  0.50000000000E+03  0.00000000000E+00 0.  1.
         11   -1    0    0    0    0 -0.00000000000E+00 -0.00000000000E+00 -0.50000000000E+03  0.50000000000E+03  0.00000000000E+00 0.  1.
        -11    1    1    2    0    0 -0.22966257463E+01  0.62207096870E+01  0.32131777561E+03  0.32138619237E+03  0.00000000000E+00 0.  1.
         11    1    1    2    0    0 -0.18414614092E+01  0.85968358111E+01 -0.49955860226E+03  0.49963596113E+03  0.00000000000E+00 0.  1.
        -15    1    1    2    0    0  0.13791878993E+01 -0.38908713754E+01  0.67962677878E+02  0.68111117688E+02  0.17770000000E+01 0.  1.
         15    1    1    2    0    0  0.27588992561E+01 -0.10926674123E+02  0.11027814877E+03  0.11086672881E+03  0.17770000000E+01 0. -1.
</event>
<event>
 6    1  0.1782050E-003  0.4120813E+03  0.7546771E-02  0.9621363E-01
        -11   -1    0    0    0    0  0.00000000000E+00  0.00000000000E+00  0.50000000000E+03  0.50000000000E+03  0.00000000000E+00 0. -1.
         11   -1    0    0    0    0 -0.00000000000E+00 -0.00000000000E+00 -0.50000000000E+03  0.50000000000E+03  0.00000000000E+00 0. -1.
        -11    1    1    2    0    0  0.14543610845E+01 -0.52814846091E+00  0.58493384001E+02  0.58513845190E+02  0.00000000000E+00 0. -1.
         11    1    1    2    0    0  0.17012483631E+02  0.23936896967E+02 -0.38706593055E+03  0.38817835363E+03  0.00000000000E+00 0. -1.
        -15    1    1    2    0    0 -0.16283194864E+02 -0.30643538355E+02 -0.10964631681E+03  0.11502017822E+03  0.17770000000E+01 0.  1.
         15    1    1    2    0    0 -0.21836498511E+01  0.72347898483E+01  0.43821886336E+03  0.43828762296E+03  0.17770000000E+01 0. -1.
</event>
<event>
 6    1  0.1782050E-003  0.5039155E+03  0.7546771E-02  0.9391091E-01
        -11   -1    0    0    0    0  0.00000000000E+00  0.00000000000E+00  0.50000000000E+03  0.50000000000E+03  0.00000000000E+00 0. -1.
         11   -1    0    0    0    0 -0.00000000000E+00 -0.00000000000E+00 -0.50000000000E+03  0.50000000000E+03  0.00000000000E+00 0. -1.
        -11    1    1    2    0    0  0.31061109362E+01 -0.79055482668E+01  0.49601178778E+03  0.49608450816E+03  0.00000000000E+00 0. -1.
         11    1    1    2    0    0  0.20091050940E+01 -0.53808419758E+01 -0.37621522576E+03  0.37625906774E+03  0.00000000000E+00 0. -1.
        -15    1    1    2    0    0 -0.10292471821E+01  0.69940504080E+01  0.31649366653E+00  0.72961625607E+01  0.17770000000E+01 0.  1.
         15    1    1    2    0    0 -0.40859688481E+01  0.62923398346E+01 -0.12011305569E+03  0.12036026154E+03  0.17770000000E+01 0. -1.
</event>
<event>
 6    1  0.1782050E-003  0.5005682E+03  0.7546771E-02  0.9398539E-01
        -11   -1    0    0    0    0  0.00000000000E+00  0.00000000000E+00  0.50000000000E+03  0.50000000000E+03  0.00000000000E+00 0. -1.
         11   -1    0    0    0    0 -0.00000000000E+00 -0.00000000000E+00 -0.50000000000E+03  0.50000000000E+03  0.00000000000E+00 0.  1.
        -11    1    1    2    0    0  0.58313760382E+01 -0.12336813198E+01  0.18797026425E+03  0.18806474193E+03  0.00000000000E+00 0. -1.
         11    1    1    2    0    0  0.61363530553E+01 -0.51727645267E+01 -0.49936730489E+03  0.49943179465E+03  0.00000000000E+00 0.  1.
        -15    1    1    2    0    0 -0.13309836039E+02 -0.17635085763E+01  0.26460494736E+03  0.26495131174E+03  0.17770000000E+01 0. -1.
         15    1    1    2    0    0  0.13421069458E+01  0.81699544228E+01  0.46792093280E+02  0.47552151675E+02  0.17770000000E+01 0.  1.
</event>
<event>
 6    1  0.1782050E-003  0.5074483E+03  0.7546771E-02  0.9383296E-01
        -11   -1    0    0    0    0  0.00000000000E+00  0.00000000000E+00  0.50000000000E+03  0.50000000000E+03  0.00000000000E+00 0.  1.
         11   -1    0    0    0    0 -0.00000000000E+00 -0.00000000000E+00 -0.50000000000E+03  0.50000000000E+03  0.00000000000E+00 0.  1.
        -11    1    1    2    0    0  0.49781391974E+00 -0.11031566061E+02  0.49242790313E+03  0.49255170596E+03  0.00000000000E+00 0.  1.
         11    1    1    2    0    0 -0.57559155957E+01 -0.85238419400E+01 -0.47721825795E+03  0.47732908163E+03  0.00000000000E+00 0.  1.
        -15    1    1    2    0    0  0.52253845746E+01  0.15383664516E+02 -0.23854905666E+01  0.16516963163E+02  0.17770000000E+01 0. -1.
         15    1    1    2    0    0  0.32717101453E-01  0.41717434849E+01 -0.12824154611E+02  0.13602249248E+02  0.17770000000E+01 0.  1.
</event>
<event>
 6    1  0.1782050E-003  0.5008450E+03  0.7546771E-02  0.9397921E-01
        -11   -1    0    0    0    0  0.00000000000E+00  0.00000000000E+00  0.50000000000E+03  0.50000000000E+03  0.00000000000E+00 0. -1.
         11   -1    0    0    0    0 -0.00000000000E+00 -0.00000000000E+00 -0.50000000000E+03  0.50000000000E+03  0.00000000000E+00 0. -1.
        -11    1    1    2    0    0 -0.12788006135E+01 -0.31940741206E+01  0.27041590721E+02  0.27259586740E+02  0.00000000000E+00 0. -1.
         11    1    1    2    0    0 -0.15278693847E+02  0.46551224173E+01 -0.49889941796E+03  0.49915502391E+03  0.00000000000E+00 0. -1.
        -15    1    1    2    0    0  0.16007325695E+02  0.58862052981E+01  0.88129835369E+02  0.89782556769E+02  0.17770000000E+01 0.  1.
         15    1    1    2    0    0  0.55016876485E+00 -0.73472535948E+01  0.38372799187E+03  0.38380283258E+03  0.17770000000E+01 0. -1.
</event>
<event>
 6    1  0.1782050E-003  0.5036563E+03  0.7546771E-02  0.9391665E-01
        -11   -1    0    0    0    0  0.00000000000E+00  0.00000000000E+00  0.50000000000E+03  0.50000000000E+03  0.00000000000E+00 0.  1.
         11   -1    0    0    0    0 -0.00000000000E+00 -0.00000000000E+00 -0.50000000000E+03  0.50000000000E+03  0.00000000000E+00 0.  1.
        -11    1    1    2    0    0 -0.60776694034E+01 -0.47131905540E+01  0.49628406588E+03  0.49634365744E+03  0.00000000000E+00 0.  1.
         11    1    1    2    0    0 -0.32289100572E+01 -0.13605239942E+02 -0.38237390136E+03  0.38262949292E+03  0.00000000000E+00 0.  1.
        -15    1    1    2    0    0  0.16858558520E+01  0.25243922044E+02 -0.47953394134E+02  0.54247428033E+02  0.17770000000E+01 0.  1.
         15    1    1    2    0    0  0.76207236086E+01 -0.69254915483E+01 -0.65956770388E+02  0.66779421610E+02  0.17770000000E+01 0. -1.
</event>
<event>
 6    1  0.1782050E-003  0.5037491E+03  0.7546771E-02  0.9391460E-01
        -11   -1    0    0    0    0  0.00000000000E+00  0.00000000000E+00  0.50000000000E+03  0.50000000000E+03  0.00000000000E+00 0.  1.
         11   -1    0    0    0    0 -0.00000000000E+00 -0.00000000000E+00 -0.50000000000E+03  0.50000000000E+03  0.00000000000E+00 0. -1.
        -11    1    1    2    0    0 -0.11555729067E+02  0.13707412598E+02  0.41594324576E+03  0.41632945094E+03  0.00000000000E+00 0.  1.
         11    1    1    2    0    0 -0.79780706521E+01 -0.69131654912E+00 -0.49618624475E+03  0.49625086096E+03  0.00000000000E+00 0. -1.
        -15    1    1    2    0    0  0.68723320464E+01 -0.28077119220E+01  0.25885790197E+01  0.80604382222E+01  0.17770000000E+01 0.  1.
         15    1    1    2    0    0  0.12661467673E+02 -0.10208384127E+02  0.77654419971E+02  0.79359249871E+02  0.17770000000E+01 0. -1.
</event>
<event>
 6    1  0.1782050E-003  0.4795895E+03  0.7546771E-02  0.9446675E-01
        -11   -1    0    0    0    0  0.00000000000E+00  0.00000000000E+00  0.50000000000E+03  0.50000000000E+03  0.00000000000E+00 0.  1.
         11   -1    0    0    0    0 -0.00000000000E+00 -0.00000000000E+00 -0.50000000000E+03  0.50000000000E+03  0.00000000000E+00 0.  1.
        -11    1    1    2    0    0  0.71143694809E+01  0.23308782270E+01  0.48325803300E+03  0.48331601846E+03  0.00000000000E+00 0.  1.
         11    1    1    2    0    0  0.65311089353E+01 -0.99374735046E+00 -0.47594298272E+03  0.47598882940E+03  0.00000000000E+00 0.  1.
        -15    1    1    2    0    0 -0.10004763601E+02  0.32659493298E+00 -0.22607317078E+02  0.24788111534E+02  0.17770000000E+01 0. -1.
         15    1    1    2    0    0 -0.36407148150E+01 -0.16637258096E+01  0.15292266795E+02  0.15907040600E+02  0.17770000000E+01 0. -1.
</event>
<event>
 6    1  0.1782050E-003  0.5022510E+03  0.7546771E-02  0.9394787E-01
        -11   -1    0    0    0    0  0.00000000000E+00  0.00000000000E+00  0.50000000000E+03  0.50000000000E+03  0.00000000000E+00 0. -1.
         11   -1    0    0    0    0 -0.00000000000E+00 -0.00000000000E+00 -0.50000000000E+03  0.50000000000E+03  0.00000000000E+00 0. -1.
        -11    1    1    2    0    0  0.20366332992E+02  0.19612302699E+02  0.49694527741E+03  0.49774897155E+03  0.00000000000E+00 0. -1.
         11    1    1    2    0    0  0.77394210260E+01  0.98034608272E+00 -0.26905106938E+03  0.26916414630E+03  0.00000000000E+00 0. -1.
        -15    1    1    2    0    0 -0.11469049641E+02  0.79585736326E+01 -0.42697190659E+02  0.44956487998E+02  0.17770000000E+01 0. -1.
         15    1    1    2    0    0 -0.16636704376E+02 -0.28551222414E+02 -0.18519701737E+03  0.18813039416E+03  0.17770000000E+01 0.  1.
</event>
<event>
 6    1  0.1782050E-003  0.4850139E+03  0.7546771E-02  0.9433981E-01
        -11   -1    0    0    0    0  0.00000000000E+00  0.00000000000E+00  0.50000000000E+03  0.50000000000E+03  0.00000000000E+00 0.  1.
         11   -1    0    0    0    0 -0.00000000000E+00 -0.00000000000E+00 -0.50000000000E+03  0.50000000000E+03  0.00000000000E+00 0. -1.
        -11    1    1    2    0    0  0.15318816968E+02  0.19737139345E+01  0.48293275609E+03  0.48317968563E+03  0.00000000000E+00 0.  1.
         11    1    1    2    0    0  0.99286530205E+00  0.76000333998E+01 -0.48698060014E+03  0.48704091327E+03  0.00000000000E+00 0. -1.
        -15    1    1    2    0    0 -0.13386195718E+02 -0.10078225966E+02  0.12279906136E+02  0.20849812904E+02  0.17770000000E+01 0. -1.
         15    1    1    2    0    0 -0.29254865520E+01  0.50447863134E+00 -0.82320620837E+01  0.89295881991E+01  0.17770000000E+01 0.  1.
</event>
<event>
 6    1  0.1782050E-003  0.5051944E+03  0.7546771E-02  0.9388261E-01
        -11   -1    0    0    0    0  0.00000000000E+00  0.00000000000E+00  0.50000000000E+03  0.50000000000E+03  0.00000000000E+00 0.  1.
         11   -1    0    0    0    0 -0.00000000000E+00 -0.00000000000E+00 -0.50000000000E+03  0.50000000000E+03  0.00000000000E+00 0.  1.
        -11    1    1    2    0    0  0.11981881871E+02 -0.39641889107E+01  0.49464463849E+03  0.49480561706E+03  0.00000000000E+00 0.  1.
         11    1    1    2    0    0 -0.45083289005E+01  0.16707010219E+02 -0.44947653090E+03  0.44980951641E+03  0.00000000000E+00 0.  1.
        -15    1    1    2    0    0  0.75281362524E+01 -0.14748739280E+02 -0.20825952037E+02  0.26666011194E+02  0.17770000000E+01 0. -1.
         15    1    1    2    0    0 -0.15001689223E+02  0.20059179712E+01 -0.24342155548E+02  0.28718855342E+02  0.17770000000E+01 0.  1.
</event>
<event>
 6    1  0.1782050E-003  0.5176829E+03  0.7546771E-02  0.9361090E-01
        -11   -1    0    0    0    0  0.00000000000E+00  0.00000000000E+00  0.50000000000E+03  0.50000000000E+03  0.00000000000E+00 0.  1.
         11   -1    0    0    0    0 -0.00000000000E+00 -0.00000000000E+00 -0.50000000000E+03  0.50000000000E+03  0.00000000000E+00 0.  1.
        -11    1    1    2    0    0  0.39846023353E+01 -0.20978136735E+02  0.27435704944E+03  0.27518675450E+03  0.00000000000E+00 0.  1.
         11    1    1    2    0    0  0.10083429527E+02  0.11223129959E+02 -0.48208103563E+03  0.48231707321E+03  0.00000000000E+00 0.  1.
        -15    1    1    2    0    0  0.19360599800E+02  0.13989685758E+02  0.20737306129E+03  0.20875173870E+03  0.17770000000E+01 0.  1.
         15    1    1    2    0    0 -0.33428631662E+02 -0.42346789810E+01  0.35092490216E+00  0.33744433588E+02  0.17770000000E+01 0. -1.
</event>
<event>
 6    1  0.1782050E-003  0.5058244E+03  0.7546771E-02  0.9386871E-01
        -11   -1    0    0    0    0  0.00000000000E+00  0.00000000000E+00  0.50000000000E+03  0.50000000000E+03  0.00000000000E+00 0.  1.
         11   -1    0    0    0    0 -0.00000000000E+00 -0.00000000000E+00 -0.50000000000E+03  0.50000000000E+03  0.00000000000E+00 0. -1.
        -11    1    1    2    0    0  0.28746691457E+01 -0.47002127798E+01  0.24512338777E+03  0.24518529922E+03  0.00000000000E+00 0.  1.
         11    1    1    2    0    0 -0.14423080142E+02  0.83807906395E+01 -0.49389398908E+03  0.49417561184E+03  0.00000000000E+00 0. -1.
        -15    1    1    2    0    0  0.10196860919E+01  0.34655956305E+02  0.15376512964E+03  0.15763549057E+03  0.17770000000E+01 0.  1.
         15    1    1    2    0    0  0.10528724904E+02 -0.38336534165E+02  0.95005471670E+02  0.10300359837E+03  0.17770000000E+01 0. -1.
</event>
<event>
 6    1  0.1782050E-003  0.5526000E+03  0.7546771E-02  0.9289242E-01
        -11   -1    0    0    0    0  0.00000000000E+00  0.00000000000E+00  0.50000000000E+03  0.50000000000E+03  0.00000000000E+00 0.  1.
         11   -1    0    0    0    0 -0.00000000000E+00 -0.00000000000E+00 -0.50000000000E+03  0.50000000000E+03  0.00000000000E+00 0.  1.
        -11    1    1    2    0    0  0.76651793385E+01 -0.65154083029E+00  0.40920833465E+03  0.40928063798E+03  0.00000000000E+00 0.  1.
         11    1    1    2    0    0  0.16572999670E+02  0.12302509531E+02 -0.44692361633E+03  0.44739997194E+03  0.00000000000E+00 0.  1.
        -15    1    1    2    0    0 -0.58848064863E+01 -0.30207567299E+02 -0.46133212842E+02  0.55484764807E+02  0.17770000000E+01 0.  1.
         15    1    1    2    0    0 -0.18353372522E+02  0.18556598598E+02  0.83848494520E+02  0.87834625273E+02  0.17770000000E+01 0. -1.
</event>
<event>
 6    1  0.1782050E-003  0.4767031E+03  0.7546771E-02  0.9453502E-01
        -11   -1    0    0    0    0  0.00000000000E+00  0.00000000000E+00  0.50000000000E+03  0.50000000000E+03  0.00000000000E+00 0.  1.
         11   -1    0    0    0    0 -0.00000000000E+00 -0.00000000000E+00 -0.50000000000E+03  0.50000000000E+03  0.00000000000E+00 0. -1.
        -11    1    1    2    0    0 -0.11886160473E+01 -0.75881163221E+01  0.48170084675E+03  0.48176207621E+03  0.00000000000E+00 0.  1.
         11    1    1    2    0    0 -0.16534351613E+02  0.39631458220E+02 -0.43733356527E+02  0.61291465450E+02  0.00000000000E+00 0. -1.
        -15    1    1    2    0    0  0.96591351862E+01 -0.67014330910E+02 -0.12719863593E+03  0.14410714816E+03  0.17770000000E+01 0.  1.
         15    1    1    2    0    0  0.80638324739E+01  0.34970989012E+02 -0.31076885429E+03  0.31283931018E+03  0.17770000000E+01 0. -1.
</event>
<event>
 6    1  0.1782050E-003  0.4970698E+03  0.7546771E-02  0.9406390E-01
        -11   -1    0    0    0    0  0.00000000000E+00  0.00000000000E+00  0.50000000000E+03  0.50000000000E+03  0.00000000000E+00 0. -1.
         11   -1    0    0    0    0 -0.00000000000E+00 -0.00000000000E+00 -0.50000000000E+03  0.50000000000E+03  0.00000000000E+00 0.  1.
        -11    1    1    2    0    0  0.23655935244E+01  0.23295144375E+02  0.49889421509E+03  0.49944338782E+03  0.00000000000E+00 0. -1.
         11    1    1    2    0    0  0.50270103690E+00  0.86912312677E+00 -0.67428742482E+01  0.68172161817E+01  0.00000000000E+00 0.  1.
        -15    1    1    2    0    0 -0.87524331353E+01 -0.23873192122E+02 -0.21291772294E+03  0.21443798371E+03  0.17770000000E+01 0. -1.
         15    1    1    2    0    0  0.58841385740E+01 -0.29107538044E+00 -0.27923361790E+03  0.27930141229E+03  0.17770000000E+01 0.  1.
</event>
<event>
 6    1  0.1782050E-003  0.4792887E+03  0.7546771E-02  0.9447384E-01
        -11   -1    0    0    0    0  0.00000000000E+00  0.00000000000E+00  0.50000000000E+03  0.50000000000E+03  0.00000000000E+00 0.  1.
         11   -1    0    0    0    0 -0.00000000000E+00 -0.00000000000E+00 -0.50000000000E+03  0.50000000000E+03  0.00000000000E+00 0.  1.
        -11    1    1    2    0    0 -0.70868537819E+00  0.18268265692E+02  0.47782746576E+03  0.47817707891E+03  0.00000000000E+00 0.  1.
         11    1    1    2    0    0 -0.60105514755E+01  0.25186667048E+01 -0.48060899133E+03  0.48065317325E+03  0.00000000000E+00 0.  1.
        -15    1    1    2    0    0  0.29965196041E+01  0.59662070853E+01 -0.92514094567E+01  0.11546474036E+02  0.17770000000E+01 0. -1.
         15    1    1    2    0    0  0.37227172496E+01 -0.26753139483E+02  0.12032935031E+02  0.29623273795E+02  0.17770000000E+01 0.  1.
</event>
<event>
 6    1  0.1782050E-003  0.5096765E+03  0.7546771E-02  0.9378414E-01
        -11   -1    0    0    0    0  0.00000000000E+00  0.00000000000E+00  0.50000000000E+03  0.50000000000E+03  0.00000000000E+00 0.  1.
         11   -1    0    0    0    0 -0.00000000000E+00 -0.00000000000E+00 -0.50000000000E+03  0.50000000000E+03  0.00000000000E+00 0. -1.
        -11    1    1    2    0    0 -0.89855890399E+00 -0.10614466983E+02  0.47160186408E+03  0.47172215607E+03  0.00000000000E+00 0.  1.
         11    1    1    2    0    0 -0.52483359405E+01 -0.98731847899E+01 -0.49019602294E+03  0.49032353167E+03  0.00000000000E+00 0. -1.
        -15    1    1    2    0    0  0.90372255477E+00  0.57685846742E+01  0.21158186203E+02  0.22020895894E+02  0.17770000000E+01 0. -1.
         15    1    1    2    0    0  0.52431722897E+01  0.14719067099E+02 -0.25640273475E+01  0.15933416368E+02  0.17770000000E+01 0.  1.
</event>
<event>
 6    1  0.2214914E-003  0.4645836E+03  0.7546771E-02  0.9482742E-01
        -11   -1    0    0    0    0  0.00000000000E+00  0.00000000000E+00  0.50000000000E+03  0.50000000000E+03  0.00000000000E+00 0.  1.
         11   -1    0    0    0    0 -0.00000000000E+00 -0.00000000000E+00 -0.50000000000E+03  0.50000000000E+03  0.00000000000E+00 0. -1.
        -11    1    1    2    0    0 -0.11965703327E+02  0.98607813478E+01  0.46061688878E+03  0.46087778347E+03  0.00000000000E+00 0.  1.
         11    1    1    2    0    0 -0.46404220698E+00 -0.81077450723E+01 -0.46833578007E+03  0.46840618459E+03  0.00000000000E+00 0. -1.
        -15    1    1    2    0    0 -0.97200103973E+00  0.30767386247E+01 -0.30068626518E+02  0.30293417375E+02  0.17770000000E+01 0.  1.
         15    1    1    2    0    0  0.13401746574E+02 -0.48297749001E+01  0.37787517810E+02  0.40422614562E+02  0.17770000000E+01 0. -1.
</event>
<event>
 6    1  0.1782050E-003  0.5199208E+03  0.7546771E-02  0.9356306E-01
        -11   -1    0    0    0    0  0.00000000000E+00  0.00000000000E+00  0.50000000000E+03  0.50000000000E+03  0.00000000000E+00 0.  1.
         11   -1    0    0    0    0 -0.00000000000E+00 -0.00000000000E+00 -0.50000000000E+03  0.50000000000E+03  0.00000000000E+00 0. -1.
        -11    1    1    2    0    0 -0.15053484287E+02  0.35309061997E+01  0.45974236609E+03  0.46000230202E+03  0.00000000000E+00 0.  1.
         11    1    1    2    0    0  0.56736824018E+01  0.15239259673E+02 -0.47980368610E+03  0.48007916316E+03  0.00000000000E+00 0. -1.
        -15    1    1    2    0    0  0.12371958042E+02 -0.87506447055E+01 -0.16131159421E+02  0.22203854661E+02  0.17770000000E+01 0.  1.
         15    1    1    2    0    0 -0.29921561559E+01 -0.10019521167E+02  0.36192479433E+02  0.37714680157E+02  0.17770000000E+01 0. -1.
</event>
<event>
 6    1  0.1782050E-003  0.5036582E+03  0.7546771E-02  0.9391661E-01
        -11   -1    0    0    0    0  0.00000000000E+00  0.00000000000E+00  0.50000000000E+03  0.50000000000E+03  0.00000000000E+00 0.  1.
         11   -1    0    0    0    0 -0.00000000000E+00 -0.00000000000E+00 -0.50000000000E+03  0.50000000000E+03  0.00000000000E+00 0. -1.
        -11    1    1    2    0    0 -0.64508814153E+01 -0.55857118892E+01  0.49626842759E+03  0.49634178372E+03  0.00000000000E+00 0.  1.
         11    1    1    2    0    0 -0.49118692017E+00  0.90617215396E+01 -0.45206724185E+03  0.45215832096E+03  0.00000000000E+00 0. -1.
        -15    1    1    2    0    0  0.40292334629E+01  0.75346541905E+01 -0.36754840186E+02  0.37776735462E+02  0.17770000000E+01 0.  1.
         15    1    1    2    0    0  0.29128348726E+01 -0.11010663841E+02 -0.74463455551E+01  0.13723159852E+02  0.17770000000E+01 0. -1.
</event>
<event>
 6    1  0.1782050E-003  0.5040472E+03  0.7546771E-02  0.9390799E-01
        -11   -1    0    0    0    0  0.00000000000E+00  0.00000000000E+00  0.50000000000E+03  0.50000000000E+03  0.00000000000E+00 0.  1.
         11   -1    0    0    0    0 -0.00000000000E+00 -0.00000000000E+00 -0.50000000000E+03  0.50000000000E+03  0.00000000000E+00 0. -1.
        -11    1    1    2    0    0 -0.19170098150E+02  0.14077436613E+02  0.41640227328E+03  0.41708095147E+03  0.00000000000E+00 0.  1.
         11    1    1    2    0    0  0.20166898612E+02 -0.16974973854E+01 -0.49553968602E+03  0.49595278577E+03  0.00000000000E+00 0. -1.
        -15    1    1    2    0    0  0.11767178752E+02 -0.17505140879E+02  0.57429829110E+02  0.61206531135E+02  0.17770000000E+01 0.  1.
         15    1    1    2    0    0 -0.12763979214E+02  0.51252016511E+01  0.21707583624E+02  0.25759731620E+02  0.17770000000E+01 0. -1.
</event>
<event>
 6    1  0.1782050E-003  0.5009151E+03  0.7546771E-02  0.9397764E-01
        -11   -1    0    0    0    0  0.00000000000E+00  0.00000000000E+00  0.50000000000E+03  0.50000000000E+03  0.00000000000E+00 0.  1.
         11   -1    0    0    0    0 -0.00000000000E+00 -0.00000000000E+00 -0.50000000000E+03  0.50000000000E+03  0.00000000000E+00 0. -1.
        -11    1    1    2    0    0  0.48943855141E+01  0.62026675978E+01  0.49902232004E+03  0.49908486652E+03  0.00000000000E+00 0.  1.
         11    1    1    2    0    0 -0.59161246294E+00  0.47841408265E+01 -0.14171929566E+03  0.14180125800E+03  0.00000000000E+00 0. -1.
        -15    1    1    2    0    0 -0.18731599998E+02 -0.61314917292E+01 -0.16061365416E+03  0.16182821652E+03  0.17770000000E+01 0. -1.
         15    1    1    2    0    0  0.14428826947E+02 -0.48553166951E+01 -0.19668937022E+03  0.19728565896E+03  0.17770000000E+01 0.  1.
</event>
<event>
 6    1  0.1782050E-003  0.3896319E+03  0.7546771E-02  0.9687541E-01
        -11   -1    0    0    0    0  0.00000000000E+00  0.00000000000E+00  0.50000000000E+03  0.50000000000E+03  0.00000000000E+00 0.  1.
         11   -1    0    0    0    0 -0.00000000000E+00 -0.00000000000E+00 -0.50000000000E+03  0.50000000000E+03  0.00000000000E+00 0. -1.
        -11    1    1    2    0    0 -0.13083243930E+02  0.23801281046E+02  0.40965569793E+03  0.41055506708E+03  0.00000000000E+00 0.  1.
         11    1    1    2    0    0  0.68624599747E+02  0.34529232479E+02 -0.36609672663E+03  0.37407006942E+03  0.00000000000E+00 0. -1.
        -15    1    1    2    0    0 -0.96222862294E+02 -0.16449165944E+02  0.46411643004E+02  0.10810463738E+03  0.17770000000E+01 0.  1.
         15    1    1    2    0    0  0.40681506477E+02 -0.41881347581E+02 -0.89970614309E+02  0.10727022612E+03  0.17770000000E+01 0. -1.
</event>
<event>
 6    1  0.1782050E-003  0.4990648E+03  0.7546771E-02  0.9401905E-01
        -11   -1    0    0    0    0  0.00000000000E+00  0.00000000000E+00  0.50000000000E+03  0.50000000000E+03  0.00000000000E+00 0. -1.
         11   -1    0    0    0    0 -0.00000000000E+00 -0.00000000000E+00 -0.50000000000E+03  0.50000000000E+03  0.00000000000E+00 0.  1.
        -11    1    1    2    0    0 -0.11163313760E+01  0.75438799913E+01  0.49725289144E+03  0.49731136561E+03  0.00000000000E+00 0. -1.
         11    1    1    2    0    0  0.31319581872E+01 -0.25405492541E+01 -0.37057577948E+01  0.54768780735E+01  0.00000000000E+00 0.  1.
        -15    1    1    2    0    0 -0.29300654564E+02 -0.11920304791E+02 -0.28836106185E+03  0.29009633183E+03  0.17770000000E+01 0. -1.
         15    1    1    2    0    0  0.27285027753E+02  0.69169740538E+01 -0.20518607180E+03  0.20711542448E+03  0.17770000000E+01 0.  1.
</event>
<event>
 6    1  0.1782050E-003  0.5105503E+03  0.7546771E-02  0.9376507E-01
        -11   -1    0    0    0    0  0.00000000000E+00  0.00000000000E+00  0.50000000000E+03  0.50000000000E+03  0.00000000000E+00 0.  1.
         11   -1    0    0    0    0 -0.00000000000E+00 -0.00000000000E+00 -0.50000000000E+03  0.50000000000E+03  0.00000000000E+00 0.  1.
        -11    1    1    2    0    0 -0.10277858385E+02 -0.85533657713E+01  0.47125379158E+03  0.47144345421E+03  0.00000000000E+00 0.  1.
         11    1    1    2    0    0  0.72152368829E+01  0.10023264932E+01 -0.48939544113E+03  0.48944965226E+03  0.00000000000E+00 0.  1.
        -15    1    1    2    0    0 -0.98666071289E+01  0.14402139841E+01 -0.54203445935E+01  0.11487472179E+02  0.17770000000E+01 0.  1.
         15    1    1    2    0    0  0.12929228631E+02  0.61108252941E+01  0.23561994144E+02  0.27619421352E+02  0.17770000000E+01 0.  1.
</event>
<event>
 6    1  0.1782050E-003  0.5012450E+03  0.7546771E-02  0.9397028E-01
        -11   -1    0    0    0    0  0.00000000000E+00  0.00000000000E+00  0.50000000000E+03  0.50000000000E+03  0.00000000000E+00 0. -1.
         11   -1    0    0    0    0 -0.00000000000E+00 -0.00000000000E+00 -0.50000000000E+03  0.50000000000E+03  0.00000000000E+00 0. -1.
        -11    1    1    2    0    0  0.11765529586E+02  0.54734270855E+01  0.32311212310E+03  0.32337258725E+03  0.00000000000E+00 0. -1.
         11    1    1    2    0    0 -0.37043953192E+01 -0.70460748662E+01 -0.49869143183E+03  0.49875496379E+03  0.00000000000E+00 0. -1.
        -15    1    1    2    0    0  0.19843437856E+01  0.62409708587E+01  0.11091917494E+02  0.13002911221E+02  0.17770000000E+01 0. -1.
         15    1    1    2    0    0 -0.10045478053E+02 -0.46683230780E+01  0.16448739124E+03  0.16486953774E+03  0.17770000000E+01 0.  1.
</event>
<event>
 6    1  0.1782050E-003  0.5106223E+03  0.7546771E-02  0.9376350E-01
        -11   -1    0    0    0    0  0.00000000000E+00  0.00000000000E+00  0.50000000000E+03  0.50000000000E+03  0.00000000000E+00 0. -1.
         11   -1    0    0    0    0 -0.00000000000E+00 -0.00000000000E+00 -0.50000000000E+03  0.50000000000E+03  0.00000000000E+00 0. -1.
        -11    1    1    2    0    0 -0.31435661753E+01 -0.65798244970E+01  0.48932334866E+03  0.48937768200E+03  0.00000000000E+00 0. -1.
         11    1    1    2    0    0  0.19557529885E+02 -0.80502503893E+01 -0.43797438190E+03  0.43848473487E+03  0.00000000000E+00 0. -1.
        -15    1    1    2    0    0 -0.53454598133E+01 -0.19015357018E+01  0.77423450472E+01  0.97617321450E+01  0.17770000000E+01 0.  1.
         15    1    1    2    0    0 -0.11068503897E+02  0.16531610588E+02 -0.59091311800E+02  0.62375850987E+02  0.17770000000E+01 0. -1.
</event>
<event>
 6    1  0.1782050E-003  0.4860680E+03  0.7546771E-02  0.9431535E-01
        -11   -1    0    0    0    0  0.00000000000E+00  0.00000000000E+00  0.50000000000E+03  0.50000000000E+03  0.00000000000E+00 0. -1.
         11   -1    0    0    0    0 -0.00000000000E+00 -0.00000000000E+00 -0.50000000000E+03  0.50000000000E+03  0.00000000000E+00 0. -1.
        -11    1    1    2    0    0  0.28096679218E+01  0.19989219925E+02  0.49102720726E+03  0.49144194104E+03  0.00000000000E+00 0. -1.
         11    1    1    2    0    0  0.99572361756E+01 -0.13219431231E+01 -0.48090492005E+03  0.48100980885E+03  0.00000000000E+00 0. -1.
        -15    1    1    2    0    0 -0.63626665640E+01 -0.24523216492E+01 -0.66384687610E+01  0.96811364915E+01  0.17770000000E+01 0.  1.
         15    1    1    2    0    0 -0.64042375333E+01 -0.16214955152E+02 -0.34838184441E+01  0.17867113615E+02  0.17770000000E+01 0. -1.
</event>
<event>
 6    1  0.1782050E-003  0.5018510E+03  0.7546771E-02  0.9395678E-01
        -11   -1    0    0    0    0  0.00000000000E+00  0.00000000000E+00  0.50000000000E+03  0.50000000000E+03  0.00000000000E+00 0.  1.
         11   -1    0    0    0    0 -0.00000000000E+00 -0.00000000000E+00 -0.50000000000E+03  0.50000000000E+03  0.00000000000E+00 0.  1.
        -11    1    1    2    0    0 -0.98254731249E+01  0.23590310617E+01  0.31086502799E+03  0.31102921177E+03  0.00000000000E+00 0.  1.
         11    1    1    2    0    0 -0.92203757385E+01  0.58659753713E+01 -0.49802915394E+03  0.49814903711E+03  0.00000000000E+00 0.  1.
        -15    1    1    2    0    0  0.72745119634E+01 -0.48477177483E+01  0.10728384391E+02  0.13952593032E+02  0.17770000000E+01 0.  1.
         15    1    1    2    0    0  0.11771336900E+02 -0.33772886847E+01  0.17643574156E+03  0.17686915808E+03  0.17770000000E+01 0.  1.
</event>
<event>
 6    1  0.1782050E-003  0.5015960E+03  0.7546771E-02  0.9396246E-01
        -11   -1    0    0    0    0  0.00000000000E+00  0.00000000000E+00  0.50000000000E+03  0.50000000000E+03  0.00000000000E+00 0. -1.
         11   -1    0    0    0    0 -0.00000000000E+00 -0.00000000000E+00 -0.50000000000E+03  0.50000000000E+03  0.00000000000E+00 0.  1.
        -11    1    1    2    0    0 -0.10155204301E+02  0.58512736803E+01  0.49826619091E+03  0.49840401542E+03  0.00000000000E+00 0. -1.
         11    1    1    2    0    0  0.13478735492E+01 -0.40837117957E+00 -0.36204711595E+02  0.36232094499E+02  0.00000000000E+00 0.  1.
        -15    1    1    2    0    0 -0.48286448080E+01 -0.20129980500E+02 -0.76306899194E+02  0.79084970248E+02  0.17770000000E+01 0. -1.
         15    1    1    2    0    0  0.13635975560E+02  0.14687077999E+02 -0.38575458013E+03  0.38627891983E+03  0.17770000000E+01 0.  1.
</event>
<event>
 6    1  0.1782050E-003  0.5060396E+03  0.7546771E-02  0.9386396E-01
        -11   -1    0    0    0    0  0.00000000000E+00  0.00000000000E+00  0.50000000000E+03  0.50000000000E+03  0.00000000000E+00 0. -1.
         11   -1    0    0    0    0 -0.00000000000E+00 -0.00000000000E+00 -0.50000000000E+03  0.50000000000E+03  0.00000000000E+00 0. -1.
        -11    1    1    2    0    0  0.65593530922E+01 -0.14998730249E+01  0.44632845581E+03  0.44637917200E+03  0.00000000000E+00 0. -1.
         11    1    1    2    0    0  0.70968950972E+01 -0.32361785462E+01 -0.49389879154E+03  0.49396037803E+03  0.00000000000E+00 0. -1.
        -15    1    1    2    0    0  0.76421394012E+01  0.52172325419E+01  0.31603124594E+02  0.32977826234E+02  0.17770000000E+01 0. -1.
         15    1    1    2    0    0 -0.21298387591E+02 -0.48118097084E+00  0.15967211142E+02  0.26682623742E+02  0.17770000000E+01 0.  1.
</event>
<event>
 6    1  0.1782050E-003  0.5042981E+03  0.7546771E-02  0.9390243E-01
        -11   -1    0    0    0    0  0.00000000000E+00  0.00000000000E+00  0.50000000000E+03  0.50000000000E+03  0.00000000000E+00 0. -1.
         11   -1    0    0    0    0 -0.00000000000E+00 -0.00000000000E+00 -0.50000000000E+03  0.50000000000E+03  0.00000000000E+00 0.  1.
        -11    1    1    2    0    0 -0.77621288564E+01  0.36838247921E+01  0.49562741260E+03  0.49570187949E+03  0.00000000000E+00 0. -1.
         11    1    1    2    0    0 -0.77754499701E+01 -0.12973285001E+00 -0.47855829002E+03  0.47862146985E+03  0.00000000000E+00 0.  1.
        -15    1    1    2    0    0  0.19943267477E+01 -0.35723075963E+01 -0.97211157215E+00  0.45652437665E+01  0.17770000000E+01 0. -1.
         15    1    1    2    0    0  0.13543252079E+02  0.18215654255E-01 -0.16097011008E+02  0.21111406895E+02  0.17770000000E+01 0.  1.
</event>
<event>
 6    1  0.1782050E-003  0.4311517E+03  0.7546771E-02  0.9568587E-01
        -11   -1    0    0    0    0  0.00000000000E+00  0.00000000000E+00  0.50000000000E+03  0.50000000000E+03  0.00000000000E+00 0.  1.
         11   -1    0    0    0    0 -0.00000000000E+00 -0.00000000000E+00 -0.50000000000E+03  0.50000000000E+03  0.00000000000E+00 0. -1.
        -11    1    1    2    0    0  0.31028304568E+02  0.18992606915E+02  0.41886106024E+03  0.42043794142E+03  0.00000000000E+00 0.  1.
         11    1    1    2    0    0  0.18311323913E+02  0.11276299003E+02 -0.44364028071E+03  0.44416118490E+03  0.00000000000E+00 0. -1.
        -15    1    1    2    0    0 -0.86409110968E+01  0.26008912742E+02  0.53567580253E+02  0.60197776286E+02  0.17770000000E+01 0.  1.
         15    1    1    2    0    0 -0.40698717384E+02 -0.56277818661E+02 -0.28788359775E+02  0.75203097393E+02  0.17770000000E+01 0. -1.
</event>
<event>
 6    1  0.1782050E-003  0.5086332E+03  0.7546771E-02  0.9380697E-01
        -11   -1    0    0    0    0  0.00000000000E+00  0.00000000000E+00  0.50000000000E+03  0.50000000000E+03  0.00000000000E+00 0. -1.
         11   -1    0    0    0    0 -0.00000000000E+00 -0.00000000000E+00 -0.50000000000E+03  0.50000000000E+03  0.00000000000E+00 0. -1.
        -11    1    1    2    0    0  0.62281360965E+01 -0.56905839842E+01  0.49129438998E+03  0.49136681822E+03  0.00000000000E+00 0. -1.
         11    1    1    2    0    0  0.90081550293E+01 -0.33478349252E+01 -0.40834110209E+03  0.40845417186E+03  0.00000000000E+00 0. -1.
        -15    1    1    2    0    0  0.15677034334E+01  0.18638830008E+02 -0.77850576174E+02  0.80085789113E+02  0.17770000000E+01 0. -1.
         15    1    1    2    0    0 -0.16803994559E+02 -0.96004110982E+01 -0.51027117210E+01  0.20093220805E+02  0.17770000000E+01 0.  1.
</event>
<event>
 6    1  0.1782050E-003  0.5018814E+03  0.7546771E-02  0.9395610E-01
        -11   -1    0    0    0    0  0.00000000000E+00  0.00000000000E+00  0.50000000000E+03  0.50000000000E+03  0.00000000000E+00 0. -1.
         11   -1    0    0    0    0 -0.00000000000E+00 -0.00000000000E+00 -0.50000000000E+03  0.50000000000E+03  0.00000000000E+00 0. -1.
        -11    1    1    2    0    0  0.88820803870E+01  0.73992293913E+01  0.49798448688E+03  0.49811864964E+03  0.00000000000E+00 0. -1.
         11    1    1    2    0    0  0.10068824253E+02  0.10978231085E+02 -0.17826791393E+03  0.17888921688E+03  0.00000000000E+00 0. -1.
        -15    1    1    2    0    0  0.74880746619E+01 -0.25089305003E+01 -0.16632235812E+03  0.16651921972E+03  0.17770000000E+01 0. -1.
         15    1    1    2    0    0 -0.26438979302E+02 -0.15868529976E+02 -0.15339421483E+03  0.15647291376E+03  0.17770000000E+01 0.  1.
</event>
<event>
 6    1  0.1782050E-003  0.5023664E+03  0.7546771E-02  0.9394530E-01
        -11   -1    0    0    0    0  0.00000000000E+00  0.00000000000E+00  0.50000000000E+03  0.50000000000E+03  0.00000000000E+00 0.  1.
         11   -1    0    0    0    0 -0.00000000000E+00 -0.00000000000E+00 -0.50000000000E+03  0.50000000000E+03  0.00000000000E+00 0.  1.
        -11    1    1    2    0    0  0.20413774913E+01  0.65033881838E+01  0.49758686984E+03  0.49763355426E+03  0.00000000000E+00 0.  1.
         11    1    1    2    0    0  0.61600285171E+01 -0.19344428478E+01 -0.26464174633E+03  0.26472049774E+03  0.00000000000E+00 0.  1.
        -15    1    1    2    0    0 -0.17599308023E+02 -0.31468767209E+01 -0.33905579736E+02  0.38371663271E+02  0.17770000000E+01 0. -1.
         15    1    1    2    0    0  0.93979020144E+01 -0.14220686151E+01 -0.19903954377E+03  0.19927428473E+03  0.17770000000E+01 0.  1.
</event>
<event>
 6    1  0.1782050E-003  0.5001889E+03  0.7546771E-02  0.9399387E-01
        -11   -1    0    0    0    0  0.00000000000E+00  0.00000000000E+00  0.50000000000E+03  0.50000000000E+03  0.00000000000E+00 0. -1.
         11   -1    0    0    0    0 -0.00000000000E+00 -0.00000000000E+00 -0.50000000000E+03  0.50000000000E+03  0.00000000000E+00 0.  1.
        -11    1    1    2    0    0 -0.36621164923E+01  0.24752359824E-01  0.42530312566E+02  0.42687693740E+02  0.00000000000E+00 0. -1.
         11    1    1    2    0    0 -0.76701327368E+01  0.19641929829E+01 -0.49974838319E+03  0.49981109981E+03  0.00000000000E+00 0.  1.
        -15    1    1    2    0    0  0.67596961607E+01 -0.66109689957E+00  0.99641975924E+02  0.99888996573E+02  0.17770000000E+01 0.  1.
         15    1    1    2    0    0  0.45725530684E+01 -0.13278484432E+01  0.35757609470E+03  0.35761220988E+03  0.17770000000E+01 0. -1.
</event>
<event>
 6    1  0.1782050E-003  0.5002370E+03  0.7546771E-02  0.9399280E-01
        -11   -1    0    0    0    0  0.00000000000E+00  0.00000000000E+00  0.50000000000E+03  0.50000000000E+03  0.00000000000E+00 0. -1.
         11   -1    0    0    0    0 -0.00000000000E+00 -0.00000000000E+00 -0.50000000000E+03  0.50000000000E+03  0.00000000000E+00 0.  1.
        -11    1    1    2    0    0 -0.25793175070E+01 -0.14750089746E+01  0.13503846681E+03  0.13507115180E+03  0.00000000000E+00 0. -1.
         11    1    1    2    0    0 -0.11727241558E+02 -0.41536885048E+01 -0.49960813075E+03  0.49976300947E+03  0.00000000000E+00 0.  1.
        -15    1    1    2    0    0  0.13496138341E+02 -0.11744216290E+01  0.22121007171E+03  0.22163162810E+03  0.17770000000E+01 0. -1.
         15    1    1    2    0    0  0.81042072470E+00  0.68031191084E+01  0.14335959222E+03  0.14353421063E+03  0.17770000000E+01 0.  1.
</event>
<event>
 6    1  0.1782050E-003  0.5169073E+03  0.7546771E-02  0.9362753E-01
        -11   -1    0    0    0    0  0.00000000000E+00  0.00000000000E+00  0.50000000000E+03  0.50000000000E+03  0.00000000000E+00 0.  1.
         11   -1    0    0    0    0 -0.00000000000E+00 -0.00000000000E+00 -0.50000000000E+03  0.50000000000E+03  0.00000000000E+00 0.  1.
        -11    1    1    2    0    0  0.17405602685E+01  0.13731094537E+00  0.93289807129E+02  0.93306144055E+02  0.00000000000E+00 0.  1.
         11    1    1    2    0    0 -0.15740821095E+02 -0.39887801858E+02 -0.48118577688E+03  0.48309270545E+03  0.00000000000E+00 0.  1.
        -15    1    1    2    0    0  0.22884272777E+02  0.25739326686E+02  0.40094114036E+03  0.40242161801E+03  0.17770000000E+01 0.  1.
         15    1    1    2    0    0 -0.88840119502E+01  0.14011164227E+02 -0.13045170609E+02  0.21179532491E+02  0.17770000000E+01 0. -1.
</event>
<event>
 6    1  0.1782050E-003  0.5717598E+03  0.7546771E-02  0.9252167E-01
        -11   -1    0    0    0    0  0.00000000000E+00  0.00000000000E+00  0.50000000000E+03  0.50000000000E+03  0.00000000000E+00 0.  1.
         11   -1    0    0    0    0 -0.00000000000E+00 -0.00000000000E+00 -0.50000000000E+03  0.50000000000E+03  0.00000000000E+00 0.  1.
        -11    1    1    2    0    0  0.15166889297E+02  0.10715534279E+02  0.42783732078E+03  0.42824015489E+03  0.00000000000E+00 0.  1.
         11    1    1    2    0    0  0.73932485640E+01  0.50945180815E+00 -0.34211216066E+03  0.34219241683E+03  0.00000000000E+00 0.  1.
        -15    1    1    2    0    0  0.11614802211E+02 -0.22182550702E+02  0.67588383564E+02  0.72099351646E+02  0.17770000000E+01 0. -1.
         15    1    1    2    0    0 -0.34174940071E+02  0.10957564616E+02 -0.15331354369E+03  0.15746807663E+03  0.17770000000E+01 0.  1.
</event>
<event>
 6    1  0.1782050E-003  0.5004933E+03  0.7546771E-02  0.9398707E-01
        -11   -1    0    0    0    0  0.00000000000E+00  0.00000000000E+00  0.50000000000E+03  0.50000000000E+03  0.00000000000E+00 0. -1.
         11   -1    0    0    0    0 -0.00000000000E+00 -0.00000000000E+00 -0.50000000000E+03  0.50000000000E+03  0.00000000000E+00 0.  1.
        -11    1    1    2    0    0 -0.35587482082E+01  0.44621302959E+01  0.40957755966E+03  0.40961732468E+03  0.00000000000E+00 0. -1.
         11    1    1    2    0    0 -0.55825460483E+01 -0.46663467797E+01 -0.49945372299E+03  0.49950671769E+03  0.00000000000E+00 0.  1.
        -15    1    1    2    0    0  0.10440546970E+02  0.25885722162E+00  0.82521629505E+02  0.83198852716E+02  0.17770000000E+01 0. -1.
         15    1    1    2    0    0 -0.12992527138E+01 -0.54640737791E-01  0.73545338198E+01  0.76771049186E+01  0.17770000000E+01 0. -1.
</event>
<event>
 6    1  0.1782050E-003  0.5004799E+03  0.7546771E-02  0.9398736E-01
        -11   -1    0    0    0    0  0.00000000000E+00  0.00000000000E+00  0.50000000000E+03  0.50000000000E+03  0.00000000000E+00 0. -1.
         11   -1    0    0    0    0 -0.00000000000E+00 -0.00000000000E+00 -0.50000000000E+03  0.50000000000E+03  0.00000000000E+00 0.  1.
        -11    1    1    2    0    0 -0.22945198713E+01 -0.79285637818E+01  0.36345943876E+03  0.36355314682E+03  0.00000000000E+00 0. -1.
         11    1    1    2    0    0 -0.74978593791E+01  0.37720385049E+00 -0.49946365321E+03  0.49952007072E+03  0.00000000000E+00 0.  1.
        -15    1    1    2    0    0  0.76351625610E+01  0.73389510894E+01  0.12792982215E+03  0.12837972205E+03  0.17770000000E+01 0. -1.
         15    1    1    2    0    0  0.21572166894E+01  0.21240884188E+00  0.80743923046E+01  0.85470603982E+01  0.17770000000E+01 0.  1.
</event>
<event>
 6    1  0.1782050E-003  0.4868337E+03  0.7546771E-02  0.9429762E-01
        -11   -1    0    0    0    0  0.00000000000E+00  0.00000000000E+00  0.50000000000E+03  0.50000000000E+03  0.00000000000E+00 0.  1.
         11   -1    0    0    0    0 -0.00000000000E+00 -0.00000000000E+00 -0.50000000000E+03  0.50000000000E+03  0.00000000000E+00 0.  1.
        -11    1    1    2    0    0 -0.10229325210E+02 -0.11488458646E+02  0.48399311552E+03  0.48423750334E+03  0.00000000000E+00 0.  1.
         11    1    1    2    0    0  0.12231322315E+02 -0.77652321212E+01 -0.48942308687E+03  0.48963748022E+03  0.00000000000E+00 0.  1.
        -15    1    1    2    0    0  0.27874147846E+01 -0.17312692939E+01  0.20704745226E+01  0.42675014116E+01  0.17770000000E+01 0. -1.
         15    1    1    2    0    0 -0.47894118902E+01  0.20984960061E+02  0.33594968301E+01  0.21857515023E+02  0.17770000000E+01 0.  1.
</event>
<event>
 6    1  0.1782050E-003  0.5202845E+03  0.7546771E-02  0.9355532E-01
        -11   -1    0    0    0    0  0.00000000000E+00  0.00000000000E+00  0.50000000000E+03  0.50000000000E+03  0.00000000000E+00 0.  1.
         11   -1    0    0    0    0 -0.00000000000E+00 -0.00000000000E+00 -0.50000000000E+03  0.50000000000E+03  0.00000000000E+00 0.  1.
        -11    1    1    2    0    0  0.46457938532E+01  0.10685955273E+02  0.47957395834E+03  0.47971549334E+03  0.00000000000E+00 0.  1.
         11    1    1    2    0    0 -0.31355610524E+02  0.10758451192E+02 -0.44070005841E+03  0.44194508716E+03  0.00000000000E+00 0.  1.
        -15    1    1    2    0    0 -0.18657319393E+02 -0.53866781963E+01 -0.14916953442E+02  0.24551682181E+02  0.17770000000E+01 0. -1.
         15    1    1    2    0    0  0.45367136064E+02 -0.16057728269E+02 -0.23956946488E+02  0.53787737319E+02  0.17770000000E+01 0.  1.
</event>
<event>
 6    1  0.1782050E-003  0.5027998E+03  0.7546771E-02  0.9393567E-01
        -11   -1    0    0    0    0  0.00000000000E+00  0.00000000000E+00  0.50000000000E+03  0.50000000000E+03  0.00000000000E+00 0.  1.
         11   -1    0    0    0    0 -0.00000000000E+00 -0.00000000000E+00 -0.50000000000E+03  0.50000000000E+03  0.00000000000E+00 0. -1.
        -11    1    1    2    0    0  0.71708092255E+01  0.10594710325E+02  0.10756188975E+03  0.10832002825E+03  0.00000000000E+00 0.  1.
         11    1    1    2    0    0 -0.12782240535E+01 -0.14083900772E+02 -0.49699905232E+03  0.49720020930E+03  0.00000000000E+00 0. -1.
        -15    1    1    2    0    0 -0.64518353215E+01 -0.72810063304E+01  0.37973788112E+03  0.37986662833E+03  0.17770000000E+01 0.  1.
         15    1    1    2    0    0  0.55925014946E+00  0.10770196777E+02  0.96992814448E+01  0.14613134123E+02  0.17770000000E+01 0. -1.
</event>
<event>
 6    1  0.1782050E-003  0.5004796E+03  0.7546771E-02  0.9398737E-01
        -11   -1    0    0    0    0  0.00000000000E+00  0.00000000000E+00  0.50000000000E+03  0.50000000000E+03  0.00000000000E+00 0.  1.
         11   -1    0    0    0    0 -0.00000000000E+00 -0.00000000000E+00 -0.50000000000E+03  0.50000000000E+03  0.00000000000E+00 0.  1.
        -11    1    1    2    0    0 -0.53645762031E+01  0.46344134150E+01  0.49947009764E+03  0.49952040490E+03  0.00000000000E+00 0.  1.
         11    1    1    2    0    0  0.17906880548E+01  0.29634620257E+01 -0.18501146124E+03  0.18504385821E+03  0.00000000000E+00 0.  1.
        -15    1    1    2    0    0  0.80159821404E+01  0.17643386797E+01 -0.45301874044E+02  0.46073705967E+02  0.17770000000E+01 0. -1.
         15    1    1    2    0    0 -0.44420939921E+01 -0.93622141204E+01 -0.26915676236E+03  0.26936203093E+03  0.17770000000E+01 0.  1.
</event>
<event>
 6    1  0.1782050E-003  0.5176031E+03  0.7546771E-02  0.9361261E-01
        -11   -1    0    0    0    0  0.00000000000E+00  0.00000000000E+00  0.50000000000E+03  0.50000000000E+03  0.00000000000E+00 0. -1.
         11   -1    0    0    0    0 -0.00000000000E+00 -0.00000000000E+00 -0.50000000000E+03  0.50000000000E+03  0.00000000000E+00 0.  1.
        -11    1    1    2    0    0 -0.28395514953E+02  0.14851176307E+02  0.48133135823E+03  0.48239686890E+03  0.00000000000E+00 0. -1.
         11    1    1    2    0    0  0.62790752122E+01 -0.75892915542E+01 -0.43581074336E+03  0.43592204368E+03  0.00000000000E+00 0.  1.
        -15    1    1    2    0    0  0.33369133721E+01  0.56827994235E+01 -0.56073025022E+02  0.56486910557E+02  0.17770000000E+01 0. -1.
         15    1    1    2    0    0  0.18779526369E+02 -0.12944684177E+02  0.10552410158E+02  0.25194176871E+02  0.17770000000E+01 0.  1.
</event>
<event>
 6    1  0.1782050E-003  0.5058358E+03  0.7546771E-02  0.9386846E-01
        -11   -1    0    0    0    0  0.00000000000E+00  0.00000000000E+00  0.50000000000E+03  0.50000000000E+03  0.00000000000E+00 0.  1.
         11   -1    0    0    0    0 -0.00000000000E+00 -0.00000000000E+00 -0.50000000000E+03  0.50000000000E+03  0.00000000000E+00 0.  1.
        -11    1    1    2    0    0  0.20660940790E+01  0.77806084668E+01  0.49409865240E+03  0.49416422869E+03  0.00000000000E+00 0.  1.
         11    1    1    2    0    0  0.62831160216E+00  0.11176254903E+02 -0.32887974947E+03  0.32907019473E+03  0.00000000000E+00 0.  1.
        -15    1    1    2    0    0  0.65727952677E+00 -0.19555143671E+02 -0.11034573808E+02  0.22533424251E+02  0.17770000000E+01 0. -1.
         15    1    1    2    0    0 -0.33516852079E+01  0.59828030117E+00 -0.15418432913E+03  0.15423215233E+03  0.17770000000E+01 0.  1.
</event>
<event>
 6    1  0.1782050E-003  0.5002503E+03  0.7546771E-02  0.9399250E-01
        -11   -1    0    0    0    0  0.00000000000E+00  0.00000000000E+00  0.50000000000E+03  0.50000000000E+03  0.00000000000E+00 0.  1.
         11   -1    0    0    0    0 -0.00000000000E+00 -0.00000000000E+00 -0.50000000000E+03  0.50000000000E+03  0.00000000000E+00 0. -1.
        -11    1    1    2    0    0 -0.14397214540E+00 -0.10676068641E+02  0.15415997702E+03  0.15452927776E+03  0.00000000000E+00 0.  1.
         11    1    1    2    0    0 -0.10773410227E+02  0.66023718500E+01 -0.49958995149E+03  0.49974971467E+03  0.00000000000E+00 0. -1.
        -15    1    1    2    0    0  0.80017364147E+01  0.12389629200E+01  0.28821082612E+03  0.28833002070E+03  0.17770000000E+01 0. -1.
         15    1    1    2    0    0  0.29156459578E+01  0.28347338712E+01  0.57219148347E+02  0.57390986871E+02  0.17770000000E+01 0.  1.
</event>
<event>
 6    1  0.1782050E-003  0.4913881E+03  0.7546771E-02  0.9419288E-01
        -11   -1    0    0    0    0  0.00000000000E+00  0.00000000000E+00  0.50000000000E+03  0.50000000000E+03  0.00000000000E+00 0. -1.
         11   -1    0    0    0    0 -0.00000000000E+00 -0.00000000000E+00 -0.50000000000E+03  0.50000000000E+03  0.00000000000E+00 0. -1.
        -11    1    1    2    0    0  0.27653968604E+01  0.97594708989E+01  0.48940930225E+03  0.48951441227E+03  0.00000000000E+00 0. -1.
         11    1    1    2    0    0 -0.67198711388E+01 -0.41942192353E+01 -0.49322923208E+03  0.49329283749E+03  0.00000000000E+00 0. -1.
        -15    1    1    2    0    0  0.72844366994E+01  0.11029890177E+01 -0.16776479390E+01  0.77622055118E+01  0.17770000000E+01 0.  1.
         15    1    1    2    0    0 -0.33299624210E+01 -0.66682406812E+01  0.54975777699E+01  0.94305447268E+01  0.17770000000E+01 0. -1.
</event>
<event>
 6    1  0.1782050E-003  0.4916680E+03  0.7546771E-02  0.9418649E-01
        -11   -1    0    0    0    0  0.00000000000E+00  0.00000000000E+00  0.50000000000E+03  0.50000000000E+03  0.00000000000E+00 0.  1.
         11   -1    0    0    0    0 -0.00000000000E+00 -0.00000000000E+00 -0.50000000000E+03  0.50000000000E+03  0.00000000000E+00 0.  1.
        -11    1    1    2    0    0  0.19832899288E+01  0.84199569912E+01  0.48898652192E+03  0.48906303043E+03  0.00000000000E+00 0.  1.
         11    1    1    2    0    0 -0.76229894000E+01  0.10390619840E+01 -0.49428911747E+03  0.49434898732E+03  0.00000000000E+00 0.  1.
        -15    1    1    2    0    0 -0.29704909895E+01 -0.12508204127E+01  0.14862438062E+01  0.39692591343E+01  0.17770000000E+01 0. -1.
         15    1    1    2    0    0  0.86101904607E+01 -0.82081985626E+01  0.38163517412E+01  0.12618723114E+02  0.17770000000E+01 0.  1.
</event>
<event>
 6    1  0.1782050E-003  0.5186848E+03  0.7546771E-02  0.9358945E-01
        -11   -1    0    0    0    0  0.00000000000E+00  0.00000000000E+00  0.50000000000E+03  0.50000000000E+03  0.00000000000E+00 0. -1.
         11   -1    0    0    0    0 -0.00000000000E+00 -0.00000000000E+00 -0.50000000000E+03  0.50000000000E+03  0.00000000000E+00 0. -1.
        -11    1    1    2    0    0 -0.57667107370E+00 -0.65869228448E+01  0.22535328224E+03  0.22545026484E+03  0.00000000000E+00 0. -1.
         11    1    1    2    0    0  0.12806656317E+02  0.23428949790E+02 -0.48057400555E+03  0.48131517838E+03  0.00000000000E+00 0. -1.
        -15    1    1    2    0    0 -0.71438435902E+01 -0.30707910705E+02 -0.55311306219E+01  0.32058718254E+02  0.17770000000E+01 0.  1.
         15    1    1    2    0    0 -0.50861416531E+01  0.13865883760E+02  0.26075185393E+03  0.26117583852E+03  0.17770000000E+01 0. -1.
</event>
<event>
 6    1  0.1782050E-003  0.5156499E+03  0.7546771E-02  0.9365457E-01
        -11   -1    0    0    0    0  0.00000000000E+00  0.00000000000E+00  0.50000000000E+03  0.50000000000E+03  0.00000000000E+00 0.  1.
         11   -1    0    0    0    0 -0.00000000000E+00 -0.00000000000E+00 -0.50000000000E+03  0.50000000000E+03  0.00000000000E+00 0.  1.
        -11    1    1    2    0    0 -0.24209550749E+02 -0.60551215791E+01  0.48370673581E+03  0.48435005225E+03  0.00000000000E+00 0.  1.
         11    1    1    2    0    0 -0.29975745186E+01 -0.26703111268E+00 -0.17668846721E+03  0.17671409452E+03  0.00000000000E+00 0.  1.
        -15    1    1    2    0    0  0.23636023784E+02  0.26340930154E+01  0.70123763266E+01  0.24858222324E+02  0.17770000000E+01 0. -1.
         15    1    1    2    0    0  0.35711014835E+01  0.36880596764E+01 -0.31403064493E+03  0.31407763090E+03  0.17770000000E+01 0.  1.
</event>
<event>
 6    1  0.1782050E-003  0.5017395E+03  0.7546771E-02  0.9395926E-01
        -11   -1    0    0    0    0  0.00000000000E+00  0.00000000000E+00  0.50000000000E+03  0.50000000000E+03  0.00000000000E+00 0. -1.
         11   -1    0    0    0    0 -0.00000000000E+00 -0.00000000000E+00 -0.50000000000E+03  0.50000000000E+03  0.00000000000E+00 0. -1.
        -11    1    1    2    0    0  0.34968572443E+01  0.57516784683E+01  0.49821501815E+03  0.49826048823E+03  0.00000000000E+00 0. -1.
         11    1    1    2    0    0  0.32449607612E+01  0.54540369833E+01 -0.46584985658E+03  0.46589308341E+03  0.00000000000E+00 0. -1.
        -15    1    1    2    0    0 -0.54914923041E+00 -0.14951503057E+00 -0.91481587296E+01  0.93365120235E+01  0.17770000000E+01 0.  1.
         15    1    1    2    0    0 -0.61926687750E+01 -0.11056200421E+02 -0.23217002845E+02  0.26509916341E+02  0.17770000000E+01 0. -1.
</event>
<event>
 6    1  0.1782050E-003  0.5047446E+03  0.7546771E-02  0.9389256E-01
        -11   -1    0    0    0    0  0.00000000000E+00  0.00000000000E+00  0.50000000000E+03  0.50000000000E+03  0.00000000000E+00 0. -1.
         11   -1    0    0    0    0 -0.00000000000E+00 -0.00000000000E+00 -0.50000000000E+03  0.50000000000E+03  0.00000000000E+00 0. -1.
        -11    1    1    2    0    0  0.29892846386E+01 -0.69522539667E+01  0.49519760495E+03  0.49525542663E+03  0.00000000000E+00 0. -1.
         11    1    1    2    0    0  0.58007336547E+01 -0.25984424763E+01 -0.46846700252E+03  0.46851012034E+03  0.00000000000E+00 0. -1.
        -15    1    1    2    0    0 -0.97340314031E+01  0.46660699678E+01 -0.28607629463E+02  0.30628055256E+02  0.17770000000E+01 0.  1.
         15    1    1    2    0    0  0.94401310976E+00  0.48846264752E+01  0.18770270347E+01  0.56063977778E+01  0.17770000000E+01 0.  1.
</event>
<event>
 6    1  0.1782050E-003  0.5360096E+03  0.7546771E-02  0.9322655E-01
        -11   -1    0    0    0    0  0.00000000000E+00  0.00000000000E+00  0.50000000000E+03  0.50000000000E+03  0.00000000000E+00 0.  1.
         11   -1    0    0    0    0 -0.00000000000E+00 -0.00000000000E+00 -0.50000000000E+03  0.50000000000E+03  0.00000000000E+00 0.  1.
        -11    1    1    2    0    0 -0.43929040142E+01  0.25376757089E+02  0.46327505008E+03  0.46399035489E+03  0.00000000000E+00 0.  1.
         11    1    1    2    0    0  0.55265266791E+01 -0.14605924380E+01 -0.34498313804E+03  0.34503049337E+03  0.00000000000E+00 0.  1.
        -15    1    1    2    0    0 -0.51575729238E+02 -0.44012121322E+01 -0.12608284968E+03  0.13630652672E+03  0.17770000000E+01 0. -1.
         15    1    1    2    0    0  0.50442106573E+02 -0.19514952519E+02  0.77909376419E+01  0.54672625012E+02  0.17770000000E+01 0.  1.
</event>
<event>
 6    1  0.1782050E-003  0.5155152E+03  0.7546771E-02  0.9365747E-01
        -11   -1    0    0    0    0  0.00000000000E+00  0.00000000000E+00  0.50000000000E+03  0.50000000000E+03  0.00000000000E+00 0.  1.
         11   -1    0    0    0    0 -0.00000000000E+00 -0.00000000000E+00 -0.50000000000E+03  0.50000000000E+03  0.00000000000E+00 0. -1.
        -11    1    1    2    0    0 -0.16462178739E+02  0.21661183236E+02  0.44706335990E+03  0.44789045307E+03  0.00000000000E+00 0.  1.
         11    1    1    2    0    0 -0.66700249178E+01 -0.51054633604E+01 -0.48441194513E+03  0.48448476506E+03  0.00000000000E+00 0. -1.
        -15    1    1    2    0    0  0.22232264935E+02 -0.28410756738E+02  0.41397925601E+02  0.54939882377E+02  0.17770000000E+01 0.  1.
         15    1    1    2    0    0  0.89993872179E+00  0.11855036863E+02 -0.40493403729E+01  0.12684899494E+02  0.17770000000E+01 0. -1.
</event>
<event>
 6    1  0.1782050E-003  0.5052270E+03  0.7546771E-02  0.9388189E-01
        -11   -1    0    0    0    0  0.00000000000E+00  0.00000000000E+00  0.50000000000E+03  0.50000000000E+03  0.00000000000E+00 0.  1.
         11   -1    0    0    0    0 -0.00000000000E+00 -0.00000000000E+00 -0.50000000000E+03  0.50000000000E+03  0.00000000000E+00 0.  1.
        -11    1    1    2    0    0  0.11399487859E+02  0.40683614801E+01  0.49462495055E+03  0.49477302028E+03  0.00000000000E+00 0.  1.
         11    1    1    2    0    0 -0.85918845564E+01  0.84638021680E+01 -0.47771091121E+03  0.47786313010E+03  0.00000000000E+00 0.  1.
        -15    1    1    2    0    0 -0.51213603049E+01 -0.45759646804E+01  0.13575425874E+01  0.72227719751E+01  0.17770000000E+01 0.  1.
         15    1    1    2    0    0  0.23137570022E+01 -0.79561989677E+01 -0.18271581930E+02  0.20141077645E+02  0.17770000000E+01 0.  1.
</event>
<event>
 6    1  0.1782050E-003  0.4957148E+03  0.7546771E-02  0.9409450E-01
        -11   -1    0    0    0    0  0.00000000000E+00  0.00000000000E+00  0.50000000000E+03  0.50000000000E+03  0.00000000000E+00 0.  1.
         11   -1    0    0    0    0 -0.00000000000E+00 -0.00000000000E+00 -0.50000000000E+03  0.50000000000E+03  0.00000000000E+00 0. -1.
        -11    1    1    2    0    0  0.10132825732E+02 -0.11575658650E+01  0.49573722067E+03  0.49584211809E+03  0.00000000000E+00 0.  1.
         11    1    1    2    0    0 -0.41388089033E+01  0.18982054539E+01 -0.15382536438E+02  0.16042298786E+02  0.00000000000E+00 0. -1.
        -15    1    1    2    0    0  0.21749522067E+02 -0.10868547999E+02 -0.42185776803E+03  0.42256159459E+03  0.17770000000E+01 0. -1.
         15    1    1    2    0    0 -0.27743538896E+02  0.10127908410E+02 -0.58496916197E+02  0.65553988534E+02  0.17770000000E+01 0.  1.
</event>
<event>
 6    1  0.1782050E-003  0.5094029E+03  0.7546771E-02  0.9379012E-01
        -11   -1    0    0    0    0  0.00000000000E+00  0.00000000000E+00  0.50000000000E+03  0.50000000000E+03  0.00000000000E+00 0. -1.
         11   -1    0    0    0    0 -0.00000000000E+00 -0.00000000000E+00 -0.50000000000E+03  0.50000000000E+03  0.00000000000E+00 0.  1.
        -11    1    1    2    0    0 -0.15701943726E+02 -0.31252673578E+01  0.49033577048E+03  0.49059707107E+03  0.00000000000E+00 0. -1.
         11    1    1    2    0    0  0.70016064269E+01  0.74392635076E+01 -0.47581113917E+03  0.47592079729E+03  0.00000000000E+00 0.  1.
        -15    1    1    2    0    0  0.13064879777E+02  0.26093454120E+01  0.32544341617E+01  0.13829274666E+02  0.17770000000E+01 0. -1.
         15    1    1    2    0    0 -0.43645424774E+01 -0.69233415617E+01 -0.17779065466E+02  0.19652856974E+02  0.17770000000E+01 0. -1.
</event>
<event>
 6    1  0.1782050E-003  0.5097483E+03  0.7546771E-02  0.9378258E-01
        -11   -1    0    0    0    0  0.00000000000E+00  0.00000000000E+00  0.50000000000E+03  0.50000000000E+03  0.00000000000E+00 0. -1.
         11   -1    0    0    0    0 -0.00000000000E+00 -0.00000000000E+00 -0.50000000000E+03  0.50000000000E+03  0.00000000000E+00 0. -1.
        -11    1    1    2    0    0 -0.26242436668E+00 -0.73974068135E+01  0.45584350450E+03  0.45590359846E+03  0.00000000000E+00 0. -1.
         11    1    1    2    0    0 -0.95913788554E+01  0.15766555197E+02 -0.48990424470E+03  0.49025171880E+03  0.00000000000E+00 0. -1.
        -15    1    1    2    0    0 -0.13751300137E+01 -0.21642852838E+02  0.96019956409E+01  0.23783610129E+02  0.17770000000E+01 0. -1.
         15    1    1    2    0    0  0.11228933236E+02  0.13273704454E+02  0.24458744562E+02  0.30061072604E+02  0.17770000000E+01 0.  1.
</event>
<event>
 6    1  0.1782050E-003  0.5009844E+03  0.7546771E-02  0.9397610E-01
        -11   -1    0    0    0    0  0.00000000000E+00  0.00000000000E+00  0.50000000000E+03  0.50000000000E+03  0.00000000000E+00 0.  1.
         11   -1    0    0    0    0 -0.00000000000E+00 -0.00000000000E+00 -0.50000000000E+03  0.50000000000E+03  0.00000000000E+00 0.  1.
        -11    1    1    2    0    0 -0.35913405620E+01  0.28227798299E+01  0.26811450021E+03  0.26815340952E+03  0.00000000000E+00 0.  1.
         11    1    1    2    0    0  0.18295502496E+02  0.12047478437E+01 -0.49867868075E+03  0.49901563448E+03  0.00000000000E+00 0.  1.
        -15    1    1    2    0    0 -0.42823977853E+01  0.24134490240E+01  0.19679002369E+03  0.19685942908E+03  0.17770000000E+01 0.  1.
         15    1    1    2    0    0 -0.10421764149E+02 -0.64409766976E+01  0.33774156853E+02  0.35971526920E+02  0.17770000000E+01 0. -1.
</event>
<event>
 6    1  0.1782050E-003  0.5016844E+03  0.7546771E-02  0.9396049E-01
        -11   -1    0    0    0    0  0.00000000000E+00  0.00000000000E+00  0.50000000000E+03  0.50000000000E+03  0.00000000000E+00 0.  1.
         11   -1    0    0    0    0 -0.00000000000E+00 -0.00000000000E+00 -0.50000000000E+03  0.50000000000E+03  0.00000000000E+00 0. -1.
        -11    1    1    2    0    0 -0.69232659325E+01 -0.14892394203E+01  0.38572778623E+03  0.38579278701E+03  0.00000000000E+00 0.  1.
         11    1    1    2    0    0  0.34996965920E+00 -0.73211328193E+01 -0.49826170731E+03  0.49831561328E+03  0.00000000000E+00 0. -1.
        -15    1    1    2    0    0  0.44308099637E+01  0.36290092523E+01  0.40223052736E+01  0.72206962131E+01  0.17770000000E+01 0. -1.
         15    1    1    2    0    0  0.21424863096E+01  0.51813629874E+01  0.10851161582E+03  0.10867090349E+03  0.17770000000E+01 0.  1.
</event>
<event>
 6    1  0.1782050E-003  0.5068609E+03  0.7546771E-02  0.9384588E-01
        -11   -1    0    0    0    0  0.00000000000E+00  0.00000000000E+00  0.50000000000E+03  0.50000000000E+03  0.00000000000E+00 0. -1.
         11   -1    0    0    0    0 -0.00000000000E+00 -0.00000000000E+00 -0.50000000000E+03  0.50000000000E+03  0.00000000000E+00 0.  1.
        -11    1    1    2    0    0  0.84665909691E+01  0.24931760699E+02  0.23738181759E+03  0.23883760838E+03  0.00000000000E+00 0. -1.
         11    1    1    2    0    0 -0.54389068382E+01 -0.41668289184E+01 -0.49309152823E+03  0.49313912782E+03  0.00000000000E+00 0.  1.
        -15    1    1    2    0    0  0.51754456959E+01 -0.45048565102E+02  0.21607761421E+03  0.22079142091E+03  0.17770000000E+01 0. -1.
         15    1    1    2    0    0 -0.82031298268E+01  0.24283633321E+02  0.39632096430E+02  0.47231842889E+02  0.17770000000E+01 0.  1.
</event>
<event>
 6    1  0.1782050E-003  0.5032070E+03  0.7546771E-02  0.9392662E-01
        -11   -1    0    0    0    0  0.00000000000E+00  0.00000000000E+00  0.50000000000E+03  0.50000000000E+03  0.00000000000E+00 0. -1.
         11   -1    0    0    0    0 -0.00000000000E+00 -0.00000000000E+00 -0.50000000000E+03  0.50000000000E+03  0.00000000000E+00 0. -1.
        -11    1    1    2    0    0  0.72965451336E+01  0.15321555058E+01  0.49673706460E+03  0.49679301366E+03  0.00000000000E+00 0. -1.
         11    1    1    2    0    0 -0.58224691219E+01 -0.50972299488E+01 -0.35471216337E+03  0.35479656388E+03  0.00000000000E+00 0. -1.
        -15    1    1    2    0    0 -0.34478898930E+01  0.15144497968E+01  0.18071231547E+01  0.45392649182E+01  0.17770000000E+01 0. -1.
         15    1    1    2    0    0  0.19738138814E+01  0.20506246462E+01 -0.14383202439E+03  0.14387115754E+03  0.17770000000E+01 0.  1.
</event>
<event>
 6    1  0.1782050E-003  0.5160530E+03  0.7546771E-02  0.9364589E-01
        -11   -1    0    0    0    0  0.00000000000E+00  0.00000000000E+00  0.50000000000E+03  0.50000000000E+03  0.00000000000E+00 0.  1.
         11   -1    0    0    0    0 -0.00000000000E+00 -0.00000000000E+00 -0.50000000000E+03  0.50000000000E+03  0.00000000000E+00 0. -1.
        -11    1    1    2    0    0  0.15858509992E+01 -0.15763456167E+02  0.45234556391E+03  0.45262292326E+03  0.00000000000E+00 0.  1.
         11    1    1    2    0    0  0.10166840220E+02 -0.99934346388E+01 -0.48373693084E+03  0.48394695126E+03  0.00000000000E+00 0. -1.
        -15    1    1    2    0    0 -0.32541364144E+01  0.13027729484E+02  0.42388437777E+02  0.44499983433E+02  0.17770000000E+01 0.  1.
         15    1    1    2    0    0 -0.84985548044E+01  0.12729161322E+02 -0.10997070847E+02  0.18930142047E+02  0.17770000000E+01 0. -1.
</event>
<event>
 6    1  0.1782050E-003  0.5010338E+03  0.7546771E-02  0.9397499E-01
        -11   -1    0    0    0    0  0.00000000000E+00  0.00000000000E+00  0.50000000000E+03  0.50000000000E+03  0.00000000000E+00 0.  1.
         11   -1    0    0    0    0 -0.00000000000E+00 -0.00000000000E+00 -0.50000000000E+03  0.50000000000E+03  0.00000000000E+00 0. -1.
        -11    1    1    2    0    0 -0.18556289362E+01  0.31317722627E+01  0.26082817803E+03  0.26085357926E+03  0.00000000000E+00 0.  1.
         11    1    1    2    0    0  0.64143891514E+01  0.91769592207E+01 -0.49884054800E+03  0.49896618452E+03  0.00000000000E+00 0. -1.
        -15    1    1    2    0    0 -0.61784557776E+01 -0.42140427482E+01  0.22150586111E+03  0.22163920165E+03  0.17770000000E+01 0. -1.
         15    1    1    2    0    0  0.16196955624E+01 -0.80946887352E+01  0.16506508853E+02  0.18541034571E+02  0.17770000000E+01 0.  1.
</event>
<event>
 6    1  0.1782050E-003  0.5034461E+03  0.7546771E-02  0.9392132E-01
        -11   -1    0    0    0    0  0.00000000000E+00  0.00000000000E+00  0.50000000000E+03  0.50000000000E+03  0.00000000000E+00 0. -1.
         11   -1    0    0    0    0 -0.00000000000E+00 -0.00000000000E+00 -0.50000000000E+03  0.50000000000E+03  0.00000000000E+00 0.  1.
        -11    1    1    2    0    0  0.27024951494E+01 -0.15331103121E+02  0.49630978180E+03  0.49655386990E+03  0.00000000000E+00 0. -1.
         11    1    1    2    0    0 -0.12570527649E+02 -0.59954293259E+01 -0.42664996907E+03  0.42687721824E+03  0.00000000000E+00 0.  1.
        -15    1    1    2    0    0  0.10728270198E+02  0.62794651536E+00 -0.21128503229E+02  0.23771021769E+02  0.17770000000E+01 0. -1.
         15    1    1    2    0    0 -0.86023769781E+00  0.20698585932E+02 -0.48531309495E+02  0.52797890097E+02  0.17770000000E+01 0.  1.
</event>
<event>
 6    1  0.1782050E-003  0.5102832E+03  0.7546771E-02  0.9377090E-01
        -11   -1    0    0    0    0  0.00000000000E+00  0.00000000000E+00  0.50000000000E+03  0.50000000000E+03  0.00000000000E+00 0. -1.
         11   -1    0    0    0    0 -0.00000000000E+00 -0.00000000000E+00 -0.50000000000E+03  0.50000000000E+03  0.00000000000E+00 0.  1.
        -11    1    1    2    0    0  0.13002023496E+02 -0.12141361199E+02  0.19338175469E+03  0.19419827063E+03  0.00000000000E+00 0. -1.
         11    1    1    2    0    0  0.15936563831E+02 -0.26557857607E+01 -0.48945019250E+03  0.48971677345E+03  0.00000000000E+00 0.  1.
        -15    1    1    2    0    0 -0.26211446259E+02  0.12937847177E+01  0.77350536628E+01  0.27417194934E+02  0.17770000000E+01 0.  1.
         15    1    1    2    0    0 -0.27271410672E+01  0.13503362242E+02  0.28833338415E+03  0.28866776099E+03  0.17770000000E+01 0. -1.
</event>
<event>
 6    1  0.1782050E-003  0.5054135E+03  0.7546771E-02  0.9387777E-01
        -11   -1    0    0    0    0  0.00000000000E+00  0.00000000000E+00  0.50000000000E+03  0.50000000000E+03  0.00000000000E+00 0.  1.
         11   -1    0    0    0    0 -0.00000000000E+00 -0.00000000000E+00 -0.50000000000E+03  0.50000000000E+03  0.00000000000E+00 0. -1.
        -11    1    1    2    0    0 -0.21496564153E+02 -0.16140115254E+02  0.49385543838E+03  0.49458649356E+03  0.00000000000E+00 0.  1.
         11    1    1    2    0    0 -0.33597368723E+01 -0.17245323459E+01 -0.16665572612E+03  0.16669850897E+03  0.00000000000E+00 0. -1.
        -15    1    1    2    0    0  0.24020319458E+02 -0.76090556906E+01 -0.30121999027E+03  0.30227721341E+03  0.17770000000E+01 0. -1.
         15    1    1    2    0    0  0.83598156736E+00  0.25473703290E+02 -0.25979721986E+02  0.36437784070E+02  0.17770000000E+01 0.  1.
</event>
<event>
 6    1  0.1782050E-003  0.5003806E+03  0.7546771E-02  0.9398959E-01
        -11   -1    0    0    0    0  0.00000000000E+00  0.00000000000E+00  0.50000000000E+03  0.50000000000E+03  0.00000000000E+00 0.  1.
         11   -1    0    0    0    0 -0.00000000000E+00 -0.00000000000E+00 -0.50000000000E+03  0.50000000000E+03  0.00000000000E+00 0. -1.
        -11    1    1    2    0    0 -0.18435567301E+02 -0.40955856001E+01  0.49926239863E+03  0.49961944182E+03  0.00000000000E+00 0.  1.
         11    1    1    2    0    0 -0.15466332784E+01  0.35576658419E+00 -0.71619262674E+02  0.71636844085E+02  0.00000000000E+00 0. -1.
        -15    1    1    2    0    0  0.81154524086E+01 -0.88072943883E+01 -0.23793369367E+03  0.23824153566E+03  0.17770000000E+01 0.  1.
         15    1    1    2    0    0  0.11866748171E+02  0.12547113404E+02 -0.18970944228E+03  0.19050217843E+03  0.17770000000E+01 0. -1.
</event>
<event>
 6    1  0.1782050E-003  0.5069578E+03  0.7546771E-02  0.9384374E-01
        -11   -1    0    0    0    0  0.00000000000E+00  0.00000000000E+00  0.50000000000E+03  0.50000000000E+03  0.00000000000E+00 0.  1.
         11   -1    0    0    0    0 -0.00000000000E+00 -0.00000000000E+00 -0.50000000000E+03  0.50000000000E+03  0.00000000000E+00 0.  1.
        -11    1    1    2    0    0  0.95745699226E+01  0.54928417811E+01  0.49291867076E+03  0.49304224939E+03  0.00000000000E+00 0.  1.
         11    1    1    2    0    0  0.11194277382E+02 -0.14754324980E+02 -0.44658614625E+03  0.44697000791E+03  0.00000000000E+00 0.  1.
        -15    1    1    2    0    0 -0.15229328062E+02  0.12699255929E+02 -0.48869972641E+02  0.52769645529E+02  0.17770000000E+01 0. -1.
         15    1    1    2    0    0 -0.55395192419E+01 -0.34377727299E+01  0.25374481335E+01  0.72180971734E+01  0.17770000000E+01 0.  1.
</event>
<event>
 6    1  0.1782050E-003  0.5406656E+03  0.7546771E-02  0.9313150E-01
        -11   -1    0    0    0    0  0.00000000000E+00  0.00000000000E+00  0.50000000000E+03  0.50000000000E+03  0.00000000000E+00 0. -1.
         11   -1    0    0    0    0 -0.00000000000E+00 -0.00000000000E+00 -0.50000000000E+03  0.50000000000E+03  0.00000000000E+00 0. -1.
        -11    1    1    2    0    0  0.26423764011E+02 -0.25442431249E+00  0.45857368792E+03  0.45933441771E+03  0.00000000000E+00 0. -1.
         11    1    1    2    0    0 -0.75231583506E+01 -0.26929263759E+01 -0.38618059655E+03  0.38626325597E+03  0.00000000000E+00 0. -1.
        -15    1    1    2    0    0 -0.31328408620E+02 -0.21324621204E+02  0.30036888842E+02  0.48389886097E+02  0.17770000000E+01 0. -1.
         15    1    1    2    0    0  0.12427802960E+02  0.24271971892E+02 -0.10242998022E+03  0.10601244023E+03  0.17770000000E+01 0.  1.
</event>
<event>
 6    1  0.1782050E-003  0.5054751E+03  0.7546771E-02  0.9387641E-01
        -11   -1    0    0    0    0  0.00000000000E+00  0.00000000000E+00  0.50000000000E+03  0.50000000000E+03  0.00000000000E+00 0.  1.
         11   -1    0    0    0    0 -0.00000000000E+00 -0.00000000000E+00 -0.50000000000E+03  0.50000000000E+03  0.00000000000E+00 0. -1.
        -11    1    1    2    0    0 -0.79178795794E+01  0.71902196375E+01  0.48235306776E+03  0.48247163031E+03  0.00000000000E+00 0.  1.
         11    1    1    2    0    0  0.12995288959E+02  0.30703438341E+01 -0.49434457912E+03  0.49452489063E+03  0.00000000000E+00 0. -1.
        -15    1    1    2    0    0 -0.70900981864E+00 -0.95217493518E+01  0.14621706914E+02  0.17553303043E+02  0.17770000000E+01 0.  1.
         15    1    1    2    0    0 -0.43683995609E+01 -0.73881411973E+00 -0.26301955481E+01  0.54501760199E+01  0.17770000000E+01 0. -1.
</event>
<event>
 6    1  0.1782050E-003  0.5002874E+03  0.7546771E-02  0.9399167E-01
        -11   -1    0    0    0    0  0.00000000000E+00  0.00000000000E+00  0.50000000000E+03  0.50000000000E+03  0.00000000000E+00 0.  1.
         11   -1    0    0    0    0 -0.00000000000E+00 -0.00000000000E+00 -0.50000000000E+03  0.50000000000E+03  0.00000000000E+00 0. -1.
        -11    1    1    2    0    0 -0.74711026799E+01 -0.70835670266E+01  0.49960653575E+03  0.49971260227E+03  0.00000000000E+00 0.  1.
         11    1    1    2    0    0 -0.21913409648E+01  0.68906190375E+00 -0.57814068108E+02  0.57859685903E+02  0.00000000000E+00 0. -1.
        -15    1    1    2    0    0  0.56093425602E+01  0.24552570549E+01 -0.34025498483E+02  0.34617701934E+02  0.17770000000E+01 0.  1.
         15    1    1    2    0    0  0.40531010846E+01  0.39392480680E+01 -0.40776696916E+03  0.40781000990E+03  0.17770000000E+01 0. -1.
</event>
<event>
 6    1  0.1782050E-003  0.5148314E+03  0.7546771E-02  0.9367221E-01
        -11   -1    0    0    0    0  0.00000000000E+00  0.00000000000E+00  0.50000000000E+03  0.50000000000E+03  0.00000000000E+00 0. -1.
         11   -1    0    0    0    0 -0.00000000000E+00 -0.00000000000E+00 -0.50000000000E+03  0.50000000000E+03  0.00000000000E+00 0.  1.
        -11    1    1    2    0    0 -0.88840234571E+01 -0.89202409906E+01  0.48500523651E+03  0.48516860576E+03  0.00000000000E+00 0. -1.
         11    1    1    2    0    0 -0.41258492322E+01 -0.71318648724E+01 -0.42518820916E+03  0.42526803235E+03  0.00000000000E+00 0.  1.
        -15    1    1    2    0    0  0.51827366714E+01  0.17971049451E+02 -0.72243338573E+02  0.74646346696E+02  0.17770000000E+01 0.  1.
         15    1    1    2    0    0  0.78271360180E+01 -0.19189435876E+01  0.12426311225E+02  0.14917015197E+02  0.17770000000E+01 0. -1.
</event>
<event>
 6    1  0.1782050E-003  0.5075106E+03  0.7546771E-02  0.9383159E-01
        -11   -1    0    0    0    0  0.00000000000E+00  0.00000000000E+00  0.50000000000E+03  0.50000000000E+03  0.00000000000E+00 0. -1.
         11   -1    0    0    0    0 -0.00000000000E+00 -0.00000000000E+00 -0.50000000000E+03  0.50000000000E+03  0.00000000000E+00 0. -1.
        -11    1    1    2    0    0  0.16654637075E+02 -0.28190202601E+02  0.49139981619E+03  0.49248943523E+03  0.00000000000E+00 0. -1.
         11    1    1    2    0    0 -0.46159853079E+01  0.43734736411E+01 -0.42864805528E+03  0.42869521795E+03  0.00000000000E+00 0. -1.
        -15    1    1    2    0    0 -0.25703669045E+02  0.15419000501E+02 -0.30768849575E+02  0.42991906354E+02  0.17770000000E+01 0. -1.
         15    1    1    2    0    0  0.13665017278E+02  0.83977284593E+01 -0.31982911337E+02  0.35823440469E+02  0.17770000000E+01 0.  1.
</event>
<event>
 6    1  0.1782050E-003  0.5005204E+03  0.7546771E-02  0.9398646E-01
        -11   -1    0    0    0    0  0.00000000000E+00  0.00000000000E+00  0.50000000000E+03  0.50000000000E+03  0.00000000000E+00 0. -1.
         11   -1    0    0    0    0 -0.00000000000E+00 -0.00000000000E+00 -0.50000000000E+03  0.50000000000E+03  0.00000000000E+00 0. -1.
        -11    1    1    2    0    0  0.35129404642E+01 -0.57661294730E+01  0.49943399616E+03  0.49947963474E+03  0.00000000000E+00 0. -1.
         11    1    1    2    0    0 -0.52757203520E+01  0.78219005112E+00 -0.21497119105E+03  0.21503734101E+03  0.00000000000E+00 0. -1.
        -15    1    1    2    0    0  0.38660204838E+01  0.94303602135E+01 -0.26821050988E+03  0.26840997215E+03  0.17770000000E+01 0. -1.
         15    1    1    2    0    0 -0.21032405960E+01 -0.44464207917E+01 -0.16252295225E+02  0.17073052098E+02  0.17770000000E+01 0. -1.
</event>
<event>
 6    1  0.1782050E-003  0.4265680E+03  0.7546771E-02  0.9581002E-01
        -11   -1    0    0    0    0  0.00000000000E+00  0.00000000000E+00  0.50000000000E+03  0.50000000000E+03  0.00000000000E+00 0. -1.
         11   -1    0    0    0    0 -0.00000000000E+00 -0.00000000000E+00 -0.50000000000E+03  0.50000000000E+03  0.00000000000E+00 0.  1.
        -11    1    1    2    0    0  0.24123593007E+02 -0.16659964168E+02  0.42321088351E+03  0.42422512192E+03  0.00000000000E+00 0. -1.
         11    1    1    2    0    0 -0.17209947289E+02  0.25469706069E+02 -0.42789462094E+03  0.42899731333E+03  0.00000000000E+00 0.  1.
        -15    1    1    2    0    0  0.14046688328E+02 -0.57981727825E+02  0.49076661765E+02  0.77271383277E+02  0.17770000000E+01 0. -1.
         15    1    1    2    0    0 -0.20960334046E+02  0.49171985924E+02 -0.44392924340E+02  0.69506181477E+02  0.17770000000E+01 0.  1.
</event>
<event>
 6    1  0.1782050E-003  0.5061417E+03  0.7546771E-02  0.9386171E-01
        -11   -1    0    0    0    0  0.00000000000E+00  0.00000000000E+00  0.50000000000E+03  0.50000000000E+03  0.00000000000E+00 0. -1.
         11   -1    0    0    0    0 -0.00000000000E+00 -0.00000000000E+00 -0.50000000000E+03  0.50000000000E+03  0.00000000000E+00 0. -1.
        -11    1    1    2    0    0  0.49368139789E+01 -0.90264703771E+01  0.47916888020E+03  0.47927931840E+03  0.00000000000E+00 0. -1.
         11    1    1    2    0    0 -0.18371288015E+01  0.65416201545E+01 -0.49381152725E+03  0.49385827145E+03  0.00000000000E+00 0. -1.
        -15    1    1    2    0    0  0.87587407008E+01 -0.26939598370E+01  0.47231759323E+01  0.10461313405E+02  0.17770000000E+01 0. -1.
         15    1    1    2    0    0 -0.11858425878E+02  0.51788100596E+01  0.99194711224E+01  0.16401096741E+02  0.17770000000E+01 0.  1.
</event>
<event>
 6    1  0.1782050E-003  0.5007604E+03  0.7546771E-02  0.9398110E-01
        -11   -1    0    0    0    0  0.00000000000E+00  0.00000000000E+00  0.50000000000E+03  0.50000000000E+03  0.00000000000E+00 0. -1.
         11   -1    0    0    0    0 -0.00000000000E+00 -0.00000000000E+00 -0.50000000000E+03  0.50000000000E+03  0.00000000000E+00 0.  1.
        -11    1    1    2    0    0 -0.56832383742E+01  0.24309698623E+01  0.25406534439E+03  0.25414052812E+03  0.00000000000E+00 0. -1.
         11    1    1    2    0    0  0.69399324662E+01 -0.57440740585E+01 -0.49915834772E+03  0.49923963500E+03  0.00000000000E+00 0.  1.
        -15    1    1    2    0    0 -0.66846033129E+01  0.65852329076E+01  0.31277556480E+02  0.32703095913E+02  0.17770000000E+01 0. -1.
         15    1    1    2    0    0  0.54279092209E+01 -0.32721287114E+01  0.21381544686E+03  0.21391674097E+03  0.17770000000E+01 0. -1.
</event>
<event>
 6    1  0.1782050E-003  0.5025860E+03  0.7546771E-02  0.9394042E-01
        -11   -1    0    0    0    0  0.00000000000E+00  0.00000000000E+00  0.50000000000E+03  0.50000000000E+03  0.00000000000E+00 0. -1.
         11   -1    0    0    0    0 -0.00000000000E+00 -0.00000000000E+00 -0.50000000000E+03  0.50000000000E+03  0.00000000000E+00 0. -1.
        -11    1    1    2    0    0  0.48451601510E+01  0.54163955142E+01  0.44264361160E+03  0.44270326383E+03  0.00000000000E+00 0. -1.
         11    1    1    2    0    0 -0.70704927754E+01 -0.11809958148E+00 -0.49736371257E+03  0.49741398090E+03  0.00000000000E+00 0. -1.
        -15    1    1    2    0    0 -0.43885256350E+01  0.33329692826E+01  0.44433424818E+02  0.44809092956E+02  0.17770000000E+01 0. -1.
         15    1    1    2    0    0  0.66138582594E+01 -0.86312652153E+01  0.10286676151E+02  0.15073662313E+02  0.17770000000E+01 0.  1.
</event>
<event>
 6    1  0.1782050E-003  0.5012020E+03  0.7546771E-02  0.9397124E-01
        -11   -1    0    0    0    0  0.00000000000E+00  0.00000000000E+00  0.50000000000E+03  0.50000000000E+03  0.00000000000E+00 0. -1.
         11   -1    0    0    0    0 -0.00000000000E+00 -0.00000000000E+00 -0.50000000000E+03  0.50000000000E+03  0.00000000000E+00 0.  1.
        -11    1    1    2    0    0  0.85663117586E+01  0.13620334613E+01  0.47614321915E+03  0.47622221911E+03  0.00000000000E+00 0. -1.
         11    1    1    2    0    0 -0.54189882816E+01  0.41408298995E+01 -0.49875136639E+03  0.49879799256E+03  0.00000000000E+00 0.  1.
        -15    1    1    2    0    0  0.21903330939E+01 -0.12359278109E+01  0.38071753397E+01  0.48966712860E+01  0.17770000000E+01 0.  1.
         15    1    1    2    0    0 -0.53376565709E+01 -0.42669355498E+01  0.18800971905E+02  0.20083117045E+02  0.17770000000E+01 0. -1.
</event>
<event>
 6    1  0.1782050E-003  0.5104533E+03  0.7546771E-02  0.9376719E-01
        -11   -1    0    0    0    0  0.00000000000E+00  0.00000000000E+00  0.50000000000E+03  0.50000000000E+03  0.00000000000E+00 0.  1.
         11   -1    0    0    0    0 -0.00000000000E+00 -0.00000000000E+00 -0.50000000000E+03  0.50000000000E+03  0.00000000000E+00 0. -1.
        -11    1    1    2    0    0  0.87509265074E+01  0.41798353897E+01  0.48097193211E+03  0.48106969268E+03  0.00000000000E+00 0.  1.
         11    1    1    2    0    0  0.20966392595E+01 -0.11567468988E+02 -0.48940555463E+03  0.48954672825E+03  0.00000000000E+00 0. -1.
        -15    1    1    2    0    0 -0.78486852423E+01 -0.39131681038E+01 -0.59624276449E+01  0.10752814379E+02  0.17770000000E+01 0.  1.
         15    1    1    2    0    0 -0.29988805246E+01  0.11300801702E+02  0.14396050166E+02  0.18630764689E+02  0.17770000000E+01 0. -1.
</event>
<event>
 6    1  0.1782050E-003  0.5021263E+03  0.7546771E-02  0.9395064E-01
        -11   -1    0    0    0    0  0.00000000000E+00  0.00000000000E+00  0.50000000000E+03  0.50000000000E+03  0.00000000000E+00 0. -1.
         11   -1    0    0    0    0 -0.00000000000E+00 -0.00000000000E+00 -0.50000000000E+03  0.50000000000E+03  0.00000000000E+00 0. -1.
        -11    1    1    2    0    0 -0.70233796215E+01 -0.87619267445E+00  0.37752016217E+03  0.37758650455E+03  0.00000000000E+00 0. -1.
         11    1    1    2    0    0  0.12640662268E+02 -0.45152063872E+01 -0.49769271174E+03  0.49787368754E+03  0.00000000000E+00 0. -1.
        -15    1    1    2    0    0  0.10232007673E+02  0.10684891381E+02  0.71851732591E+02  0.73380447601E+02  0.17770000000E+01 0. -1.
         15    1    1    2    0    0 -0.15849290319E+02 -0.52934923197E+01  0.48320816977E+02  0.51159360305E+02  0.17770000000E+01 0.  1.
</event>
<event>
 6    1  0.1782050E-003  0.5011978E+03  0.7546771E-02  0.9397133E-01
        -11   -1    0    0    0    0  0.00000000000E+00  0.00000000000E+00  0.50000000000E+03  0.50000000000E+03  0.00000000000E+00 0.  1.
         11   -1    0    0    0    0 -0.00000000000E+00 -0.00000000000E+00 -0.50000000000E+03  0.50000000000E+03  0.00000000000E+00 0. -1.
        -11    1    1    2    0    0  0.43746218244E+01 -0.53740068423E+01  0.36079020076E+03  0.36085673920E+03  0.00000000000E+00 0.  1.
         11    1    1    2    0    0 -0.73924211969E+01  0.18220341830E+01 -0.49874407508E+03  0.49880218537E+03  0.00000000000E+00 0. -1.
        -15    1    1    2    0    0  0.32922493449E+01 -0.68232563871E+01  0.11285348832E+03  0.11312145371E+03  0.17770000000E+01 0. -1.
         15    1    1    2    0    0 -0.27444997238E+00  0.10375229046E+02  0.25100386003E+02  0.27219621729E+02  0.17770000000E+01 0.  1.
</event>
<event>
 6    1  0.1782050E-003  0.5150221E+03  0.7546771E-02  0.9366810E-01
        -11   -1    0    0    0    0  0.00000000000E+00  0.00000000000E+00  0.50000000000E+03  0.50000000000E+03  0.00000000000E+00 0. -1.
         11   -1    0    0    0    0 -0.00000000000E+00 -0.00000000000E+00 -0.50000000000E+03  0.50000000000E+03  0.00000000000E+00 0. -1.
        -11    1    1    2    0    0  0.26149663482E+01 -0.68089402134E+01  0.48492308552E+03  0.48497793618E+03  0.00000000000E+00 0. -1.
         11    1    1    2    0    0 -0.18818130950E+02 -0.39882955533E+01 -0.46117826909E+03  0.46157927210E+03  0.00000000000E+00 0. -1.
        -15    1    1    2    0    0 -0.16471850164E+00 -0.42207293007E+01  0.11141118922E+02  0.12046740133E+02  0.17770000000E+01 0.  1.
         15    1    1    2    0    0  0.16367883104E+02  0.15017965067E+02 -0.34885935355E+02  0.41396051583E+02  0.17770000000E+01 0. -1.
</event>
<event>
 6    1  0.1782050E-003  0.5087071E+03  0.7546771E-02  0.9380535E-01
        -11   -1    0    0    0    0  0.00000000000E+00  0.00000000000E+00  0.50000000000E+03  0.50000000000E+03  0.00000000000E+00 0. -1.
         11   -1    0    0    0    0 -0.00000000000E+00 -0.00000000000E+00 -0.50000000000E+03  0.50000000000E+03  0.00000000000E+00 0.  1.
        -11    1    1    2    0    0  0.87522568657E+01 -0.91640398830E+00  0.49121404040E+03  0.49129286101E+03  0.00000000000E+00 0. -1.
         11    1    1    2    0    0 -0.16141633857E+02 -0.21680829201E+02 -0.37615180764E+03  0.37712172185E+03  0.00000000000E+00 0.  1.
        -15    1    1    2    0    0 -0.10822313161E+00  0.12560738003E+02  0.28448535942E+01  0.13001337331E+02  0.17770000000E+01 0. -1.
         15    1    1    2    0    0  0.74976001230E+01  0.10036495187E+02 -0.11790708635E+03  0.11858407981E+03  0.17770000000E+01 0.  1.
</event>
<event>
 6    1  0.1782050E-003  0.5017340E+03  0.7546771E-02  0.9395938E-01
        -11   -1    0    0    0    0  0.00000000000E+00  0.00000000000E+00  0.50000000000E+03  0.50000000000E+03  0.00000000000E+00 0. -1.
         11   -1    0    0    0    0 -0.00000000000E+00 -0.00000000000E+00 -0.50000000000E+03  0.50000000000E+03  0.00000000000E+00 0. -1.
        -11    1    1    2    0    0 -0.64020505358E+01  0.85441996730E+00  0.46376628093E+03  0.46381125430E+03  0.00000000000E+00 0. -1.
         11    1    1    2    0    0 -0.30149179361E+01 -0.80302470180E+01 -0.49819212600E+03  0.49826596212E+03  0.00000000000E+00 0. -1.
        -15    1    1    2    0    0  0.90106680652E+01  0.39405296269E+01  0.14232630897E+02  0.17390958110E+02  0.17770000000E+01 0. -1.
         15    1    1    2    0    0  0.40630040666E+00  0.32352974238E+01  0.20193214178E+02  0.20531825473E+02  0.17770000000E+01 0.  1.
</event>
<event>
 6    1  0.1782050E-003  0.5002644E+03  0.7546771E-02  0.9399218E-01
        -11   -1    0    0    0    0  0.00000000000E+00  0.00000000000E+00  0.50000000000E+03  0.50000000000E+03  0.00000000000E+00 0. -1.
         11   -1    0    0    0    0 -0.00000000000E+00 -0.00000000000E+00 -0.50000000000E+03  0.50000000000E+03  0.00000000000E+00 0. -1.
        -11    1    1    2    0    0 -0.90508655125E+00 -0.28808846330E+01  0.16787417351E+03  0.16790133058E+03  0.00000000000E+00 0. -1.
         11    1    1    2    0    0  0.10163457958E+02  0.16315588796E+01 -0.49962961444E+03  0.49973563961E+03  0.00000000000E+00 0. -1.
        -15    1    1    2    0    0 -0.44241900304E+01 -0.26451255468E+01  0.27300993364E+02  0.27840116994E+02  0.17770000000E+01 0.  1.
         15    1    1    2    0    0 -0.48341813760E+01  0.38944513001E+01  0.30445444757E+03  0.30452291282E+03  0.17770000000E+01 0. -1.
</event>
<event>
 6    1  0.1782050E-003  0.5057500E+03  0.7546771E-02  0.9387035E-01
        -11   -1    0    0    0    0  0.00000000000E+00  0.00000000000E+00  0.50000000000E+03  0.50000000000E+03  0.00000000000E+00 0.  1.
         11   -1    0    0    0    0 -0.00000000000E+00 -0.00000000000E+00 -0.50000000000E+03  0.50000000000E+03  0.00000000000E+00 0.  1.
        -11    1    1    2    0    0  0.23579447417E+01  0.19222716897E+02  0.30651112930E+03  0.30712236182E+03  0.00000000000E+00 0.  1.
         11    1    1    2    0    0 -0.16256913023E+02 -0.29776024235E+02 -0.49308434056E+03  0.49425000329E+03  0.00000000000E+00 0.  1.
        -15    1    1    2    0    0  0.95129794372E+00  0.17530618011E+01  0.18227707988E+03  0.18229665321E+03  0.17770000000E+01 0.  1.
         15    1    1    2    0    0  0.12947670337E+02  0.88002455372E+01  0.42961313828E+01  0.16330981677E+02  0.17770000000E+01 0. -1.
</event>
<event>
 6    1  0.1782050E-003  0.5001374E+03  0.7546771E-02  0.9399502E-01
        -11   -1    0    0    0    0  0.00000000000E+00  0.00000000000E+00  0.50000000000E+03  0.50000000000E+03  0.00000000000E+00 0.  1.
         11   -1    0    0    0    0 -0.00000000000E+00 -0.00000000000E+00 -0.50000000000E+03  0.50000000000E+03  0.00000000000E+00 0. -1.
        -11    1    1    2    0    0 -0.20094722046E+01 -0.27791978497E+01  0.61670627478E+02  0.61765914651E+02  0.00000000000E+00 0.  1.
         11    1    1    2    0    0 -0.78983114322E+01  0.38883796721E+01 -0.49978507829E+03  0.49986260843E+03  0.00000000000E+00 0. -1.
        -15    1    1    2    0    0  0.53055918056E+01 -0.26208624680E+01  0.87004231945E+02  0.87223347389E+02  0.17770000000E+01 0. -1.
         15    1    1    2    0    0  0.46021918313E+01  0.15116806456E+01  0.35111021887E+03  0.35114812953E+03  0.17770000000E+01 0.  1.
</event>
<event>
 6    1  0.1782050E-003  0.4979578E+03  0.7546771E-02  0.9404391E-01
        -11   -1    0    0    0    0  0.00000000000E+00  0.00000000000E+00  0.50000000000E+03  0.50000000000E+03  0.00000000000E+00 0.  1.
         11   -1    0    0    0    0 -0.00000000000E+00 -0.00000000000E+00 -0.50000000000E+03  0.50000000000E+03  0.00000000000E+00 0. -1.
        -11    1    1    2    0    0 -0.46687982004E+00 -0.84718818930E+00  0.54907205077E+01  0.55752772387E+01  0.00000000000E+00 0.  1.
         11    1    1    2    0    0 -0.13966748761E+02 -0.43828499816E+01 -0.49897365301E+03  0.49918832703E+03  0.00000000000E+00 0. -1.
        -15    1    1    2    0    0  0.93168178459E+01 -0.14449548614E+02  0.12509792182E+03  0.12628634258E+03  0.17770000000E+01 0. -1.
         15    1    1    2    0    0  0.51168107355E+01  0.19679586785E+02  0.36838501068E+03  0.36895005314E+03  0.17770000000E+01 0.  1.
</event>
<event>
 6    1  0.1782050E-003  0.5001920E+03  0.7546771E-02  0.9399380E-01
        -11   -1    0    0    0    0  0.00000000000E+00  0.00000000000E+00  0.50000000000E+03  0.50000000000E+03  0.00000000000E+00 0. -1.
         11   -1    0    0    0    0 -0.00000000000E+00 -0.00000000000E+00 -0.50000000000E+03  0.50000000000E+03  0.00000000000E+00 0.  1.
        -11    1    1    2    0    0 -0.16326998950E-01 -0.15980502317E+01  0.10802505560E+03  0.10803687643E+03  0.00000000000E+00 0. -1.
         11    1    1    2    0    0  0.40836619905E+01  0.63389006897E+01 -0.49975114331E+03  0.49980802635E+03  0.00000000000E+00 0.  1.
        -15    1    1    2    0    0  0.32205587070E+01 -0.70491942547E+01  0.97272004942E+02  0.97596433401E+02  0.17770000000E+01 0.  1.
         15    1    1    2    0    0 -0.72878936986E+01  0.23083437968E+01  0.29445408277E+03  0.29455866383E+03  0.17770000000E+01 0. -1.
</event>
<event>
 6    1  0.1782050E-003  0.4694697E+03  0.7546771E-02  0.9470841E-01
        -11   -1    0    0    0    0  0.00000000000E+00  0.00000000000E+00  0.50000000000E+03  0.50000000000E+03  0.00000000000E+00 0. -1.
         11   -1    0    0    0    0 -0.00000000000E+00 -0.00000000000E+00 -0.50000000000E+03  0.50000000000E+03  0.00000000000E+00 0. -1.
        -11    1    1    2    0    0  0.14643252897E+02  0.10914730341E+02  0.46980807614E+03  0.47016293410E+03  0.00000000000E+00 0. -1.
         11    1    1    2    0    0  0.56921926727E+01  0.58352831467E+01 -0.46907550319E+03  0.46914633035E+03  0.00000000000E+00 0. -1.
        -15    1    1    2    0    0 -0.55527164050E+01 -0.99760956507E+01  0.26507602806E+02  0.28916532978E+02  0.17770000000E+01 0. -1.
         15    1    1    2    0    0 -0.14782729165E+02 -0.67739178367E+01 -0.27240175757E+02  0.31774202566E+02  0.17770000000E+01 0.  1.
</event>
<event>
 6    1  0.1782050E-003  0.5015143E+03  0.7546771E-02  0.9396428E-01
        -11   -1    0    0    0    0  0.00000000000E+00  0.00000000000E+00  0.50000000000E+03  0.50000000000E+03  0.00000000000E+00 0.  1.
         11   -1    0    0    0    0 -0.00000000000E+00 -0.00000000000E+00 -0.50000000000E+03  0.50000000000E+03  0.00000000000E+00 0. -1.
        -11    1    1    2    0    0 -0.43950618619E+01  0.30331533515E+01  0.35237844076E+03  0.35241890146E+03  0.00000000000E+00 0.  1.
         11    1    1    2    0    0 -0.14513270710E+01 -0.13654223506E+02 -0.49829659270E+03  0.49848574550E+03  0.00000000000E+00 0. -1.
        -15    1    1    2    0    0 -0.42386125365E+01  0.17163469584E+02  0.70506634439E+02  0.72711029104E+02  0.17770000000E+01 0. -1.
         15    1    1    2    0    0  0.10085001469E+02 -0.65423994295E+01  0.75411517492E+02  0.76384323944E+02  0.17770000000E+01 0.  1.
</event>
<event>
 6    1  0.1782050E-003  0.5140490E+03  0.7546771E-02  0.9368911E-01
        -11   -1    0    0    0    0  0.00000000000E+00  0.00000000000E+00  0.50000000000E+03  0.50000000000E+03  0.00000000000E+00 0.  1.
         11   -1    0    0    0    0 -0.00000000000E+00 -0.00000000000E+00 -0.50000000000E+03  0.50000000000E+03  0.00000000000E+00 0. -1.
        -11    1    1    2    0    0 -0.31832630863E+02  0.90762462272E+01  0.48482231516E+03  0.48595099744E+03  0.00000000000E+00 0.  1.
         11    1    1    2    0    0 -0.92795932911E+01 -0.72312151726E+01 -0.38857383979E+03  0.38875188783E+03  0.00000000000E+00 0. -1.
        -15    1    1    2    0    0  0.26615827499E+02  0.18897676499E+00  0.12353425407E+01  0.26704340207E+02  0.17770000000E+01 0.  1.
         15    1    1    2    0    0  0.14496396655E+02 -0.20340078196E+01 -0.97483817917E+02  0.98592774525E+02  0.17770000000E+01 0. -1.
</event>
<event>
 6    1  0.1782050E-003  0.5017070E+03  0.7546771E-02  0.9395998E-01
        -11   -1    0    0    0    0  0.00000000000E+00  0.00000000000E+00  0.50000000000E+03  0.50000000000E+03  0.00000000000E+00 0.  1.
         11   -1    0    0    0    0 -0.00000000000E+00 -0.00000000000E+00 -0.50000000000E+03  0.50000000000E+03  0.00000000000E+00 0.  1.
        -11    1    1    2    0    0 -0.13933726602E+01  0.10053666987E+02  0.43290781323E+03  0.43302678031E+03  0.00000000000E+00 0.  1.
         11    1    1    2    0    0  0.10565132625E+02 -0.76594596458E+01 -0.49812209515E+03  0.49829299716E+03  0.00000000000E+00 0.  1.
        -15    1    1    2    0    0 -0.12841522027E+01 -0.84569284197E+01  0.47405897853E+02  0.48204206927E+02  0.17770000000E+01 0.  1.
         15    1    1    2    0    0 -0.78876077623E+01  0.60627210787E+01  0.17808384062E+02  0.20476015603E+02  0.17770000000E+01 0. -1.
</event>
<event>
 6    1  0.1782050E-003  0.5154708E+03  0.7546771E-02  0.9365843E-01
        -11   -1    0    0    0    0  0.00000000000E+00  0.00000000000E+00  0.50000000000E+03  0.50000000000E+03  0.00000000000E+00 0. -1.
         11   -1    0    0    0    0 -0.00000000000E+00 -0.00000000000E+00 -0.50000000000E+03  0.50000000000E+03  0.00000000000E+00 0.  1.
        -11    1    1    2    0    0  0.29458994987E+01  0.11688282237E+02  0.48437926528E+03  0.48452922193E+03  0.00000000000E+00 0. -1.
         11    1    1    2    0    0 -0.14575925219E+01  0.17103366655E+02 -0.41660486038E+03  0.41695834255E+03  0.00000000000E+00 0.  1.
        -15    1    1    2    0    0 -0.15516123191E+02 -0.17068482835E+02  0.48186116819E+01  0.23631756869E+02  0.17770000000E+01 0. -1.
         15    1    1    2    0    0  0.14027816214E+02 -0.11723166056E+02 -0.72593016584E+02  0.74880678655E+02  0.17770000000E+01 0.  1.
</event>
<event>
 6    1  0.1782050E-003  0.5006332E+03  0.7546771E-02  0.9398394E-01
        -11   -1    0    0    0    0  0.00000000000E+00  0.00000000000E+00  0.50000000000E+03  0.50000000000E+03  0.00000000000E+00 0. -1.
         11   -1    0    0    0    0 -0.00000000000E+00 -0.00000000000E+00 -0.50000000000E+03  0.50000000000E+03  0.00000000000E+00 0. -1.
        -11    1    1    2    0    0  0.64063928194E+01 -0.57089809792E+01  0.49929302545E+03  0.49936675860E+03  0.00000000000E+00 0. -1.
         11    1    1    2    0    0 -0.58835454916E+01 -0.26763312444E+01 -0.34397711645E+03  0.34403784021E+03  0.00000000000E+00 0. -1.
        -15    1    1    2    0    0 -0.12211395655E+01  0.67954711066E+01 -0.19593311603E+02  0.20850064700E+02  0.17770000000E+01 0.  1.
         15    1    1    2    0    0  0.69829223765E+00  0.15898411170E+01 -0.13572259739E+03  0.13574533649E+03  0.17770000000E+01 0. -1.
</event>
<event>
 6    1  0.1782050E-003  0.5017421E+03  0.7546771E-02  0.9395920E-01
        -11   -1    0    0    0    0  0.00000000000E+00  0.00000000000E+00  0.50000000000E+03  0.50000000000E+03  0.00000000000E+00 0.  1.
         11   -1    0    0    0    0 -0.00000000000E+00 -0.00000000000E+00 -0.50000000000E+03  0.50000000000E+03  0.00000000000E+00 0.  1.
        -11    1    1    2    0    0 -0.12292277142E+01  0.41032852177E+01  0.31636198167E+03  0.31639097869E+03  0.00000000000E+00 0.  1.
         11    1    1    2    0    0  0.10135540766E+02 -0.14159100719E+02 -0.49795348807E+03  0.49825785051E+03  0.00000000000E+00 0.  1.
        -15    1    1    2    0    0 -0.35855733543E+00 -0.12391194518E+02  0.77827332075E+02  0.78828431494E+02  0.17770000000E+01 0. -1.
         15    1    1    2    0    0 -0.85477557167E+01  0.22447010019E+02  0.10376417432E+03  0.10652273930E+03  0.17770000000E+01 0. -1.
</event>
<event>
 6    1  0.1782050E-003  0.5057110E+03  0.7546771E-02  0.9387121E-01
        -11   -1    0    0    0    0  0.00000000000E+00  0.00000000000E+00  0.50000000000E+03  0.50000000000E+03  0.00000000000E+00 0.  1.
         11   -1    0    0    0    0 -0.00000000000E+00 -0.00000000000E+00 -0.50000000000E+03  0.50000000000E+03  0.00000000000E+00 0. -1.
        -11    1    1    2    0    0 -0.62552858968E+01  0.15718737632E+02  0.39872502966E+03  0.39908377140E+03  0.00000000000E+00 0.  1.
         11    1    1    2    0    0 -0.17131777885E+02 -0.83335588974E+01 -0.49392175178E+03  0.49428902770E+03  0.00000000000E+00 0. -1.
        -15    1    1    2    0    0 -0.34432606820E+01 -0.17886581986E+02  0.47125873512E+02  0.50554836985E+02  0.17770000000E+01 0. -1.
         15    1    1    2    0    0  0.26830324464E+02  0.10501403251E+02  0.48070848610E+02  0.56072363925E+02  0.17770000000E+01 0.  1.
</event>
<event>
 6    1  0.1782050E-003  0.5009349E+03  0.7546771E-02  0.9397720E-01
        -11   -1    0    0    0    0  0.00000000000E+00  0.00000000000E+00  0.50000000000E+03  0.50000000000E+03  0.00000000000E+00 0. -1.
         11   -1    0    0    0    0 -0.00000000000E+00 -0.00000000000E+00 -0.50000000000E+03  0.50000000000E+03  0.00000000000E+00 0. -1.
        -11    1    1    2    0    0  0.11567980272E+02 -0.40434236897E+01  0.49891466350E+03  0.49906513493E+03  0.00000000000E+00 0. -1.
         11    1    1    2    0    0 -0.92007293432E+01  0.26344395106E+00 -0.39187382387E+03  0.39198190858E+03  0.00000000000E+00 0. -1.
        -15    1    1    2    0    0  0.42843074328E+01  0.57441462018E+01 -0.15890578661E+02  0.17521949804E+02  0.17770000000E+01 0.  1.
         15    1    1    2    0    0 -0.66515583612E+01 -0.19641664631E+01 -0.91150260974E+02  0.91431006683E+02  0.17770000000E+01 0. -1.
</event>
<event>
 6    1  0.1782050E-003  0.5040945E+03  0.7546771E-02  0.9390694E-01
        -11   -1    0    0    0    0  0.00000000000E+00  0.00000000000E+00  0.50000000000E+03  0.50000000000E+03  0.00000000000E+00 0.  1.
         11   -1    0    0    0    0 -0.00000000000E+00 -0.00000000000E+00 -0.50000000000E+03  0.50000000000E+03  0.00000000000E+00 0. -1.
        -11    1    1    2    0    0 -0.69692190114E+01  0.12601667005E+02  0.39640004513E+03  0.39666152801E+03  0.00000000000E+00 0.  1.
         11    1    1    2    0    0  0.23781429708E+01 -0.94078304736E+01 -0.49581050946E+03  0.49590545886E+03  0.00000000000E+00 0. -1.
        -15    1    1    2    0    0  0.44604765836E+01 -0.14480119463E+02  0.93176263906E+02  0.94416860758E+02  0.17770000000E+01 0. -1.
         15    1    1    2    0    0  0.13059945699E+00  0.11286282931E+02  0.62342004247E+01  0.13016152372E+02  0.17770000000E+01 0.  1.
</event>
<event>
 6    1  0.1782050E-003  0.5239368E+03  0.7546771E-02  0.9347787E-01
        -11   -1    0    0    0    0  0.00000000000E+00  0.00000000000E+00  0.50000000000E+03  0.50000000000E+03  0.00000000000E+00 0.  1.
         11   -1    0    0    0    0 -0.00000000000E+00 -0.00000000000E+00 -0.50000000000E+03  0.50000000000E+03  0.00000000000E+00 0.  1.
        -11    1    1    2    0    0  0.46004366290E+01 -0.18889771343E+02  0.27580100210E+03  0.27648540692E+03  0.00000000000E+00 0.  1.
         11    1    1    2    0    0  0.43191100382E+02  0.54856809462E+02 -0.47091552216E+03  0.47606319928E+03  0.00000000000E+00 0.  1.
        -15    1    1    2    0    0 -0.22867370395E+02 -0.69711663158E+01  0.20620992289E+03  0.20759866044E+03  0.17770000000E+01 0.  1.
         15    1    1    2    0    0 -0.24924166617E+02 -0.28995871803E+02 -0.11095402830E+02  0.39852733358E+02  0.17770000000E+01 0. -1.
</event>
<event>
 6    1  0.1782050E-003  0.5012512E+03  0.7546771E-02  0.9397014E-01
        -11   -1    0    0    0    0  0.00000000000E+00  0.00000000000E+00  0.50000000000E+03  0.50000000000E+03  0.00000000000E+00 0.  1.
         11   -1    0    0    0    0 -0.00000000000E+00 -0.00000000000E+00 -0.50000000000E+03  0.50000000000E+03  0.00000000000E+00 0. -1.
        -11    1    1    2    0    0 -0.28753542316E+01  0.11589442097E+02  0.49860580499E+03  0.49874876601E+03  0.00000000000E+00 0.  1.
         11    1    1    2    0    0  0.30603376701E+01 -0.21883365935E+00 -0.13873982755E+03  0.13877374861E+03  0.00000000000E+00 0. -1.
        -15    1    1    2    0    0  0.13740719846E+02  0.55881580356E+01 -0.61041259367E+02  0.62842883179E+02  0.17770000000E+01 0.  1.
         15    1    1    2    0    0 -0.13925703284E+02 -0.16958766473E+02 -0.29882471808E+03  0.29963460220E+03  0.17770000000E+01 0. -1.
</event>
<event>
 6    1  0.1782050E-003  0.5018130E+03  0.7546771E-02  0.9395762E-01
        -11   -1    0    0    0    0  0.00000000000E+00  0.00000000000E+00  0.50000000000E+03  0.50000000000E+03  0.00000000000E+00 0.  1.
         11   -1    0    0    0    0 -0.00000000000E+00 -0.00000000000E+00 -0.50000000000E+03  0.50000000000E+03  0.00000000000E+00 0. -1.
        -11    1    1    2    0    0 -0.10577788042E+02  0.48915469234E+01  0.49805064066E+03  0.49818697042E+03  0.00000000000E+00 0.  1.
         11    1    1    2    0    0  0.61952455605E+01  0.55268263390E+01 -0.44619644618E+03  0.44627367776E+03  0.00000000000E+00 0. -1.
        -15    1    1    2    0    0 -0.28144658372E+01 -0.11827524522E+02 -0.34196295876E+02  0.36336702312E+02  0.17770000000E+01 0.  1.
         15    1    1    2    0    0  0.71970083184E+01  0.14091512592E+01 -0.17657898607E+02  0.19202649511E+02  0.17770000000E+01 0. -1.
</event>
<event>
 6    1  0.1782050E-003  0.2671209E+03  0.7546771E-02  0.1015891E+00
        -11   -1    0    0    0    0  0.00000000000E+00  0.00000000000E+00  0.50000000000E+03  0.50000000000E+03  0.00000000000E+00 0. -1.
         11   -1    0    0    0    0 -0.00000000000E+00 -0.00000000000E+00 -0.50000000000E+03  0.50000000000E+03  0.00000000000E+00 0. -1.
        -11    1    1    2    0    0 -0.30886302810E+01  0.80596044871E+01  0.19106025624E+03  0.19125511333E+03  0.00000000000E+00 0. -1.
         11    1    1    2    0    0 -0.87636748877E+02 -0.22753478154E+01 -0.43799641003E+03  0.44668359289E+03  0.00000000000E+00 0. -1.
        -15    1    1    2    0    0 -0.64273687390E+02 -0.50600532656E+02  0.15772318563E+03  0.17768309377E+03  0.17770000000E+01 0.  1.
         15    1    1    2    0    0  0.15499906655E+03  0.44816275984E+02  0.89212968158E+02  0.18437820001E+03  0.17770000000E+01 0. -1.
</event>
<event>
 6    1  0.1782050E-003  0.5031305E+03  0.7546771E-02  0.9392832E-01
        -11   -1    0    0    0    0  0.00000000000E+00  0.00000000000E+00  0.50000000000E+03  0.50000000000E+03  0.00000000000E+00 0.  1.
         11   -1    0    0    0    0 -0.00000000000E+00 -0.00000000000E+00 -0.50000000000E+03  0.50000000000E+03  0.00000000000E+00 0.  1.
        -11    1    1    2    0    0 -0.11273005293E+02 -0.36285197328E+01  0.49672831050E+03  0.49686946098E+03  0.00000000000E+00 0.  1.
         11    1    1    2    0    0 -0.18369376103E+02 -0.39215910382E+01 -0.37685550923E+03  0.37732331983E+03  0.00000000000E+00 0.  1.
        -15    1    1    2    0    0  0.25984264483E+02 -0.17943892923E+01 -0.65939473539E+02  0.70919487683E+02  0.17770000000E+01 0.  1.
         15    1    1    2    0    0  0.36581169132E+01  0.93445000633E+01 -0.53933327730E+02  0.54887731505E+02  0.17770000000E+01 0. -1.
</event>
<event>
 6    1  0.1782050E-003  0.5068723E+03  0.7546771E-02  0.9384562E-01
        -11   -1    0    0    0    0  0.00000000000E+00  0.00000000000E+00  0.50000000000E+03  0.50000000000E+03  0.00000000000E+00 0.  1.
         11   -1    0    0    0    0 -0.00000000000E+00 -0.00000000000E+00 -0.50000000000E+03  0.50000000000E+03  0.00000000000E+00 0. -1.
        -11    1    1    2    0    0  0.31416975293E+01  0.17644197366E+02  0.49280192484E+03  0.49312769653E+03  0.00000000000E+00 0.  1.
         11    1    1    2    0    0 -0.98166517682E+01  0.13367916844E+01 -0.16947554077E+03  0.16976487441E+03  0.00000000000E+00 0. -1.
        -15    1    1    2    0    0 -0.72201051782E+01 -0.23342978768E+02 -0.15626680154E+02  0.29058138932E+02  0.17770000000E+01 0.  1.
         15    1    1    2    0    0  0.13895059417E+02  0.43619897176E+01 -0.30769970392E+03  0.30804929013E+03  0.17770000000E+01 0. -1.
</event>
<event>
 6    1  0.1782050E-003  0.5137432E+03  0.7546771E-02  0.9369573E-01
        -11   -1    0    0    0    0  0.00000000000E+00  0.00000000000E+00  0.50000000000E+03  0.50000000000E+03  0.00000000000E+00 0. -1.
         11   -1    0    0    0    0 -0.00000000000E+00 -0.00000000000E+00 -0.50000000000E+03  0.50000000000E+03  0.00000000000E+00 0.  1.
        -11    1    1    2    0    0 -0.31349822059E+01  0.14261757459E+02  0.47530062060E+03  0.47552487399E+03  0.00000000000E+00 0. -1.
         11    1    1    2    0    0 -0.35491712872E+01 -0.61877936990E+01 -0.48620450277E+03  0.48625682918E+03  0.00000000000E+00 0.  1.
        -15    1    1    2    0    0  0.99286992062E-01 -0.14022285139E+02 -0.87200194441E+01  0.16608154820E+02  0.17770000000E+01 0. -1.
         15    1    1    2    0    0  0.65848665010E+01  0.59483213789E+01  0.19623901617E+02  0.21610142011E+02  0.17770000000E+01 0.  1.
</event>
<event>
 6    1  0.1782050E-003  0.5177587E+03  0.7546771E-02  0.9360927E-01
        -11   -1    0    0    0    0  0.00000000000E+00  0.00000000000E+00  0.50000000000E+03  0.50000000000E+03  0.00000000000E+00 0.  1.
         11   -1    0    0    0    0 -0.00000000000E+00 -0.00000000000E+00 -0.50000000000E+03  0.50000000000E+03  0.00000000000E+00 0.  1.
        -11    1    1    2    0    0  0.38102829294E+02  0.37662800045E+02  0.47925608115E+03  0.48224133318E+03  0.00000000000E+00 0.  1.
         11    1    1    2    0    0  0.33868054372E+00 -0.34433750942E+01 -0.20844293961E+03  0.20847165422E+03  0.00000000000E+00 0.  1.
        -15    1    1    2    0    0 -0.23365459128E+02 -0.21160540055E+02  0.56711402109E+01  0.32078539493E+02  0.17770000000E+01 0. -1.
         15    1    1    2    0    0 -0.15076050709E+02 -0.13058884895E+02 -0.27648428175E+03  0.27720847311E+03  0.17770000000E+01 0.  1.
</event>
<event>
 6    1  0.1782050E-003  0.5003032E+03  0.7546771E-02  0.9399132E-01
        -11   -1    0    0    0    0  0.00000000000E+00  0.00000000000E+00  0.50000000000E+03  0.50000000000E+03  0.00000000000E+00 0.  1.
         11   -1    0    0    0    0 -0.00000000000E+00 -0.00000000000E+00 -0.50000000000E+03  0.50000000000E+03  0.00000000000E+00 0. -1.
        -11    1    1    2    0    0 -0.29696149196E+01 -0.36511888245E+01  0.14888007132E+03  0.14895444078E+03  0.00000000000E+00 0.  1.
         11    1    1    2    0    0 -0.34566937935E+01 -0.58087230917E+01 -0.49965109154E+03  0.49969681135E+03  0.00000000000E+00 0. -1.
        -15    1    1    2    0    0  0.12867320118E+01  0.70077351868E+01  0.51766228905E+02  0.52284454819E+02  0.17770000000E+01 0. -1.
         15    1    1    2    0    0  0.51395767013E+01  0.24521767294E+01  0.29900479132E+03  0.29906429305E+03  0.17770000000E+01 0.  1.
</event>
<event>
 6    1  0.1782050E-003  0.5069510E+03  0.7546771E-02  0.9384389E-01
        -11   -1    0    0    0    0  0.00000000000E+00  0.00000000000E+00  0.50000000000E+03  0.50000000000E+03  0.00000000000E+00 0. -1.
         11   -1    0    0    0    0 -0.00000000000E+00 -0.00000000000E+00 -0.50000000000E+03  0.50000000000E+03  0.00000000000E+00 0.  1.
        -11    1    1    2    0    0 -0.65596577893E+01  0.48755994995E+01  0.49298121459E+03  0.49304896158E+03  0.00000000000E+00 0. -1.
         11    1    1    2    0    0 -0.50097959053E+01 -0.10203626847E+02 -0.33658746678E+03  0.33677935633E+03  0.00000000000E+00 0.  1.
        -15    1    1    2    0    0 -0.21733276897E+01  0.33866183539E+02 -0.63672265209E+02  0.72173103207E+02  0.17770000000E+01 0. -1.
         15    1    1    2    0    0  0.13742781384E+02 -0.28538156192E+02 -0.92721482592E+02  0.97998578878E+02  0.17770000000E+01 0.  1.
</event>
<event>
 6    1  0.1782050E-003  0.5031883E+03  0.7546771E-02  0.9392704E-01
        -11   -1    0    0    0    0  0.00000000000E+00  0.00000000000E+00  0.50000000000E+03  0.50000000000E+03  0.00000000000E+00 0. -1.
         11   -1    0    0    0    0 -0.00000000000E+00 -0.00000000000E+00 -0.50000000000E+03  0.50000000000E+03  0.00000000000E+00 0. -1.
        -11    1    1    2    0    0  0.59997749234E+01 -0.70235143734E+01  0.26493885677E+03  0.26509983945E+03  0.00000000000E+00 0. -1.
         11    1    1    2    0    0 -0.11357168547E+01  0.85879612323E+01 -0.49673613201E+03  0.49681166228E+03  0.00000000000E+00 0. -1.
        -15    1    1    2    0    0 -0.72104043667E+01 -0.15537216166E+02  0.22643577751E+02  0.28447923645E+02  0.17770000000E+01 0.  1.
         15    1    1    2    0    0  0.23463462980E+01  0.13972769308E+02  0.20915369749E+03  0.20964057462E+03  0.17770000000E+01 0. -1.
</event>
<event>
 6    1  0.1782050E-003  0.5005969E+03  0.7546771E-02  0.9398475E-01
        -11   -1    0    0    0    0  0.00000000000E+00  0.00000000000E+00  0.50000000000E+03  0.50000000000E+03  0.00000000000E+00 0.  1.
         11   -1    0    0    0    0 -0.00000000000E+00 -0.00000000000E+00 -0.50000000000E+03  0.50000000000E+03  0.00000000000E+00 0. -1.
        -11    1    1    2    0    0  0.10444141059E+01 -0.85979291285E+01  0.36666866437E+03  0.36677094298E+03  0.00000000000E+00 0.  1.
         11    1    1    2    0    0  0.83538991554E+00  0.14138868835E+02 -0.49920217815E+03  0.49940306383E+03  0.00000000000E+00 0. -1.
        -15    1    1    2    0    0 -0.71979006516E+01  0.24760945031E+01  0.80669909893E+02  0.81047719949E+02  0.17770000000E+01 0. -1.
         15    1    1    2    0    0  0.53180966301E+01 -0.80170342099E+01  0.51863603890E+02  0.52778273246E+02  0.17770000000E+01 0.  1.
</event>
<event>
 6    1  0.1782050E-003  0.5009220E+03  0.7546771E-02  0.9397749E-01
        -11   -1    0    0    0    0  0.00000000000E+00  0.00000000000E+00  0.50000000000E+03  0.50000000000E+03  0.00000000000E+00 0.  1.
         11   -1    0    0    0    0 -0.00000000000E+00 -0.00000000000E+00 -0.50000000000E+03  0.50000000000E+03  0.00000000000E+00 0. -1.
        -11    1    1    2    0    0 -0.12978344456E+01 -0.53222191300E+01  0.17896616221E+03  0.17904998634E+03  0.00000000000E+00 0.  1.
         11    1    1    2    0    0 -0.21870216645E+01 -0.20024643783E+02 -0.49867133989E+03  0.49907802461E+03  0.00000000000E+00 0. -1.
        -15    1    1    2    0    0  0.29982955119E+01  0.25943109395E+01  0.19781803437E+03  0.19786574407E+03  0.17770000000E+01 0.  1.
         15    1    1    2    0    0  0.48656059820E+00  0.22752551973E+02  0.12188714331E+03  0.12400624498E+03  0.17770000000E+01 0.  1.
</event>
<event>
 6    1  0.1782050E-003  0.5023061E+03  0.7546771E-02  0.9394664E-01
        -11   -1    0    0    0    0  0.00000000000E+00  0.00000000000E+00  0.50000000000E+03  0.50000000000E+03  0.00000000000E+00 0. -1.
         11   -1    0    0    0    0 -0.00000000000E+00 -0.00000000000E+00 -0.50000000000E+03  0.50000000000E+03  0.00000000000E+00 0.  1.
        -11    1    1    2    0    0 -0.10230813748E+02  0.13463701999E+02  0.49740652730E+03  0.49769387602E+03  0.00000000000E+00 0. -1.
         11    1    1    2    0    0  0.14167991612E+02 -0.82002020387E+01 -0.35958452469E+03  0.35995694978E+03  0.00000000000E+00 0.  1.
        -15    1    1    2    0    0  0.25938151305E+01 -0.65562344846E+01 -0.39019743049E+01  0.82519827935E+01  0.17770000000E+01 0.  1.
         15    1    1    2    0    0 -0.65309929951E+01  0.12927345241E+01 -0.13392002831E+03  0.13409719141E+03  0.17770000000E+01 0. -1.
</event>
<event>
 6    1  0.1782050E-003  0.5061892E+03  0.7546771E-02  0.9386066E-01
        -11   -1    0    0    0    0  0.00000000000E+00  0.00000000000E+00  0.50000000000E+03  0.50000000000E+03  0.00000000000E+00 0.  1.
         11   -1    0    0    0    0 -0.00000000000E+00 -0.00000000000E+00 -0.50000000000E+03  0.50000000000E+03  0.00000000000E+00 0. -1.
        -11    1    1    2    0    0 -0.45589323278E+01  0.80890773807E+01  0.49372350887E+03  0.49381081423E+03  0.00000000000E+00 0.  1.
         11    1    1    2    0    0 -0.19134615678E+02 -0.70965320754E+01 -0.24736065820E+03  0.24820110699E+03  0.00000000000E+00 0. -1.
        -15    1    1    2    0    0  0.71486276416E+01 -0.86337322738E+01 -0.41199936709E+00  0.11356570020E+02  0.17770000000E+01 0. -1.
         15    1    1    2    0    0  0.16544920364E+02  0.76411869685E+01 -0.24595085130E+03  0.24663150876E+03  0.17770000000E+01 0.  1.
</event>
<event>
 6    1  0.1782050E-003  0.5459274E+03  0.7546771E-02  0.9302529E-01
        -11   -1    0    0    0    0  0.00000000000E+00  0.00000000000E+00  0.50000000000E+03  0.50000000000E+03  0.00000000000E+00 0. -1.
         11   -1    0    0    0    0 -0.00000000000E+00 -0.00000000000E+00 -0.50000000000E+03  0.50000000000E+03  0.00000000000E+00 0. -1.
        -11    1    1    2    0    0  0.55344475300E+01  0.83429828494E+01  0.45396216658E+03  0.45407255385E+03  0.00000000000E+00 0. -1.
         11    1    1    2    0    0 -0.30638894515E+01 -0.14707933062E+01 -0.19701787906E+03  0.19704719059E+03  0.00000000000E+00 0. -1.
        -15    1    1    2    0    0 -0.83303286122E+01 -0.52346990157E+01  0.45390765547E+02  0.46478766921E+02  0.17770000000E+01 0.  1.
         15    1    1    2    0    0  0.58597705337E+01 -0.16374905275E+01 -0.30233505307E+03  0.30240148864E+03  0.17770000000E+01 0. -1.
</event>
<event>
 6    1  0.1782050E-003  0.5060470E+03  0.7546771E-02  0.9386380E-01
        -11   -1    0    0    0    0  0.00000000000E+00  0.00000000000E+00  0.50000000000E+03  0.50000000000E+03  0.00000000000E+00 0. -1.
         11   -1    0    0    0    0 -0.00000000000E+00 -0.00000000000E+00 -0.50000000000E+03  0.50000000000E+03  0.00000000000E+00 0. -1.
        -11    1    1    2    0    0 -0.45686933889E+01 -0.13100715203E+02  0.49375814650E+03  0.49395304325E+03  0.00000000000E+00 0. -1.
         11    1    1    2    0    0  0.89530908429E+01 -0.24205921707E+01 -0.47792464417E+03  0.47801462594E+03  0.00000000000E+00 0. -1.
        -15    1    1    2    0    0  0.47452426410E+01  0.94480640973E+01 -0.31542954467E+01  0.11175444138E+02  0.17770000000E+01 0. -1.
         15    1    1    2    0    0 -0.91296400949E+01  0.60732432763E+01 -0.12679206885E+02  0.16856886675E+02  0.17770000000E+01 0.  1.
</event>
<event>
 6    1  0.1782050E-003  0.5066654E+03  0.7546771E-02  0.9385018E-01
        -11   -1    0    0    0    0  0.00000000000E+00  0.00000000000E+00  0.50000000000E+03  0.50000000000E+03  0.00000000000E+00 0. -1.
         11   -1    0    0    0    0 -0.00000000000E+00 -0.00000000000E+00 -0.50000000000E+03  0.50000000000E+03  0.00000000000E+00 0.  1.
        -11    1    1    2    0    0 -0.73846502188E+01  0.36926722075E+01  0.48576759384E+03  0.48583775493E+03  0.00000000000E+00 0. -1.
         11    1    1    2    0    0  0.23849740551E+01 -0.72182680171E+01 -0.49327601699E+03  0.49333459278E+03  0.00000000000E+00 0.  1.
        -15    1    1    2    0    0  0.49279280433E+01 -0.66258594716E+01  0.61152066327E+01  0.10427845880E+02  0.17770000000E+01 0. -1.
         15    1    1    2    0    0  0.71748120463E-01  0.10151455281E+02  0.13932165218E+01  0.10399806411E+02  0.17770000000E+01 0.  1.
</event>
<event>
 6    1  0.1782050E-003  0.5108114E+03  0.7546771E-02  0.9375938E-01
        -11   -1    0    0    0    0  0.00000000000E+00  0.00000000000E+00  0.50000000000E+03  0.50000000000E+03  0.00000000000E+00 0. -1.
         11   -1    0    0    0    0 -0.00000000000E+00 -0.00000000000E+00 -0.50000000000E+03  0.50000000000E+03  0.00000000000E+00 0. -1.
        -11    1    1    2    0    0 -0.17340155121E+02  0.27850153790E+02  0.48808729259E+03  0.48918863155E+03  0.00000000000E+00 0. -1.
         11    1    1    2    0    0 -0.52400688204E+01 -0.37364697874E+01 -0.46053341404E+03  0.46057838092E+03  0.00000000000E+00 0. -1.
        -15    1    1    2    0    0  0.25757611930E+01 -0.29977035722E+01  0.49497129179E+01  0.65786137901E+01  0.17770000000E+01 0. -1.
         15    1    1    2    0    0  0.20004462749E+02 -0.21115980430E+02 -0.32503591468E+02  0.43654373741E+02  0.17770000000E+01 0.  1.
</event>
<event>
 6    1  0.1782050E-003  0.5009935E+03  0.7546771E-02  0.9397589E-01
        -11   -1    0    0    0    0  0.00000000000E+00  0.00000000000E+00  0.50000000000E+03  0.50000000000E+03  0.00000000000E+00 0. -1.
         11   -1    0    0    0    0 -0.00000000000E+00 -0.00000000000E+00 -0.50000000000E+03  0.50000000000E+03  0.00000000000E+00 0.  1.
        -11    1    1    2    0    0  0.34296195196E+01 -0.51133916678E+01  0.41865173779E+03  0.41869701053E+03  0.00000000000E+00 0. -1.
         11    1    1    2    0    0 -0.13049169450E+02 -0.25741380833E+01 -0.49882921431E+03  0.49900650503E+03  0.00000000000E+00 0.  1.
        -15    1    1    2    0    0  0.62960143410E+01 -0.52231218504E+00  0.13508988801E+02  0.15018758738E+02  0.17770000000E+01 0.  1.
         15    1    1    2    0    0  0.33235355895E+01  0.82098419362E+01  0.66668487715E+02  0.67277725709E+02  0.17770000000E+01 0. -1.
</event>
<event>
 6    1  0.1782050E-003  0.5021628E+03  0.7546771E-02  0.9394983E-01
        -11   -1    0    0    0    0  0.00000000000E+00  0.00000000000E+00  0.50000000000E+03  0.50000000000E+03  0.00000000000E+00 0. -1.
         11   -1    0    0    0    0 -0.00000000000E+00 -0.00000000000E+00 -0.50000000000E+03  0.50000000000E+03  0.00000000000E+00 0.  1.
        -11    1    1    2    0    0 -0.31525950904E+01 -0.63424877747E+01  0.49778684922E+03  0.49783723571E+03  0.00000000000E+00 0. -1.
         11    1    1    2    0    0 -0.63900697596E+01 -0.12594183853E+01 -0.36819367031E+03  0.36825127017E+03  0.00000000000E+00 0.  1.
        -15    1    1    2    0    0  0.97265113887E+01  0.17323533446E+02 -0.11172471071E+03  0.11349131485E+03  0.17770000000E+01 0. -1.
         15    1    1    2    0    0 -0.18384653875E+00 -0.97216272861E+01 -0.17868468199E+02  0.20420179270E+02  0.17770000000E+01 0.  1.
</event>
<event>
 6    1  0.1782050E-003  0.5005458E+03  0.7546771E-02  0.9398589E-01
        -11   -1    0    0    0    0  0.00000000000E+00  0.00000000000E+00  0.50000000000E+03  0.50000000000E+03  0.00000000000E+00 0.  1.
         11   -1    0    0    0    0 -0.00000000000E+00 -0.00000000000E+00 -0.50000000000E+03  0.50000000000E+03  0.00000000000E+00 0. -1.
        -11    1    1    2    0    0  0.42553139515E+01  0.19570335515E+01  0.29449568353E+03  0.29453292735E+03  0.00000000000E+00 0.  1.
         11    1    1    2    0    0  0.63493355512E+01  0.42126587575E+01 -0.49939611228E+03  0.49945423966E+03  0.00000000000E+00 0. -1.
        -15    1    1    2    0    0 -0.56143806597E+01 -0.83600733458E+01  0.51504592819E+02  0.52509931508E+02  0.17770000000E+01 0. -1.
         15    1    1    2    0    0 -0.49902688431E+01  0.21903810368E+01  0.15339583593E+03  0.15350290148E+03  0.17770000000E+01 0.  1.
</event>
<event>
 6    1  0.1782050E-003  0.5362632E+03  0.7546771E-02  0.9322135E-01
        -11   -1    0    0    0    0  0.00000000000E+00  0.00000000000E+00  0.50000000000E+03  0.50000000000E+03  0.00000000000E+00 0.  1.
         11   -1    0    0    0    0 -0.00000000000E+00 -0.00000000000E+00 -0.50000000000E+03  0.50000000000E+03  0.00000000000E+00 0. -1.
        -11    1    1    2    0    0 -0.49158895468E+01  0.30468165870E+01  0.35902913670E+03  0.35907571633E+03  0.00000000000E+00 0.  1.
         11    1    1    2    0    0 -0.72133252814E+01 -0.18006500932E+02 -0.46333097713E+03  0.46373684403E+03  0.00000000000E+00 0. -1.
        -15    1    1    2    0    0 -0.96164952758E+01 -0.61350709423E+02  0.32272703436E+02  0.70007654183E+02  0.17770000000E+01 0. -1.
         15    1    1    2    0    0  0.21745710104E+02  0.76310393768E+02  0.72029136999E+02  0.10717978546E+03  0.17770000000E+01 0.  1.
</event>
<event>
 6    1  0.1782050E-003  0.5001673E+03  0.7546771E-02  0.9399436E-01
        -11   -1    0    0    0    0  0.00000000000E+00  0.00000000000E+00  0.50000000000E+03  0.50000000000E+03  0.00000000000E+00 0. -1.
         11   -1    0    0    0    0 -0.00000000000E+00 -0.00000000000E+00 -0.50000000000E+03  0.50000000000E+03  0.00000000000E+00 0. -1.
        -11    1    1    2    0    0  0.10930356801E+01 -0.34599687648E+01  0.64882977750E+02  0.64984358984E+02  0.00000000000E+00 0. -1.
         11    1    1    2    0    0 -0.67762631073E+01  0.29146296912E+00 -0.49978672777E+03  0.49983274798E+03  0.00000000000E+00 0. -1.
        -15    1    1    2    0    0 -0.39701721691E+01 -0.16445758827E+01  0.13315694553E+03  0.13323812055E+03  0.17770000000E+01 0.  1.
         15    1    1    2    0    0  0.96533995963E+01  0.48130816783E+01  0.30174680450E+03  0.30194477249E+03  0.17770000000E+01 0. -1.
</event>
<event>
 6    1  0.1782050E-003  0.4918480E+03  0.7546771E-02  0.9418237E-01
        -11   -1    0    0    0    0  0.00000000000E+00  0.00000000000E+00  0.50000000000E+03  0.50000000000E+03  0.00000000000E+00 0. -1.
         11   -1    0    0    0    0 -0.00000000000E+00 -0.00000000000E+00 -0.50000000000E+03  0.50000000000E+03  0.00000000000E+00 0.  1.
        -11    1    1    2    0    0  0.76365525645E+01 -0.62330546889E+01  0.49391875472E+03  0.49401710919E+03  0.00000000000E+00 0. -1.
         11    1    1    2    0    0 -0.40562684579E+01 -0.56807017283E+01 -0.48971678366E+03  0.48976652794E+03  0.00000000000E+00 0.  1.
        -15    1    1    2    0    0  0.25994385245E+01  0.62863563857E+01 -0.10506242751E+01  0.71089308351E+01  0.17770000000E+01 0. -1.
         15    1    1    2    0    0 -0.61797226312E+01  0.56274000314E+01 -0.31513467806E+01  0.91074320444E+01  0.17770000000E+01 0.  1.
</event>
<event>
 6    1  0.1782050E-003  0.4236041E+03  0.7546771E-02  0.9589119E-01
        -11   -1    0    0    0    0  0.00000000000E+00  0.00000000000E+00  0.50000000000E+03  0.50000000000E+03  0.00000000000E+00 0. -1.
         11   -1    0    0    0    0 -0.00000000000E+00 -0.00000000000E+00 -0.50000000000E+03  0.50000000000E+03  0.00000000000E+00 0. -1.
        -11    1    1    2    0    0 -0.18450336503E+02  0.32794289431E+02  0.40690087088E+03  0.40863700158E+03  0.00000000000E+00 0. -1.
         11    1    1    2    0    0  0.10315309437E+03  0.30765152741E+02 -0.43234424811E+03  0.44554304436E+03  0.00000000000E+00 0. -1.
        -15    1    1    2    0    0 -0.59096820901E+02 -0.88192247309E+02  0.87900424227E+01  0.10653980149E+03  0.17770000000E+01 0.  1.
         15    1    1    2    0    0 -0.25605936968E+02  0.24632805137E+02  0.16653334812E+02  0.39280152575E+02  0.17770000000E+01 0. -1.
</event>
<event>
 6    1  0.1782050E-003  0.5010607E+03  0.7546771E-02  0.9397439E-01
        -11   -1    0    0    0    0  0.00000000000E+00  0.00000000000E+00  0.50000000000E+03  0.50000000000E+03  0.00000000000E+00 0.  1.
         11   -1    0    0    0    0 -0.00000000000E+00 -0.00000000000E+00 -0.50000000000E+03  0.50000000000E+03  0.00000000000E+00 0. -1.
        -11    1    1    2    0    0  0.35685119512E+01 -0.78430533639E+01  0.12697617220E+03  0.12726820526E+03  0.00000000000E+00 0.  1.
         11    1    1    2    0    0 -0.98070504706E+01  0.35224804779E+01 -0.49883042656E+03  0.49893925539E+03  0.00000000000E+00 0. -1.
        -15    1    1    2    0    0  0.71934919590E+01 -0.22932453564E+01  0.35989219274E+03  0.35997576783E+03  0.17770000000E+01 0.  1.
         15    1    1    2    0    0 -0.95495343966E+00  0.66138182424E+01  0.11962061622E+02  0.13816771514E+02  0.17770000000E+01 0. -1.
</event>
<event>
 6    1  0.1782050E-003  0.5071690E+03  0.7546771E-02  0.9383910E-01
        -11   -1    0    0    0    0  0.00000000000E+00  0.00000000000E+00  0.50000000000E+03  0.50000000000E+03  0.00000000000E+00 0.  1.
         11   -1    0    0    0    0 -0.00000000000E+00 -0.00000000000E+00 -0.50000000000E+03  0.50000000000E+03  0.00000000000E+00 0. -1.
        -11    1    1    2    0    0  0.79771522743E+01 -0.24541772053E+01  0.44234421424E+03  0.44242294450E+03  0.00000000000E+00 0.  1.
         11    1    1    2    0    0 -0.10606078316E+02 -0.18136805526E+02 -0.49238294452E+03  0.49283100214E+03  0.00000000000E+00 0. -1.
        -15    1    1    2    0    0  0.91459090657E+01  0.77519508651E+01  0.48690105952E+02  0.50175935880E+02  0.17770000000E+01 0.  1.
         15    1    1    2    0    0 -0.65169830236E+01  0.12839031866E+02  0.13486243309E+01  0.14570117487E+02  0.17770000000E+01 0. -1.
</event>
<event>
 6    1  0.1782050E-003  0.5000469E+03  0.7546771E-02  0.9399705E-01
        -11   -1    0    0    0    0  0.00000000000E+00  0.00000000000E+00  0.50000000000E+03  0.50000000000E+03  0.00000000000E+00 0.  1.
         11   -1    0    0    0    0 -0.00000000000E+00 -0.00000000000E+00 -0.50000000000E+03  0.50000000000E+03  0.00000000000E+00 0.  1.
        -11    1    1    2    0    0 -0.77133262008E+00  0.32446815295E+00  0.20571167681E+02  0.20588180428E+02  0.00000000000E+00 0.  1.
         11    1    1    2    0    0  0.78800519668E+01  0.40273651968E+00 -0.49989083840E+03  0.49995310553E+03  0.00000000000E+00 0.  1.
        -15    1    1    2    0    0 -0.55392617265E+01  0.21742520512E+01  0.40232213227E+03  0.40237006180E+03  0.17770000000E+01 0.  1.
         15    1    1    2    0    0 -0.15694576202E+01 -0.29014567238E+01  0.76997538444E+02  0.77088652238E+02  0.17770000000E+01 0. -1.
</event>
<event>
 6    1  0.1782050E-003  0.5096691E+03  0.7546771E-02  0.9378431E-01
        -11   -1    0    0    0    0  0.00000000000E+00  0.00000000000E+00  0.50000000000E+03  0.50000000000E+03  0.00000000000E+00 0. -1.
         11   -1    0    0    0    0 -0.00000000000E+00 -0.00000000000E+00 -0.50000000000E+03  0.50000000000E+03  0.00000000000E+00 0.  1.
        -11    1    1    2    0    0  0.23612920017E+01  0.36398833698E+01  0.26038784465E+03  0.26042398909E+03  0.00000000000E+00 0. -1.
         11    1    1    2    0    0 -0.21911074894E+02  0.14673407650E+02 -0.48962126892E+03  0.49033089957E+03  0.00000000000E+00 0.  1.
        -15    1    1    2    0    0 -0.40162344556E+01 -0.19933459946E+01  0.21854837108E+03  0.21860158233E+03  0.17770000000E+01 0. -1.
         15    1    1    2    0    0  0.23566017348E+02 -0.16319945025E+02  0.10685053195E+02  0.30643529007E+02  0.17770000000E+01 0. -1.
</event>
<event>
 6    1  0.1782050E-003  0.4931692E+03  0.7546771E-02  0.9415225E-01
        -11   -1    0    0    0    0  0.00000000000E+00  0.00000000000E+00  0.50000000000E+03  0.50000000000E+03  0.00000000000E+00 0. -1.
         11   -1    0    0    0    0 -0.00000000000E+00 -0.00000000000E+00 -0.50000000000E+03  0.50000000000E+03  0.00000000000E+00 0.  1.
        -11    1    1    2    0    0 -0.74966335365E+01  0.38212036976E+01  0.49237022656E+03  0.49244211956E+03  0.00000000000E+00 0. -1.
         11    1    1    2    0    0  0.10002231294E+02 -0.28674917002E+00 -0.49380539840E+03  0.49390677090E+03  0.00000000000E+00 0.  1.
        -15    1    1    2    0    0 -0.56680873706E+01 -0.61691282519E+01 -0.87305273173E+00  0.86084439884E+01  0.17770000000E+01 0. -1.
         15    1    1    2    0    0  0.31624896134E+01  0.26346737243E+01  0.23082245664E+01  0.50426655488E+01  0.17770000000E+01 0.  1.
</event>
<event>
 6    1  0.1782050E-003  0.5078010E+03  0.7546771E-02  0.9382522E-01
        -11   -1    0    0    0    0  0.00000000000E+00  0.00000000000E+00  0.50000000000E+03  0.50000000000E+03  0.00000000000E+00 0.  1.
         11   -1    0    0    0    0 -0.00000000000E+00 -0.00000000000E+00 -0.50000000000E+03  0.50000000000E+03  0.00000000000E+00 0. -1.
        -11    1    1    2    0    0  0.54149429612E+01  0.11636319418E+02  0.49203164764E+03  0.49219901241E+03  0.00000000000E+00 0.  1.
         11    1    1    2    0    0  0.11935469456E+02 -0.13890726757E+02 -0.41363791617E+03  0.41404315405E+03  0.00000000000E+00 0. -1.
        -15    1    1    2    0    0 -0.75169787439E+00 -0.20591915670E+02 -0.19527257147E+02  0.28444042282E+02  0.17770000000E+01 0. -1.
         15    1    1    2    0    0 -0.16598714542E+02  0.22846323008E+02 -0.58866474327E+02  0.65313791256E+02  0.17770000000E+01 0.  1.
</event>
<event>
 6    1  0.1782050E-003  0.5005152E+03  0.7546771E-02  0.9398658E-01
        -11   -1    0    0    0    0  0.00000000000E+00  0.00000000000E+00  0.50000000000E+03  0.50000000000E+03  0.00000000000E+00 0. -1.
         11   -1    0    0    0    0 -0.00000000000E+00 -0.00000000000E+00 -0.50000000000E+03  0.50000000000E+03  0.00000000000E+00 0. -1.
        -11    1    1    2    0    0 -0.60443436510E+01 -0.82162522692E+01  0.49938061802E+03  0.49948477709E+03  0.00000000000E+00 0. -1.
         11    1    1    2    0    0  0.12921671192E+01  0.12582015272E+02 -0.30776082049E+03  0.30802061527E+03  0.00000000000E+00 0. -1.
        -15    1    1    2    0    0  0.38006370124E+01 -0.62341081312E+01 -0.18676271631E+03  0.18691382741E+03  0.17770000000E+01 0.  1.
         15    1    1    2    0    0  0.95153951944E+00  0.18683451287E+01 -0.48570812175E+01  0.55807802259E+01  0.17770000000E+01 0. -1.
</event>
<event>
 6    1  0.1782050E-003  0.5099102E+03  0.7546771E-02  0.9377904E-01
        -11   -1    0    0    0    0  0.00000000000E+00  0.00000000000E+00  0.50000000000E+03  0.50000000000E+03  0.00000000000E+00 0. -1.
         11   -1    0    0    0    0 -0.00000000000E+00 -0.00000000000E+00 -0.50000000000E+03  0.50000000000E+03  0.00000000000E+00 0.  1.
        -11    1    1    2    0    0 -0.11058432947E+02 -0.17512463352E+02  0.48965190991E+03  0.49008975524E+03  0.00000000000E+00 0. -1.
         11    1    1    2    0    0 -0.29566855365E+01 -0.44917893578E+01 -0.19661381721E+03  0.19668734397E+03  0.00000000000E+00 0.  1.
        -15    1    1    2    0    0  0.11278302339E+02  0.16440924860E+02  0.97087497472E-01  0.20016774687E+02  0.17770000000E+01 0. -1.
         15    1    1    2    0    0  0.27368161451E+01  0.55633278500E+01 -0.29313518020E+03  0.29320612609E+03  0.17770000000E+01 0.  1.
</event>
<event>
 6    1  0.1782050E-003  0.5201826E+03  0.7546771E-02  0.9355749E-01
        -11   -1    0    0    0    0  0.00000000000E+00  0.00000000000E+00  0.50000000000E+03  0.50000000000E+03  0.00000000000E+00 0.  1.
         11   -1    0    0    0    0 -0.00000000000E+00 -0.00000000000E+00 -0.50000000000E+03  0.50000000000E+03  0.00000000000E+00 0. -1.
        -11    1    1    2    0    0 -0.13530024825E+02 -0.19790385004E+02  0.47921815491E+03  0.47981742455E+03  0.00000000000E+00 0.  1.
         11    1    1    2    0    0 -0.14425699660E+02 -0.81341726872E+00 -0.40645849559E+03  0.40671522112E+03  0.00000000000E+00 0. -1.
        -15    1    1    2    0    0  0.67633738843E+01  0.48787464030E+02 -0.55311354461E+02  0.74084165205E+02  0.17770000000E+01 0. -1.
         15    1    1    2    0    0  0.21192350601E+02 -0.28183661758E+02 -0.17448304859E+02  0.39383189123E+02  0.17770000000E+01 0.  1.
</event>
<event>
 6    1  0.1782050E-003  0.4833705E+03  0.7546771E-02  0.9437808E-01
        -11   -1    0    0    0    0  0.00000000000E+00  0.00000000000E+00  0.50000000000E+03  0.50000000000E+03  0.00000000000E+00 0.  1.
         11   -1    0    0    0    0 -0.00000000000E+00 -0.00000000000E+00 -0.50000000000E+03  0.50000000000E+03  0.00000000000E+00 0.  1.
        -11    1    1    2    0    0  0.91553224421E+01  0.26575341165E+02  0.48619080743E+03  0.48700263851E+03  0.00000000000E+00 0.  1.
         11    1    1    2    0    0 -0.62719796716E+01 -0.32269822115E+01 -0.47999266685E+03  0.48004448895E+03  0.00000000000E+00 0.  1.
        -15    1    1    2    0    0 -0.63412105177E+01 -0.25730290555E+02 -0.18043084730E+01  0.26620895194E+02  0.17770000000E+01 0.  1.
         15    1    1    2    0    0  0.34578677473E+01  0.23819316019E+01 -0.43938321106E+01  0.63319773476E+01  0.17770000000E+01 0. -1.
</event>
<event>
 6    1  0.1782050E-003  0.5001115E+03  0.7546771E-02  0.9399560E-01
        -11   -1    0    0    0    0  0.00000000000E+00  0.00000000000E+00  0.50000000000E+03  0.50000000000E+03  0.00000000000E+00 0.  1.
         11   -1    0    0    0    0 -0.00000000000E+00 -0.00000000000E+00 -0.50000000000E+03  0.50000000000E+03  0.00000000000E+00 0.  1.
        -11    1    1    2    0    0 -0.54662050900E+01  0.44302584438E+01  0.49983899105E+03  0.49988851113E+03  0.00000000000E+00 0.  1.
         11    1    1    2    0    0  0.33916946088E+01  0.18485564556E+01 -0.18894711576E+03  0.18898659558E+03  0.00000000000E+00 0.  1.
        -15    1    1    2    0    0  0.51759676472E+01 -0.64518083471E+01 -0.21955899855E+03  0.21972193346E+03  0.17770000000E+01 0. -1.
         15    1    1    2    0    0 -0.31014571659E+01  0.17299344775E+00 -0.91332876739E+02  0.91402959830E+02  0.17770000000E+01 0.  1.
</event>
<event>
 6    1  0.1782050E-003  0.5007158E+03  0.7546771E-02  0.9398210E-01
        -11   -1    0    0    0    0  0.00000000000E+00  0.00000000000E+00  0.50000000000E+03  0.50000000000E+03  0.00000000000E+00 0. -1.
         11   -1    0    0    0    0 -0.00000000000E+00 -0.00000000000E+00 -0.50000000000E+03  0.50000000000E+03  0.00000000000E+00 0. -1.
        -11    1    1    2    0    0 -0.81358851430E+00 -0.83189290878E+01  0.49921426665E+03  0.49928423822E+03  0.00000000000E+00 0. -1.
         11    1    1    2    0    0  0.78084669925E+01 -0.28062207589E+00 -0.37814109657E+03  0.37822181299E+03  0.00000000000E+00 0. -1.
        -15    1    1    2    0    0 -0.23805197624E+01  0.41894357263E+01 -0.10171476111E+02  0.11394511894E+02  0.17770000000E+01 0.  1.
         15    1    1    2    0    0 -0.46143587158E+01  0.44101154375E+01 -0.11090169397E+03  0.11109943689E+03  0.17770000000E+01 0. -1.
</event>
<event>
 6    1  0.1782050E-003  0.5510589E+03  0.7546771E-02  0.9292293E-01
        -11   -1    0    0    0    0  0.00000000000E+00  0.00000000000E+00  0.50000000000E+03  0.50000000000E+03  0.00000000000E+00 0. -1.
         11   -1    0    0    0    0 -0.00000000000E+00 -0.00000000000E+00 -0.50000000000E+03  0.50000000000E+03  0.00000000000E+00 0. -1.
        -11    1    1    2    0    0 -0.76873004569E+01  0.20998447810E+01  0.44887039392E+03  0.44894112584E+03  0.00000000000E+00 0. -1.
         11    1    1    2    0    0 -0.37610670804E+02 -0.18276622719E+02 -0.26499630949E+03  0.26827530922E+03  0.00000000000E+00 0. -1.
        -15    1    1    2    0    0 -0.28749760201E+02  0.15720427827E+02 -0.20352277796E+03  0.20615130230E+03  0.17770000000E+01 0. -1.
         15    1    1    2    0    0  0.74047731462E+02  0.45635011106E+00  0.19648693530E+02  0.76632262634E+02  0.17770000000E+01 0.  1.
</event>
<event>
 6    1  0.1782050E-003  0.5161504E+03  0.7546771E-02  0.9364380E-01
        -11   -1    0    0    0    0  0.00000000000E+00  0.00000000000E+00  0.50000000000E+03  0.50000000000E+03  0.00000000000E+00 0.  1.
         11   -1    0    0    0    0 -0.00000000000E+00 -0.00000000000E+00 -0.50000000000E+03  0.50000000000E+03  0.00000000000E+00 0. -1.
        -11    1    1    2    0    0 -0.41034964045E+02  0.31156338639E+02  0.48109863094E+03  0.48384964441E+03  0.00000000000E+00 0.  1.
         11    1    1    2    0    0 -0.68917135184E+01 -0.18284970216E+00 -0.30238738401E+03  0.30246596363E+03  0.00000000000E+00 0. -1.
        -15    1    1    2    0    0 -0.23945538109E+02  0.17617079697E+02 -0.55466783780E+02  0.62956112684E+02  0.17770000000E+01 0. -1.
         15    1    1    2    0    0  0.71872215672E+02 -0.48590568634E+02 -0.12324446315E+03  0.15072827927E+03  0.17770000000E+01 0. -1.
</event>
<event>
 6    1  0.1782050E-003  0.5044215E+03  0.7546771E-02  0.9389970E-01
        -11   -1    0    0    0    0  0.00000000000E+00  0.00000000000E+00  0.50000000000E+03  0.50000000000E+03  0.00000000000E+00 0. -1.
         11   -1    0    0    0    0 -0.00000000000E+00 -0.00000000000E+00 -0.50000000000E+03  0.50000000000E+03  0.00000000000E+00 0.  1.
        -11    1    1    2    0    0  0.63577058827E+01 -0.28132312382E+01  0.49552972218E+03  0.49557849052E+03  0.00000000000E+00 0. -1.
         11    1    1    2    0    0  0.30855791713E+01 -0.72437833305E+01 -0.47083208293E+03  0.47089791199E+03  0.00000000000E+00 0.  1.
        -15    1    1    2    0    0 -0.23913219626E+01  0.18095481421E+01 -0.21902373449E+02  0.22178020130E+02  0.17770000000E+01 0.  1.
         15    1    1    2    0    0 -0.70519630914E+01  0.82474664266E+01 -0.27952658053E+01  0.11345577368E+02  0.17770000000E+01 0.  1.
</event>
<event>
 6    1  0.1782050E-003  0.5048397E+03  0.7546771E-02  0.9389045E-01
        -11   -1    0    0    0    0  0.00000000000E+00  0.00000000000E+00  0.50000000000E+03  0.50000000000E+03  0.00000000000E+00 0.  1.
         11   -1    0    0    0    0 -0.00000000000E+00 -0.00000000000E+00 -0.50000000000E+03  0.50000000000E+03  0.00000000000E+00 0.  1.
        -11    1    1    2    0    0  0.21359262074E+02 -0.17824302907E+02  0.49437817537E+03  0.49516028125E+03  0.00000000000E+00 0.  1.
         11    1    1    2    0    0  0.11414353853E+01 -0.60799826040E+01 -0.41924225712E+03  0.41928789539E+03  0.00000000000E+00 0.  1.
        -15    1    1    2    0    0 -0.21343838605E+02  0.18465241262E+02 -0.35013657096E+02  0.45007093814E+02  0.17770000000E+01 0.  1.
         15    1    1    2    0    0 -0.11568588537E+01  0.54390442492E+01 -0.40122261151E+02  0.40544729542E+02  0.17770000000E+01 0. -1.
</event>
<event>
 6    1  0.1782050E-003  0.5102109E+03  0.7546771E-02  0.9377247E-01
        -11   -1    0    0    0    0  0.00000000000E+00  0.00000000000E+00  0.50000000000E+03  0.50000000000E+03  0.00000000000E+00 0. -1.
         11   -1    0    0    0    0 -0.00000000000E+00 -0.00000000000E+00 -0.50000000000E+03  0.50000000000E+03  0.00000000000E+00 0.  1.
        -11    1    1    2    0    0  0.19958283137E+02  0.48797751264E+01  0.48935793788E+03  0.48978907362E+03  0.00000000000E+00 0. -1.
         11    1    1    2    0    0 -0.12164717482E+02  0.24913774275E+01 -0.45914135338E+03  0.45930923102E+03  0.00000000000E+00 0.  1.
        -15    1    1    2    0    0 -0.20920413855E+02 -0.14833955930E+02 -0.17747728129E+02  0.31238590671E+02  0.17770000000E+01 0. -1.
         15    1    1    2    0    0  0.13126848199E+02  0.74628033760E+01 -0.12468856373E+02  0.19663104692E+02  0.17770000000E+01 0.  1.
</event>
<event>
 6    1  0.1782050E-003  0.5081852E+03  0.7546771E-02  0.9381679E-01
        -11   -1    0    0    0    0  0.00000000000E+00  0.00000000000E+00  0.50000000000E+03  0.50000000000E+03  0.00000000000E+00 0. -1.
         11   -1    0    0    0    0 -0.00000000000E+00 -0.00000000000E+00 -0.50000000000E+03  0.50000000000E+03  0.00000000000E+00 0.  1.
        -11    1    1    2    0    0  0.23389737938E+02  0.24043990900E+02  0.49066949975E+03  0.49181475306E+03  0.00000000000E+00 0. -1.
         11    1    1    2    0    0  0.19818008525E+00 -0.42800209731E+01 -0.16012661332E+03  0.16018392600E+03  0.00000000000E+00 0.  1.
        -15    1    1    2    0    0  0.37308109676E+02 -0.19028305102E+02 -0.19407960768E+03  0.19855483698E+03  0.17770000000E+01 0.  1.
         15    1    1    2    0    0 -0.60896027700E+02 -0.73566482500E+00 -0.13646327875E+03  0.14944648396E+03  0.17770000000E+01 0. -1.
</event>
<event>
 6    1  0.1782050E-003  0.5020559E+03  0.7546771E-02  0.9395221E-01
        -11   -1    0    0    0    0  0.00000000000E+00  0.00000000000E+00  0.50000000000E+03  0.50000000000E+03  0.00000000000E+00 0. -1.
         11   -1    0    0    0    0 -0.00000000000E+00 -0.00000000000E+00 -0.50000000000E+03  0.50000000000E+03  0.00000000000E+00 0. -1.
        -11    1    1    2    0    0 -0.48449286683E+01  0.39859291450E+01  0.38419711054E+03  0.38424833209E+03  0.00000000000E+00 0. -1.
         11    1    1    2    0    0  0.14182369446E+02  0.43216441817E+01 -0.49772333011E+03  0.49794410284E+03  0.00000000000E+00 0. -1.
        -15    1    1    2    0    0  0.18652827777E+01 -0.20311298030E+01  0.95751694501E+02  0.95807878052E+02  0.17770000000E+01 0. -1.
         15    1    1    2    0    0 -0.11202723556E+02 -0.62764435237E+01  0.17774525070E+02  0.21999687017E+02  0.17770000000E+01 0. -1.
</event>
<event>
 6    1  0.1782050E-003  0.5007263E+03  0.7546771E-02  0.9398186E-01
        -11   -1    0    0    0    0  0.00000000000E+00  0.00000000000E+00  0.50000000000E+03  0.50000000000E+03  0.00000000000E+00 0.  1.
         11   -1    0    0    0    0 -0.00000000000E+00 -0.00000000000E+00 -0.50000000000E+03  0.50000000000E+03  0.00000000000E+00 0.  1.
        -11    1    1    2    0    0 -0.97956359469E+01 -0.24937047159E+01  0.49917138066E+03  0.49927371282E+03  0.00000000000E+00 0.  1.
         11    1    1    2    0    0  0.82537240264E+01 -0.66974238850E+01 -0.39450455068E+03  0.39464771627E+03  0.00000000000E+00 0.  1.
        -15    1    1    2    0    0 -0.57385073148E+01  0.73439143055E+01 -0.53996094227E+02  0.54823347802E+02  0.17770000000E+01 0. -1.
         15    1    1    2    0    0  0.72804192353E+01  0.18472142954E+01 -0.50670735750E+02  0.51255223103E+02  0.17770000000E+01 0.  1.
</event>
<event>
 6    1  0.1782050E-003  0.5010416E+03  0.7546771E-02  0.9397482E-01
        -11   -1    0    0    0    0  0.00000000000E+00  0.00000000000E+00  0.50000000000E+03  0.50000000000E+03  0.00000000000E+00 0.  1.
         11   -1    0    0    0    0 -0.00000000000E+00 -0.00000000000E+00 -0.50000000000E+03  0.50000000000E+03  0.00000000000E+00 0.  1.
        -11    1    1    2    0    0 -0.20487686690E+00  0.98976037916E+01  0.49886019568E+03  0.49895841447E+03  0.00000000000E+00 0.  1.
         11    1    1    2    0    0  0.58661139914E+01  0.48956384594E+01 -0.40038879430E+03  0.40046169001E+03  0.00000000000E+00 0.  1.
        -15    1    1    2    0    0  0.16759323285E+01 -0.14155650176E+01 -0.40809837592E+02  0.40907372768E+02  0.17770000000E+01 0.  1.
         15    1    1    2    0    0 -0.73371694530E+01 -0.13377677233E+02 -0.57661563789E+02  0.59672522750E+02  0.17770000000E+01 0. -1.
</event>
<event>
 6    1  0.1782050E-003  0.5060788E+03  0.7546771E-02  0.9386310E-01
        -11   -1    0    0    0    0  0.00000000000E+00  0.00000000000E+00  0.50000000000E+03  0.50000000000E+03  0.00000000000E+00 0.  1.
         11   -1    0    0    0    0 -0.00000000000E+00 -0.00000000000E+00 -0.50000000000E+03  0.50000000000E+03  0.00000000000E+00 0. -1.
        -11    1    1    2    0    0 -0.14247583953E+01 -0.27784446970E+02  0.49313702353E+03  0.49392117732E+03  0.00000000000E+00 0.  1.
         11    1    1    2    0    0 -0.95653799894E+01  0.13744538081E+02 -0.17482324350E+03  0.17562339049E+03  0.00000000000E+00 0. -1.
        -15    1    1    2    0    0  0.16173222471E+02 -0.21674252977E+02 -0.26295893564E+03  0.26435186008E+03  0.17770000000E+01 0. -1.
         15    1    1    2    0    0 -0.51830840860E+01  0.35714161867E+02 -0.55354844391E+02  0.66103572105E+02  0.17770000000E+01 0.  1.
</event>
<event>
 6    1  0.1782050E-003  0.5063579E+03  0.7546771E-02  0.9385695E-01
        -11   -1    0    0    0    0  0.00000000000E+00  0.00000000000E+00  0.50000000000E+03  0.50000000000E+03  0.00000000000E+00 0.  1.
         11   -1    0    0    0    0 -0.00000000000E+00 -0.00000000000E+00 -0.50000000000E+03  0.50000000000E+03  0.00000000000E+00 0. -1.
        -11    1    1    2    0    0  0.54422095504E+01  0.65532171820E+01  0.43261452918E+03  0.43269838590E+03  0.00000000000E+00 0.  1.
         11    1    1    2    0    0  0.71818220117E+01 -0.70829973930E+00 -0.49358932724E+03  0.49364208108E+03  0.00000000000E+00 0. -1.
        -15    1    1    2    0    0 -0.16398672552E+02  0.27435664440E+01  0.58517541079E+01  0.17715653345E+02  0.17770000000E+01 0. -1.
         15    1    1    2    0    0  0.37746409896E+01 -0.85884838867E+01  0.55123043946E+02  0.55943879674E+02  0.17770000000E+01 0.  1.
</event>
<event>
 6    1  0.1782050E-003  0.5003771E+03  0.7546771E-02  0.9398966E-01
        -11   -1    0    0    0    0  0.00000000000E+00  0.00000000000E+00  0.50000000000E+03  0.50000000000E+03  0.00000000000E+00 0.  1.
         11   -1    0    0    0    0 -0.00000000000E+00 -0.00000000000E+00 -0.50000000000E+03  0.50000000000E+03  0.00000000000E+00 0. -1.
        -11    1    1    2    0    0 -0.37769908765E+01  0.29544229154E+01  0.29909073305E+03  0.29912917088E+03  0.00000000000E+00 0.  1.
         11    1    1    2    0    0 -0.11007673922E+02 -0.60769242796E+01 -0.49946463813E+03  0.49962288042E+03  0.00000000000E+00 0. -1.
        -15    1    1    2    0    0  0.41991816717E+01 -0.22531857370E+01  0.10476103271E+03  0.10488442056E+03  0.17770000000E+01 0. -1.
         15    1    1    2    0    0  0.10585483127E+02  0.53756871012E+01  0.95612872361E+02  0.96363528137E+02  0.17770000000E+01 0.  1.
</event>
<event>
 6    1  0.1782050E-003  0.5004944E+03  0.7546771E-02  0.9398704E-01
        -11   -1    0    0    0    0  0.00000000000E+00  0.00000000000E+00  0.50000000000E+03  0.50000000000E+03  0.00000000000E+00 0.  1.
         11   -1    0    0    0    0 -0.00000000000E+00 -0.00000000000E+00 -0.50000000000E+03  0.50000000000E+03  0.00000000000E+00 0. -1.
        -11    1    1    2    0    0 -0.30918062684E+01 -0.26060492028E+01  0.22685577143E+03  0.22689180635E+03  0.00000000000E+00 0.  1.
         11    1    1    2    0    0 -0.62849324856E+01 -0.54911074238E+01 -0.49943582665E+03  0.49950555310E+03  0.00000000000E+00 0. -1.
        -15    1    1    2    0    0 -0.57489950100E+01  0.18245352358E+01  0.11300290345E+03  0.11317770889E+03  0.17770000000E+01 0.  1.
         15    1    1    2    0    0  0.15125733764E+02  0.62726213908E+01  0.15957715177E+03  0.16042493166E+03  0.17770000000E+01 0. -1.
</event>
<event>
 6    1  0.1782050E-003  0.3839936E+03  0.7546771E-02  0.9704914E-01
        -11   -1    0    0    0    0  0.00000000000E+00  0.00000000000E+00  0.50000000000E+03  0.50000000000E+03  0.00000000000E+00 0.  1.
         11   -1    0    0    0    0 -0.00000000000E+00 -0.00000000000E+00 -0.50000000000E+03  0.50000000000E+03  0.00000000000E+00 0.  1.
        -11    1    1    2    0    0 -0.58727872911E+02 -0.49976722835E+01  0.38914447802E+03  0.39358272899E+03  0.00000000000E+00 0.  1.
         11    1    1    2    0    0 -0.50521245373E+01  0.34787165073E+01 -0.37709420062E+03  0.37714408596E+03  0.00000000000E+00 0.  1.
        -15    1    1    2    0    0 -0.32650906031E+02  0.57991971376E+02 -0.75575175932E+02  0.10071700628E+03  0.17770000000E+01 0. -1.
         15    1    1    2    0    0  0.96430903480E+02 -0.56473015600E+02  0.63524898538E+02  0.12855617877E+03  0.17770000000E+01 0.  1.
</event>
<event>
 6    1  0.1782050E-003  0.5040707E+03  0.7546771E-02  0.9390747E-01
        -11   -1    0    0    0    0  0.00000000000E+00  0.00000000000E+00  0.50000000000E+03  0.50000000000E+03  0.00000000000E+00 0.  1.
         11   -1    0    0    0    0 -0.00000000000E+00 -0.00000000000E+00 -0.50000000000E+03  0.50000000000E+03  0.00000000000E+00 0. -1.
        -11    1    1    2    0    0 -0.65264206768E+01  0.14923910125E+02  0.43437912501E+03  0.43468441599E+03  0.00000000000E+00 0.  1.
         11    1    1    2    0    0 -0.65700734863E+01  0.68147452248E+01 -0.49583897616E+03  0.49592932652E+03  0.00000000000E+00 0. -1.
        -15    1    1    2    0    0  0.30202829007E+01  0.13060910898E+01  0.98752139797E+00  0.38679335887E+01  0.17770000000E+01 0.  1.
         15    1    1    2    0    0  0.10076211262E+02 -0.23044746440E+02  0.60472329761E+02  0.65518323907E+02  0.17770000000E+01 0. -1.
</event>
<event>
 6    1  0.1782050E-003  0.5090653E+03  0.7546771E-02  0.9379751E-01
        -11   -1    0    0    0    0  0.00000000000E+00  0.00000000000E+00  0.50000000000E+03  0.50000000000E+03  0.00000000000E+00 0. -1.
         11   -1    0    0    0    0 -0.00000000000E+00 -0.00000000000E+00 -0.50000000000E+03  0.50000000000E+03  0.00000000000E+00 0. -1.
        -11    1    1    2    0    0 -0.18763299807E+02  0.11417272476E+01  0.49057468426E+03  0.49093470624E+03  0.00000000000E+00 0. -1.
         11    1    1    2    0    0  0.32441543268E+02 -0.71255689644E+01 -0.35105523926E+03  0.35262304019E+03  0.00000000000E+00 0. -1.
        -15    1    1    2    0    0  0.15068864526E+02 -0.20017707097E+02 -0.24638060076E+02  0.35184812190E+02  0.17770000000E+01 0.  1.
         15    1    1    2    0    0 -0.28747107987E+02  0.26001548813E+02 -0.11488138492E+03  0.12125744138E+03  0.17770000000E+01 0. -1.
</event>
<event>
 6    1  0.1782050E-003  0.5283527E+03  0.7546771E-02  0.9338512E-01
        -11   -1    0    0    0    0  0.00000000000E+00  0.00000000000E+00  0.50000000000E+03  0.50000000000E+03  0.00000000000E+00 0.  1.
         11   -1    0    0    0    0 -0.00000000000E+00 -0.00000000000E+00 -0.50000000000E+03  0.50000000000E+03  0.00000000000E+00 0. -1.
        -11    1    1    2    0    0  0.25531569287E+02 -0.11466880011E+02  0.47081611234E+03  0.47164728559E+03  0.00000000000E+00 0.  1.
         11    1    1    2    0    0 -0.64191787071E+01 -0.14194630129E+01 -0.36192545652E+03  0.36198516104E+03  0.00000000000E+00 0. -1.
        -15    1    1    2    0    0  0.42181719134E+01  0.75212429773E+01 -0.13244436843E+03  0.13273669624E+03  0.17770000000E+01 0.  1.
         15    1    1    2    0    0 -0.23330562494E+02  0.53651000462E+01  0.23553712613E+02  0.33630857135E+02  0.17770000000E+01 0. -1.
</event>
<event>
 6    1  0.1782050E-003  0.5015980E+03  0.7546771E-02  0.9396241E-01
        -11   -1    0    0    0    0  0.00000000000E+00  0.00000000000E+00  0.50000000000E+03  0.50000000000E+03  0.00000000000E+00 0.  1.
         11   -1    0    0    0    0 -0.00000000000E+00 -0.00000000000E+00 -0.50000000000E+03  0.50000000000E+03  0.00000000000E+00 0. -1.
        -11    1    1    2    0    0 -0.84964743032E+01  0.36042896054E+01  0.14609522813E+03  0.14638646338E+03  0.00000000000E+00 0.  1.
         11    1    1    2    0    0  0.26438184819E+02 -0.30877687904E+02 -0.49674147798E+03  0.49840195142E+03  0.00000000000E+00 0. -1.
        -15    1    1    2    0    0 -0.17889190038E+01  0.96386098609E+01  0.28738658270E+03  0.28755922638E+03  0.17770000000E+01 0. -1.
         15    1    1    2    0    0 -0.16152791512E+02  0.17634788438E+02  0.63259667155E+02  0.67652358824E+02  0.17770000000E+01 0.  1.
</event>
<event>
 6    1  0.1782050E-003  0.6006957E+03  0.7546771E-02  0.9198998E-01
        -11   -1    0    0    0    0  0.00000000000E+00  0.00000000000E+00  0.50000000000E+03  0.50000000000E+03  0.00000000000E+00 0.  1.
         11   -1    0    0    0    0 -0.00000000000E+00 -0.00000000000E+00 -0.50000000000E+03  0.50000000000E+03  0.00000000000E+00 0.  1.
        -11    1    1    2    0    0 -0.36819209440E+01  0.40501736330E+02  0.39722783995E+03  0.39930427499E+03  0.00000000000E+00 0.  1.
         11    1    1    2    0    0 -0.13771335793E+02 -0.17825101438E+02 -0.29172578766E+03  0.29259412010E+03  0.00000000000E+00 0.  1.
        -15    1    1    2    0    0  0.39256377450E+02 -0.79362852666E+02  0.76000093634E+02  0.11669917530E+03  0.17770000000E+01 0.  1.
         15    1    1    2    0    0 -0.21803120714E+02  0.56686217774E+02 -0.18150214593E+03  0.19140242962E+03  0.17770000000E+01 0. -1.
</event>
<event>
 6    1  0.1782050E-003  0.5058584E+03  0.7546771E-02  0.9386796E-01
        -11   -1    0    0    0    0  0.00000000000E+00  0.00000000000E+00  0.50000000000E+03  0.50000000000E+03  0.00000000000E+00 0.  1.
         11   -1    0    0    0    0 -0.00000000000E+00 -0.00000000000E+00 -0.50000000000E+03  0.50000000000E+03  0.00000000000E+00 0. -1.
        -11    1    1    2    0    0 -0.21676168053E+02  0.86161902243E+01  0.38928568066E+03  0.38998389219E+03  0.00000000000E+00 0.  1.
         11    1    1    2    0    0 -0.78911811319E+01 -0.14640115294E+02 -0.49386162799E+03  0.49414159035E+03  0.00000000000E+00 0. -1.
        -15    1    1    2    0    0 -0.25845090017E+01  0.79618394839E+01  0.26391448381E+01  0.89550761707E+01  0.17770000000E+01 0. -1.
         15    1    1    2    0    0  0.32151858187E+02 -0.19379144145E+01  0.10193680248E+03  0.10691944130E+03  0.17770000000E+01 0.  1.
</event>
<event>
 6    1  0.1782050E-003  0.4642695E+03  0.7546771E-02  0.9483512E-01
        -11   -1    0    0    0    0  0.00000000000E+00  0.00000000000E+00  0.50000000000E+03  0.50000000000E+03  0.00000000000E+00 0. -1.
         11   -1    0    0    0    0 -0.00000000000E+00 -0.00000000000E+00 -0.50000000000E+03  0.50000000000E+03  0.00000000000E+00 0.  1.
        -11    1    1    2    0    0  0.68346228890E+00 -0.51029361597E+02  0.45634172911E+03  0.45918649435E+03  0.00000000000E+00 0. -1.
         11    1    1    2    0    0  0.66516848231E+01  0.43785524559E+00 -0.47082428154E+03  0.47087146942E+03  0.00000000000E+00 0.  1.
        -15    1    1    2    0    0  0.57977520518E+01  0.11331679349E+02 -0.14499797043E+02  0.19375828473E+02  0.17770000000E+01 0. -1.
         15    1    1    2    0    0 -0.13132899164E+02  0.39259827003E+02  0.28982349473E+02  0.50566207755E+02  0.17770000000E+01 0.  1.
</event>
<event>
 6    1  0.1782050E-003  0.5036090E+03  0.7546771E-02  0.9391770E-01
        -11   -1    0    0    0    0  0.00000000000E+00  0.00000000000E+00  0.50000000000E+03  0.50000000000E+03  0.00000000000E+00 0.  1.
         11   -1    0    0    0    0 -0.00000000000E+00 -0.00000000000E+00 -0.50000000000E+03  0.50000000000E+03  0.00000000000E+00 0.  1.
        -11    1    1    2    0    0 -0.64886476419E+01 -0.23941104488E+01  0.45691381144E+03  0.45696615345E+03  0.00000000000E+00 0.  1.
         11    1    1    2    0    0  0.51992137676E+01 -0.94576093005E+01 -0.49627367666E+03  0.49639101558E+03  0.00000000000E+00 0.  1.
        -15    1    1    2    0    0 -0.93884768815E+01  0.10339308744E+02  0.21259016141E+02  0.25498005799E+02  0.17770000000E+01 0. -1.
         15    1    1    2    0    0  0.10677910756E+02  0.15124110049E+01  0.18100849081E+02  0.21144825173E+02  0.17770000000E+01 0.  1.
</event>
<event>
 6    1  0.1782050E-003  0.5052466E+03  0.7546771E-02  0.9388146E-01
        -11   -1    0    0    0    0  0.00000000000E+00  0.00000000000E+00  0.50000000000E+03  0.50000000000E+03  0.00000000000E+00 0. -1.
         11   -1    0    0    0    0 -0.00000000000E+00 -0.00000000000E+00 -0.50000000000E+03  0.50000000000E+03  0.00000000000E+00 0.  1.
        -11    1    1    2    0    0 -0.14122166656E+02  0.25665060815E+02  0.49388538851E+03  0.49475338091E+03  0.00000000000E+00 0. -1.
         11    1    1    2    0    0  0.23234795418E+01 -0.10416316163E+02 -0.47072378146E+03  0.47084474790E+03  0.00000000000E+00 0.  1.
        -15    1    1    2    0    0  0.10949060093E+02 -0.15549768093E+02 -0.25153964864E+02  0.31584123892E+02  0.17770000000E+01 0.  1.
         15    1    1    2    0    0  0.84962702197E+00  0.30102344080E+00  0.19923578114E+01  0.28177472983E+01  0.17770000000E+01 0. -1.
</event>
<event>
 6    1  0.1782050E-003  0.4859872E+03  0.7546771E-02  0.9431722E-01
        -11   -1    0    0    0    0  0.00000000000E+00  0.00000000000E+00  0.50000000000E+03  0.50000000000E+03  0.00000000000E+00 0.  1.
         11   -1    0    0    0    0 -0.00000000000E+00 -0.00000000000E+00 -0.50000000000E+03  0.50000000000E+03  0.00000000000E+00 0. -1.
        -11    1    1    2    0    0  0.11481986350E+02 -0.31214696150E+01  0.48338669595E+03  0.48353311924E+03  0.00000000000E+00 0.  1.
         11    1    1    2    0    0  0.69103298283E+01 -0.21392514237E+01 -0.48858985792E+03  0.48864340609E+03  0.00000000000E+00 0. -1.
        -15    1    1    2    0    0 -0.17963434638E+02 -0.21398702134E+01 -0.68620619401E+00  0.18190454543E+02  0.17770000000E+01 0.  1.
         15    1    1    2    0    0 -0.42888154012E+00  0.74005912521E+01  0.58893681701E+01  0.96330201235E+01  0.17770000000E+01 0. -1.
</event>
<event>
 6    1  0.1782050E-003  0.5030692E+03  0.7546771E-02  0.9392968E-01
        -11   -1    0    0    0    0  0.00000000000E+00  0.00000000000E+00  0.50000000000E+03  0.50000000000E+03  0.00000000000E+00 0.  1.
         11   -1    0    0    0    0 -0.00000000000E+00 -0.00000000000E+00 -0.50000000000E+03  0.50000000000E+03  0.00000000000E+00 0.  1.
        -11    1    1    2    0    0 -0.48544499539E+01  0.33329159890E+01  0.37411804741E+03  0.37416438554E+03  0.00000000000E+00 0.  1.
         11    1    1    2    0    0  0.69300517199E+01 -0.51960609758E+00 -0.49688219148E+03  0.49693078775E+03  0.00000000000E+00 0.  1.
        -15    1    1    2    0    0  0.18381241775E+02 -0.14465842704E+01  0.64817325644E+02  0.67412210228E+02  0.17770000000E+01 0. -1.
         15    1    1    2    0    0 -0.20456843541E+02 -0.13667256210E+01  0.57946818427E+02  0.61492616479E+02  0.17770000000E+01 0.  1.
</event>
<event>
 6    1  0.1782050E-003  0.5015631E+03  0.7546771E-02  0.9396319E-01
        -11   -1    0    0    0    0  0.00000000000E+00  0.00000000000E+00  0.50000000000E+03  0.50000000000E+03  0.00000000000E+00 0.  1.
         11   -1    0    0    0    0 -0.00000000000E+00 -0.00000000000E+00 -0.50000000000E+03  0.50000000000E+03  0.00000000000E+00 0.  1.
        -11    1    1    2    0    0 -0.28162600994E+01 -0.46119367748E+01  0.38253890653E+03  0.38257707235E+03  0.00000000000E+00 0.  1.
         11    1    1    2    0    0  0.23739252061E+02 -0.40483169029E+01 -0.49785483588E+03  0.49843693540E+03  0.00000000000E+00 0.  1.
        -15    1    1    2    0    0  0.23113660143E+01  0.38503838986E+01  0.31124842588E+02  0.31497324080E+02  0.17770000000E+01 0.  1.
         15    1    1    2    0    0 -0.23234357976E+02  0.48098697791E+01  0.84191086770E+02  0.87488668171E+02  0.17770000000E+01 0. -1.
</event>
<event>
 6    1  0.1782050E-003  0.5070638E+03  0.7546771E-02  0.9384141E-01
        -11   -1    0    0    0    0  0.00000000000E+00  0.00000000000E+00  0.50000000000E+03  0.50000000000E+03  0.00000000000E+00 0. -1.
         11   -1    0    0    0    0 -0.00000000000E+00 -0.00000000000E+00 -0.50000000000E+03  0.50000000000E+03  0.00000000000E+00 0.  1.
        -11    1    1    2    0    0  0.36445857579E+02 -0.26616129000E+02  0.49086599741E+03  0.49293624971E+03  0.00000000000E+00 0. -1.
         11    1    1    2    0    0  0.45415486449E+01 -0.10505701750E+02 -0.31342373397E+03  0.31363263932E+03  0.00000000000E+00 0.  1.
        -15    1    1    2    0    0 -0.27539835609E+02  0.48280411531E+02 -0.10418808327E+03  0.11810061434E+03  0.17770000000E+01 0.  1.
         15    1    1    2    0    0 -0.13447570615E+02 -0.11158580781E+02 -0.73254180178E+02  0.75330496634E+02  0.17770000000E+01 0. -1.
</event>
<event>
 6    1  0.1782050E-003  0.5018409E+03  0.7546771E-02  0.9395700E-01
        -11   -1    0    0    0    0  0.00000000000E+00  0.00000000000E+00  0.50000000000E+03  0.50000000000E+03  0.00000000000E+00 0.  1.
         11   -1    0    0    0    0 -0.00000000000E+00 -0.00000000000E+00 -0.50000000000E+03  0.50000000000E+03  0.00000000000E+00 0. -1.
        -11    1    1    2    0    0  0.13127095346E+02 -0.55196653961E+01  0.49795548060E+03  0.49815905893E+03  0.00000000000E+00 0.  1.
         11    1    1    2    0    0 -0.14927324863E+01  0.55061184376E+01 -0.27391343821E+03  0.27397284030E+03  0.00000000000E+00 0. -1.
        -15    1    1    2    0    0 -0.16856139920E+02  0.75796744980E+01 -0.21098732711E+03  0.21180271681E+03  0.17770000000E+01 0. -1.
         15    1    1    2    0    0  0.52217770608E+01 -0.75661275395E+01 -0.13054715279E+02  0.16065383955E+02  0.17770000000E+01 0.  1.
</event>
<event>
 6    1  0.1782050E-003  0.5038374E+03  0.7546771E-02  0.9391264E-01
        -11   -1    0    0    0    0  0.00000000000E+00  0.00000000000E+00  0.50000000000E+03  0.50000000000E+03  0.00000000000E+00 0.  1.
         11   -1    0    0    0    0 -0.00000000000E+00 -0.00000000000E+00 -0.50000000000E+03  0.50000000000E+03  0.00000000000E+00 0. -1.
        -11    1    1    2    0    0 -0.75894953772E+01  0.17600598290E+01  0.46753991197E+03  0.46760481984E+03  0.00000000000E+00 0.  1.
         11    1    1    2    0    0 -0.54448786383E+01 -0.71007752126E+01 -0.49608192815E+03  0.49616262168E+03  0.00000000000E+00 0. -1.
        -15    1    1    2    0    0  0.15440816966E+02  0.15380673010E+01  0.14245181850E+02  0.21139238741E+02  0.17770000000E+01 0.  1.
         15    1    1    2    0    0 -0.24064429509E+01  0.38026480826E+01  0.14296834331E+02  0.15093319748E+02  0.17770000000E+01 0. -1.
</event>
<event>
 6    1  0.1782050E-003  0.5055113E+03  0.7546771E-02  0.9387561E-01
        -11   -1    0    0    0    0  0.00000000000E+00  0.00000000000E+00  0.50000000000E+03  0.50000000000E+03  0.00000000000E+00 0. -1.
         11   -1    0    0    0    0 -0.00000000000E+00 -0.00000000000E+00 -0.50000000000E+03  0.50000000000E+03  0.00000000000E+00 0.  1.
        -11    1    1    2    0    0  0.22395460627E+02  0.22852676737E+02  0.13085506969E+03  0.13471024740E+03  0.00000000000E+00 0. -1.
         11    1    1    2    0    0 -0.12842749127E+02  0.39243938516E+00 -0.49432172877E+03  0.49448868718E+03  0.00000000000E+00 0.  1.
        -15    1    1    2    0    0 -0.45955891279E+01 -0.23031693326E+02  0.36464151088E+03  0.36540137865E+03  0.17770000000E+01 0. -1.
         15    1    1    2    0    0 -0.49571223719E+01 -0.21342279636E+00 -0.11748517982E+01  0.53996867731E+01  0.17770000000E+01 0.  1.
</event>
<event>
 6    1  0.1782050E-003  0.5033251E+03  0.7546771E-02  0.9392400E-01
        -11   -1    0    0    0    0  0.00000000000E+00  0.00000000000E+00  0.50000000000E+03  0.50000000000E+03  0.00000000000E+00 0.  1.
         11   -1    0    0    0    0 -0.00000000000E+00 -0.00000000000E+00 -0.50000000000E+03  0.50000000000E+03  0.00000000000E+00 0.  1.
        -11    1    1    2    0    0 -0.99458324507E+01  0.48699193513E+01  0.49655145848E+03  0.49667493053E+03  0.00000000000E+00 0.  1.
         11    1    1    2    0    0 -0.19309673486E+02  0.10810018462E+01 -0.34925740837E+03  0.34979246613E+03  0.00000000000E+00 0.  1.
        -15    1    1    2    0    0  0.14567314702E+02 -0.12507736155E+02 -0.12193235976E+03  0.12344759296E+03  0.17770000000E+01 0. -1.
         15    1    1    2    0    0  0.14688191234E+02  0.65568149571E+01 -0.25361690346E+02  0.30085010393E+02  0.17770000000E+01 0.  1.
</event>
<event>
 6    1  0.1782050E-003  0.5004177E+03  0.7546771E-02  0.9398875E-01
        -11   -1    0    0    0    0  0.00000000000E+00  0.00000000000E+00  0.50000000000E+03  0.50000000000E+03  0.00000000000E+00 0.  1.
         11   -1    0    0    0    0 -0.00000000000E+00 -0.00000000000E+00 -0.50000000000E+03  0.50000000000E+03  0.00000000000E+00 0. -1.
        -11    1    1    2    0    0 -0.58484801705E+01  0.95444984749E+01  0.49945684820E+03  0.49958227089E+03  0.00000000000E+00 0.  1.
         11    1    1    2    0    0  0.67584505928E+01 -0.41082336598E+01 -0.32510532339E+03  0.32520151527E+03  0.00000000000E+00 0. -1.
        -15    1    1    2    0    0  0.11084643828E+01  0.50753191640E+01 -0.90378705876E+02  0.90545324356E+02  0.17770000000E+01 0. -1.
         15    1    1    2    0    0 -0.20184348050E+01 -0.10511583979E+02 -0.83972818936E+02  0.84670889483E+02  0.17770000000E+01 0.  1.
</event>
<event>
 6    1  0.1782050E-003  0.5268147E+03  0.7546771E-02  0.9341731E-01
        -11   -1    0    0    0    0  0.00000000000E+00  0.00000000000E+00  0.50000000000E+03  0.50000000000E+03  0.00000000000E+00 0. -1.
         11   -1    0    0    0    0 -0.00000000000E+00 -0.00000000000E+00 -0.50000000000E+03  0.50000000000E+03  0.00000000000E+00 0. -1.
        -11    1    1    2    0    0 -0.36717449340E+02  0.21195956228E+02  0.47128219683E+03  0.47318532173E+03  0.00000000000E+00 0. -1.
         11    1    1    2    0    0 -0.37278941086E+00  0.24070970702E+02 -0.37743666412E+03  0.37820363037E+03  0.00000000000E+00 0. -1.
        -15    1    1    2    0    0 -0.12158423284E+02 -0.16945178822E+02 -0.89154292321E+02  0.91578446756E+02  0.17770000000E+01 0. -1.
         15    1    1    2    0    0  0.49248662035E+02 -0.28321748108E+02 -0.46912403910E+01  0.57032601146E+02  0.17770000000E+01 0.  1.
</event>
<event>
 6    1  0.1782050E-003  0.5000821E+03  0.7546771E-02  0.9399626E-01
        -11   -1    0    0    0    0  0.00000000000E+00  0.00000000000E+00  0.50000000000E+03  0.50000000000E+03  0.00000000000E+00 0. -1.
         11   -1    0    0    0    0 -0.00000000000E+00 -0.00000000000E+00 -0.50000000000E+03  0.50000000000E+03  0.00000000000E+00 0.  1.
        -11    1    1    2    0    0  0.65263680788E+00  0.75436994541E+01  0.49986059932E+03  0.49991794536E+03  0.00000000000E+00 0. -1.
         11    1    1    2    0    0 -0.64552796752E+00  0.11414839344E+01 -0.45455635798E+02  0.45474548021E+02  0.00000000000E+00 0.  1.
        -15    1    1    2    0    0  0.92792987075E+00  0.15970265568E+01 -0.15093890042E+03  0.15096066023E+03  0.17770000000E+01 0.  1.
         15    1    1    2    0    0 -0.93503871110E+00 -0.10282209945E+02 -0.30346606310E+03  0.30364684639E+03  0.17770000000E+01 0.  1.
</event>
<event>
 6    1  0.1782050E-003  0.5037679E+03  0.7546771E-02  0.9391418E-01
        -11   -1    0    0    0    0  0.00000000000E+00  0.00000000000E+00  0.50000000000E+03  0.50000000000E+03  0.00000000000E+00 0.  1.
         11   -1    0    0    0    0 -0.00000000000E+00 -0.00000000000E+00 -0.50000000000E+03  0.50000000000E+03  0.00000000000E+00 0.  1.
        -11    1    1    2    0    0 -0.24303609662E+02 -0.14170055854E+02  0.49543399416E+03  0.49623210143E+03  0.00000000000E+00 0.  1.
         11    1    1    2    0    0 -0.57167872359E+00 -0.57507336868E+01 -0.36356910595E+03  0.36361503346E+03  0.00000000000E+00 0.  1.
        -15    1    1    2    0    0  0.49021977896E+01  0.25379256158E+02 -0.60276417243E+02  0.65609011507E+02  0.17770000000E+01 0. -1.
         15    1    1    2    0    0  0.19973090596E+02 -0.54584666178E+01 -0.71588470967E+02  0.74543853604E+02  0.17770000000E+01 0.  1.
</event>
<event>
 6    1  0.1782050E-003  0.5021352E+03  0.7546771E-02  0.9395045E-01
        -11   -1    0    0    0    0  0.00000000000E+00  0.00000000000E+00  0.50000000000E+03  0.50000000000E+03  0.00000000000E+00 0. -1.
         11   -1    0    0    0    0 -0.00000000000E+00 -0.00000000000E+00 -0.50000000000E+03  0.50000000000E+03  0.00000000000E+00 0. -1.
        -11    1    1    2    0    0 -0.67119797777E+00  0.71275079239E+01  0.49781331786E+03  0.49786479220E+03  0.00000000000E+00 0. -1.
         11    1    1    2    0    0  0.88836096819E+01 -0.61546056262E+01 -0.46161609178E+03  0.46174258400E+03  0.00000000000E+00 0. -1.
        -15    1    1    2    0    0 -0.18818523187E+01 -0.63810326299E+01 -0.63924493947E+01  0.93957481787E+01  0.17770000000E+01 0.  1.
         15    1    1    2    0    0 -0.63305593854E+01  0.54081303323E+01 -0.29804776686E+02  0.30996875618E+02  0.17770000000E+01 0.  1.
</event>
<event>
 6    1  0.1782050E-003  0.5033884E+03  0.7546771E-02  0.9392260E-01
        -11   -1    0    0    0    0  0.00000000000E+00  0.00000000000E+00  0.50000000000E+03  0.50000000000E+03  0.00000000000E+00 0.  1.
         11   -1    0    0    0    0 -0.00000000000E+00 -0.00000000000E+00 -0.50000000000E+03  0.50000000000E+03  0.00000000000E+00 0. -1.
        -11    1    1    2    0    0  0.13898679653E+02 -0.31047567330E+01  0.49640734752E+03  0.49661158614E+03  0.00000000000E+00 0.  1.
         11    1    1    2    0    0  0.53484921801E+00  0.81947608993E+01 -0.34604212196E+03  0.34613955328E+03  0.00000000000E+00 0. -1.
        -15    1    1    2    0    0 -0.94180503947E+01  0.29353755251E+01 -0.43673315590E+01  0.10933774127E+02  0.17770000000E+01 0.  1.
         15    1    1    2    0    0 -0.50154784767E+01 -0.80253796914E+01 -0.14599789400E+03  0.14631508646E+03  0.17770000000E+01 0. -1.
</event>
<event>
 6    1  0.1782050E-003  0.5180693E+03  0.7546771E-02  0.9360262E-01
        -11   -1    0    0    0    0  0.00000000000E+00  0.00000000000E+00  0.50000000000E+03  0.50000000000E+03  0.00000000000E+00 0.  1.
         11   -1    0    0    0    0 -0.00000000000E+00 -0.00000000000E+00 -0.50000000000E+03  0.50000000000E+03  0.00000000000E+00 0. -1.
        -11    1    1    2    0    0 -0.87857289456E+00 -0.15028803086E+02  0.48169549265E+03  0.48193068428E+03  0.00000000000E+00 0.  1.
         11    1    1    2    0    0 -0.22501806340E+02  0.20641557155E+02 -0.44604603107E+03  0.44708999877E+03  0.00000000000E+00 0. -1.
        -15    1    1    2    0    0  0.30199648759E+02 -0.11473777341E+02 -0.46580002241E+02  0.56714378154E+02  0.17770000000E+01 0. -1.
         15    1    1    2    0    0 -0.68192695249E+01  0.58610232715E+01  0.10930540658E+02  0.14264938791E+02  0.17770000000E+01 0.  1.
</event>
<event>
 6    1  0.1782050E-003  0.5326732E+03  0.7546771E-02  0.9329530E-01
        -11   -1    0    0    0    0  0.00000000000E+00  0.00000000000E+00  0.50000000000E+03  0.50000000000E+03  0.00000000000E+00 0.  1.
         11   -1    0    0    0    0 -0.00000000000E+00 -0.00000000000E+00 -0.50000000000E+03  0.50000000000E+03  0.00000000000E+00 0.  1.
        -11    1    1    2    0    0 -0.15553559889E+02 -0.63472176996E+01  0.46702481009E+03  0.46732683814E+03  0.00000000000E+00 0.  1.
         11    1    1    2    0    0  0.31306904241E+02 -0.15248312321E+01 -0.24679163619E+03  0.24877411251E+03  0.00000000000E+00 0.  1.
        -15    1    1    2    0    0  0.10705876392E+02  0.89319826422E+01  0.29543387561E+02  0.32716442056E+02  0.17770000000E+01 0. -1.
         15    1    1    2    0    0 -0.26459220743E+02 -0.10599337105E+01 -0.24977656146E+03  0.25118260729E+03  0.17770000000E+01 0.  1.
</event>
<event>
 6    1  0.1782050E-003  0.5031285E+03  0.7546771E-02  0.9392837E-01
        -11   -1    0    0    0    0  0.00000000000E+00  0.00000000000E+00  0.50000000000E+03  0.50000000000E+03  0.00000000000E+00 0.  1.
         11   -1    0    0    0    0 -0.00000000000E+00 -0.00000000000E+00 -0.50000000000E+03  0.50000000000E+03  0.00000000000E+00 0. -1.
        -11    1    1    2    0    0 -0.97091865762E+01  0.85673250550E+01  0.49670276774E+03  0.49687151946E+03  0.00000000000E+00 0.  1.
         11    1    1    2    0    0  0.19883240446E+01 -0.10978980531E+02 -0.32466356669E+03  0.32485523389E+03  0.00000000000E+00 0. -1.
        -15    1    1    2    0    0  0.37036835735E+00 -0.16936023081E+02 -0.13267729657E+03  0.13376617212E+03  0.17770000000E+01 0.  1.
         15    1    1    2    0    0  0.73504941743E+01  0.19347678557E+02 -0.39361904478E+02  0.44507074531E+02  0.17770000000E+01 0. -1.
</event>
<event>
 6    1  0.1782050E-003  0.5045006E+03  0.7546771E-02  0.9389795E-01
        -11   -1    0    0    0    0  0.00000000000E+00  0.00000000000E+00  0.50000000000E+03  0.50000000000E+03  0.00000000000E+00 0. -1.
         11   -1    0    0    0    0 -0.00000000000E+00 -0.00000000000E+00 -0.50000000000E+03  0.50000000000E+03  0.00000000000E+00 0.  1.
        -11    1    1    2    0    0 -0.31194801765E+01 -0.13658828325E+02  0.43657320554E+03  0.43679796078E+03  0.00000000000E+00 0. -1.
         11    1    1    2    0    0 -0.64655345298E+01  0.32668170790E+01 -0.49544642272E+03  0.49549937741E+03  0.00000000000E+00 0.  1.
        -15    1    1    2    0    0  0.11034677321E+02  0.11342002974E+02  0.10079117891E+02  0.18845463154E+02  0.17770000000E+01 0. -1.
         15    1    1    2    0    0 -0.14496626146E+01 -0.94999172837E+00  0.48794099289E+02  0.48857198654E+02  0.17770000000E+01 0.  1.
</event>
<event>
 6    1  0.2245191E-003  0.5354454E+03  0.7546771E-02  0.9323814E-01
        -11   -1    0    0    0    0  0.00000000000E+00  0.00000000000E+00  0.50000000000E+03  0.50000000000E+03  0.00000000000E+00 0.  1.
         11   -1    0    0    0    0 -0.00000000000E+00 -0.00000000000E+00 -0.50000000000E+03  0.50000000000E+03  0.00000000000E+00 0. -1.
        -11    1    1    2    0    0  0.84247897323E+00 -0.85118057638E+01  0.46447582301E+03  0.46455457244E+03  0.00000000000E+00 0.  1.
         11    1    1    2    0    0  0.55242573444E+01  0.27433064035E+02 -0.44438382512E+03  0.44526405025E+03  0.00000000000E+00 0. -1.
        -15    1    1    2    0    0  0.45345830526E+01  0.35750110865E+01  0.31898594107E+02  0.32465692396E+02  0.17770000000E+01 0.  1.
         15    1    1    2    0    0 -0.10901319370E+02 -0.22496269358E+02 -0.51990592007E+02  0.57715684915E+02  0.17770000000E+01 0. -1.
</event>
<event>
 6    1  0.1782050E-003  0.5158079E+03  0.7546771E-02  0.9365117E-01
        -11   -1    0    0    0    0  0.00000000000E+00  0.00000000000E+00  0.50000000000E+03  0.50000000000E+03  0.00000000000E+00 0. -1.
         11   -1    0    0    0    0 -0.00000000000E+00 -0.00000000000E+00 -0.50000000000E+03  0.50000000000E+03  0.00000000000E+00 0.  1.
        -11    1    1    2    0    0  0.29263447939E+01  0.71800323783E+01  0.48413002084E+03  0.48419210386E+03  0.00000000000E+00 0. -1.
         11    1    1    2    0    0 -0.24115172905E+02  0.22767500685E+01 -0.44305247146E+03  0.44371411699E+03  0.00000000000E+00 0.  1.
        -15    1    1    2    0    0  0.42352855069E+01 -0.27368460655E+02 -0.38176974136E+02  0.47197556771E+02  0.17770000000E+01 0.  1.
         15    1    1    2    0    0  0.16953542605E+02  0.17911678208E+02 -0.29005752455E+01  0.24896222380E+02  0.17770000000E+01 0. -1.
</event>
<event>
 6    1  0.1782050E-003  0.5018572E+03  0.7546771E-02  0.9395664E-01
        -11   -1    0    0    0    0  0.00000000000E+00  0.00000000000E+00  0.50000000000E+03  0.50000000000E+03  0.00000000000E+00 0.  1.
         11   -1    0    0    0    0 -0.00000000000E+00 -0.00000000000E+00 -0.50000000000E+03  0.50000000000E+03  0.00000000000E+00 0.  1.
        -11    1    1    2    0    0 -0.69798479900E+01 -0.10365479512E+01  0.49809282059E+03  0.49814280144E+03  0.00000000000E+00 0.  1.
         11    1    1    2    0    0 -0.22577267810E+01  0.56903779676E+01 -0.32744649026E+03  0.32750371252E+03  0.00000000000E+00 0.  1.
        -15    1    1    2    0    0  0.46489766977E+01 -0.56292088138E+01 -0.16886214401E+03  0.16902923530E+03  0.17770000000E+01 0.  1.
         15    1    1    2    0    0  0.45885980734E+01  0.97537879738E+00 -0.17841863140E+01  0.53242507342E+01  0.17770000000E+01 0. -1.
</event>
<event>
 6    1  0.1782050E-003  0.5013045E+03  0.7546771E-02  0.9396896E-01
        -11   -1    0    0    0    0  0.00000000000E+00  0.00000000000E+00  0.50000000000E+03  0.50000000000E+03  0.00000000000E+00 0.  1.
         11   -1    0    0    0    0 -0.00000000000E+00 -0.00000000000E+00 -0.50000000000E+03  0.50000000000E+03  0.00000000000E+00 0.  1.
        -11    1    1    2    0    0 -0.89755763145E+01 -0.26446866422E+02  0.49791289078E+03  0.49869554291E+03  0.00000000000E+00 0.  1.
         11    1    1    2    0    0 -0.27373767280E+01  0.12973394112E+01 -0.10515280560E+03  0.10519642982E+03  0.00000000000E+00 0.  1.
        -15    1    1    2    0    0 -0.50560672977E+01  0.23670933075E+02 -0.10168942237E+03  0.10454555582E+03  0.17770000000E+01 0.  1.
         15    1    1    2    0    0  0.16769020340E+02  0.14785939351E+01 -0.29107066281E+03  0.29156247146E+03  0.17770000000E+01 0. -1.
</event>
<event>
 6    1  0.1782050E-003  0.5050252E+03  0.7546771E-02  0.9388635E-01
        -11   -1    0    0    0    0  0.00000000000E+00  0.00000000000E+00  0.50000000000E+03  0.50000000000E+03  0.00000000000E+00 0.  1.
         11   -1    0    0    0    0 -0.00000000000E+00 -0.00000000000E+00 -0.50000000000E+03  0.50000000000E+03  0.00000000000E+00 0. -1.
        -11    1    1    2    0    0  0.73979657010E+01  0.11712818471E+02  0.49478085702E+03  0.49497476349E+03  0.00000000000E+00 0.  1.
         11    1    1    2    0    0  0.52238696900E+01  0.37646850428E+01 -0.21470505338E+03  0.21480158662E+03  0.00000000000E+00 0. -1.
        -15    1    1    2    0    0 -0.16293835685E+02  0.43599860119E+00 -0.91037583012E+01  0.18754074766E+02  0.17770000000E+01 0.  1.
         15    1    1    2    0    0  0.36720002938E+01 -0.15913502115E+02 -0.27097204534E+03  0.27146957513E+03  0.17770000000E+01 0. -1.
</event>
<event>
 6    1  0.1782050E-003  0.5006628E+03  0.7546771E-02  0.9398328E-01
        -11   -1    0    0    0    0  0.00000000000E+00  0.00000000000E+00  0.50000000000E+03  0.50000000000E+03  0.00000000000E+00 0.  1.
         11   -1    0    0    0    0 -0.00000000000E+00 -0.00000000000E+00 -0.50000000000E+03  0.50000000000E+03  0.00000000000E+00 0.  1.
        -11    1    1    2    0    0 -0.56405947780E+01 -0.38210289047E+01  0.37789756464E+03  0.37795897388E+03  0.00000000000E+00 0.  1.
         11    1    1    2    0    0  0.74197648518E+01 -0.54037685334E+00 -0.49928177455E+03  0.49933719601E+03  0.00000000000E+00 0.  1.
        -15    1    1    2    0    0 -0.79108857021E+01  0.29823317273E+01  0.34162010769E+02  0.35237439235E+02  0.17770000000E+01 0.  1.
         15    1    1    2    0    0  0.61317156283E+01  0.13790740308E+01  0.87222199139E+02  0.87466390879E+02  0.17770000000E+01 0. -1.
</event>
<event>
 6    1  0.1782050E-003  0.5051017E+03  0.7546771E-02  0.9388466E-01
        -11   -1    0    0    0    0  0.00000000000E+00  0.00000000000E+00  0.50000000000E+03  0.50000000000E+03  0.00000000000E+00 0. -1.
         11   -1    0    0    0    0 -0.00000000000E+00 -0.00000000000E+00 -0.50000000000E+03  0.50000000000E+03  0.00000000000E+00 0.  1.
        -11    1    1    2    0    0 -0.12228862736E+02 -0.10319775601E+01  0.26412532067E+03  0.26441027794E+03  0.00000000000E+00 0. -1.
         11    1    1    2    0    0  0.11260054394E+02  0.67194921232E+01 -0.49472458988E+03  0.49489833323E+03  0.00000000000E+00 0.  1.
        -15    1    1    2    0    0  0.16404152620E+02 -0.10979654058E+02  0.22056440373E+03  0.22145307167E+03  0.17770000000E+01 0.  1.
         15    1    1    2    0    0 -0.15435344277E+02  0.52921394945E+01  0.10034865475E+02  0.19238317169E+02  0.17770000000E+01 0. -1.
</event>
<event>
 6    1  0.1782050E-003  0.5022186E+03  0.7546771E-02  0.9394859E-01
        -11   -1    0    0    0    0  0.00000000000E+00  0.00000000000E+00  0.50000000000E+03  0.50000000000E+03  0.00000000000E+00 0.  1.
         11   -1    0    0    0    0 -0.00000000000E+00 -0.00000000000E+00 -0.50000000000E+03  0.50000000000E+03  0.00000000000E+00 0. -1.
        -11    1    1    2    0    0  0.57607525288E+01 -0.82597577542E+01  0.38087219941E+03  0.38100530462E+03  0.00000000000E+00 0.  1.
         11    1    1    2    0    0 -0.84090887103E+01 -0.13759396047E+02 -0.49752016877E+03  0.49778143004E+03  0.00000000000E+00 0. -1.
        -15    1    1    2    0    0  0.56448352198E+01  0.12292136799E+02  0.21216811341E+02  0.25224424755E+02  0.17770000000E+01 0.  1.
         15    1    1    2    0    0 -0.29964990383E+01  0.97270170022E+01  0.95431158025E+02  0.95988840587E+02  0.17770000000E+01 0. -1.
</event>
<event>
 6    1  0.1782050E-003  0.5306387E+03  0.7546771E-02  0.9333748E-01
        -11   -1    0    0    0    0  0.00000000000E+00  0.00000000000E+00  0.50000000000E+03  0.50000000000E+03  0.00000000000E+00 0. -1.
         11   -1    0    0    0    0 -0.00000000000E+00 -0.00000000000E+00 -0.50000000000E+03  0.50000000000E+03  0.00000000000E+00 0.  1.
        -11    1    1    2    0    0  0.12745744602E+02  0.11182013814E+02  0.46905489891E+03  0.46936125706E+03  0.00000000000E+00 0. -1.
         11    1    1    2    0    0  0.17283309563E+02 -0.31430613352E+02 -0.28318116070E+03  0.28544380537E+03  0.00000000000E+00 0.  1.
        -15    1    1    2    0    0 -0.18764294563E+02  0.14438450157E+02  0.24683482971E+02  0.34249082527E+02  0.17770000000E+01 0. -1.
         15    1    1    2    0    0 -0.11264759602E+02  0.58101493809E+01 -0.21055722118E+03  0.21094585505E+03  0.17770000000E+01 0.  1.
</event>
<event>
 6    1  0.1782050E-003  0.5080265E+03  0.7546771E-02  0.9382027E-01
        -11   -1    0    0    0    0  0.00000000000E+00  0.00000000000E+00  0.50000000000E+03  0.50000000000E+03  0.00000000000E+00 0. -1.
         11   -1    0    0    0    0 -0.00000000000E+00 -0.00000000000E+00 -0.50000000000E+03  0.50000000000E+03  0.00000000000E+00 0. -1.
        -11    1    1    2    0    0  0.55011263134E+01  0.45895594888E+01  0.49192133411E+03  0.49197350071E+03  0.00000000000E+00 0. -1.
         11    1    1    2    0    0 -0.12481011333E+02 -0.20495762069E+01 -0.46762090257E+03  0.46779192482E+03  0.00000000000E+00 0. -1.
        -15    1    1    2    0    0  0.33141450154E+01 -0.80468167388E+00 -0.31526265143E+02  0.31759946358E+02  0.17770000000E+01 0. -1.
         15    1    1    2    0    0  0.36657400042E+01 -0.17353016080E+01  0.72258335986E+01  0.84746281124E+01  0.17770000000E+01 0.  1.
</event>
<event>
 6    1  0.1782050E-003  0.5110126E+03  0.7546771E-02  0.9375500E-01
        -11   -1    0    0    0    0  0.00000000000E+00  0.00000000000E+00  0.50000000000E+03  0.50000000000E+03  0.00000000000E+00 0.  1.
         11   -1    0    0    0    0 -0.00000000000E+00 -0.00000000000E+00 -0.50000000000E+03  0.50000000000E+03  0.00000000000E+00 0. -1.
        -11    1    1    2    0    0  0.77903156996E+01 -0.14656544063E+01  0.48892312466E+03  0.48898738121E+03  0.00000000000E+00 0.  1.
         11    1    1    2    0    0  0.12881897499E+02  0.88338211010E+01 -0.13808928521E+03  0.13896989015E+03  0.00000000000E+00 0. -1.
        -15    1    1    2    0    0 -0.49955133359E+01 -0.49960194424E+01  0.91553603020E+01  0.11700158760E+02  0.17770000000E+01 0.  1.
         15    1    1    2    0    0 -0.15676699863E+02 -0.23721472523E+01 -0.35998919975E+03  0.36034256988E+03  0.17770000000E+01 0. -1.
</event>
<event>
 6    1  0.1782050E-003  0.5026795E+03  0.7546771E-02  0.9393834E-01
        -11   -1    0    0    0    0  0.00000000000E+00  0.00000000000E+00  0.50000000000E+03  0.50000000000E+03  0.00000000000E+00 0. -1.
         11   -1    0    0    0    0 -0.00000000000E+00 -0.00000000000E+00 -0.50000000000E+03  0.50000000000E+03  0.00000000000E+00 0.  1.
        -11    1    1    2    0    0  0.67170314774E+01  0.31266649473E+01  0.49726526929E+03  0.49732046267E+03  0.00000000000E+00 0. -1.
         11    1    1    2    0    0  0.29807061754E+01  0.14083014122E+02 -0.42884110948E+03  0.42908264131E+03  0.00000000000E+00 0.  1.
        -15    1    1    2    0    0 -0.40706022973E+01  0.16424012607E+01 -0.39571006929E+01  0.61711959827E+01  0.17770000000E+01 0. -1.
         15    1    1    2    0    0 -0.56271353555E+01 -0.18852080330E+02 -0.64467059121E+02  0.67425700039E+02  0.17770000000E+01 0.  1.
</event>
<event>
 6    1  0.1782050E-003  0.5088196E+03  0.7546771E-02  0.9380289E-01
        -11   -1    0    0    0    0  0.00000000000E+00  0.00000000000E+00  0.50000000000E+03  0.50000000000E+03  0.00000000000E+00 0.  1.
         11   -1    0    0    0    0 -0.00000000000E+00 -0.00000000000E+00 -0.50000000000E+03  0.50000000000E+03  0.00000000000E+00 0.  1.
        -11    1    1    2    0    0  0.33338367292E+01 -0.11914535325E+02  0.34278750391E+03  0.34301070458E+03  0.00000000000E+00 0.  1.
         11    1    1    2    0    0 -0.48413060365E+01 -0.49902288013E+01 -0.49113116608E+03  0.49118037718E+03  0.00000000000E+00 0.  1.
        -15    1    1    2    0    0  0.98094055370E+01  0.48692307447E+01  0.15051298939E+03  0.15092134226E+03  0.17770000000E+01 0.  1.
         15    1    1    2    0    0 -0.83019362297E+01  0.12035533382E+02 -0.21693272214E+01  0.14887575979E+02  0.17770000000E+01 0. -1.
</event>
<event>
 6    1  0.1782050E-003  0.5004959E+03  0.7546771E-02  0.9398701E-01
        -11   -1    0    0    0    0  0.00000000000E+00  0.00000000000E+00  0.50000000000E+03  0.50000000000E+03  0.00000000000E+00 0. -1.
         11   -1    0    0    0    0 -0.00000000000E+00 -0.00000000000E+00 -0.50000000000E+03  0.50000000000E+03  0.00000000000E+00 0.  1.
        -11    1    1    2    0    0 -0.39468119975E+01  0.43415884163E+01  0.42156560881E+03  0.42160643881E+03  0.00000000000E+00 0. -1.
         11    1    1    2    0    0  0.53461655226E+01 -0.47013420874E+01 -0.49945335491E+03  0.49950409191E+03  0.00000000000E+00 0.  1.
        -15    1    1    2    0    0 -0.56044164832E+01  0.34110714018E+01  0.35226543862E+02  0.35876343371E+02  0.17770000000E+01 0.  1.
         15    1    1    2    0    0  0.42050629582E+01 -0.30513177307E+01  0.42661202246E+02  0.43013125909E+02  0.17770000000E+01 0. -1.
</event>
<event>
 6    1  0.1782050E-003  0.5193518E+03  0.7546771E-02  0.9357520E-01
        -11   -1    0    0    0    0  0.00000000000E+00  0.00000000000E+00  0.50000000000E+03  0.50000000000E+03  0.00000000000E+00 0.  1.
         11   -1    0    0    0    0 -0.00000000000E+00 -0.00000000000E+00 -0.50000000000E+03  0.50000000000E+03  0.00000000000E+00 0.  1.
        -11    1    1    2    0    0  0.27865679301E+02 -0.24068268387E+01  0.33397057275E+03  0.33513972066E+03  0.00000000000E+00 0.  1.
         11    1    1    2    0    0  0.21253496163E+02 -0.39969945219E+02 -0.47851161504E+03  0.48064818043E+03  0.00000000000E+00 0.  1.
        -15    1    1    2    0    0 -0.64919440625E+02  0.62641951069E+01  0.51405620898E+02  0.83063045335E+02  0.17770000000E+01 0. -1.
         15    1    1    2    0    0  0.15800265161E+02  0.36112576951E+02  0.93135421390E+02  0.10114905358E+03  0.17770000000E+01 0.  1.
</event>
<event>
 6    1  0.1782050E-003  0.5331745E+03  0.7546771E-02  0.9328493E-01
        -11   -1    0    0    0    0  0.00000000000E+00  0.00000000000E+00  0.50000000000E+03  0.50000000000E+03  0.00000000000E+00 0. -1.
         11   -1    0    0    0    0 -0.00000000000E+00 -0.00000000000E+00 -0.50000000000E+03  0.50000000000E+03  0.00000000000E+00 0. -1.
        -11    1    1    2    0    0  0.21175555289E+01 -0.87794855070E+01  0.46673818076E+03  0.46682554856E+03  0.00000000000E+00 0. -1.
         11    1    1    2    0    0  0.22487569838E+02 -0.68227528226E+00 -0.33392369937E+03  0.33468073338E+03  0.00000000000E+00 0. -1.
        -15    1    1    2    0    0 -0.68680137972E+01  0.58691625044E+02 -0.13363673375E+03  0.14612943167E+03  0.17770000000E+01 0.  1.
         15    1    1    2    0    0 -0.17737111570E+02 -0.49229864255E+02  0.82225235680E+00  0.52364286392E+02  0.17770000000E+01 0. -1.
</event>
<event>
 6    1  0.1782050E-003  0.5228175E+03  0.7546771E-02  0.9350153E-01
        -11   -1    0    0    0    0  0.00000000000E+00  0.00000000000E+00  0.50000000000E+03  0.50000000000E+03  0.00000000000E+00 0.  1.
         11   -1    0    0    0    0 -0.00000000000E+00 -0.00000000000E+00 -0.50000000000E+03  0.50000000000E+03  0.00000000000E+00 0. -1.
        -11    1    1    2    0    0  0.61216533580E+01 -0.14452497660E+01  0.41945379166E+03  0.41950094961E+03  0.00000000000E+00 0.  1.
         11    1    1    2    0    0  0.60194856390E+01  0.47131009411E+01 -0.47712123661E+03  0.47718248287E+03  0.00000000000E+00 0. -1.
        -15    1    1    2    0    0 -0.26465297447E+01  0.40307808040E+02  0.21051810178E+02  0.45585742830E+02  0.17770000000E+01 0. -1.
         15    1    1    2    0    0 -0.94946092522E+01 -0.43575659215E+02  0.36615634780E+02  0.57730824697E+02  0.17770000000E+01 0.  1.
</event>
<event>
 6    1  0.1782050E-003  0.5025165E+03  0.7546771E-02  0.9394196E-01
        -11   -1    0    0    0    0  0.00000000000E+00  0.00000000000E+00  0.50000000000E+03  0.50000000000E+03  0.00000000000E+00 0. -1.
         11   -1    0    0    0    0 -0.00000000000E+00 -0.00000000000E+00 -0.50000000000E+03  0.50000000000E+03  0.00000000000E+00 0. -1.
        -11    1    1    2    0    0  0.41350267121E+01 -0.88007078103E+01  0.49738845401E+03  0.49748349227E+03  0.00000000000E+00 0. -1.
         11    1    1    2    0    0  0.63354446629E+01 -0.39705748470E+01 -0.43685448208E+03  0.43691846131E+03  0.00000000000E+00 0. -1.
        -15    1    1    2    0    0 -0.37249093397E+01  0.66773060491E+01 -0.53220238456E+02  0.53796030299E+02  0.17770000000E+01 0. -1.
         15    1    1    2    0    0 -0.67455620354E+01  0.60939766083E+01 -0.73137334759E+01  0.11802016117E+02  0.17770000000E+01 0.  1.
</event>
<event>
 6    1  0.1782050E-003  0.4712671E+03  0.7546771E-02  0.9466501E-01
        -11   -1    0    0    0    0  0.00000000000E+00  0.00000000000E+00  0.50000000000E+03  0.50000000000E+03  0.00000000000E+00 0. -1.
         11   -1    0    0    0    0 -0.00000000000E+00 -0.00000000000E+00 -0.50000000000E+03  0.50000000000E+03  0.00000000000E+00 0.  1.
        -11    1    1    2    0    0  0.12531319022E+02  0.23193235698E+01  0.46651632142E+03  0.46669035920E+03  0.00000000000E+00 0. -1.
         11    1    1    2    0    0  0.12105602026E+02  0.28807836482E+01 -0.47606595769E+03  0.47622855919E+03  0.00000000000E+00 0.  1.
        -15    1    1    2    0    0 -0.12066078592E+02 -0.16331726825E+01  0.30182187729E+02  0.32594166513E+02  0.17770000000E+01 0. -1.
         15    1    1    2    0    0 -0.12570842456E+02 -0.35669345354E+01 -0.20632551458E+02  0.24486915092E+02  0.17770000000E+01 0. -1.
</event>
<event>
 6    1  0.1782050E-003  0.5027905E+03  0.7546771E-02  0.9393587E-01
        -11   -1    0    0    0    0  0.00000000000E+00  0.00000000000E+00  0.50000000000E+03  0.50000000000E+03  0.00000000000E+00 0. -1.
         11   -1    0    0    0    0 -0.00000000000E+00 -0.00000000000E+00 -0.50000000000E+03  0.50000000000E+03  0.00000000000E+00 0.  1.
        -11    1    1    2    0    0  0.47073879129E+01  0.21375211777E+02  0.49672753041E+03  0.49720951182E+03  0.00000000000E+00 0. -1.
         11    1    1    2    0    0  0.39355706033E+01  0.93145149099E+01 -0.28095237408E+03  0.28113428358E+03  0.00000000000E+00 0.  1.
        -15    1    1    2    0    0  0.13474253750E+02 -0.73061278133E+01 -0.11003515503E+03  0.11111178195E+03  0.17770000000E+01 0. -1.
         15    1    1    2    0    0 -0.22117212267E+02 -0.23383598873E+02 -0.10574000130E+03  0.11054442265E+03  0.17770000000E+01 0.  1.
</event>
<event>
 6    1  0.1782050E-003  0.5022685E+03  0.7546771E-02  0.9394748E-01
        -11   -1    0    0    0    0  0.00000000000E+00  0.00000000000E+00  0.50000000000E+03  0.50000000000E+03  0.00000000000E+00 0.  1.
         11   -1    0    0    0    0 -0.00000000000E+00 -0.00000000000E+00 -0.50000000000E+03  0.50000000000E+03  0.00000000000E+00 0. -1.
        -11    1    1    2    0    0 -0.87654690941E+01 -0.13055919071E+02  0.49748297293E+03  0.49773145252E+03  0.00000000000E+00 0.  1.
         11    1    1    2    0    0 -0.26040064763E+01  0.88689894700E+01 -0.46285006502E+03  0.46294235334E+03  0.00000000000E+00 0. -1.
        -15    1    1    2    0    0  0.12335872828E+02  0.47423725202E+01 -0.34754566117E+02  0.37225011088E+02  0.17770000000E+01 0.  1.
         15    1    1    2    0    0 -0.96639725738E+00 -0.55544291912E+00  0.12165820334E+00  0.21011830510E+01  0.17770000000E+01 0.  1.
</event>
<event>
 6    1  0.1782050E-003  0.5133868E+03  0.7546771E-02  0.9370344E-01
        -11   -1    0    0    0    0  0.00000000000E+00  0.00000000000E+00  0.50000000000E+03  0.50000000000E+03  0.00000000000E+00 0. -1.
         11   -1    0    0    0    0 -0.00000000000E+00 -0.00000000000E+00 -0.50000000000E+03  0.50000000000E+03  0.00000000000E+00 0.  1.
        -11    1    1    2    0    0 -0.51953992116E+01 -0.40651691451E+01  0.38090599024E+03  0.38096310999E+03  0.00000000000E+00 0. -1.
         11    1    1    2    0    0  0.12429988453E+02  0.13433505382E+02 -0.48626891360E+03  0.48661321397E+03  0.00000000000E+00 0.  1.
        -15    1    1    2    0    0 -0.77690198562E+01 -0.35316692537E+02  0.16419822833E+02  0.39754179053E+02  0.17770000000E+01 0. -1.
         15    1    1    2    0    0  0.53443061512E+00  0.25948356300E+02  0.88943100524E+02  0.92669496980E+02  0.17770000000E+01 0.  1.
</event>
<event>
 6    1  0.1782050E-003  0.5018186E+03  0.7546771E-02  0.9395750E-01
        -11   -1    0    0    0    0  0.00000000000E+00  0.00000000000E+00  0.50000000000E+03  0.50000000000E+03  0.00000000000E+00 0.  1.
         11   -1    0    0    0    0 -0.00000000000E+00 -0.00000000000E+00 -0.50000000000E+03  0.50000000000E+03  0.00000000000E+00 0.  1.
        -11    1    1    2    0    0  0.68305254787E+01  0.17588531815E+01  0.49813150307E+03  0.49818143682E+03  0.00000000000E+00 0.  1.
         11    1    1    2    0    0 -0.81571344515E+01  0.26328691369E+01 -0.38052204765E+03  0.38061857494E+03  0.00000000000E+00 0.  1.
        -15    1    1    2    0    0  0.32443706903E+01 -0.72643601826E+01 -0.11698160359E+03  0.11726529826E+03  0.17770000000E+01 0.  1.
         15    1    1    2    0    0 -0.19177617175E+01  0.28726378642E+01 -0.62785183630E+00  0.39346899792E+01  0.17770000000E+01 0. -1.
</event>
<event>
 6    1  0.1782050E-003  0.5024323E+03  0.7546771E-02  0.9394384E-01
        -11   -1    0    0    0    0  0.00000000000E+00  0.00000000000E+00  0.50000000000E+03  0.50000000000E+03  0.00000000000E+00 0. -1.
         11   -1    0    0    0    0 -0.00000000000E+00 -0.00000000000E+00 -0.50000000000E+03  0.50000000000E+03  0.00000000000E+00 0. -1.
        -11    1    1    2    0    0 -0.86553469610E+01 -0.54558267730E+01  0.47599510129E+03  0.47610504883E+03  0.00000000000E+00 0. -1.
         11    1    1    2    0    0  0.92908878455E+01  0.15294601846E+01 -0.49747855985E+03  0.49756766109E+03  0.00000000000E+00 0. -1.
        -15    1    1    2    0    0  0.27765070938E+01 -0.22095143115E+01  0.17733011284E+02  0.18171636232E+02  0.17770000000E+01 0. -1.
         15    1    1    2    0    0 -0.34120479783E+01  0.61358809000E+01  0.37504472838E+01  0.81556538458E+01  0.17770000000E+01 0.  1.
</event>
<event>
 6    1  0.1782050E-003  0.4725513E+03  0.7546771E-02  0.9463414E-01
        -11   -1    0    0    0    0  0.00000000000E+00  0.00000000000E+00  0.50000000000E+03  0.50000000000E+03  0.00000000000E+00 0. -1.
         11   -1    0    0    0    0 -0.00000000000E+00 -0.00000000000E+00 -0.50000000000E+03  0.50000000000E+03  0.00000000000E+00 0. -1.
        -11    1    1    2    0    0 -0.14898054949E+02 -0.57904542501E+01  0.46861154280E+03  0.46888405757E+03  0.00000000000E+00 0. -1.
         11    1    1    2    0    0 -0.74969416373E+00 -0.17078461112E+02 -0.47634972939E+03  0.47665637577E+03  0.00000000000E+00 0. -1.
        -15    1    1    2    0    0  0.22296027214E+01  0.35262224394E+02  0.71826906440E+01  0.36099091006E+02  0.17770000000E+01 0.  1.
         15    1    1    2    0    0  0.13418146391E+02 -0.12393309032E+02  0.55549594177E+00  0.18360475650E+02  0.17770000000E+01 0. -1.
</event>
<event>
 6    1  0.1782050E-003  0.4614566E+03  0.7546771E-02  0.9490440E-01
        -11   -1    0    0    0    0  0.00000000000E+00  0.00000000000E+00  0.50000000000E+03  0.50000000000E+03  0.00000000000E+00 0.  1.
         11   -1    0    0    0    0 -0.00000000000E+00 -0.00000000000E+00 -0.50000000000E+03  0.50000000000E+03  0.00000000000E+00 0. -1.
        -11    1    1    2    0    0 -0.61252101976E+01  0.39729492988E+01  0.24237220320E+02  0.25312948760E+02  0.00000000000E+00 0.  1.
         11    1    1    2    0    0  0.44696807792E+02 -0.36765902339E+02 -0.46901410369E+03  0.47257143975E+03  0.00000000000E+00 0. -1.
        -15    1    1    2    0    0 -0.33615199826E+02  0.36086266472E+02 -0.73956444121E+01  0.49900436597E+02  0.17770000000E+01 0. -1.
         15    1    1    2    0    0 -0.49563977682E+01 -0.32933134322E+01  0.45217252779E+03  0.45221517490E+03  0.17770000000E+01 0.  1.
</event>
<event>
 6    1  0.1782050E-003  0.5006421E+03  0.7546771E-02  0.9398374E-01
        -11   -1    0    0    0    0  0.00000000000E+00  0.00000000000E+00  0.50000000000E+03  0.50000000000E+03  0.00000000000E+00 0. -1.
         11   -1    0    0    0    0 -0.00000000000E+00 -0.00000000000E+00 -0.50000000000E+03  0.50000000000E+03  0.00000000000E+00 0.  1.
        -11    1    1    2    0    0 -0.19258142243E+01  0.16048940951E+01  0.15812756053E+03  0.15814743072E+03  0.00000000000E+00 0. -1.
         11    1    1    2    0    0 -0.88636328656E+01  0.26236767876E+01 -0.49927236427E+03  0.49935792913E+03  0.00000000000E+00 0.  1.
        -15    1    1    2    0    0  0.92234691229E+01  0.12798803230E+01  0.34152329453E+02  0.35443614550E+02  0.17770000000E+01 0.  1.
         15    1    1    2    0    0  0.15659779670E+01 -0.55084512058E+01  0.30699247429E+03  0.30705102559E+03  0.17770000000E+01 0. -1.
</event>
<event>
 6    1  0.1782050E-003  0.5061307E+03  0.7546771E-02  0.9386195E-01
        -11   -1    0    0    0    0  0.00000000000E+00  0.00000000000E+00  0.50000000000E+03  0.50000000000E+03  0.00000000000E+00 0.  1.
         11   -1    0    0    0    0 -0.00000000000E+00 -0.00000000000E+00 -0.50000000000E+03  0.50000000000E+03  0.00000000000E+00 0.  1.
        -11    1    1    2    0    0 -0.30048567729E+02  0.81943566336E+01  0.49288617642E+03  0.49386926084E+03  0.00000000000E+00 0.  1.
         11    1    1    2    0    0 -0.47995203507E+01  0.42925074242E+01 -0.23455156592E+03  0.23463993286E+03  0.00000000000E+00 0.  1.
        -15    1    1    2    0    0 -0.14534788726E+02 -0.21890009718E+01 -0.16252415063E+03  0.16319714788E+03  0.17770000000E+01 0.  1.
         15    1    1    2    0    0  0.49382876806E+02 -0.10297863086E+02 -0.95810459865E+02  0.10829365842E+03  0.17770000000E+01 0. -1.
</event>
<event>
 6    1  0.1782050E-003  0.5010798E+03  0.7546771E-02  0.9397397E-01
        -11   -1    0    0    0    0  0.00000000000E+00  0.00000000000E+00  0.50000000000E+03  0.50000000000E+03  0.00000000000E+00 0.  1.
         11   -1    0    0    0    0 -0.00000000000E+00 -0.00000000000E+00 -0.50000000000E+03  0.50000000000E+03  0.00000000000E+00 0. -1.
        -11    1    1    2    0    0  0.77152499849E+01  0.50819851277E+01  0.41095936344E+03  0.41106319472E+03  0.00000000000E+00 0.  1.
         11    1    1    2    0    0  0.60594933456E+01 -0.58263424370E+01 -0.49884941525E+03  0.49892023694E+03  0.00000000000E+00 0. -1.
        -15    1    1    2    0    0 -0.13453884419E+01  0.36608185034E+01  0.78371579482E+01  0.89325492374E+01  0.17770000000E+01 0. -1.
         15    1    1    2    0    0 -0.12429354889E+02 -0.29164611942E+01  0.80052893870E+02  0.81084019108E+02  0.17770000000E+01 0.  1.
</event>
<event>
 6    1  0.1782050E-003  0.6355627E+03  0.7546771E-02  0.9138990E-01
        -11   -1    0    0    0    0  0.00000000000E+00  0.00000000000E+00  0.50000000000E+03  0.50000000000E+03  0.00000000000E+00 0. -1.
         11   -1    0    0    0    0 -0.00000000000E+00 -0.00000000000E+00 -0.50000000000E+03  0.50000000000E+03  0.00000000000E+00 0. -1.
        -11    1    1    2    0    0 -0.42963540000E+01  0.92929410162E+01  0.32806491331E+03  0.32822462546E+03  0.00000000000E+00 0. -1.
         11    1    1    2    0    0 -0.11690952332E+02  0.29207175651E+01 -0.36423800196E+03  0.36443727996E+03  0.00000000000E+00 0. -1.
        -15    1    1    2    0    0 -0.12435769815E+02 -0.10557697277E+03 -0.95850727532E+02  0.14314910146E+03  0.17770000000E+01 0. -1.
         15    1    1    2    0    0  0.28423076147E+02  0.93363314194E+02  0.13202381617E+03  0.16418899312E+03  0.17770000000E+01 0.  1.
</event>
<event>
 6    1  0.1782050E-003  0.5025538E+03  0.7546771E-02  0.9394113E-01
        -11   -1    0    0    0    0  0.00000000000E+00  0.00000000000E+00  0.50000000000E+03  0.50000000000E+03  0.00000000000E+00 0.  1.
         11   -1    0    0    0    0 -0.00000000000E+00 -0.00000000000E+00 -0.50000000000E+03  0.50000000000E+03  0.00000000000E+00 0.  1.
        -11    1    1    2    0    0 -0.93316512694E+00 -0.21449545416E+02  0.49698266317E+03  0.49744619939E+03  0.00000000000E+00 0.  1.
         11    1    1    2    0    0 -0.42049776086E+01  0.91022410045E+01 -0.37183792737E+03  0.37197308620E+03  0.00000000000E+00 0.  1.
        -15    1    1    2    0    0 -0.20192556323E+01 -0.55331304231E+01 -0.91998933663E+02  0.92204416650E+02  0.17770000000E+01 0.  1.
         15    1    1    2    0    0  0.71573983678E+01  0.17880434835E+02 -0.33145802142E+02  0.38376297762E+02  0.17770000000E+01 0. -1.
</event>
<event>
 6    1  0.1782050E-003  0.5010768E+03  0.7546771E-02  0.9397403E-01
        -11   -1    0    0    0    0  0.00000000000E+00  0.00000000000E+00  0.50000000000E+03  0.50000000000E+03  0.00000000000E+00 0. -1.
         11   -1    0    0    0    0 -0.00000000000E+00 -0.00000000000E+00 -0.50000000000E+03  0.50000000000E+03  0.00000000000E+00 0. -1.
        -11    1    1    2    0    0 -0.97232710168E+01  0.12126196796E+01  0.49882692467E+03  0.49892315362E+03  0.00000000000E+00 0. -1.
         11    1    1    2    0    0  0.25534020596E+00 -0.88873022899E+01 -0.41810042013E+03  0.41819494336E+03  0.00000000000E+00 0. -1.
        -15    1    1    2    0    0  0.13114027239E+01  0.46969130878E+01 -0.61411928248E+02  0.61630864263E+02  0.17770000000E+01 0. -1.
         15    1    1    2    0    0  0.81565280869E+01  0.29777695224E+01 -0.19314576292E+02  0.21251038753E+02  0.17770000000E+01 0.  1.
</event>
<event>
 6    1  0.1782050E-003  0.5080547E+03  0.7546771E-02  0.9381965E-01
        -11   -1    0    0    0    0  0.00000000000E+00  0.00000000000E+00  0.50000000000E+03  0.50000000000E+03  0.00000000000E+00 0.  1.
         11   -1    0    0    0    0 -0.00000000000E+00 -0.00000000000E+00 -0.50000000000E+03  0.50000000000E+03  0.00000000000E+00 0. -1.
        -11    1    1    2    0    0  0.36726205729E+01  0.26205923852E+01  0.17542055097E+03  0.17547856093E+03  0.00000000000E+00 0.  1.
         11    1    1    2    0    0 -0.87744752382E+00 -0.24623933397E+02 -0.49132788594E+03  0.49194532167E+03  0.00000000000E+00 0. -1.
        -15    1    1    2    0    0  0.33030342341E+02  0.26131699448E+01  0.33182876427E+02  0.46926465766E+02  0.17770000000E+01 0. -1.
         15    1    1    2    0    0 -0.35825515390E+02  0.19390171067E+02  0.28272445855E+03  0.28564965163E+03  0.17770000000E+01 0.  1.
</event>
<event>
 6    1  0.1782050E-003  0.5072020E+03  0.7546771E-02  0.9383837E-01
        -11   -1    0    0    0    0  0.00000000000E+00  0.00000000000E+00  0.50000000000E+03  0.50000000000E+03  0.00000000000E+00 0.  1.
         11   -1    0    0    0    0 -0.00000000000E+00 -0.00000000000E+00 -0.50000000000E+03  0.50000000000E+03  0.00000000000E+00 0.  1.
        -11    1    1    2    0    0 -0.72850296526E+00  0.67381469082E+01  0.49275142615E+03  0.49279803298E+03  0.00000000000E+00 0.  1.
         11    1    1    2    0    0  0.28280327507E+01 -0.78183378046E+01 -0.47750363307E+03  0.47757600837E+03  0.00000000000E+00 0.  1.
        -15    1    1    2    0    0 -0.87084189908E+01  0.10474477242E+02 -0.74194575244E+01  0.15612729223E+02  0.17770000000E+01 0. -1.
         15    1    1    2    0    0  0.66088892054E+01 -0.93942863460E+01 -0.78283355546E+01  0.14013229429E+02  0.17770000000E+01 0.  1.
</event>
<event>
 6    1  0.1782050E-003  0.5057346E+03  0.7546771E-02  0.9387069E-01
        -11   -1    0    0    0    0  0.00000000000E+00  0.00000000000E+00  0.50000000000E+03  0.50000000000E+03  0.00000000000E+00 0. -1.
         11   -1    0    0    0    0 -0.00000000000E+00 -0.00000000000E+00 -0.50000000000E+03  0.50000000000E+03  0.00000000000E+00 0. -1.
        -11    1    1    2    0    0  0.10604482684E+02 -0.22732883884E+01  0.47776680718E+03  0.47788988788E+03  0.00000000000E+00 0. -1.
         11    1    1    2    0    0 -0.29358660346E+01 -0.60028881220E+01 -0.49422021433E+03  0.49426538846E+03  0.00000000000E+00 0. -1.
        -15    1    1    2    0    0 -0.14553923862E+01  0.62913939716E+01 -0.29343331017E+01  0.73121710084E+01  0.17770000000E+01 0.  1.
         15    1    1    2    0    0 -0.62132242628E+01  0.19847825387E+01  0.19387740253E+02  0.20532552656E+02  0.17770000000E+01 0. -1.
</event>
<event>
 6    1  0.1782050E-003  0.5111297E+03  0.7546771E-02  0.9375245E-01
        -11   -1    0    0    0    0  0.00000000000E+00  0.00000000000E+00  0.50000000000E+03  0.50000000000E+03  0.00000000000E+00 0. -1.
         11   -1    0    0    0    0 -0.00000000000E+00 -0.00000000000E+00 -0.50000000000E+03  0.50000000000E+03  0.00000000000E+00 0. -1.
        -11    1    1    2    0    0  0.99900993451E+00  0.10253613483E+02  0.48295447481E+03  0.48306434287E+03  0.00000000000E+00 0. -1.
         11    1    1    2    0    0 -0.84301855992E+01 -0.51358562820E+01 -0.48877061990E+03  0.48887029356E+03  0.00000000000E+00 0. -1.
        -15    1    1    2    0    0 -0.19084294416E+00 -0.91190682435E+01 -0.76146279972E+01  0.12013913400E+02  0.17770000000E+01 0.  1.
         15    1    1    2    0    0  0.76220186088E+01  0.40013110422E+01  0.13430773091E+02  0.16051450170E+02  0.17770000000E+01 0. -1.
</event>
<event>
 6    1  0.1782050E-003  0.5147083E+03  0.7546771E-02  0.9367487E-01
        -11   -1    0    0    0    0  0.00000000000E+00  0.00000000000E+00  0.50000000000E+03  0.50000000000E+03  0.00000000000E+00 0.  1.
         11   -1    0    0    0    0 -0.00000000000E+00 -0.00000000000E+00 -0.50000000000E+03  0.50000000000E+03  0.00000000000E+00 0.  1.
        -11    1    1    2    0    0 -0.40525075413E+01 -0.43375497873E+01  0.37350747415E+03  0.37355464179E+03  0.00000000000E+00 0.  1.
         11    1    1    2    0    0  0.47010925557E+02 -0.14885817352E+02 -0.48277993574E+03  0.48529174836E+03  0.00000000000E+00 0.  1.
        -15    1    1    2    0    0 -0.37943029525E+02  0.54297557009E+01  0.84980770063E+01  0.39300518805E+02  0.17770000000E+01 0. -1.
         15    1    1    2    0    0 -0.50153884900E+01  0.13793611438E+02  0.10077438458E+03  0.10185309104E+03  0.17770000000E+01 0.  1.
</event>
<event>
 6    1  0.1782050E-003  0.5017455E+03  0.7546771E-02  0.9395913E-01
        -11   -1    0    0    0    0  0.00000000000E+00  0.00000000000E+00  0.50000000000E+03  0.50000000000E+03  0.00000000000E+00 0.  1.
         11   -1    0    0    0    0 -0.00000000000E+00 -0.00000000000E+00 -0.50000000000E+03  0.50000000000E+03  0.00000000000E+00 0.  1.
        -11    1    1    2    0    0 -0.63842905528E+01  0.11541992640E+02  0.49807992020E+03  0.49825453703E+03  0.00000000000E+00 0.  1.
         11    1    1    2    0    0  0.13755939819E+02 -0.15529004142E+01 -0.14742054576E+03  0.14806908756E+03  0.00000000000E+00 0.  1.
        -15    1    1    2    0    0 -0.16166893926E+02 -0.14964116011E+02 -0.32865897659E+03  0.32940123535E+03  0.17770000000E+01 0.  1.
         15    1    1    2    0    0  0.87952446598E+01  0.49750237857E+01 -0.22000397858E+02  0.24275140066E+02  0.17770000000E+01 0. -1.
</event>
<event>
 6    1  0.1782050E-003  0.5009218E+03  0.7546771E-02  0.9397749E-01
        -11   -1    0    0    0    0  0.00000000000E+00  0.00000000000E+00  0.50000000000E+03  0.50000000000E+03  0.00000000000E+00 0. -1.
         11   -1    0    0    0    0 -0.00000000000E+00 -0.00000000000E+00 -0.50000000000E+03  0.50000000000E+03  0.00000000000E+00 0. -1.
        -11    1    1    2    0    0  0.68072818539E+01  0.48116780325E+01  0.49900857330E+03  0.49907819784E+03  0.00000000000E+00 0. -1.
         11    1    1    2    0    0 -0.42839889217E+00  0.98137855416E+01 -0.29006646700E+03  0.29023275003E+03  0.00000000000E+00 0. -1.
        -15    1    1    2    0    0 -0.14232361120E+02 -0.73348101109E+01 -0.13366955244E+03  0.13463679483E+03  0.17770000000E+01 0.  1.
         15    1    1    2    0    0  0.78534781588E+01 -0.72906534632E+01 -0.75272553858E+02  0.76052257300E+02  0.17770000000E+01 0. -1.
</event>
<event>
 6    1  0.1782050E-003  0.5040112E+03  0.7546771E-02  0.9390879E-01
        -11   -1    0    0    0    0  0.00000000000E+00  0.00000000000E+00  0.50000000000E+03  0.50000000000E+03  0.00000000000E+00 0. -1.
         11   -1    0    0    0    0 -0.00000000000E+00 -0.00000000000E+00 -0.50000000000E+03  0.50000000000E+03  0.00000000000E+00 0.  1.
        -11    1    1    2    0    0  0.91289680975E+01  0.49371958538E+01  0.46306189926E+03  0.46317819088E+03  0.00000000000E+00 0. -1.
         11    1    1    2    0    0 -0.77770296547E+01  0.22517005663E+01 -0.49592267904E+03  0.49598876593E+03  0.00000000000E+00 0.  1.
        -15    1    1    2    0    0 -0.79365838150E+01  0.55097384188E+01  0.13462510411E+02  0.16665638171E+02  0.17770000000E+01 0.  1.
         15    1    1    2    0    0  0.65846453721E+01 -0.12698634839E+02  0.19398269368E+02  0.24167405010E+02  0.17770000000E+01 0. -1.
</event>
<event>
 6    1  0.1782050E-003  0.5112271E+03  0.7546771E-02  0.9375033E-01
        -11   -1    0    0    0    0  0.00000000000E+00  0.00000000000E+00  0.50000000000E+03  0.50000000000E+03  0.00000000000E+00 0. -1.
         11   -1    0    0    0    0 -0.00000000000E+00 -0.00000000000E+00 -0.50000000000E+03  0.50000000000E+03  0.00000000000E+00 0.  1.
        -11    1    1    2    0    0 -0.15995878967E+01  0.76451954925E+01  0.24848221427E+03  0.24860494465E+03  0.00000000000E+00 0. -1.
         11    1    1    2    0    0 -0.24661377202E+02  0.29727943926E+02 -0.48724430755E+03  0.48877290167E+03  0.00000000000E+00 0.  1.
        -15    1    1    2    0    0  0.51694042791E+02 -0.53883004424E+02  0.13247663220E+03  0.15208178075E+03  0.17770000000E+01 0.  1.
         15    1    1    2    0    0 -0.25433077693E+02  0.16509865005E+02  0.10628546107E+03  0.11054037293E+03  0.17770000000E+01 0. -1.
</event>
<event>
 6    1  0.1782050E-003  0.5038539E+03  0.7546771E-02  0.9391227E-01
        -11   -1    0    0    0    0  0.00000000000E+00  0.00000000000E+00  0.50000000000E+03  0.50000000000E+03  0.00000000000E+00 0.  1.
         11   -1    0    0    0    0 -0.00000000000E+00 -0.00000000000E+00 -0.50000000000E+03  0.50000000000E+03  0.00000000000E+00 0. -1.
        -11    1    1    2    0    0  0.74499358034E+01  0.61428664566E+01  0.49605215393E+03  0.49614612341E+03  0.00000000000E+00 0.  1.
         11    1    1    2    0    0  0.83463356968E+01 -0.27574492231E+01 -0.47179610778E+03  0.47187798440E+03  0.00000000000E+00 0. -1.
        -15    1    1    2    0    0 -0.16093066353E+02  0.45738877940E+00 -0.21487824524E+02  0.26908740605E+02  0.17770000000E+01 0. -1.
         15    1    1    2    0    0  0.29679485322E+00 -0.38428060129E+01 -0.27682216288E+01  0.50671515888E+01  0.17770000000E+01 0.  1.
</event>
<event>
 6    1  0.1782050E-003  0.5018726E+03  0.7546771E-02  0.9395629E-01
        -11   -1    0    0    0    0  0.00000000000E+00  0.00000000000E+00  0.50000000000E+03  0.50000000000E+03  0.00000000000E+00 0.  1.
         11   -1    0    0    0    0 -0.00000000000E+00 -0.00000000000E+00 -0.50000000000E+03  0.50000000000E+03  0.00000000000E+00 0.  1.
        -11    1    1    2    0    0  0.87862543916E+01  0.64966429073E+01  0.49800757481E+03  0.49812744273E+03  0.00000000000E+00 0.  1.
         11    1    1    2    0    0 -0.13339333497E+02 -0.14375959712E+02 -0.34386643082E+03  0.34442521435E+03  0.00000000000E+00 0.  1.
        -15    1    1    2    0    0  0.61666784576E+01  0.15874593729E+02 -0.13986863043E+03  0.14091281757E+03  0.17770000000E+01 0.  1.
         15    1    1    2    0    0 -0.16135993519E+01 -0.79952769240E+01 -0.14272513565E+02  0.16534525346E+02  0.17770000000E+01 0. -1.
</event>
<event>
 6    1  0.1782050E-003  0.5002550E+03  0.7546771E-02  0.9399239E-01
        -11   -1    0    0    0    0  0.00000000000E+00  0.00000000000E+00  0.50000000000E+03  0.50000000000E+03  0.00000000000E+00 0. -1.
         11   -1    0    0    0    0 -0.00000000000E+00 -0.00000000000E+00 -0.50000000000E+03  0.50000000000E+03  0.00000000000E+00 0.  1.
        -11    1    1    2    0    0 -0.16283805114E+00 -0.31038345886E+01  0.43434625058E+02  0.43545688183E+02  0.00000000000E+00 0. -1.
         11    1    1    2    0    0 -0.86641272151E+01  0.41553918021E+01 -0.49965264056E+03  0.49974503059E+03  0.00000000000E+00 0.  1.
        -15    1    1    2    0    0 -0.56209217622E+01  0.15250672728E+01  0.10058378728E+03  0.10076793430E+03  0.17770000000E+01 0.  1.
         15    1    1    2    0    0  0.14447887028E+02 -0.25766244862E+01  0.35563422823E+03  0.35594134692E+03  0.17770000000E+01 0. -1.
</event>
<event>
 6    1  0.1782050E-003  0.5030678E+03  0.7546771E-02  0.9392971E-01
        -11   -1    0    0    0    0  0.00000000000E+00  0.00000000000E+00  0.50000000000E+03  0.50000000000E+03  0.00000000000E+00 0. -1.
         11   -1    0    0    0    0 -0.00000000000E+00 -0.00000000000E+00 -0.50000000000E+03  0.50000000000E+03  0.00000000000E+00 0. -1.
        -11    1    1    2    0    0  0.66702235262E+01  0.11549716275E+02  0.37675245515E+03  0.37698846174E+03  0.00000000000E+00 0. -1.
         11    1    1    2    0    0  0.10829682006E+02 -0.14491598925E+01 -0.49681208839E+03  0.49693222199E+03  0.00000000000E+00 0. -1.
        -15    1    1    2    0    0 -0.20316895406E+02  0.93553106703E+00  0.37309425554E+02  0.42530017887E+02  0.17770000000E+01 0.  1.
         15    1    1    2    0    0  0.28169898740E+01 -0.11036087450E+02  0.82750207690E+02  0.83549298380E+02  0.17770000000E+01 0. -1.
</event>
<event>
 6    1  0.1782050E-003  0.5032198E+03  0.7546771E-02  0.9392634E-01
        -11   -1    0    0    0    0  0.00000000000E+00  0.00000000000E+00  0.50000000000E+03  0.50000000000E+03  0.00000000000E+00 0.  1.
         11   -1    0    0    0    0 -0.00000000000E+00 -0.00000000000E+00 -0.50000000000E+03  0.50000000000E+03  0.00000000000E+00 0. -1.
        -11    1    1    2    0    0 -0.38085666942E+01  0.58045758568E+01  0.45790994235E+03  0.45796256789E+03  0.00000000000E+00 0.  1.
         11    1    1    2    0    0  0.11418285994E+02  0.24148592589E+01 -0.49664308584E+03  0.49678019638E+03  0.00000000000E+00 0. -1.
        -15    1    1    2    0    0 -0.14401742987E+01  0.34729853746E+01  0.27516321907E+02  0.27828787787E+02  0.17770000000E+01 0. -1.
         15    1    1    2    0    0 -0.61695450007E+01 -0.11692420490E+02  0.11216821584E+02  0.17428447948E+02  0.17770000000E+01 0.  1.
</event>
<event>
 6    1  0.1782050E-003  0.5213970E+03  0.7546771E-02  0.9353165E-01
        -11   -1    0    0    0    0  0.00000000000E+00  0.00000000000E+00  0.50000000000E+03  0.50000000000E+03  0.00000000000E+00 0. -1.
         11   -1    0    0    0    0 -0.00000000000E+00 -0.00000000000E+00 -0.50000000000E+03  0.50000000000E+03  0.00000000000E+00 0. -1.
        -11    1    1    2    0    0 -0.11261654450E+02  0.23037055307E+01  0.47846493910E+03  0.47860299818E+03  0.00000000000E+00 0. -1.
         11    1    1    2    0    0  0.18439970270E+01 -0.45116020131E+01 -0.33718218534E+03  0.33721740908E+03  0.00000000000E+00 0. -1.
        -15    1    1    2    0    0  0.17033362798E+02  0.16726473193E+02 -0.15852413088E+03  0.16032145257E+03  0.17770000000E+01 0. -1.
         15    1    1    2    0    0 -0.76157053753E+01 -0.14518576711E+02  0.17241377119E+02  0.23858140163E+02  0.17770000000E+01 0.  1.
</event>
<event>
 6    1  0.1782050E-003  0.5129498E+03  0.7546771E-02  0.9371291E-01
        -11   -1    0    0    0    0  0.00000000000E+00  0.00000000000E+00  0.50000000000E+03  0.50000000000E+03  0.00000000000E+00 0.  1.
         11   -1    0    0    0    0 -0.00000000000E+00 -0.00000000000E+00 -0.50000000000E+03  0.50000000000E+03  0.00000000000E+00 0. -1.
        -11    1    1    2    0    0 -0.75855380967E+01  0.30058124470E+02  0.18205156846E+03  0.18467215495E+03  0.00000000000E+00 0.  1.
         11    1    1    2    0    0 -0.63547452462E+01  0.99687435952E+01 -0.48690667197E+03  0.48705016769E+03  0.00000000000E+00 0. -1.
        -15    1    1    2    0    0  0.34866258787E+02  0.24287415358E+02  0.55580987811E+02  0.69985273319E+02  0.17770000000E+01 0.  1.
         15    1    1    2    0    0 -0.20925975444E+02 -0.64314283423E+02  0.24927411570E+03  0.25829240404E+03  0.17770000000E+01 0. -1.
</event>
<event>
 6    1  0.1782050E-003  0.5177220E+03  0.7546771E-02  0.9361006E-01
        -11   -1    0    0    0    0  0.00000000000E+00  0.00000000000E+00  0.50000000000E+03  0.50000000000E+03  0.00000000000E+00 0.  1.
         11   -1    0    0    0    0 -0.00000000000E+00 -0.00000000000E+00 -0.50000000000E+03  0.50000000000E+03  0.00000000000E+00 0.  1.
        -11    1    1    2    0    0 -0.31051429359E+01 -0.93121951707E+01  0.48217810501E+03  0.48227801509E+03  0.00000000000E+00 0.  1.
         11    1    1    2    0    0  0.74523253816E+01  0.45187742158E+01 -0.47406933266E+03  0.47414943703E+03  0.00000000000E+00 0.  1.
        -15    1    1    2    0    0 -0.42092166032E+01 -0.11122295476E+02 -0.20198399179E+02  0.23506510150E+02  0.17770000000E+01 0.  1.
         15    1    1    2    0    0 -0.13796584247E+00  0.15915716431E+02  0.12089626829E+02  0.20066037724E+02  0.17770000000E+01 0. -1.
</event>
<event>
 6    1  0.1782050E-003  0.4533514E+03  0.7546771E-02  0.9510701E-01
        -11   -1    0    0    0    0  0.00000000000E+00  0.00000000000E+00  0.50000000000E+03  0.50000000000E+03  0.00000000000E+00 0.  1.
         11   -1    0    0    0    0 -0.00000000000E+00 -0.00000000000E+00 -0.50000000000E+03  0.50000000000E+03  0.00000000000E+00 0.  1.
        -11    1    1    2    0    0  0.19844217982E+02 -0.21253466372E+02  0.46771835807E+03  0.46862134533E+03  0.00000000000E+00 0.  1.
         11    1    1    2    0    0  0.29956596465E+02 -0.11556833310E+02 -0.43931266965E+03  0.44048448302E+03  0.00000000000E+00 0.  1.
        -15    1    1    2    0    0 -0.20410123604E+02  0.78155994450E+01  0.19509995187E+02  0.29350543120E+02  0.17770000000E+01 0.  1.
         15    1    1    2    0    0 -0.29390690843E+02  0.24994700237E+02 -0.47915683607E+02  0.61543628530E+02  0.17770000000E+01 0. -1.
</event>
<event>
 6    1  0.1782050E-003  0.5506594E+03  0.7546771E-02  0.9293085E-01
        -11   -1    0    0    0    0  0.00000000000E+00  0.00000000000E+00  0.50000000000E+03  0.50000000000E+03  0.00000000000E+00 0.  1.
         11   -1    0    0    0    0 -0.00000000000E+00 -0.00000000000E+00 -0.50000000000E+03  0.50000000000E+03  0.00000000000E+00 0. -1.
        -11    1    1    2    0    0  0.32758586524E+02  0.52092170758E+02  0.36816559899E+03  0.37327285935E+03  0.00000000000E+00 0.  1.
         11    1    1    2    0    0 -0.38778000038E+01  0.46793159345E+01 -0.44929949063E+03  0.44934058977E+03  0.00000000000E+00 0. -1.
        -15    1    1    2    0    0 -0.22911452001E+01 -0.74976774572E+02 -0.14528722234E+02  0.76426484744E+02  0.17770000000E+01 0.  1.
         15    1    1    2    0    0 -0.26589641320E+02  0.18205287880E+02  0.95662613876E+02  0.10096006614E+03  0.17770000000E+01 0. -1.
</event>
<event>
 6    1  0.1782050E-003  0.5033621E+03  0.7546771E-02  0.9392318E-01
        -11   -1    0    0    0    0  0.00000000000E+00  0.00000000000E+00  0.50000000000E+03  0.50000000000E+03  0.00000000000E+00 0. -1.
         11   -1    0    0    0    0 -0.00000000000E+00 -0.00000000000E+00 -0.50000000000E+03  0.50000000000E+03  0.00000000000E+00 0.  1.
        -11    1    1    2    0    0 -0.34747095905E+01  0.88880047675E+01  0.49654619691E+03  0.49663789213E+03  0.00000000000E+00 0. -1.
         11    1    1    2    0    0  0.48000186254E+01 -0.13102021190E+02 -0.41469903633E+03  0.41493372227E+03  0.00000000000E+00 0.  1.
        -15    1    1    2    0    0  0.11246788260E+01 -0.45535421730E+01  0.95714322806E+00  0.51062217874E+01  0.17770000000E+01 0. -1.
         15    1    1    2    0    0 -0.24499878609E+01  0.87675585960E+01 -0.82804303806E+02  0.83322163811E+02  0.17770000000E+01 0.  1.
</event>
<event>
 6    1  0.1782050E-003  0.4766484E+03  0.7546771E-02  0.9453632E-01
        -11   -1    0    0    0    0  0.00000000000E+00  0.00000000000E+00  0.50000000000E+03  0.50000000000E+03  0.00000000000E+00 0. -1.
         11   -1    0    0    0    0 -0.00000000000E+00 -0.00000000000E+00 -0.50000000000E+03  0.50000000000E+03  0.00000000000E+00 0. -1.
        -11    1    1    2    0    0  0.62795434664E+01  0.84110440671E+01  0.47596260291E+03  0.47607833147E+03  0.00000000000E+00 0. -1.
         11    1    1    2    0    0  0.54936084481E+01  0.50324768108E+01 -0.47732883565E+03  0.47738697395E+03  0.00000000000E+00 0. -1.
        -15    1    1    2    0    0 -0.45715090199E+01 -0.10053459804E+02  0.21817089055E+02  0.24517623306E+02  0.17770000000E+01 0.  1.
         15    1    1    2    0    0 -0.72016428946E+01 -0.33900610740E+01 -0.20450856316E+02  0.22017071275E+02  0.17770000000E+01 0.  1.
</event>
<event>
 6    1  0.1782050E-003  0.5085980E+03  0.7546771E-02  0.9380774E-01
        -11   -1    0    0    0    0  0.00000000000E+00  0.00000000000E+00  0.50000000000E+03  0.50000000000E+03  0.00000000000E+00 0.  1.
         11   -1    0    0    0    0 -0.00000000000E+00 -0.00000000000E+00 -0.50000000000E+03  0.50000000000E+03  0.00000000000E+00 0. -1.
        -11    1    1    2    0    0  0.10791588096E+02  0.30737880393E+02  0.12324192365E+03  0.12747488933E+03  0.00000000000E+00 0.  1.
         11    1    1    2    0    0  0.44156581255E+01 -0.11926355754E+02 -0.49123744262E+03  0.49140203605E+03  0.00000000000E+00 0. -1.
        -15    1    1    2    0    0 -0.25394659044E+02 -0.51090339830E+02  0.14973147713E+03  0.16024289222E+03  0.17770000000E+01 0. -1.
         15    1    1    2    0    0  0.10187412823E+02  0.32278815191E+02  0.21826404184E+03  0.22088018241E+03  0.17770000000E+01 0.  1.
</event>
<event>
 6    1  0.1782050E-003  0.5006740E+03  0.7546771E-02  0.9398303E-01
        -11   -1    0    0    0    0  0.00000000000E+00  0.00000000000E+00  0.50000000000E+03  0.50000000000E+03  0.00000000000E+00 0. -1.
         11   -1    0    0    0    0 -0.00000000000E+00 -0.00000000000E+00 -0.50000000000E+03  0.50000000000E+03  0.00000000000E+00 0.  1.
        -11    1    1    2    0    0 -0.87750844659E+01 -0.29458838202E+01  0.49924022292E+03  0.49932602628E+03  0.00000000000E+00 0. -1.
         11    1    1    2    0    0  0.12621944585E+01 -0.82011364403E+01 -0.92134618719E+02  0.92507511804E+02  0.00000000000E+00 0.  1.
        -15    1    1    2    0    0  0.56118443202E+00  0.10907884627E+02 -0.37889899087E+03  0.37906054910E+03  0.17770000000E+01 0.  1.
         15    1    1    2    0    0  0.69517055753E+01  0.23913563354E+00 -0.28206613332E+02  0.29105912817E+02  0.17770000000E+01 0. -1.
</event>
<event>
 6    1  0.1782050E-003  0.5112560E+03  0.7546771E-02  0.9374970E-01
        -11   -1    0    0    0    0  0.00000000000E+00  0.00000000000E+00  0.50000000000E+03  0.50000000000E+03  0.00000000000E+00 0. -1.
         11   -1    0    0    0    0 -0.00000000000E+00 -0.00000000000E+00 -0.50000000000E+03  0.50000000000E+03  0.00000000000E+00 0.  1.
        -11    1    1    2    0    0 -0.11530437082E+02  0.75173050645E+01  0.44081047560E+03  0.44102532382E+03  0.00000000000E+00 0. -1.
         11    1    1    2    0    0  0.61114317938E+01 -0.31312054558E+01 -0.48869576101E+03  0.48874400341E+03  0.00000000000E+00 0.  1.
        -15    1    1    2    0    0 -0.65479243294E+01  0.35899610079E+01 -0.88262063675E+01  0.11697127036E+02  0.17770000000E+01 0.  1.
         15    1    1    2    0    0  0.11966929617E+02 -0.79760606167E+01  0.56711491772E+02  0.58533545728E+02  0.17770000000E+01 0.  1.
</event>
<event>
 6    1  0.3067094E-003  0.5359484E+03  0.7546771E-02  0.9322781E-01
        -11   -1    0    0    0    0  0.00000000000E+00  0.00000000000E+00  0.50000000000E+03  0.50000000000E+03  0.00000000000E+00 0.  1.
         11   -1    0    0    0    0 -0.00000000000E+00 -0.00000000000E+00 -0.50000000000E+03  0.50000000000E+03  0.00000000000E+00 0. -1.
        -11    1    1    2    0    0  0.17606807179E+02  0.34305533033E+01  0.46370478977E+03  0.46405161395E+03  0.00000000000E+00 0.  1.
         11    1    1    2    0    0 -0.75814799323E+01 -0.77540752399E+01 -0.80550243722E+02  0.81276972658E+02  0.00000000000E+00 0. -1.
        -15    1    1    2    0    0  0.95620546973E+01  0.10614418321E+02 -0.41579687562E+03  0.41604602902E+03  0.17770000000E+01 0. -1.
         15    1    1    2    0    0 -0.19587381944E+02 -0.62908963845E+01  0.32642329566E+02  0.38625384364E+02  0.17770000000E+01 0.  1.
</event>
<event>
 6    1  0.1782050E-003  0.5031121E+03  0.7546771E-02  0.9392873E-01
        -11   -1    0    0    0    0  0.00000000000E+00  0.00000000000E+00  0.50000000000E+03  0.50000000000E+03  0.00000000000E+00 0. -1.
         11   -1    0    0    0    0 -0.00000000000E+00 -0.00000000000E+00 -0.50000000000E+03  0.50000000000E+03  0.00000000000E+00 0.  1.
        -11    1    1    2    0    0  0.72169145897E+01  0.57774613678E+00  0.49683519556E+03  0.49688794431E+03  0.00000000000E+00 0. -1.
         11    1    1    2    0    0 -0.34230237731E+01  0.95958223413E+01 -0.48599604113E+03  0.48610281720E+03  0.00000000000E+00 0.  1.
        -15    1    1    2    0    0 -0.85297146985E+00  0.11087919559E+00 -0.52232910322E+00  0.20421584700E+01  0.17770000000E+01 0. -1.
         15    1    1    2    0    0 -0.29409193467E+01 -0.10284447674E+02 -0.10316825333E+02  0.14967080026E+02  0.17770000000E+01 0.  1.
</event>
<event>
 6    1  0.1782050E-003  0.5108944E+03  0.7546771E-02  0.9375757E-01
        -11   -1    0    0    0    0  0.00000000000E+00  0.00000000000E+00  0.50000000000E+03  0.50000000000E+03  0.00000000000E+00 0. -1.
         11   -1    0    0    0    0 -0.00000000000E+00 -0.00000000000E+00 -0.50000000000E+03  0.50000000000E+03  0.00000000000E+00 0.  1.
        -11    1    1    2    0    0 -0.97970988603E+01  0.14856721080E+01  0.48900523561E+03  0.48910562338E+03  0.00000000000E+00 0. -1.
         11    1    1    2    0    0 -0.16131920151E+02  0.11522196661E+02 -0.42621169494E+03  0.42667248419E+03  0.00000000000E+00 0.  1.
        -15    1    1    2    0    0  0.18896895000E+02 -0.29596718152E+02 -0.27801602139E+02  0.44823489115E+02  0.17770000000E+01 0.  1.
         15    1    1    2    0    0  0.70321240114E+01  0.16588849383E+02 -0.34991938535E+02  0.39398403310E+02  0.17770000000E+01 0. -1.
</event>
<event>
 6    1  0.1782050E-003  0.5028448E+03  0.7546771E-02  0.9393467E-01
        -11   -1    0    0    0    0  0.00000000000E+00  0.00000000000E+00  0.50000000000E+03  0.50000000000E+03  0.00000000000E+00 0. -1.
         11   -1    0    0    0    0 -0.00000000000E+00 -0.00000000000E+00 -0.50000000000E+03  0.50000000000E+03  0.00000000000E+00 0.  1.
        -11    1    1    2    0    0  0.83195194681E+01  0.16741271251E+02  0.49680359824E+03  0.49715520694E+03  0.00000000000E+00 0. -1.
         11    1    1    2    0    0 -0.81731476848E+01 -0.10133448012E+01 -0.44415940071E+03  0.44423574873E+03  0.00000000000E+00 0.  1.
        -15    1    1    2    0    0 -0.24553754972E+00 -0.31124293341E+01  0.78895124776E+00  0.36779992006E+01  0.17770000000E+01 0.  1.
         15    1    1    2    0    0  0.99165766441E-01 -0.12615497115E+02 -0.53433148777E+02  0.54931045125E+02  0.17770000000E+01 0. -1.
</event>
<event>
 6    1  0.1782050E-003  0.5012010E+03  0.7546771E-02  0.9397126E-01
        -11   -1    0    0    0    0  0.00000000000E+00  0.00000000000E+00  0.50000000000E+03  0.50000000000E+03  0.00000000000E+00 0.  1.
         11   -1    0    0    0    0 -0.00000000000E+00 -0.00000000000E+00 -0.50000000000E+03  0.50000000000E+03  0.00000000000E+00 0.  1.
        -11    1    1    2    0    0  0.11089629288E+02  0.38897965191E+00  0.49867556908E+03  0.49879901201E+03  0.00000000000E+00 0.  1.
         11    1    1    2    0    0  0.47463626087E+01  0.97690972011E+01 -0.34651939144E+03  0.34668956122E+03  0.00000000000E+00 0.  1.
        -15    1    1    2    0    0 -0.12554602752E+02 -0.32175624326E+01 -0.13499692405E+03  0.13562926671E+03  0.17770000000E+01 0. -1.
         15    1    1    2    0    0 -0.32813891449E+01 -0.69405144205E+01 -0.17159253597E+02  0.18882160050E+02  0.17770000000E+01 0.  1.
</event>
<event>
 6    1  0.1782050E-003  0.5033854E+03  0.7546771E-02  0.9392266E-01
        -11   -1    0    0    0    0  0.00000000000E+00  0.00000000000E+00  0.50000000000E+03  0.50000000000E+03  0.00000000000E+00 0.  1.
         11   -1    0    0    0    0 -0.00000000000E+00 -0.00000000000E+00 -0.50000000000E+03  0.50000000000E+03  0.00000000000E+00 0. -1.
        -11    1    1    2    0    0  0.70264457527E+01 -0.11905523631E+02  0.18454117349E+03  0.18505825338E+03  0.00000000000E+00 0.  1.
         11    1    1    2    0    0  0.21726895630E+02  0.31405854804E+00 -0.49613898244E+03  0.49661458549E+03  0.00000000000E+00 0. -1.
        -15    1    1    2    0    0 -0.20669268981E+01  0.45760925537E+01 -0.17632711738E+00  0.53293179783E+01  0.17770000000E+01 0. -1.
         15    1    1    2    0    0 -0.26686414484E+02  0.70153725289E+01  0.31177413607E+03  0.31299784315E+03  0.17770000000E+01 0.  1.
</event>
<event>
 6    1  0.2490452E-003  0.5057960E+03  0.7546771E-02  0.9386933E-01
        -11   -1    0    0    0    0  0.00000000000E+00  0.00000000000E+00  0.50000000000E+03  0.50000000000E+03  0.00000000000E+00 0.  1.
         11   -1    0    0    0    0 -0.00000000000E+00 -0.00000000000E+00 -0.50000000000E+03  0.50000000000E+03  0.00000000000E+00 0. -1.
        -11    1    1    2    0    0  0.87365238612E+00  0.84010893687E+01  0.49413179620E+03  0.49420397974E+03  0.00000000000E+00 0.  1.
         11    1    1    2    0    0 -0.17629584789E+02 -0.19385179174E+02 -0.41792563999E+03  0.41874625729E+03  0.00000000000E+00 0. -1.
        -15    1    1    2    0    0  0.18475571952E+02  0.14396007536E+02 -0.78715440260E+02  0.82145420178E+02  0.17770000000E+01 0.  1.
         15    1    1    2    0    0 -0.17196395491E+01 -0.34119177303E+01  0.25092840538E+01  0.49043427939E+01  0.17770000000E+01 0. -1.
</event>
<event>
 6    1  0.1782050E-003  0.5099081E+03  0.7546771E-02  0.9377908E-01
        -11   -1    0    0    0    0  0.00000000000E+00  0.00000000000E+00  0.50000000000E+03  0.50000000000E+03  0.00000000000E+00 0.  1.
         11   -1    0    0    0    0 -0.00000000000E+00 -0.00000000000E+00 -0.50000000000E+03  0.50000000000E+03  0.00000000000E+00 0.  1.
        -11    1    1    2    0    0  0.72506344510E+01  0.42630853073E+02  0.37788799988E+03  0.38035417940E+03  0.00000000000E+00 0.  1.
         11    1    1    2    0    0 -0.80225978111E+01  0.50528607739E+01 -0.49000016258E+03  0.49009188201E+03  0.00000000000E+00 0.  1.
        -15    1    1    2    0    0 -0.10801133997E+02 -0.49837854751E+02  0.10150628998E+03  0.11360968663E+03  0.17770000000E+01 0. -1.
         15    1    1    2    0    0  0.11573097357E+02  0.21541409047E+01  0.10605872717E+02  0.15944251960E+02  0.17770000000E+01 0.  1.
</event>
<event>
 6    1  0.1782050E-003  0.5014312E+03  0.7546771E-02  0.9396613E-01
        -11   -1    0    0    0    0  0.00000000000E+00  0.00000000000E+00  0.50000000000E+03  0.50000000000E+03  0.00000000000E+00 0.  1.
         11   -1    0    0    0    0 -0.00000000000E+00 -0.00000000000E+00 -0.50000000000E+03  0.50000000000E+03  0.00000000000E+00 0.  1.
        -11    1    1    2    0    0 -0.12118719812E+01  0.85161231092E+01  0.49849456901E+03  0.49856877992E+03  0.00000000000E+00 0.  1.
         11    1    1    2    0    0  0.70356002305E+01  0.10976495467E+02 -0.38681514593E+03  0.38703480495E+03  0.00000000000E+00 0.  1.
        -15    1    1    2    0    0 -0.30488098230E+01 -0.14655846519E+02 -0.44941707041E+02  0.47402572074E+02  0.17770000000E+01 0.  1.
         15    1    1    2    0    0 -0.27749184263E+01 -0.48367720563E+01 -0.66737716034E+02  0.66993843050E+02  0.17770000000E+01 0. -1.
</event>
<event>
 6    1  0.1782050E-003  0.5202448E+03  0.7546771E-02  0.9355616E-01
        -11   -1    0    0    0    0  0.00000000000E+00  0.00000000000E+00  0.50000000000E+03  0.50000000000E+03  0.00000000000E+00 0.  1.
         11   -1    0    0    0    0 -0.00000000000E+00 -0.00000000000E+00 -0.50000000000E+03  0.50000000000E+03  0.00000000000E+00 0. -1.
        -11    1    1    2    0    0 -0.13334835581E+02  0.57606654540E+01  0.47953522067E+03  0.47975517816E+03  0.00000000000E+00 0.  1.
         11    1    1    2    0    0 -0.20909456508E+02 -0.17561930052E+02 -0.43429011357E+03  0.43514770999E+03  0.00000000000E+00 0. -1.
        -15    1    1    2    0    0  0.70695242643E+01  0.17992811749E+02 -0.52724644995E+02  0.56185099153E+02  0.17770000000E+01 0.  1.
         15    1    1    2    0    0  0.27174767824E+02 -0.61915471511E+01  0.74795378977E+01  0.28912012704E+02  0.17770000000E+01 0. -1.
</event>
<event>
 6    1  0.1782050E-003  0.5108990E+03  0.7546771E-02  0.9375747E-01
        -11   -1    0    0    0    0  0.00000000000E+00  0.00000000000E+00  0.50000000000E+03  0.50000000000E+03  0.00000000000E+00 0. -1.
         11   -1    0    0    0    0 -0.00000000000E+00 -0.00000000000E+00 -0.50000000000E+03  0.50000000000E+03  0.00000000000E+00 0. -1.
        -11    1    1    2    0    0  0.12125056508E+02  0.50730000061E+00  0.47043462104E+03  0.47059112510E+03  0.00000000000E+00 0. -1.
         11    1    1    2    0    0  0.24127387807E+00 -0.26332163887E+02 -0.48839156024E+03  0.48910096829E+03  0.00000000000E+00 0. -1.
        -15    1    1    2    0    0 -0.27896717563E+00  0.11921228262E+02 -0.29230386125E+01  0.12405458061E+02  0.17770000000E+01 0.  1.
         15    1    1    2    0    0 -0.12087363210E+02  0.13903635624E+02  0.20879977808E+02  0.27902448552E+02  0.17770000000E+01 0. -1.
</event>
<event>
 6    1  0.1782050E-003  0.5380098E+03  0.7546771E-02  0.9318559E-01
        -11   -1    0    0    0    0  0.00000000000E+00  0.00000000000E+00  0.50000000000E+03  0.50000000000E+03  0.00000000000E+00 0. -1.
         11   -1    0    0    0    0 -0.00000000000E+00 -0.00000000000E+00 -0.50000000000E+03  0.50000000000E+03  0.00000000000E+00 0.  1.
        -11    1    1    2    0    0  0.37527679844E+01 -0.87605025055E+01  0.46189190151E+03  0.46199021457E+03  0.00000000000E+00 0. -1.
         11    1    1    2    0    0  0.11223189114E+02 -0.77102229928E+01 -0.44529125345E+03  0.44549939160E+03  0.00000000000E+00 0.  1.
        -15    1    1    2    0    0 -0.12297581426E+02  0.38249998160E+00 -0.52015301882E+02  0.53480147476E+02  0.17770000000E+01 0.  1.
         15    1    1    2    0    0 -0.26783756728E+01  0.16088225517E+02  0.35414653823E+02  0.39030246360E+02  0.17770000000E+01 0. -1.
</event>
<event>
 6    1  0.1782050E-003  0.4841700E+03  0.7546771E-02  0.9435944E-01
        -11   -1    0    0    0    0  0.00000000000E+00  0.00000000000E+00  0.50000000000E+03  0.50000000000E+03  0.00000000000E+00 0. -1.
         11   -1    0    0    0    0 -0.00000000000E+00 -0.00000000000E+00 -0.50000000000E+03  0.50000000000E+03  0.00000000000E+00 0. -1.
        -11    1    1    2    0    0 -0.12392290433E+02 -0.10452317634E+02  0.47980863577E+03  0.48008243747E+03  0.00000000000E+00 0. -1.
         11    1    1    2    0    0  0.20788760128E+02 -0.82314833182E+00 -0.48795042113E+03  0.48839375877E+03  0.00000000000E+00 0. -1.
        -15    1    1    2    0    0 -0.15404343104E+02  0.47442762467E+01 -0.32451830232E+01  0.16537559839E+02  0.17770000000E+01 0. -1.
         15    1    1    2    0    0  0.70078734097E+01  0.65311897193E+01  0.11386968388E+02  0.14986243924E+02  0.17770000000E+01 0.  1.
</event>
<event>
 6    1  0.1782050E-003  0.5012912E+03  0.7546771E-02  0.9396925E-01
        -11   -1    0    0    0    0  0.00000000000E+00  0.00000000000E+00  0.50000000000E+03  0.50000000000E+03  0.00000000000E+00 0. -1.
         11   -1    0    0    0    0 -0.00000000000E+00 -0.00000000000E+00 -0.50000000000E+03  0.50000000000E+03  0.00000000000E+00 0. -1.
        -11    1    1    2    0    0 -0.48214623636E+01  0.80969938389E+01  0.49861977472E+03  0.49870882041E+03  0.00000000000E+00 0. -1.
         11    1    1    2    0    0  0.14486134441E+02 -0.38535520587E+01 -0.27273754519E+03  0.27314916531E+03  0.00000000000E+00 0. -1.
        -15    1    1    2    0    0 -0.15196314859E+02  0.36157914670E+01 -0.19748763247E+03  0.19811240406E+03  0.17770000000E+01 0.  1.
         15    1    1    2    0    0  0.55316427811E+01 -0.78592332472E+01 -0.28394597065E+02  0.30029610230E+02  0.17770000000E+01 0. -1.
</event>
<event>
 6    1  0.1782050E-003  0.5190946E+03  0.7546771E-02  0.9358069E-01
        -11   -1    0    0    0    0  0.00000000000E+00  0.00000000000E+00  0.50000000000E+03  0.50000000000E+03  0.00000000000E+00 0.  1.
         11   -1    0    0    0    0 -0.00000000000E+00 -0.00000000000E+00 -0.50000000000E+03  0.50000000000E+03  0.00000000000E+00 0.  1.
        -11    1    1    2    0    0 -0.13568007765E+02  0.27541289225E+02  0.30752045517E+03  0.30904925788E+03  0.00000000000E+00 0.  1.
         11    1    1    2    0    0 -0.45623081917E+02 -0.52691880501E+01 -0.47870741192E+03  0.48090541292E+03  0.00000000000E+00 0.  1.
        -15    1    1    2    0    0  0.28782990418E+02 -0.37472783252E+01  0.17194471276E+03  0.17438648057E+03  0.17770000000E+01 0. -1.
         15    1    1    2    0    0  0.30408099263E+02 -0.18524822850E+02 -0.75775600907E+00  0.35658848629E+02  0.17770000000E+01 0.  1.
</event>
<event>
 6    1  0.1782050E-003  0.5107646E+03  0.7546771E-02  0.9376040E-01
        -11   -1    0    0    0    0  0.00000000000E+00  0.00000000000E+00  0.50000000000E+03  0.50000000000E+03  0.00000000000E+00 0. -1.
         11   -1    0    0    0    0 -0.00000000000E+00 -0.00000000000E+00 -0.50000000000E+03  0.50000000000E+03  0.00000000000E+00 0. -1.
        -11    1    1    2    0    0 -0.70046179844E+01  0.37190265674E+01  0.48917112816E+03  0.48923541211E+03  0.00000000000E+00 0. -1.
         11    1    1    2    0    0 -0.13688977651E+01 -0.47448932408E+01 -0.27411687483E+03  0.27416135570E+03  0.00000000000E+00 0. -1.
        -15    1    1    2    0    0  0.11342682671E+01  0.73445393544E-01  0.10608096041E+02  0.10815793515E+02  0.17770000000E+01 0. -1.
         15    1    1    2    0    0  0.72392474824E+01  0.95242127980E+00 -0.22566234938E+03  0.22578743868E+03  0.17770000000E+01 0.  1.
</event>
<event>
 6    1  0.1782050E-003  0.5024241E+03  0.7546771E-02  0.9394402E-01
        -11   -1    0    0    0    0  0.00000000000E+00  0.00000000000E+00  0.50000000000E+03  0.50000000000E+03  0.00000000000E+00 0. -1.
         11   -1    0    0    0    0 -0.00000000000E+00 -0.00000000000E+00 -0.50000000000E+03  0.50000000000E+03  0.00000000000E+00 0.  1.
        -11    1    1    2    0    0  0.19100313563E+02 -0.11693505994E+02  0.49707164179E+03  0.49757590088E+03  0.00000000000E+00 0. -1.
         11    1    1    2    0    0  0.68330053757E+01 -0.43341981882E+01 -0.38976079187E+03  0.38984477695E+03  0.00000000000E+00 0.  1.
        -15    1    1    2    0    0 -0.12922902952E+01  0.27375016229E+01 -0.31818698770E+01  0.47377161435E+01  0.17770000000E+01 0.  1.
         15    1    1    2    0    0 -0.24641028644E+02  0.13290202560E+02 -0.10412898005E+03  0.10784160603E+03  0.17770000000E+01 0. -1.
</event>
<event>
 6    1  0.1782050E-003  0.5000670E+03  0.7546771E-02  0.9399660E-01
        -11   -1    0    0    0    0  0.00000000000E+00  0.00000000000E+00  0.50000000000E+03  0.50000000000E+03  0.00000000000E+00 0. -1.
         11   -1    0    0    0    0 -0.00000000000E+00 -0.00000000000E+00 -0.50000000000E+03  0.50000000000E+03  0.00000000000E+00 0.  1.
        -11    1    1    2    0    0 -0.52156242679E-01 -0.71562014668E+00  0.13061759433E+02  0.13081452211E+02  0.00000000000E+00 0. -1.
         11    1    1    2    0    0  0.58557757740E+01 -0.54692276130E+01 -0.49986873735E+03  0.49993295265E+03  0.00000000000E+00 0.  1.
        -15    1    1    2    0    0 -0.41033529467E+01  0.73943354121E+01  0.44739230086E+03  0.44747574493E+03  0.17770000000E+01 0. -1.
         15    1    1    2    0    0 -0.17002665846E+01 -0.12094876524E+01  0.39414677060E+02  0.39509850210E+02  0.17770000000E+01 0.  1.
</event>
<event>
 6    1  0.1782050E-003  0.4847513E+03  0.7546771E-02  0.9434591E-01
        -11   -1    0    0    0    0  0.00000000000E+00  0.00000000000E+00  0.50000000000E+03  0.50000000000E+03  0.00000000000E+00 0.  1.
         11   -1    0    0    0    0 -0.00000000000E+00 -0.00000000000E+00 -0.50000000000E+03  0.50000000000E+03  0.00000000000E+00 0. -1.
        -11    1    1    2    0    0 -0.44306584542E+01  0.69607423782E+01  0.48228284145E+03  0.48235342004E+03  0.00000000000E+00 0.  1.
         11    1    1    2    0    0  0.10552940156E+02 -0.84502546020E+00 -0.48708469137E+03  0.48719972822E+03  0.00000000000E+00 0. -1.
        -15    1    1    2    0    0  0.10600532289E+01 -0.98146074685E+01  0.14543512811E+02  0.17666967100E+02  0.17770000000E+01 0.  1.
         15    1    1    2    0    0 -0.71823349304E+01  0.36988905505E+01 -0.97416628933E+01  0.12779884635E+02  0.17770000000E+01 0. -1.
</event>
<event>
 6    1  0.1782050E-003  0.3948217E+03  0.7546771E-02  0.9671826E-01
        -11   -1    0    0    0    0  0.00000000000E+00  0.00000000000E+00  0.50000000000E+03  0.50000000000E+03  0.00000000000E+00 0.  1.
         11   -1    0    0    0    0 -0.00000000000E+00 -0.00000000000E+00 -0.50000000000E+03  0.50000000000E+03  0.00000000000E+00 0. -1.
        -11    1    1    2    0    0  0.11161073758E+02  0.78518833279E+00  0.39845619389E+03  0.39861325183E+03  0.00000000000E+00 0.  1.
         11    1    1    2    0    0  0.85326079339E+01 -0.57895746010E+01 -0.39118910990E+03  0.39132498550E+03  0.00000000000E+00 0. -1.
        -15    1    1    2    0    0 -0.60072437847E+02  0.63879167866E+02 -0.72154464899E+02  0.11357231357E+03  0.17770000000E+01 0. -1.
         15    1    1    2    0    0  0.40378756155E+02 -0.58874781598E+02  0.64887380911E+02  0.96489449099E+02  0.17770000000E+01 0.  1.
</event>
<event>
 6    1  0.1782050E-003  0.5002700E+03  0.7546771E-02  0.9399206E-01
        -11   -1    0    0    0    0  0.00000000000E+00  0.00000000000E+00  0.50000000000E+03  0.50000000000E+03  0.00000000000E+00 0. -1.
         11   -1    0    0    0    0 -0.00000000000E+00 -0.00000000000E+00 -0.50000000000E+03  0.50000000000E+03  0.00000000000E+00 0.  1.
        -11    1    1    2    0    0  0.20282535960E+01  0.30948098495E+01  0.26889530130E+03  0.26892075919E+03  0.00000000000E+00 0. -1.
         11    1    1    2    0    0  0.80516990808E+01 -0.86095888683E+01 -0.49959097092E+03  0.49973002021E+03  0.00000000000E+00 0.  1.
        -15    1    1    2    0    0 -0.21138996844E+00  0.29706813516E+01  0.14606567512E+02  0.15012633909E+02  0.17770000000E+01 0. -1.
         15    1    1    2    0    0 -0.98685627083E+01  0.25440976672E+01  0.21608910211E+03  0.21633658669E+03  0.17770000000E+01 0.  1.
</event>
<event>
 6    1  0.1782050E-003  0.5068089E+03  0.7546771E-02  0.9384702E-01
        -11   -1    0    0    0    0  0.00000000000E+00  0.00000000000E+00  0.50000000000E+03  0.50000000000E+03  0.00000000000E+00 0. -1.
         11   -1    0    0    0    0 -0.00000000000E+00 -0.00000000000E+00 -0.50000000000E+03  0.50000000000E+03  0.00000000000E+00 0. -1.
        -11    1    1    2    0    0 -0.28226851114E+02 -0.86027758500E+01  0.49230754937E+03  0.49319112526E+03  0.00000000000E+00 0. -1.
         11    1    1    2    0    0  0.27107063127E+01 -0.92179847157E+01 -0.41926118703E+03  0.41937127003E+03  0.00000000000E+00 0. -1.
        -15    1    1    2    0    0 -0.48606430548E+01  0.41638855118E+01 -0.39779510375E+02  0.40330273594E+02  0.17770000000E+01 0.  1.
         15    1    1    2    0    0  0.30376787856E+02  0.13656875054E+02 -0.33266851957E+02  0.47107331115E+02  0.17770000000E+01 0. -1.
</event>
<event>
 6    1  0.1782050E-003  0.5002817E+03  0.7546771E-02  0.9399180E-01
        -11   -1    0    0    0    0  0.00000000000E+00  0.00000000000E+00  0.50000000000E+03  0.50000000000E+03  0.00000000000E+00 0. -1.
         11   -1    0    0    0    0 -0.00000000000E+00 -0.00000000000E+00 -0.50000000000E+03  0.50000000000E+03  0.00000000000E+00 0.  1.
        -11    1    1    2    0    0  0.83534187550E+01  0.75056056936E+01  0.49959206663E+03  0.49971826739E+03  0.00000000000E+00 0. -1.
         11    1    1    2    0    0 -0.31032508682E+01 -0.20475550012E+01 -0.13844528257E+03  0.13849519455E+03  0.00000000000E+00 0.  1.
        -15    1    1    2    0    0 -0.19121215280E+01 -0.17081518276E+01 -0.78150801451E+01  0.84147013065E+01  0.17770000000E+01 0. -1.
         15    1    1    2    0    0 -0.33380463588E+01 -0.37498988648E+01 -0.35333170391E+03  0.35337183676E+03  0.17770000000E+01 0.  1.
</event>
<event>
 6    1  0.1782050E-003  0.5010366E+03  0.7546771E-02  0.9397493E-01
        -11   -1    0    0    0    0  0.00000000000E+00  0.00000000000E+00  0.50000000000E+03  0.50000000000E+03  0.00000000000E+00 0. -1.
         11   -1    0    0    0    0 -0.00000000000E+00 -0.00000000000E+00 -0.50000000000E+03  0.50000000000E+03  0.00000000000E+00 0.  1.
        -11    1    1    2    0    0  0.78485637545E+01 -0.27044835557E+01  0.49889429778E+03  0.49896335992E+03  0.00000000000E+00 0. -1.
         11    1    1    2    0    0 -0.58567946831E+01 -0.22948305590E+01 -0.32754417008E+03  0.32760456597E+03  0.00000000000E+00 0.  1.
        -15    1    1    2    0    0 -0.70034578587E+01 -0.54858042567E+00 -0.12901100782E+02  0.14796806847E+02  0.17770000000E+01 0. -1.
         15    1    1    2    0    0  0.50116887874E+01  0.55478945404E+01 -0.15844902692E+03  0.15863526726E+03  0.17770000000E+01 0.  1.
</event>
<event>
 6    1  0.1782050E-003  0.5137909E+03  0.7546771E-02  0.9369470E-01
        -11   -1    0    0    0    0  0.00000000000E+00  0.00000000000E+00  0.50000000000E+03  0.50000000000E+03  0.00000000000E+00 0.  1.
         11   -1    0    0    0    0 -0.00000000000E+00 -0.00000000000E+00 -0.50000000000E+03  0.50000000000E+03  0.00000000000E+00 0. -1.
        -11    1    1    2    0    0  0.86533141541E+01 -0.24252573453E+01  0.48612606281E+03  0.48620912236E+03  0.00000000000E+00 0.  1.
         11    1    1    2    0    0  0.26001119080E+02 -0.32704337418E+02 -0.10775580911E+03  0.11557225565E+03  0.00000000000E+00 0. -1.
        -15    1    1    2    0    0  0.11414717559E+02 -0.32566191620E+02 -0.57714404722E+02  0.67267844139E+02  0.17770000000E+01 0.  1.
         15    1    1    2    0    0 -0.46069150793E+02  0.67695786384E+02 -0.32065584898E+03  0.33095077786E+03  0.17770000000E+01 0. -1.
</event>
<event>
 6    1  0.1782050E-003  0.5030602E+03  0.7546771E-02  0.9392988E-01
        -11   -1    0    0    0    0  0.00000000000E+00  0.00000000000E+00  0.50000000000E+03  0.50000000000E+03  0.00000000000E+00 0. -1.
         11   -1    0    0    0    0 -0.00000000000E+00 -0.00000000000E+00 -0.50000000000E+03  0.50000000000E+03  0.00000000000E+00 0.  1.
        -11    1    1    2    0    0 -0.18380305566E+02  0.22097416412E+02  0.49610789505E+03  0.49693981021E+03  0.00000000000E+00 0. -1.
         11    1    1    2    0    0  0.80626178769E+01  0.99113813733E-01 -0.25081575204E+03  0.25094532692E+03  0.00000000000E+00 0.  1.
        -15    1    1    2    0    0  0.80465851338E+01 -0.31379851353E+01 -0.22066559435E+03  0.22084170064E+03  0.17770000000E+01 0. -1.
         15    1    1    2    0    0  0.22711025555E+01 -0.19058545091E+02 -0.24626548668E+02  0.31273162233E+02  0.17770000000E+01 0.  1.
</event>
<event>
 6    1  0.1782050E-003  0.5120818E+03  0.7546771E-02  0.9373174E-01
        -11   -1    0    0    0    0  0.00000000000E+00  0.00000000000E+00  0.50000000000E+03  0.50000000000E+03  0.00000000000E+00 0. -1.
         11   -1    0    0    0    0 -0.00000000000E+00 -0.00000000000E+00 -0.50000000000E+03  0.50000000000E+03  0.00000000000E+00 0.  1.
        -11    1    1    2    0    0  0.85432280580E+01 -0.10555743627E+02  0.48772922475E+03  0.48791823818E+03  0.00000000000E+00 0. -1.
         11    1    1    2    0    0 -0.77804843636E+01 -0.25590267084E+01 -0.47884506898E+03  0.47891511214E+03  0.00000000000E+00 0.  1.
        -15    1    1    2    0    0 -0.58174068932E+01  0.12072792834E+02  0.78033700292E+01  0.15609127541E+02  0.17770000000E+01 0.  1.
         15    1    1    2    0    0  0.50546631987E+01  0.10419775016E+01 -0.16687525805E+02  0.17557522139E+02  0.17770000000E+01 0. -1.
</event>
<event>
 6    1  0.1782050E-003  0.5033439E+03  0.7546771E-02  0.9392359E-01
        -11   -1    0    0    0    0  0.00000000000E+00  0.00000000000E+00  0.50000000000E+03  0.50000000000E+03  0.00000000000E+00 0.  1.
         11   -1    0    0    0    0 -0.00000000000E+00 -0.00000000000E+00 -0.50000000000E+03  0.50000000000E+03  0.00000000000E+00 0.  1.
        -11    1    1    2    0    0 -0.84381545166E+00 -0.24029334408E+02  0.49607378490E+03  0.49665613960E+03  0.00000000000E+00 0.  1.
         11    1    1    2    0    0 -0.68774357639E+01  0.43055147075E+01 -0.21297878244E+03  0.21313328775E+03  0.00000000000E+00 0.  1.
        -15    1    1    2    0    0  0.24966573416E+02  0.16723399404E+02 -0.67611426441E+02  0.74009895218E+02  0.17770000000E+01 0. -1.
         15    1    1    2    0    0 -0.17245322200E+02  0.30004202963E+01 -0.21548357602E+03  0.21620067743E+03  0.17770000000E+01 0.  1.
</event>
<event>
 6    1  0.1782050E-003  0.5033705E+03  0.7546771E-02  0.9392299E-01
        -11   -1    0    0    0    0  0.00000000000E+00  0.00000000000E+00  0.50000000000E+03  0.50000000000E+03  0.00000000000E+00 0. -1.
         11   -1    0    0    0    0 -0.00000000000E+00 -0.00000000000E+00 -0.50000000000E+03  0.50000000000E+03  0.00000000000E+00 0.  1.
        -11    1    1    2    0    0  0.94112101233E+01  0.24875596359E+00  0.14095172716E+03  0.14126578547E+03  0.00000000000E+00 0. -1.
         11    1    1    2    0    0 -0.66014512921E+01  0.77388166319E+01 -0.49652532425E+03  0.49662950583E+03  0.00000000000E+00 0.  1.
        -15    1    1    2    0    0 -0.11542372240E+02 -0.16418003191E+01  0.34928894124E+03  0.34948797414E+03  0.17770000000E+01 0. -1.
         15    1    1    2    0    0  0.87326134083E+01 -0.63457722764E+01  0.62846558463E+01  0.12616734555E+02  0.17770000000E+01 0. -1.
</event>
<event>
 6    1  0.1782050E-003  0.5208554E+03  0.7546771E-02  0.9354317E-01
        -11   -1    0    0    0    0  0.00000000000E+00  0.00000000000E+00  0.50000000000E+03  0.50000000000E+03  0.00000000000E+00 0. -1.
         11   -1    0    0    0    0 -0.00000000000E+00 -0.00000000000E+00 -0.50000000000E+03  0.50000000000E+03  0.00000000000E+00 0. -1.
        -11    1    1    2    0    0 -0.90484562605E+01  0.91340419780E+01  0.47897211831E+03  0.47914464977E+03  0.00000000000E+00 0. -1.
         11    1    1    2    0    0  0.74924145435E+01 -0.17481782007E+01 -0.38845783981E+03  0.38853402131E+03  0.00000000000E+00 0. -1.
        -15    1    1    2    0    0  0.15836790697E+02 -0.44672364941E+02 -0.20431872790E+02  0.51643424399E+02  0.17770000000E+01 0.  1.
         15    1    1    2    0    0 -0.14280748980E+02  0.37286501164E+02 -0.70082405706E+02  0.80677904528E+02  0.17770000000E+01 0. -1.
</event>
<event>
 6    1  0.1782050E-003  0.4908169E+03  0.7546771E-02  0.9420595E-01
        -11   -1    0    0    0    0  0.00000000000E+00  0.00000000000E+00  0.50000000000E+03  0.50000000000E+03  0.00000000000E+00 0. -1.
         11   -1    0    0    0    0 -0.00000000000E+00 -0.00000000000E+00 -0.50000000000E+03  0.50000000000E+03  0.00000000000E+00 0.  1.
        -11    1    1    2    0    0  0.11119372590E+02 -0.18553163241E+01  0.49325064437E+03  0.49337944912E+03  0.00000000000E+00 0. -1.
         11    1    1    2    0    0  0.23414259513E+01  0.73859395792E+01 -0.48831314612E+03  0.48837461344E+03  0.00000000000E+00 0.  1.
        -15    1    1    2    0    0 -0.37513887766E+01  0.22343343590E+01  0.98134514014E-01  0.47151380853E+01  0.17770000000E+01 0.  1.
         15    1    1    2    0    0 -0.97094097649E+01 -0.77649576141E+01 -0.50356327630E+01  0.13530799350E+02  0.17770000000E+01 0. -1.
</event>
<event>
 6    1  0.1782050E-003  0.5055243E+03  0.7546771E-02  0.9387533E-01
        -11   -1    0    0    0    0  0.00000000000E+00  0.00000000000E+00  0.50000000000E+03  0.50000000000E+03  0.00000000000E+00 0. -1.
         11   -1    0    0    0    0 -0.00000000000E+00 -0.00000000000E+00 -0.50000000000E+03  0.50000000000E+03  0.00000000000E+00 0.  1.
        -11    1    1    2    0    0  0.33264593213E+00 -0.64473445965E+01  0.47062736516E+03  0.47067164323E+03  0.00000000000E+00 0. -1.
         11    1    1    2    0    0 -0.10072686129E+01  0.78754452437E+01 -0.49441196405E+03  0.49447570964E+03  0.00000000000E+00 0.  1.
        -15    1    1    2    0    0  0.48984331677E+01 -0.66938909614E+01 -0.15066914984E+01  0.86157223709E+01  0.17770000000E+01 0. -1.
         15    1    1    2    0    0 -0.42238104869E+01  0.52657903141E+01  0.25291290383E+02  0.26236924760E+02  0.17770000000E+01 0. -1.
</event>
<event>
 6    1  0.1782050E-003  0.5028887E+03  0.7546771E-02  0.9393369E-01
        -11   -1    0    0    0    0  0.00000000000E+00  0.00000000000E+00  0.50000000000E+03  0.50000000000E+03  0.00000000000E+00 0.  1.
         11   -1    0    0    0    0 -0.00000000000E+00 -0.00000000000E+00 -0.50000000000E+03  0.50000000000E+03  0.00000000000E+00 0. -1.
        -11    1    1    2    0    0  0.59409492929E+00  0.68477198059E-01  0.17729012187E+02  0.17739095553E+02  0.00000000000E+00 0.  1.
         11    1    1    2    0    0  0.68753815917E+01  0.25371699477E+01 -0.49705724826E+03  0.49711127140E+03  0.00000000000E+00 0. -1.
        -15    1    1    2    0    0 -0.18300981775E-01  0.12011423495E+02  0.10562308037E+02  0.16093312566E+02  0.17770000000E+01 0. -1.
         15    1    1    2    0    0 -0.74511755392E+01 -0.14617070640E+02  0.46876592803E+03  0.46905632048E+03  0.17770000000E+01 0.  1.
</event>
<event>
 6    1  0.1782050E-003  0.5008296E+03  0.7546771E-02  0.9397955E-01
        -11   -1    0    0    0    0  0.00000000000E+00  0.00000000000E+00  0.50000000000E+03  0.50000000000E+03  0.00000000000E+00 0. -1.
         11   -1    0    0    0    0 -0.00000000000E+00 -0.00000000000E+00 -0.50000000000E+03  0.50000000000E+03  0.00000000000E+00 0.  1.
        -11    1    1    2    0    0 -0.44416467443E+01 -0.87155229194E+00  0.29695011151E+03  0.29698460660E+03  0.00000000000E+00 0. -1.
         11    1    1    2    0    0 -0.78971052061E+01 -0.74683339378E+01 -0.49905205574E+03  0.49917040640E+03  0.00000000000E+00 0.  1.
        -15    1    1    2    0    0  0.27909346274E+01 -0.11878902306E+01  0.14855891985E+03  0.14860050738E+03  0.17770000000E+01 0.  1.
         15    1    1    2    0    0  0.95478173230E+01  0.95277764603E+01  0.53543024379E+02  0.55244479621E+02  0.17770000000E+01 0. -1.
</event>
<event>
 6    1  0.1782050E-003  0.5009069E+03  0.7546771E-02  0.9397783E-01
        -11   -1    0    0    0    0  0.00000000000E+00  0.00000000000E+00  0.50000000000E+03  0.50000000000E+03  0.00000000000E+00 0.  1.
         11   -1    0    0    0    0 -0.00000000000E+00 -0.00000000000E+00 -0.50000000000E+03  0.50000000000E+03  0.00000000000E+00 0. -1.
        -11    1    1    2    0    0 -0.43367772419E+01 -0.12142198809E+01  0.20950266095E+03  0.20955106039E+03  0.00000000000E+00 0.  1.
         11    1    1    2    0    0 -0.26741928602E+02  0.97084303397E+01 -0.49828162502E+03  0.49909313980E+03  0.00000000000E+00 0. -1.
        -15    1    1    2    0    0  0.37888626554E+01 -0.76944571326E+01  0.12507761039E+03  0.12538391644E+03  0.17770000000E+01 0.  1.
         15    1    1    2    0    0  0.27289843188E+02 -0.79975332613E+00  0.16370135368E+03  0.16597188337E+03  0.17770000000E+01 0. -1.
</event>
<event>
 6    1  0.1782050E-003  0.5015039E+03  0.7546771E-02  0.9396451E-01
        -11   -1    0    0    0    0  0.00000000000E+00  0.00000000000E+00  0.50000000000E+03  0.50000000000E+03  0.00000000000E+00 0. -1.
         11   -1    0    0    0    0 -0.00000000000E+00 -0.00000000000E+00 -0.50000000000E+03  0.50000000000E+03  0.00000000000E+00 0. -1.
        -11    1    1    2    0    0  0.11533755142E+02 -0.81773469522E+01  0.49829559259E+03  0.49849613248E+03  0.00000000000E+00 0. -1.
         11    1    1    2    0    0 -0.12030195409E+01 -0.71667716734E+01 -0.37992866110E+03  0.37999815447E+03  0.00000000000E+00 0. -1.
        -15    1    1    2    0    0  0.38064379692E+00  0.31919504392E+01 -0.76363780866E+02  0.76452064684E+02  0.17770000000E+01 0.  1.
         15    1    1    2    0    0 -0.10711379398E+02  0.12152168186E+02 -0.42003150618E+02  0.45053648366E+02  0.17770000000E+01 0. -1.
</event>
<event>
 6    1  0.1782050E-003  0.5601352E+03  0.7546771E-02  0.9274474E-01
        -11   -1    0    0    0    0  0.00000000000E+00  0.00000000000E+00  0.50000000000E+03  0.50000000000E+03  0.00000000000E+00 0.  1.
         11   -1    0    0    0    0 -0.00000000000E+00 -0.00000000000E+00 -0.50000000000E+03  0.50000000000E+03  0.00000000000E+00 0. -1.
        -11    1    1    2    0    0 -0.56358948766E+01  0.79971563136E+01  0.43975595797E+03  0.43986477512E+03  0.00000000000E+00 0.  1.
         11    1    1    2    0    0  0.59568030111E+00 -0.66819495033E+01 -0.40654881157E+03  0.40660415575E+03  0.00000000000E+00 0. -1.
        -15    1    1    2    0    0 -0.10095082318E+02  0.68637402525E+01 -0.91704492115E+02  0.92530498866E+02  0.17770000000E+01 0.  1.
         15    1    1    2    0    0  0.15135296894E+02 -0.81789470627E+01  0.58497345714E+02  0.61000570258E+02  0.17770000000E+01 0. -1.
</event>
<event>
 6    1  0.1782050E-003  0.5002942E+03  0.7546771E-02  0.9399152E-01
        -11   -1    0    0    0    0  0.00000000000E+00  0.00000000000E+00  0.50000000000E+03  0.50000000000E+03  0.00000000000E+00 0.  1.
         11   -1    0    0    0    0 -0.00000000000E+00 -0.00000000000E+00 -0.50000000000E+03  0.50000000000E+03  0.00000000000E+00 0. -1.
        -11    1    1    2    0    0  0.65067385267E+01  0.19322395865E+01  0.49965966435E+03  0.49970576480E+03  0.00000000000E+00 0.  1.
         11    1    1    2    0    0 -0.28070811096E+01 -0.44704754636E+01 -0.34186709042E+02  0.34591847744E+02  0.00000000000E+00 0. -1.
        -15    1    1    2    0    0 -0.41250838190E+01 -0.26349435995E+01 -0.70778923926E+02  0.70970226471E+02  0.17770000000E+01 0.  1.
         15    1    1    2    0    0  0.42542640188E+00  0.51731794766E+01 -0.39469403139E+03  0.39473216098E+03  0.17770000000E+01 0. -1.
</event>
<event>
 6    1  0.1782050E-003  0.5008741E+03  0.7546771E-02  0.9397856E-01
        -11   -1    0    0    0    0  0.00000000000E+00  0.00000000000E+00  0.50000000000E+03  0.50000000000E+03  0.00000000000E+00 0. -1.
         11   -1    0    0    0    0 -0.00000000000E+00 -0.00000000000E+00 -0.50000000000E+03  0.50000000000E+03  0.00000000000E+00 0. -1.
        -11    1    1    2    0    0 -0.46186605461E+00  0.48606733524E+01  0.32033370261E+03  0.32037091081E+03  0.00000000000E+00 0. -1.
         11    1    1    2    0    0 -0.61958673760E+01  0.37953591451E+01 -0.49907296917E+03  0.49912585796E+03  0.00000000000E+00 0. -1.
        -15    1    1    2    0    0  0.30106095630E+01 -0.54955724453E+01  0.17149769336E+03  0.17162133213E+03  0.17770000000E+01 0. -1.
         15    1    1    2    0    0  0.36471238676E+01 -0.31604600522E+01  0.72415732035E+01  0.88818991048E+01  0.17770000000E+01 0.  1.
</event>
<event>
 6    1  0.1782050E-003  0.5024954E+03  0.7546771E-02  0.9394243E-01
        -11   -1    0    0    0    0  0.00000000000E+00  0.00000000000E+00  0.50000000000E+03  0.50000000000E+03  0.00000000000E+00 0.  1.
         11   -1    0    0    0    0 -0.00000000000E+00 -0.00000000000E+00 -0.50000000000E+03  0.50000000000E+03  0.00000000000E+00 0.  1.
        -11    1    1    2    0    0 -0.73609663785E+01  0.42884527040E+01  0.49743170249E+03  0.49750464651E+03  0.00000000000E+00 0.  1.
         11    1    1    2    0    0 -0.59549795535E+01  0.52834038711E+01 -0.23903038217E+03  0.23916291464E+03  0.00000000000E+00 0.  1.
        -15    1    1    2    0    0  0.57767696425E+01 -0.81528444515E+01 -0.25420868507E+03  0.25441118929E+03  0.17770000000E+01 0.  1.
         15    1    1    2    0    0  0.75391762895E+01 -0.14190121236E+01 -0.41926352511E+01  0.89212495694E+01  0.17770000000E+01 0. -1.
</event>
<event>
 6    1  0.1782050E-003  0.5059485E+03  0.7546771E-02  0.9386597E-01
        -11   -1    0    0    0    0  0.00000000000E+00  0.00000000000E+00  0.50000000000E+03  0.50000000000E+03  0.00000000000E+00 0. -1.
         11   -1    0    0    0    0 -0.00000000000E+00 -0.00000000000E+00 -0.50000000000E+03  0.50000000000E+03  0.00000000000E+00 0. -1.
        -11    1    1    2    0    0  0.78275654036E+01 -0.80630612039E+01  0.46003451060E+03  0.46017174477E+03  0.00000000000E+00 0. -1.
         11    1    1    2    0    0 -0.69139345812E+01 -0.24002652775E+01 -0.49399729239E+03  0.49405150404E+03  0.00000000000E+00 0. -1.
        -15    1    1    2    0    0 -0.83459661842E+01  0.16674186847E+02  0.29548748779E+02  0.34985281791E+02  0.17770000000E+01 0.  1.
         15    1    1    2    0    0  0.74323353618E+01 -0.62108603652E+01  0.44140330036E+01  0.10791469398E+02  0.17770000000E+01 0. -1.
</event>
<event>
 6    1  0.1782050E-003  0.5079107E+03  0.7546771E-02  0.9382281E-01
        -11   -1    0    0    0    0  0.00000000000E+00  0.00000000000E+00  0.50000000000E+03  0.50000000000E+03  0.00000000000E+00 0.  1.
         11   -1    0    0    0    0 -0.00000000000E+00 -0.00000000000E+00 -0.50000000000E+03  0.50000000000E+03  0.00000000000E+00 0. -1.
        -11    1    1    2    0    0  0.56058702071E+01 -0.56022798718E+01  0.45921670415E+03  0.45928508869E+03  0.00000000000E+00 0.  1.
         11    1    1    2    0    0  0.11298362998E+02 -0.14194875929E+02 -0.49175475789E+03  0.49208931041E+03  0.00000000000E+00 0. -1.
        -15    1    1    2    0    0  0.21928523738E+01 -0.49721369740E+00 -0.25129648199E+01  0.38116327447E+01  0.17770000000E+01 0.  1.
         15    1    1    2    0    0 -0.19097085579E+02  0.20294369498E+02  0.35051018558E+02  0.44813968156E+02  0.17770000000E+01 0. -1.
</event>
<event>
 6    1  0.1782050E-003  0.5026409E+03  0.7546771E-02  0.9393920E-01
        -11   -1    0    0    0    0  0.00000000000E+00  0.00000000000E+00  0.50000000000E+03  0.50000000000E+03  0.00000000000E+00 0. -1.
         11   -1    0    0    0    0 -0.00000000000E+00 -0.00000000000E+00 -0.50000000000E+03  0.50000000000E+03  0.00000000000E+00 0.  1.
        -11    1    1    2    0    0  0.17884210064E+01 -0.88581107492E+01  0.49727696968E+03  0.49735907467E+03  0.00000000000E+00 0. -1.
         11    1    1    2    0    0  0.13096811068E+02 -0.70081179885E+00 -0.43277478759E+03  0.43297347999E+03  0.00000000000E+00 0.  1.
        -15    1    1    2    0    0 -0.13005767028E+02  0.34774904485E+01 -0.17241667387E+02  0.21947112318E+02  0.17770000000E+01 0.  1.
         15    1    1    2    0    0 -0.18794650456E+01  0.60814320995E+01 -0.47260514705E+02  0.47720333029E+02  0.17770000000E+01 0. -1.
</event>
<event>
 6    1  0.1782050E-003  0.5270585E+03  0.7546771E-02  0.9341220E-01
        -11   -1    0    0    0    0  0.00000000000E+00  0.00000000000E+00  0.50000000000E+03  0.50000000000E+03  0.00000000000E+00 0.  1.
         11   -1    0    0    0    0 -0.00000000000E+00 -0.00000000000E+00 -0.50000000000E+03  0.50000000000E+03  0.00000000000E+00 0. -1.
        -11    1    1    2    0    0 -0.65067215656E+01 -0.19964214134E+01  0.47289249390E+03  0.47294146985E+03  0.00000000000E+00 0.  1.
         11    1    1    2    0    0 -0.38259844794E+02 -0.32971859481E+02 -0.41759340256E+03  0.42063667113E+03  0.00000000000E+00 0. -1.
        -15    1    1    2    0    0  0.44538060746E+01  0.56592155670E+01  0.17024187503E+02  0.18569970342E+02  0.17770000000E+01 0. -1.
         15    1    1    2    0    0  0.40312760285E+02  0.29309065328E+02 -0.72323278841E+02  0.87851888673E+02  0.17770000000E+01 0.  1.
</event>
<event>
 6    1  0.1782050E-003  0.5027032E+03  0.7546771E-02  0.9393781E-01
        -11   -1    0    0    0    0  0.00000000000E+00  0.00000000000E+00  0.50000000000E+03  0.50000000000E+03  0.00000000000E+00 0. -1.
         11   -1    0    0    0    0 -0.00000000000E+00 -0.00000000000E+00 -0.50000000000E+03  0.50000000000E+03  0.00000000000E+00 0.  1.
        -11    1    1    2    0    0  0.22114511783E+01  0.68911752140E+01  0.40465261203E+03  0.40471732757E+03  0.00000000000E+00 0. -1.
         11    1    1    2    0    0  0.77268617602E+01  0.90339911997E+01 -0.49715471425E+03  0.49729682011E+03  0.00000000000E+00 0.  1.
        -15    1    1    2    0    0 -0.18787806882E+02 -0.98486828207E+01  0.56576765181E+02  0.60448873671E+02  0.17770000000E+01 0.  1.
         15    1    1    2    0    0  0.88494939435E+01 -0.60764835930E+01  0.35925337039E+02  0.37536978652E+02  0.17770000000E+01 0. -1.
</event>
<event>
 6    1  0.1782050E-003  0.5012204E+03  0.7546771E-02  0.9397083E-01
        -11   -1    0    0    0    0  0.00000000000E+00  0.00000000000E+00  0.50000000000E+03  0.50000000000E+03  0.00000000000E+00 0. -1.
         11   -1    0    0    0    0 -0.00000000000E+00 -0.00000000000E+00 -0.50000000000E+03  0.50000000000E+03  0.00000000000E+00 0.  1.
        -11    1    1    2    0    0 -0.61826717258E+01  0.35943259315E+00  0.45363718886E+03  0.45367946144E+03  0.00000000000E+00 0. -1.
         11    1    1    2    0    0  0.73164370662E+01 -0.46679529616E+01 -0.49870404204E+03  0.49877955209E+03  0.00000000000E+00 0.  1.
        -15    1    1    2    0    0  0.32271750556E+00  0.63565163429E+00  0.42421890155E+02  0.42465076156E+02  0.17770000000E+01 0.  1.
         15    1    1    2    0    0 -0.14564828460E+01  0.36728687342E+01  0.26449630305E+01  0.50759103077E+01  0.17770000000E+01 0. -1.
</event>
<event>
 6    1  0.1782050E-003  0.5064204E+03  0.7546771E-02  0.9385557E-01
        -11   -1    0    0    0    0  0.00000000000E+00  0.00000000000E+00  0.50000000000E+03  0.50000000000E+03  0.00000000000E+00 0.  1.
         11   -1    0    0    0    0 -0.00000000000E+00 -0.00000000000E+00 -0.50000000000E+03  0.50000000000E+03  0.00000000000E+00 0.  1.
        -11    1    1    2    0    0  0.10535744956E+02  0.34546681089E+01  0.47950728586E+03  0.47963545933E+03  0.00000000000E+00 0.  1.
         11    1    1    2    0    0 -0.11945849116E+01 -0.12934295159E+02 -0.49340868126E+03  0.49357962859E+03  0.00000000000E+00 0.  1.
        -15    1    1    2    0    0 -0.53522411682E+01 -0.24077901260E+01  0.12651534319E+02  0.14059266995E+02  0.17770000000E+01 0. -1.
         15    1    1    2    0    0 -0.39889188765E+01  0.11887417176E+02  0.12498610737E+01  0.12725645077E+02  0.17770000000E+01 0.  1.
</event>
<event>
 6    1  0.1782050E-003  0.5019120E+03  0.7546771E-02  0.9395542E-01
        -11   -1    0    0    0    0  0.00000000000E+00  0.00000000000E+00  0.50000000000E+03  0.50000000000E+03  0.00000000000E+00 0.  1.
         11   -1    0    0    0    0 -0.00000000000E+00 -0.00000000000E+00 -0.50000000000E+03  0.50000000000E+03  0.00000000000E+00 0. -1.
        -11    1    1    2    0    0  0.12736688994E+00  0.49249233968E+01  0.26353301404E+03  0.26357905945E+03  0.00000000000E+00 0.  1.
         11    1    1    2    0    0  0.16923908186E+02 -0.14109387563E+01 -0.49779844571E+03  0.49808804640E+03  0.00000000000E+00 0. -1.
        -15    1    1    2    0    0 -0.80934849549E+01  0.17214905455E+02  0.14431924418E+03  0.14557836184E+03  0.17770000000E+01 0.  1.
         15    1    1    2    0    0 -0.89577901208E+01 -0.20728890095E+02  0.89946187500E+02  0.92754532305E+02  0.17770000000E+01 0. -1.
</event>
<event>
 6    1  0.1782050E-003  0.5047379E+03  0.7546771E-02  0.9389270E-01
        -11   -1    0    0    0    0  0.00000000000E+00  0.00000000000E+00  0.50000000000E+03  0.50000000000E+03  0.00000000000E+00 0. -1.
         11   -1    0    0    0    0 -0.00000000000E+00 -0.00000000000E+00 -0.50000000000E+03  0.50000000000E+03  0.00000000000E+00 0.  1.
        -11    1    1    2    0    0 -0.15078126243E+02  0.17176571982E+02  0.49473442944E+03  0.49526209242E+03  0.00000000000E+00 0. -1.
         11    1    1    2    0    0  0.90676365519E+01  0.10398774748E+02 -0.18846034557E+03  0.18896470147E+03  0.00000000000E+00 0.  1.
        -15    1    1    2    0    0 -0.16804142187E+02 -0.31539803082E+02 -0.72506037887E+02  0.80854323522E+02  0.17770000000E+01 0. -1.
         15    1    1    2    0    0  0.22814631879E+02  0.39644563516E+01 -0.23376804599E+03  0.23491888259E+03  0.17770000000E+01 0.  1.
</event>
<event>
 6    1  0.1782050E-003  0.5150373E+03  0.7546771E-02  0.9366777E-01
        -11   -1    0    0    0    0  0.00000000000E+00  0.00000000000E+00  0.50000000000E+03  0.50000000000E+03  0.00000000000E+00 0. -1.
         11   -1    0    0    0    0 -0.00000000000E+00 -0.00000000000E+00 -0.50000000000E+03  0.50000000000E+03  0.00000000000E+00 0.  1.
        -11    1    1    2    0    0 -0.14543627938E+02 -0.32818564837E+00  0.48474446265E+03  0.48496269845E+03  0.00000000000E+00 0. -1.
         11    1    1    2    0    0 -0.93564758443E+01  0.63059164230E+01 -0.43451428575E+03  0.43466075592E+03  0.00000000000E+00 0.  1.
        -15    1    1    2    0    0  0.33695967004E+02  0.45414318332E+01 -0.55376636114E+02  0.65005940895E+02  0.17770000000E+01 0. -1.
         15    1    1    2    0    0 -0.97958632217E+01 -0.10519162608E+02  0.51464592082E+01  0.15370604725E+02  0.17770000000E+01 0.  1.
</event>
<event>
 6    1  0.1782050E-003  0.5032089E+03  0.7546771E-02  0.9392658E-01
        -11   -1    0    0    0    0  0.00000000000E+00  0.00000000000E+00  0.50000000000E+03  0.50000000000E+03  0.00000000000E+00 0.  1.
         11   -1    0    0    0    0 -0.00000000000E+00 -0.00000000000E+00 -0.50000000000E+03  0.50000000000E+03  0.00000000000E+00 0. -1.
        -11    1    1    2    0    0 -0.16839905129E+02 -0.87446505702E+01  0.49642862216E+03  0.49679113138E+03  0.00000000000E+00 0.  1.
         11    1    1    2    0    0 -0.61791187009E+01 -0.10095418339E+02 -0.32102662993E+03  0.32124476042E+03  0.00000000000E+00 0. -1.
        -15    1    1    2    0    0  0.81536891573E+01 -0.11652395640E+02 -0.46279178739E+02  0.48447714959E+02  0.17770000000E+01 0.  1.
         15    1    1    2    0    0  0.14865334672E+02  0.30492464550E+02 -0.12912281350E+03  0.13351639324E+03  0.17770000000E+01 0. -1.
</event>
<event>
 6    1  0.1782050E-003  0.5052213E+03  0.7546771E-02  0.9388202E-01
        -11   -1    0    0    0    0  0.00000000000E+00  0.00000000000E+00  0.50000000000E+03  0.50000000000E+03  0.00000000000E+00 0.  1.
         11   -1    0    0    0    0 -0.00000000000E+00 -0.00000000000E+00 -0.50000000000E+03  0.50000000000E+03  0.00000000000E+00 0. -1.
        -11    1    1    2    0    0 -0.14842166144E+02  0.64531863978E+01  0.40543371986E+03  0.40575662005E+03  0.00000000000E+00 0.  1.
         11    1    1    2    0    0 -0.14379194171E+02 -0.14466956864E+02 -0.49435804796E+03  0.49477867137E+03  0.00000000000E+00 0. -1.
        -15    1    1    2    0    0  0.65648715831E+01 -0.11755554002E+02  0.37297599391E+02  0.39693314779E+02  0.17770000000E+01 0. -1.
         15    1    1    2    0    0  0.22656488732E+02  0.19769324468E+02  0.51626728702E+02  0.59771393802E+02  0.17770000000E+01 0.  1.
</event>
<event>
 6    1  0.1782050E-003  0.4648037E+03  0.7546771E-02  0.9482202E-01
        -11   -1    0    0    0    0  0.00000000000E+00  0.00000000000E+00  0.50000000000E+03  0.50000000000E+03  0.00000000000E+00 0. -1.
         11   -1    0    0    0    0 -0.00000000000E+00 -0.00000000000E+00 -0.50000000000E+03  0.50000000000E+03  0.00000000000E+00 0.  1.
        -11    1    1    2    0    0 -0.83855712070E+01 -0.55484028783E+01  0.46780205342E+03  0.46791010223E+03  0.00000000000E+00 0. -1.
         11    1    1    2    0    0  0.58506140931E+01 -0.84371725083E+01 -0.46171167209E+03  0.46182581534E+03  0.00000000000E+00 0.  1.
        -15    1    1    2    0    0  0.19854172490E+02  0.13543904608E+02  0.24939538043E+02  0.34680885284E+02  0.17770000000E+01 0.  1.
         15    1    1    2    0    0 -0.17319215377E+02  0.44167077819E+00 -0.31029919374E+02  0.35583197154E+02  0.17770000000E+01 0. -1.
</event>
<event>
 6    1  0.1782050E-003  0.5056715E+03  0.7546771E-02  0.9387208E-01
        -11   -1    0    0    0    0  0.00000000000E+00  0.00000000000E+00  0.50000000000E+03  0.50000000000E+03  0.00000000000E+00 0. -1.
         11   -1    0    0    0    0 -0.00000000000E+00 -0.00000000000E+00 -0.50000000000E+03  0.50000000000E+03  0.00000000000E+00 0. -1.
        -11    1    1    2    0    0 -0.37260137937E+01  0.12509105616E+01  0.28051258671E+03  0.28054012059E+03  0.00000000000E+00 0. -1.
         11    1    1    2    0    0 -0.12304293880E+02  0.13433651975E+02 -0.49399274115E+03  0.49432852129E+03  0.00000000000E+00 0. -1.
        -15    1    1    2    0    0  0.58346653732E+01 -0.13611049905E+01  0.20694455175E+03  0.20703888802E+03  0.17770000000E+01 0. -1.
         15    1    1    2    0    0  0.10195642301E+02 -0.13323457546E+02  0.65356026904E+01  0.18092470103E+02  0.17770000000E+01 0. -1.
</event>
<event>
 6    1  0.1782050E-003  0.5005835E+03  0.7546771E-02  0.9398505E-01
        -11   -1    0    0    0    0  0.00000000000E+00  0.00000000000E+00  0.50000000000E+03  0.50000000000E+03  0.00000000000E+00 0. -1.
         11   -1    0    0    0    0 -0.00000000000E+00 -0.00000000000E+00 -0.50000000000E+03  0.50000000000E+03  0.00000000000E+00 0. -1.
        -11    1    1    2    0    0  0.27073400791E+01  0.90916400567E+01  0.31860530663E+03  0.31874649649E+03  0.00000000000E+00 0. -1.
         11    1    1    2    0    0  0.68199313913E+01 -0.55724743334E+01 -0.49933882596E+03  0.49941648656E+03  0.00000000000E+00 0. -1.
        -15    1    1    2    0    0 -0.60198352240E+01 -0.10231335704E+02  0.12239062230E+03  0.12297780614E+03  0.17770000000E+01 0. -1.
         15    1    1    2    0    0 -0.35074362463E+01  0.67121699810E+01  0.58342897025E+02  0.58859210810E+02  0.17770000000E+01 0.  1.
</event>
<event>
 6    1  0.1782050E-003  0.5174502E+03  0.7546771E-02  0.9361588E-01
        -11   -1    0    0    0    0  0.00000000000E+00  0.00000000000E+00  0.50000000000E+03  0.50000000000E+03  0.00000000000E+00 0. -1.
         11   -1    0    0    0    0 -0.00000000000E+00 -0.00000000000E+00 -0.50000000000E+03  0.50000000000E+03  0.00000000000E+00 0.  1.
        -11    1    1    2    0    0  0.16135043991E+02  0.84275506712E+01  0.48220632953E+03  0.48254979794E+03  0.00000000000E+00 0. -1.
         11    1    1    2    0    0 -0.76065139317E+00  0.58353834909E+01 -0.42595777540E+03  0.42599842337E+03  0.00000000000E+00 0.  1.
        -15    1    1    2    0    0 -0.56253900719E+01 -0.94652012933E+01  0.15370907784E+02  0.18990986917E+02  0.17770000000E+01 0.  1.
         15    1    1    2    0    0 -0.97490025260E+01 -0.47977328689E+01 -0.71619461911E+02  0.72460791773E+02  0.17770000000E+01 0. -1.
</event>
<event>
 6    1  0.1782050E-003  0.5039420E+03  0.7546771E-02  0.9391032E-01
        -11   -1    0    0    0    0  0.00000000000E+00  0.00000000000E+00  0.50000000000E+03  0.50000000000E+03  0.00000000000E+00 0. -1.
         11   -1    0    0    0    0 -0.00000000000E+00 -0.00000000000E+00 -0.50000000000E+03  0.50000000000E+03  0.00000000000E+00 0. -1.
        -11    1    1    2    0    0  0.12898846100E+02 -0.18637716606E+01  0.43806768784E+03  0.43826151212E+03  0.00000000000E+00 0. -1.
         11    1    1    2    0    0  0.11146449619E+02  0.46239878624E+01 -0.49591117191E+03  0.49605797547E+03  0.00000000000E+00 0. -1.
        -15    1    1    2    0    0 -0.47750042746E+00 -0.62163124585E+01  0.19052200364E+02  0.20124974906E+02  0.17770000000E+01 0. -1.
         15    1    1    2    0    0 -0.23567795292E+02  0.34560962567E+01  0.38791283712E+02  0.45555537504E+02  0.17770000000E+01 0.  1.
</event>
<event>
 6    1  0.1782050E-003  0.5008363E+03  0.7546771E-02  0.9397940E-01
        -11   -1    0    0    0    0  0.00000000000E+00  0.00000000000E+00  0.50000000000E+03  0.50000000000E+03  0.00000000000E+00 0.  1.
         11   -1    0    0    0    0 -0.00000000000E+00 -0.00000000000E+00 -0.50000000000E+03  0.50000000000E+03  0.00000000000E+00 0.  1.
        -11    1    1    2    0    0 -0.13899438028E+02  0.60594013935E+01  0.49893334650E+03  0.49916369557E+03  0.00000000000E+00 0.  1.
         11    1    1    2    0    0 -0.51652560027E+01 -0.47529480505E+01 -0.37245525982E+03  0.37252139664E+03  0.00000000000E+00 0.  1.
        -15    1    1    2    0    0  0.39210495268E+01  0.14105786562E+01 -0.54576516461E+02  0.54764205824E+02  0.17770000000E+01 0. -1.
         15    1    1    2    0    0  0.15143644504E+02 -0.27170319992E+01 -0.71901570221E+02  0.73550701975E+02  0.17770000000E+01 0.  1.
</event>
<event>
 6    1  0.1782050E-003  0.5017456E+03  0.7546771E-02  0.9395912E-01
        -11   -1    0    0    0    0  0.00000000000E+00  0.00000000000E+00  0.50000000000E+03  0.50000000000E+03  0.00000000000E+00 0. -1.
         11   -1    0    0    0    0 -0.00000000000E+00 -0.00000000000E+00 -0.50000000000E+03  0.50000000000E+03  0.00000000000E+00 0.  1.
        -11    1    1    2    0    0  0.65795668536E+01 -0.63736984169E+00  0.35973184986E+03  0.35979258017E+03  0.00000000000E+00 0. -1.
         11    1    1    2    0    0 -0.44363139571E+01 -0.77623089442E+01 -0.49817420019E+03  0.49825442101E+03  0.00000000000E+00 0.  1.
        -15    1    1    2    0    0  0.12749735544E+02  0.25085716089E+01  0.37379627979E+02  0.39613671943E+02  0.17770000000E+01 0.  1.
         15    1    1    2    0    0 -0.14892988440E+02  0.58911071770E+01  0.10106272235E+03  0.10233932688E+03  0.17770000000E+01 0. -1.
</event>
<event>
 6    1  0.1782050E-003  0.5079257E+03  0.7546771E-02  0.9382248E-01
        -11   -1    0    0    0    0  0.00000000000E+00  0.00000000000E+00  0.50000000000E+03  0.50000000000E+03  0.00000000000E+00 0. -1.
         11   -1    0    0    0    0 -0.00000000000E+00 -0.00000000000E+00 -0.50000000000E+03  0.50000000000E+03  0.00000000000E+00 0.  1.
        -11    1    1    2    0    0 -0.10606865565E+01 -0.13961531868E+02  0.49187506623E+03  0.49207431370E+03  0.00000000000E+00 0. -1.
         11    1    1    2    0    0 -0.11274333524E+02  0.12791025053E+01 -0.47624445561E+03  0.47637960515E+03  0.00000000000E+00 0.  1.
        -15    1    1    2    0    0  0.17294724819E+02  0.11078353312E+02 -0.15896338423E+02  0.26032455185E+02  0.17770000000E+01 0. -1.
         15    1    1    2    0    0 -0.49597047386E+01  0.16040760508E+01  0.26572780743E+00  0.55136259701E+01  0.17770000000E+01 0.  1.
</event>
<event>
 6    1  0.1782050E-003  0.4899032E+03  0.7546771E-02  0.9422690E-01
        -11   -1    0    0    0    0  0.00000000000E+00  0.00000000000E+00  0.50000000000E+03  0.50000000000E+03  0.00000000000E+00 0.  1.
         11   -1    0    0    0    0 -0.00000000000E+00 -0.00000000000E+00 -0.50000000000E+03  0.50000000000E+03  0.00000000000E+00 0.  1.
        -11    1    1    2    0    0  0.72507673048E+01 -0.24791094971E+01  0.48800371282E+03  0.48806387219E+03  0.00000000000E+00 0.  1.
         11    1    1    2    0    0  0.53289713666E+01  0.89823728754E+01 -0.49174099795E+03  0.49185189846E+03  0.00000000000E+00 0.  1.
        -15    1    1    2    0    0  0.16930403078E+01 -0.10033083746E+01 -0.23334412965E+01  0.35320943451E+01  0.17770000000E+01 0.  1.
         15    1    1    2    0    0 -0.14272778979E+02 -0.54999550037E+01  0.60707264206E+01  0.16552135001E+02  0.17770000000E+01 0. -1.
</event>
<event>
 6    1  0.1782050E-003  0.5205157E+03  0.7546771E-02  0.9355039E-01
        -11   -1    0    0    0    0  0.00000000000E+00  0.00000000000E+00  0.50000000000E+03  0.50000000000E+03  0.00000000000E+00 0.  1.
         11   -1    0    0    0    0 -0.00000000000E+00 -0.00000000000E+00 -0.50000000000E+03  0.50000000000E+03  0.00000000000E+00 0. -1.
        -11    1    1    2    0    0  0.18667506652E+02 -0.11830000330E+02  0.47897474279E+03  0.47948433649E+03  0.00000000000E+00 0.  1.
         11    1    1    2    0    0  0.25814043656E+01  0.13378558757E+02 -0.42659132640E+03  0.42680886734E+03  0.00000000000E+00 0. -1.
        -15    1    1    2    0    0 -0.20342405409E+02 -0.12990273046E+02  0.12881672657E+02  0.27416343138E+02  0.17770000000E+01 0.  1.
         15    1    1    2    0    0 -0.90650560793E+00  0.11441714619E+02 -0.65265089044E+02  0.66290453029E+02  0.17770000000E+01 0. -1.
</event>
<event>
 6    1  0.1782050E-003  0.5815474E+03  0.7546771E-02  0.9233817E-01
        -11   -1    0    0    0    0  0.00000000000E+00  0.00000000000E+00  0.50000000000E+03  0.50000000000E+03  0.00000000000E+00 0. -1.
         11   -1    0    0    0    0 -0.00000000000E+00 -0.00000000000E+00 -0.50000000000E+03  0.50000000000E+03  0.00000000000E+00 0.  1.
        -11    1    1    2    0    0  0.78541984330E+02 -0.40846081209E+02  0.25399950693E+03  0.26898512073E+03  0.00000000000E+00 0. -1.
         11    1    1    2    0    0 -0.22799860145E+02 -0.70317778516E+02 -0.41187152380E+03  0.41845259673E+03  0.00000000000E+00 0.  1.
        -15    1    1    2    0    0  0.84530171699E+01  0.11910445404E+03  0.20170548803E+03  0.23440474846E+03  0.17770000000E+01 0. -1.
         15    1    1    2    0    0 -0.64195141355E+02 -0.79405943122E+01 -0.43833471156E+02  0.78157534085E+02  0.17770000000E+01 0.  1.
</event>
<event>
 6    1  0.1782050E-003  0.5044903E+03  0.7546771E-02  0.9389818E-01
        -11   -1    0    0    0    0  0.00000000000E+00  0.00000000000E+00  0.50000000000E+03  0.50000000000E+03  0.00000000000E+00 0. -1.
         11   -1    0    0    0    0 -0.00000000000E+00 -0.00000000000E+00 -0.50000000000E+03  0.50000000000E+03  0.00000000000E+00 0. -1.
        -11    1    1    2    0    0  0.21581486972E+02 -0.90523691030E+00  0.44350890667E+03  0.44403460488E+03  0.00000000000E+00 0. -1.
         11    1    1    2    0    0 -0.17326551752E+02 -0.35728966538E+01 -0.49519382435E+03  0.49550973619E+03  0.00000000000E+00 0. -1.
        -15    1    1    2    0    0  0.68846636313E+01 -0.17475729156E+01  0.13834828066E+00  0.73232147079E+01  0.17770000000E+01 0.  1.
         15    1    1    2    0    0 -0.11139598851E+02  0.62257064797E+01  0.51546569395E+02  0.53132444223E+02  0.17770000000E+01 0. -1.
</event>
<event>
 6    1  0.1782050E-003  0.5324484E+03  0.7546771E-02  0.9329995E-01
        -11   -1    0    0    0    0  0.00000000000E+00  0.00000000000E+00  0.50000000000E+03  0.50000000000E+03  0.00000000000E+00 0. -1.
         11   -1    0    0    0    0 -0.00000000000E+00 -0.00000000000E+00 -0.50000000000E+03  0.50000000000E+03  0.00000000000E+00 0.  1.
        -11    1    1    2    0    0  0.22018266500E+01  0.59599795943E+01  0.38574363951E+03  0.38579596268E+03  0.00000000000E+00 0. -1.
         11    1    1    2    0    0 -0.21448861389E+02  0.57268078452E+01 -0.46702420260E+03  0.46755155416E+03  0.00000000000E+00 0.  1.
        -15    1    1    2    0    0 -0.51523659996E+00 -0.94544361442E+01  0.11068826800E+03  0.11110671552E+03  0.17770000000E+01 0. -1.
         15    1    1    2    0    0  0.19762271338E+02 -0.22323512953E+01 -0.29407704906E+02  0.35545767647E+02  0.17770000000E+01 0.  1.
</event>
<event>
 6    1  0.1782050E-003  0.5084583E+03  0.7546771E-02  0.9381080E-01
        -11   -1    0    0    0    0  0.00000000000E+00  0.00000000000E+00  0.50000000000E+03  0.50000000000E+03  0.00000000000E+00 0. -1.
         11   -1    0    0    0    0 -0.00000000000E+00 -0.00000000000E+00 -0.50000000000E+03  0.50000000000E+03  0.00000000000E+00 0.  1.
        -11    1    1    2    0    0 -0.53616445250E+01 -0.30149736873E+01  0.41095128035E+03  0.41099731401E+03  0.00000000000E+00 0. -1.
         11    1    1    2    0    0  0.47628835837E+01  0.78294074821E+01 -0.49145630734E+03  0.49154174462E+03  0.00000000000E+00 0.  1.
        -15    1    1    2    0    0  0.11573180378E+02 -0.12093110659E+01  0.84342369830E+02  0.85159814554E+02  0.17770000000E+01 0.  1.
         15    1    1    2    0    0 -0.10974419436E+02 -0.36051227289E+01 -0.38373428393E+01  0.12301126815E+02  0.17770000000E+01 0. -1.
</event>
<event>
 6    1  0.1782050E-003  0.5007824E+03  0.7546771E-02  0.9398061E-01
        -11   -1    0    0    0    0  0.00000000000E+00  0.00000000000E+00  0.50000000000E+03  0.50000000000E+03  0.00000000000E+00 0. -1.
         11   -1    0    0    0    0 -0.00000000000E+00 -0.00000000000E+00 -0.50000000000E+03  0.50000000000E+03  0.00000000000E+00 0.  1.
        -11    1    1    2    0    0  0.19241320669E+02  0.57039622248E+01  0.49881405234E+03  0.49921761028E+03  0.00000000000E+00 0. -1.
         11    1    1    2    0    0  0.45295335499E+01 -0.59229520954E+01 -0.16160269605E+03  0.16177462535E+03  0.00000000000E+00 0.  1.
        -15    1    1    2    0    0 -0.11437236681E+02 -0.44392115688E+01 -0.27983189700E+03  0.28010634639E+03  0.17770000000E+01 0.  1.
         15    1    1    2    0    0 -0.12333617537E+02  0.46582014393E+01 -0.57379459288E+02  0.58901417974E+02  0.17770000000E+01 0. -1.
</event>
<event>
 6    1  0.1782050E-003  0.3278937E+03  0.7546771E-02  0.9897299E-01
        -11   -1    0    0    0    0  0.00000000000E+00  0.00000000000E+00  0.50000000000E+03  0.50000000000E+03  0.00000000000E+00 0.  1.
         11   -1    0    0    0    0 -0.00000000000E+00 -0.00000000000E+00 -0.50000000000E+03  0.50000000000E+03  0.00000000000E+00 0.  1.
        -11    1    1    2    0    0 -0.44824930462E+02 -0.66820044906E+02  0.45124257292E+03  0.45836017759E+03  0.00000000000E+00 0.  1.
         11    1    1    2    0    0  0.15538090826E+02  0.33101691762E+02 -0.32035595728E+02  0.48615158723E+02  0.00000000000E+00 0.  1.
        -15    1    1    2    0    0 -0.10149227517E+03  0.70431795125E+02 -0.20656092668E+03  0.24069045233E+03  0.17770000000E+01 0. -1.
         15    1    1    2    0    0  0.13077911481E+03 -0.36713441981E+02 -0.21264605051E+03  0.25233421135E+03  0.17770000000E+01 0.  1.
</event>
<event>
 6    1  0.1782050E-003  0.5093732E+03  0.7546771E-02  0.9379077E-01
        -11   -1    0    0    0    0  0.00000000000E+00  0.00000000000E+00  0.50000000000E+03  0.50000000000E+03  0.00000000000E+00 0. -1.
         11   -1    0    0    0    0 -0.00000000000E+00 -0.00000000000E+00 -0.50000000000E+03  0.50000000000E+03  0.00000000000E+00 0.  1.
        -11    1    1    2    0    0  0.11196709314E+02  0.78937529547E+01  0.49043552300E+03  0.49062682342E+03  0.00000000000E+00 0. -1.
         11    1    1    2    0    0 -0.25585893086E+01  0.67109840233E+01 -0.31113656721E+03  0.31121945174E+03  0.00000000000E+00 0.  1.
        -15    1    1    2    0    0 -0.54266975823E+01 -0.55738260962E+01  0.75887409072E+01  0.11011961749E+02  0.17770000000E+01 0. -1.
         15    1    1    2    0    0 -0.32114224234E+01 -0.90309108819E+01 -0.18688769670E+03  0.18714176309E+03  0.17770000000E+01 0.  1.
</event>
<event>
 6    1  0.1782050E-003  0.4857898E+03  0.7546771E-02  0.9432180E-01
        -11   -1    0    0    0    0  0.00000000000E+00  0.00000000000E+00  0.50000000000E+03  0.50000000000E+03  0.00000000000E+00 0.  1.
         11   -1    0    0    0    0 -0.00000000000E+00 -0.00000000000E+00 -0.50000000000E+03  0.50000000000E+03  0.00000000000E+00 0. -1.
        -11    1    1    2    0    0 -0.11344332048E+01 -0.99022868666E+01  0.48050369664E+03  0.48060705853E+03  0.00000000000E+00 0.  1.
         11    1    1    2    0    0 -0.34275384828E+01 -0.72968107574E+01 -0.49112741764E+03  0.49119357877E+03  0.00000000000E+00 0. -1.
        -15    1    1    2    0    0 -0.33931727455E+01  0.17091155520E+02  0.96278147590E+01  0.19986839778E+02  0.17770000000E+01 0.  1.
         15    1    1    2    0    0  0.79551444331E+01  0.10794210396E+00  0.99590624567E+00  0.82125229193E+01  0.17770000000E+01 0. -1.
</event>
<event>
 6    1  0.1782050E-003  0.5022424E+03  0.7546771E-02  0.9394806E-01
        -11   -1    0    0    0    0  0.00000000000E+00  0.00000000000E+00  0.50000000000E+03  0.50000000000E+03  0.00000000000E+00 0.  1.
         11   -1    0    0    0    0 -0.00000000000E+00 -0.00000000000E+00 -0.50000000000E+03  0.50000000000E+03  0.00000000000E+00 0.  1.
        -11    1    1    2    0    0  0.13474513686E+02 -0.42306571915E+01  0.49755721676E+03  0.49775761665E+03  0.00000000000E+00 0.  1.
         11    1    1    2    0    0 -0.37064683220E+01 -0.55288208365E+01 -0.25806817752E+03  0.25815400445E+03  0.00000000000E+00 0.  1.
        -15    1    1    2    0    0 -0.10594712901E+02  0.61472855251E+01 -0.14510112543E+02  0.19071920611E+02  0.17770000000E+01 0. -1.
         15    1    1    2    0    0  0.82666753691E+00  0.36121925028E+01 -0.22497892670E+03  0.22501645829E+03  0.17770000000E+01 0.  1.
</event>
<event>
 6    1  0.1782050E-003  0.5142140E+03  0.7546771E-02  0.9368555E-01
        -11   -1    0    0    0    0  0.00000000000E+00  0.00000000000E+00  0.50000000000E+03  0.50000000000E+03  0.00000000000E+00 0.  1.
         11   -1    0    0    0    0 -0.00000000000E+00 -0.00000000000E+00 -0.50000000000E+03  0.50000000000E+03  0.00000000000E+00 0. -1.
        -11    1    1    2    0    0 -0.84405851507E+00  0.19752762083E+02  0.43136383912E+03  0.43181668071E+03  0.00000000000E+00 0.  1.
         11    1    1    2    0    0 -0.60336982688E+01 -0.35590121943E+01 -0.48573552424E+03  0.48578603479E+03  0.00000000000E+00 0. -1.
        -15    1    1    2    0    0  0.32591699495E+02 -0.13682453380E+02  0.37070679676E+02  0.51252526056E+02  0.17770000000E+01 0.  1.
         15    1    1    2    0    0 -0.25713942711E+02 -0.25112965083E+01  0.17301005449E+02  0.31144758442E+02  0.17770000000E+01 0. -1.
</event>
<event>
 6    1  0.1782050E-003  0.5190614E+03  0.7546771E-02  0.9358140E-01
        -11   -1    0    0    0    0  0.00000000000E+00  0.00000000000E+00  0.50000000000E+03  0.50000000000E+03  0.00000000000E+00 0. -1.
         11   -1    0    0    0    0 -0.00000000000E+00 -0.00000000000E+00 -0.50000000000E+03  0.50000000000E+03  0.00000000000E+00 0. -1.
        -11    1    1    2    0    0 -0.93236046877E+01 -0.19641294312E+01  0.45352138351E+03  0.45362146412E+03  0.00000000000E+00 0. -1.
         11    1    1    2    0    0  0.56898072419E+01  0.80385194785E+01 -0.48083779849E+03  0.48093864490E+03  0.00000000000E+00 0. -1.
        -15    1    1    2    0    0  0.16674524436E+01 -0.17189842863E+02 -0.14168929130E+02  0.22409537635E+02  0.17770000000E+01 0. -1.
         15    1    1    2    0    0  0.19663450021E+01  0.11115452816E+02  0.41485344107E+02  0.43030353341E+02  0.17770000000E+01 0.  1.
</event>
<event>
 6    1  0.1782050E-003  0.5175855E+03  0.7546771E-02  0.9361298E-01
        -11   -1    0    0    0    0  0.00000000000E+00  0.00000000000E+00  0.50000000000E+03  0.50000000000E+03  0.00000000000E+00 0. -1.
         11   -1    0    0    0    0 -0.00000000000E+00 -0.00000000000E+00 -0.50000000000E+03  0.50000000000E+03  0.00000000000E+00 0.  1.
        -11    1    1    2    0    0  0.53079230933E+01 -0.17434663546E+02  0.48207012601E+03  0.48241449805E+03  0.00000000000E+00 0. -1.
         11    1    1    2    0    0  0.66290983484E+01  0.33254721953E+01 -0.40394069576E+03  0.40400877392E+03  0.00000000000E+00 0.  1.
        -15    1    1    2    0    0 -0.78670511887E+01  0.33610831951E+02 -0.17361058534E+01  0.34608529460E+02  0.17770000000E+01 0. -1.
         15    1    1    2    0    0 -0.40699702530E+01 -0.19501640600E+02 -0.76393324397E+02  0.78968198570E+02  0.17770000000E+01 0.  1.
</event>
<event>
 6    1  0.1782050E-003  0.5006574E+03  0.7546771E-02  0.9398340E-01
        -11   -1    0    0    0    0  0.00000000000E+00  0.00000000000E+00  0.50000000000E+03  0.50000000000E+03  0.00000000000E+00 0. -1.
         11   -1    0    0    0    0 -0.00000000000E+00 -0.00000000000E+00 -0.50000000000E+03  0.50000000000E+03  0.00000000000E+00 0. -1.
        -11    1    1    2    0    0  0.14099825735E+01 -0.65953451188E+01  0.35664224912E+03  0.35670601409E+03  0.00000000000E+00 0. -1.
         11    1    1    2    0    0 -0.11873100007E+02  0.26852720534E+01 -0.49919422576E+03  0.49934262408E+03  0.00000000000E+00 0. -1.
        -15    1    1    2    0    0  0.76602362880E+01  0.66004515017E+01  0.13398944593E+03  0.13438219573E+03  0.17770000000E+01 0. -1.
         15    1    1    2    0    0  0.28028811457E+01 -0.26903784363E+01  0.85625307045E+01  0.95691661033E+01  0.17770000000E+01 0.  1.
</event>
<event>
 6    1  0.1782050E-003  0.5141444E+03  0.7546771E-02  0.9368705E-01
        -11   -1    0    0    0    0  0.00000000000E+00  0.00000000000E+00  0.50000000000E+03  0.50000000000E+03  0.00000000000E+00 0. -1.
         11   -1    0    0    0    0 -0.00000000000E+00 -0.00000000000E+00 -0.50000000000E+03  0.50000000000E+03  0.00000000000E+00 0.  1.
        -11    1    1    2    0    0 -0.18833139562E+02 -0.42831327198E+00  0.48549028689E+03  0.48585562594E+03  0.00000000000E+00 0. -1.
         11    1    1    2    0    0 -0.10516875574E+00 -0.26404356596E+02 -0.19251559749E+03  0.19431792605E+03  0.00000000000E+00 0.  1.
        -15    1    1    2    0    0  0.12623273643E+02 -0.25705539962E+02 -0.24998197153E+03  0.25162326133E+03  0.17770000000E+01 0.  1.
         15    1    1    2    0    0  0.63150346741E+01  0.52538209830E+02 -0.42992717868E+02  0.68203186683E+02  0.17770000000E+01 0. -1.
</event>
<event>
 6    1  0.1782050E-003  0.5145726E+03  0.7546771E-02  0.9367780E-01
        -11   -1    0    0    0    0  0.00000000000E+00  0.00000000000E+00  0.50000000000E+03  0.50000000000E+03  0.00000000000E+00 0. -1.
         11   -1    0    0    0    0 -0.00000000000E+00 -0.00000000000E+00 -0.50000000000E+03  0.50000000000E+03  0.00000000000E+00 0.  1.
        -11    1    1    2    0    0  0.69738957907E+01  0.95810445849E+01  0.47328204289E+03  0.47343037900E+03  0.00000000000E+00 0. -1.
         11    1    1    2    0    0  0.49298291855E+01  0.59489861463E+01 -0.48536588621E+03  0.48542737578E+03  0.00000000000E+00 0.  1.
        -15    1    1    2    0    0 -0.17440214602E+01 -0.65572662467E+01 -0.11739451185E+02  0.13675225578E+02  0.17770000000E+01 0. -1.
         15    1    1    2    0    0 -0.10159703516E+02 -0.89727644845E+01  0.23823294504E+02  0.27467019643E+02  0.17770000000E+01 0.  1.
</event>
<event>
 6    1  0.1782050E-003  0.5153597E+03  0.7546771E-02  0.9366082E-01
        -11   -1    0    0    0    0  0.00000000000E+00  0.00000000000E+00  0.50000000000E+03  0.50000000000E+03  0.00000000000E+00 0.  1.
         11   -1    0    0    0    0 -0.00000000000E+00 -0.00000000000E+00 -0.50000000000E+03  0.50000000000E+03  0.00000000000E+00 0. -1.
        -11    1    1    2    0    0  0.73000745553E+01 -0.16784855345E+02  0.48429451999E+03  0.48464028366E+03  0.00000000000E+00 0.  1.
         11    1    1    2    0    0  0.95454665255E+00  0.12438781879E+02 -0.47294084679E+03  0.47310535721E+03  0.00000000000E+00 0. -1.
        -15    1    1    2    0    0 -0.85543806566E+01  0.15122673813E+02 -0.21254396252E+02  0.27509630691E+02  0.17770000000E+01 0.  1.
         15    1    1    2    0    0  0.29975944876E+00 -0.10776600347E+02  0.99007230591E+01  0.14744728443E+02  0.17770000000E+01 0. -1.
</event>
<event>
 6    1  0.1782050E-003  0.5043071E+03  0.7546771E-02  0.9390224E-01
        -11   -1    0    0    0    0  0.00000000000E+00  0.00000000000E+00  0.50000000000E+03  0.50000000000E+03  0.00000000000E+00 0.  1.
         11   -1    0    0    0    0 -0.00000000000E+00 -0.00000000000E+00 -0.50000000000E+03  0.50000000000E+03  0.00000000000E+00 0. -1.
        -11    1    1    2    0    0  0.55619659005E+01 -0.32600444631E+01  0.44128034190E+03  0.44132743343E+03  0.00000000000E+00 0.  1.
         11    1    1    2    0    0  0.75686075983E+00 -0.77741259305E+01 -0.49563140022E+03  0.49569294403E+03  0.00000000000E+00 0. -1.
        -15    1    1    2    0    0  0.36238329732E+01  0.18266206726E+02  0.38815753228E+02  0.43088361552E+02  0.17770000000E+01 0.  1.
         15    1    1    2    0    0 -0.99426596336E+01 -0.72320363323E+01  0.15535305098E+02  0.19891260985E+02  0.17770000000E+01 0. -1.
</event>
<event>
 6    1  0.1782050E-003  0.5093271E+03  0.7546771E-02  0.9379178E-01
        -11   -1    0    0    0    0  0.00000000000E+00  0.00000000000E+00  0.50000000000E+03  0.50000000000E+03  0.00000000000E+00 0.  1.
         11   -1    0    0    0    0 -0.00000000000E+00 -0.00000000000E+00 -0.50000000000E+03  0.50000000000E+03  0.00000000000E+00 0.  1.
        -11    1    1    2    0    0 -0.92277136179E+01 -0.74277604706E+01  0.42177620432E+03  0.42194251842E+03  0.00000000000E+00 0.  1.
         11    1    1    2    0    0 -0.16668701827E+02 -0.21295996850E+01 -0.49038508272E+03  0.49067291567E+03  0.00000000000E+00 0.  1.
        -15    1    1    2    0    0  0.24423659155E+02  0.23440636016E+02  0.64261672585E+02  0.72654654604E+02  0.17770000000E+01 0. -1.
         15    1    1    2    0    0  0.14727562908E+01 -0.13883275860E+02  0.43472058193E+01  0.14729911308E+02  0.17770000000E+01 0.  1.
</event>
<event>
 6    1  0.1782050E-003  0.5067746E+03  0.7546771E-02  0.9384777E-01
        -11   -1    0    0    0    0  0.00000000000E+00  0.00000000000E+00  0.50000000000E+03  0.50000000000E+03  0.00000000000E+00 0. -1.
         11   -1    0    0    0    0 -0.00000000000E+00 -0.00000000000E+00 -0.50000000000E+03  0.50000000000E+03  0.00000000000E+00 0. -1.
        -11    1    1    2    0    0  0.67639676407E+01  0.63373586172E+01  0.42278248008E+03  0.42288407257E+03  0.00000000000E+00 0. -1.
         11    1    1    2    0    0  0.11793704722E+01  0.18066582092E+02 -0.49289295974E+03  0.49322536641E+03  0.00000000000E+00 0. -1.
        -15    1    1    2    0    0 -0.58153902516E+01 -0.14617079255E+01  0.56958797470E+02  0.57301114230E+02  0.17770000000E+01 0. -1.
         15    1    1    2    0    0 -0.21279478613E+01 -0.22942232783E+02  0.13151682193E+02  0.26589446792E+02  0.17770000000E+01 0.  1.
</event>
<event>
 6    1  0.1782050E-003  0.5048666E+03  0.7546771E-02  0.9388986E-01
        -11   -1    0    0    0    0  0.00000000000E+00  0.00000000000E+00  0.50000000000E+03  0.50000000000E+03  0.00000000000E+00 0.  1.
         11   -1    0    0    0    0 -0.00000000000E+00 -0.00000000000E+00 -0.50000000000E+03  0.50000000000E+03  0.00000000000E+00 0. -1.
        -11    1    1    2    0    0  0.56055833213E+01 -0.23673515248E+01  0.44917291857E+03  0.44921413345E+03  0.00000000000E+00 0.  1.
         11    1    1    2    0    0 -0.88524604430E+01 -0.87592686974E+01 -0.49497673235E+03  0.49513337234E+03  0.00000000000E+00 0. -1.
        -15    1    1    2    0    0  0.56477129068E+01  0.45498645593E+01 -0.16541318107E+01  0.76479938305E+01  0.17770000000E+01 0. -1.
         15    1    1    2    0    0 -0.24008357850E+01  0.65767556629E+01  0.47457945586E+02  0.48004500370E+02  0.17770000000E+01 0.  1.
</event>
<event>
 6    1  0.1782050E-003  0.5174436E+03  0.7546771E-02  0.9361603E-01
        -11   -1    0    0    0    0  0.00000000000E+00  0.00000000000E+00  0.50000000000E+03  0.50000000000E+03  0.00000000000E+00 0.  1.
         11   -1    0    0    0    0 -0.00000000000E+00 -0.00000000000E+00 -0.50000000000E+03  0.50000000000E+03  0.00000000000E+00 0. -1.
        -11    1    1    2    0    0  0.78607220763E+01  0.15015537969E+01  0.47086243646E+03  0.47093044039E+03  0.00000000000E+00 0.  1.
         11    1    1    2    0    0  0.55769332783E+01 -0.53743079532E+01 -0.48249426667E+03  0.48255642441E+03  0.00000000000E+00 0. -1.
        -15    1    1    2    0    0 -0.62034296191E+01  0.55644942456E+01 -0.15846856064E+02  0.17992407047E+02  0.17770000000E+01 0. -1.
         15    1    1    2    0    0 -0.72342257355E+01 -0.16917400893E+01  0.27478686273E+02  0.28520728161E+02  0.17770000000E+01 0. -1.
</event>
<event>
 6    1  0.1782050E-003  0.5023766E+03  0.7546771E-02  0.9394508E-01
        -11   -1    0    0    0    0  0.00000000000E+00  0.00000000000E+00  0.50000000000E+03  0.50000000000E+03  0.00000000000E+00 0.  1.
         11   -1    0    0    0    0 -0.00000000000E+00 -0.00000000000E+00 -0.50000000000E+03  0.50000000000E+03  0.00000000000E+00 0.  1.
        -11    1    1    2    0    0 -0.15601472943E+01  0.13633194312E+02  0.49743419040E+03  0.49762342371E+03  0.00000000000E+00 0.  1.
         11    1    1    2    0    0  0.65130885040E+00 -0.68111921563E+01 -0.32319875334E+03  0.32327117209E+03  0.00000000000E+00 0.  1.
        -15    1    1    2    0    0  0.73998008059E+01  0.42144937774E+01 -0.15851198408E+03  0.15875051445E+03  0.17770000000E+01 0.  1.
         15    1    1    2    0    0 -0.64909623620E+01 -0.11036495933E+02 -0.15723452973E+02  0.20354889763E+02  0.17770000000E+01 0.  1.
</event>
<event>
 6    1  0.1782050E-003  0.5018384E+03  0.7546771E-02  0.9395706E-01
        -11   -1    0    0    0    0  0.00000000000E+00  0.00000000000E+00  0.50000000000E+03  0.50000000000E+03  0.00000000000E+00 0.  1.
         11   -1    0    0    0    0 -0.00000000000E+00 -0.00000000000E+00 -0.50000000000E+03  0.50000000000E+03  0.00000000000E+00 0. -1.
        -11    1    1    2    0    0  0.86031176187E+00  0.70029070641E+01  0.39224772245E+03  0.39231117319E+03  0.00000000000E+00 0.  1.
         11    1    1    2    0    0  0.12367270355E+02 -0.30612045950E+01 -0.49799869891E+03  0.49816164491E+03  0.00000000000E+00 0. -1.
        -15    1    1    2    0    0 -0.66348320688E+01 -0.15124159339E+01  0.10007472619E+03  0.10032156772E+03  0.17770000000E+01 0. -1.
         15    1    1    2    0    0 -0.65927500484E+01 -0.24292865352E+01  0.56762502607E+01  0.92056141725E+01  0.17770000000E+01 0.  1.
</event>
<event>
 6    1  0.1782050E-003  0.5966593E+03  0.7546771E-02  0.9206223E-01
        -11   -1    0    0    0    0  0.00000000000E+00  0.00000000000E+00  0.50000000000E+03  0.50000000000E+03  0.00000000000E+00 0. -1.
         11   -1    0    0    0    0 -0.00000000000E+00 -0.00000000000E+00 -0.50000000000E+03  0.50000000000E+03  0.00000000000E+00 0. -1.
        -11    1    1    2    0    0  0.21302440621E+01  0.48071673924E+01  0.38864967265E+03  0.38868523878E+03  0.00000000000E+00 0. -1.
         11    1    1    2    0    0 -0.99356523923E+01 -0.25501844977E+02 -0.40241110723E+03  0.40334074987E+03  0.00000000000E+00 0. -1.
        -15    1    1    2    0    0  0.99244882375E+02 -0.36740638822E+01  0.43965308901E+02  0.10862389948E+03  0.17770000000E+01 0. -1.
         15    1    1    2    0    0 -0.91439474045E+02  0.24368741467E+02 -0.30203874321E+02  0.99350111864E+02  0.17770000000E+01 0.  1.
</event>
<event>
 6    1  0.1782050E-003  0.5025191E+03  0.7546771E-02  0.9394191E-01
        -11   -1    0    0    0    0  0.00000000000E+00  0.00000000000E+00  0.50000000000E+03  0.50000000000E+03  0.00000000000E+00 0. -1.
         11   -1    0    0    0    0 -0.00000000000E+00 -0.00000000000E+00 -0.50000000000E+03  0.50000000000E+03  0.00000000000E+00 0.  1.
        -11    1    1    2    0    0 -0.35162668701E+01 -0.70164961736E+01  0.46313836750E+03  0.46320486051E+03  0.00000000000E+00 0. -1.
         11    1    1    2    0    0 -0.28994273982E+01 -0.72029383045E+01 -0.49742034042E+03  0.49748093839E+03  0.00000000000E+00 0.  1.
        -15    1    1    2    0    0 -0.29053160162E+01  0.33381211463E+01  0.74757186914E+01  0.88672438161E+01  0.17770000000E+01 0. -1.
         15    1    1    2    0    0  0.93210102845E+01  0.10881313332E+02  0.26806254232E+02  0.30446957278E+02  0.17770000000E+01 0.  1.
</event>
<event>
 6    1  0.1782050E-003  0.4773375E+03  0.7546771E-02  0.9451997E-01
        -11   -1    0    0    0    0  0.00000000000E+00  0.00000000000E+00  0.50000000000E+03  0.50000000000E+03  0.00000000000E+00 0. -1.
         11   -1    0    0    0    0 -0.00000000000E+00 -0.00000000000E+00 -0.50000000000E+03  0.50000000000E+03  0.00000000000E+00 0. -1.
        -11    1    1    2    0    0 -0.78762794742E+01 -0.29766482378E+01  0.47827310714E+03  0.47834721827E+03  0.00000000000E+00 0. -1.
         11    1    1    2    0    0  0.37771065435E+01 -0.23109511784E+02 -0.47611980961E+03  0.47669527916E+03  0.00000000000E+00 0. -1.
        -15    1    1    2    0    0  0.20734871562E+01 -0.89629382026E+01  0.19369202438E+01  0.95678105772E+01  0.17770000000E+01 0. -1.
         15    1    1    2    0    0  0.20256857744E+01  0.35049098224E+02 -0.40902177762E+01  0.35389691997E+02  0.17770000000E+01 0.  1.
</event>
<event>
 6    1  0.1782050E-003  0.5034371E+03  0.7546771E-02  0.9392152E-01
        -11   -1    0    0    0    0  0.00000000000E+00  0.00000000000E+00  0.50000000000E+03  0.50000000000E+03  0.00000000000E+00 0. -1.
         11   -1    0    0    0    0 -0.00000000000E+00 -0.00000000000E+00 -0.50000000000E+03  0.50000000000E+03  0.00000000000E+00 0.  1.
        -11    1    1    2    0    0 -0.25759416386E+02  0.10762996206E+02  0.49577751205E+03  0.49656291754E+03  0.00000000000E+00 0. -1.
         11    1    1    2    0    0 -0.32827643546E+01 -0.21437957396E+01 -0.19109786627E+03  0.19113808332E+03  0.00000000000E+00 0.  1.
        -15    1    1    2    0    0  0.32848775212E+02 -0.13483166181E+02 -0.80196289224E+02  0.87723658938E+02  0.17770000000E+01 0.  1.
         15    1    1    2    0    0 -0.38065944715E+01  0.48639657142E+01 -0.22448335656E+03  0.22457534019E+03  0.17770000000E+01 0. -1.
</event>
<event>
 6    1  0.1782050E-003  0.5058446E+03  0.7546771E-02  0.9386826E-01
        -11   -1    0    0    0    0  0.00000000000E+00  0.00000000000E+00  0.50000000000E+03  0.50000000000E+03  0.00000000000E+00 0.  1.
         11   -1    0    0    0    0 -0.00000000000E+00 -0.00000000000E+00 -0.50000000000E+03  0.50000000000E+03  0.00000000000E+00 0.  1.
        -11    1    1    2    0    0  0.73597822443E+01 -0.36579985876E+01  0.46511242136E+03  0.46518502970E+03  0.00000000000E+00 0.  1.
         11    1    1    2    0    0  0.92896456838E-01 -0.98205440795E+01 -0.49405775378E+03  0.49415535592E+03  0.00000000000E+00 0.  1.
        -15    1    1    2    0    0 -0.59451047837E+01 -0.56514276508E+01  0.13788394972E+02  0.16141885586E+02  0.17770000000E+01 0. -1.
         15    1    1    2    0    0 -0.15075739174E+01  0.19129970318E+02  0.15156937446E+02  0.24517728794E+02  0.17770000000E+01 0.  1.
</event>
<event>
 6    1  0.1782050E-003  0.5009572E+03  0.7546771E-02  0.9397671E-01
        -11   -1    0    0    0    0  0.00000000000E+00  0.00000000000E+00  0.50000000000E+03  0.50000000000E+03  0.00000000000E+00 0.  1.
         11   -1    0    0    0    0 -0.00000000000E+00 -0.00000000000E+00 -0.50000000000E+03  0.50000000000E+03  0.00000000000E+00 0. -1.
        -11    1    1    2    0    0 -0.42497244828E+01  0.53779187503E+01  0.20147476968E+03  0.20159133162E+03  0.00000000000E+00 0.  1.
         11    1    1    2    0    0 -0.41687871676E+01 -0.12834436849E+02 -0.49886036412E+03  0.49904284831E+03  0.00000000000E+00 0. -1.
        -15    1    1    2    0    0  0.60715060390E+01 -0.22636997799E+01  0.27114659187E+03  0.27122982789E+03  0.17770000000E+01 0.  1.
         15    1    1    2    0    0  0.23470056115E+01  0.97202178788E+01  0.26239002574E+02  0.28135992182E+02  0.17770000000E+01 0. -1.
</event>
<event>
 6    1  0.1782050E-003  0.5004082E+03  0.7546771E-02  0.9398897E-01
        -11   -1    0    0    0    0  0.00000000000E+00  0.00000000000E+00  0.50000000000E+03  0.50000000000E+03  0.00000000000E+00 0. -1.
         11   -1    0    0    0    0 -0.00000000000E+00 -0.00000000000E+00 -0.50000000000E+03  0.50000000000E+03  0.00000000000E+00 0. -1.
        -11    1    1    2    0    0 -0.14218343224E+02  0.14817380845E+02  0.49916954342E+03  0.49959178250E+03  0.00000000000E+00 0. -1.
         11    1    1    2    0    0 -0.13734704380E+01 -0.15810784088E+01 -0.12023205873E+03  0.12025029803E+03  0.00000000000E+00 0. -1.
        -15    1    1    2    0    0  0.90671824100E+01 -0.17612600351E+02 -0.32651793893E+03  0.32712312615E+03  0.17770000000E+01 0. -1.
         15    1    1    2    0    0  0.65246312518E+01  0.43762979145E+01 -0.52419545755E+02  0.53034793321E+02  0.17770000000E+01 0.  1.
</event>
<event>
 6    1  0.1782050E-003  0.5756938E+03  0.7546771E-02  0.9244745E-01
        -11   -1    0    0    0    0  0.00000000000E+00  0.00000000000E+00  0.50000000000E+03  0.50000000000E+03  0.00000000000E+00 0. -1.
         11   -1    0    0    0    0 -0.00000000000E+00 -0.00000000000E+00 -0.50000000000E+03  0.50000000000E+03  0.00000000000E+00 0.  1.
        -11    1    1    2    0    0  0.37090418056E+01 -0.46106544337E+01  0.42426492195E+03  0.42430618558E+03  0.00000000000E+00 0. -1.
         11    1    1    2    0    0 -0.33324458755E+01  0.44774319891E+02 -0.35710989698E+03  0.35992127394E+03  0.00000000000E+00 0.  1.
        -15    1    1    2    0    0 -0.57209205658E+00  0.22128097040E+02  0.65525457460E+02  0.69186149425E+02  0.17770000000E+01 0. -1.
         15    1    1    2    0    0  0.19549612641E+00 -0.62291762498E+02 -0.13268048243E+03  0.14658639105E+03  0.17770000000E+01 0.  1.
</event>
<event>
 6    1  0.1782050E-003  0.5021322E+03  0.7546771E-02  0.9395051E-01
        -11   -1    0    0    0    0  0.00000000000E+00  0.00000000000E+00  0.50000000000E+03  0.50000000000E+03  0.00000000000E+00 0.  1.
         11   -1    0    0    0    0 -0.00000000000E+00 -0.00000000000E+00 -0.50000000000E+03  0.50000000000E+03  0.00000000000E+00 0. -1.
        -11    1    1    2    0    0 -0.10562475069E+02 -0.40042761343E+00  0.49775557096E+03  0.49786778832E+03  0.00000000000E+00 0.  1.
         11    1    1    2    0    0 -0.13965464128E+01 -0.17753077252E+02 -0.40117040226E+03  0.40156545387E+03  0.00000000000E+00 0. -1.
        -15    1    1    2    0    0 -0.31091130191E+01  0.72764390611E+01 -0.44594923560E+02  0.45326350895E+02  0.17770000000E+01 0. -1.
         15    1    1    2    0    0  0.15068134501E+02  0.10877065804E+02 -0.51990245139E+02  0.55240406918E+02  0.17770000000E+01 0.  1.
</event>
<event>
 6    1  0.1782050E-003  0.4900565E+03  0.7546771E-02  0.9422338E-01
        -11   -1    0    0    0    0  0.00000000000E+00  0.00000000000E+00  0.50000000000E+03  0.50000000000E+03  0.00000000000E+00 0. -1.
         11   -1    0    0    0    0 -0.00000000000E+00 -0.00000000000E+00 -0.50000000000E+03  0.50000000000E+03  0.00000000000E+00 0.  1.
        -11    1    1    2    0    0 -0.63122919005E+01  0.54277213083E+01  0.49345714243E+03  0.49352736155E+03  0.00000000000E+00 0. -1.
         11    1    1    2    0    0 -0.86817877733E+01 -0.37974458932E+01 -0.48663313056E+03  0.48672538232E+03  0.00000000000E+00 0.  1.
        -15    1    1    2    0    0  0.15260826152E+02  0.92454277108E+00 -0.53662549594E+01  0.16300368569E+02  0.17770000000E+01 0.  1.
         15    1    1    2    0    0 -0.26674647867E+00 -0.25548181862E+01 -0.14577569019E+01  0.34468875574E+01  0.17770000000E+01 0. -1.
</event>
<event>
 6    1  0.1782050E-003  0.5025472E+03  0.7546771E-02  0.9394128E-01
        -11   -1    0    0    0    0  0.00000000000E+00  0.00000000000E+00  0.50000000000E+03  0.50000000000E+03  0.00000000000E+00 0. -1.
         11   -1    0    0    0    0 -0.00000000000E+00 -0.00000000000E+00 -0.50000000000E+03  0.50000000000E+03  0.00000000000E+00 0.  1.
        -11    1    1    2    0    0 -0.49266143594E+01  0.71333549475E+01  0.29556063275E+03  0.29568774732E+03  0.00000000000E+00 0. -1.
         11    1    1    2    0    0 -0.13056664565E+02  0.92092212077E+01 -0.49719613485E+03  0.49745279450E+03  0.00000000000E+00 0.  1.
        -15    1    1    2    0    0  0.89368232555E+01 -0.48271111507E+01  0.90790619753E+01  0.13738810258E+02  0.17770000000E+01 0.  1.
         15    1    1    2    0    0  0.90464556693E+01 -0.11515465004E+02  0.19255644012E+03  0.19312064792E+03  0.17770000000E+01 0. -1.
</event>
<event>
 6    1  0.1782050E-003  0.5006480E+03  0.7546771E-02  0.9398361E-01
        -11   -1    0    0    0    0  0.00000000000E+00  0.00000000000E+00  0.50000000000E+03  0.50000000000E+03  0.00000000000E+00 0.  1.
         11   -1    0    0    0    0 -0.00000000000E+00 -0.00000000000E+00 -0.50000000000E+03  0.50000000000E+03  0.00000000000E+00 0.  1.
        -11    1    1    2    0    0 -0.65337647497E+01  0.21371408295E+01  0.49930470416E+03  0.49935202518E+03  0.00000000000E+00 0.  1.
         11    1    1    2    0    0 -0.58752395475E+01  0.35713967294E+01 -0.34620783868E+03  0.34627610497E+03  0.00000000000E+00 0.  1.
        -15    1    1    2    0    0  0.10257563120E+02 -0.49452276300E+01 -0.14845914001E+03  0.14890583218E+03  0.17770000000E+01 0.  1.
         15    1    1    2    0    0  0.21514411770E+01 -0.76330992882E+00 -0.46377254766E+01  0.54660376674E+01  0.17770000000E+01 0. -1.
</event>
<event>
 6    1  0.1782050E-003  0.5170905E+03  0.7546771E-02  0.9362360E-01
        -11   -1    0    0    0    0  0.00000000000E+00  0.00000000000E+00  0.50000000000E+03  0.50000000000E+03  0.00000000000E+00 0. -1.
         11   -1    0    0    0    0 -0.00000000000E+00 -0.00000000000E+00 -0.50000000000E+03  0.50000000000E+03  0.00000000000E+00 0. -1.
        -11    1    1    2    0    0  0.92543289924E+01 -0.29181236131E+01  0.42819001931E+03  0.42829995410E+03  0.00000000000E+00 0. -1.
         11    1    1    2    0    0  0.24897405965E+02  0.57820352324E+01 -0.48223256318E+03  0.48290947159E+03  0.00000000000E+00 0. -1.
        -15    1    1    2    0    0  0.79762570594E+01 -0.20528341634E+02  0.69609434040E+01  0.23165619979E+02  0.17770000000E+01 0.  1.
         15    1    1    2    0    0 -0.42127992017E+02  0.17664430015E+02  0.47081600469E+02  0.65624954330E+02  0.17770000000E+01 0. -1.
</event>
<event>
 6    1  0.1782050E-003  0.5399363E+03  0.7546771E-02  0.9314632E-01
        -11   -1    0    0    0    0  0.00000000000E+00  0.00000000000E+00  0.50000000000E+03  0.50000000000E+03  0.00000000000E+00 0. -1.
         11   -1    0    0    0    0 -0.00000000000E+00 -0.00000000000E+00 -0.50000000000E+03  0.50000000000E+03  0.00000000000E+00 0. -1.
        -11    1    1    2    0    0 -0.80879924989E+01  0.45575457696E+01  0.45996999323E+03  0.46006367115E+03  0.00000000000E+00 0. -1.
         11    1    1    2    0    0 -0.15767705616E+02  0.44703542069E+01 -0.42210032300E+03  0.42241837943E+03  0.00000000000E+00 0. -1.
        -15    1    1    2    0    0  0.13347218888E+02 -0.87679436821E+01 -0.76126353996E+02  0.77803628387E+02  0.17770000000E+01 0.  1.
         15    1    1    2    0    0  0.10508479226E+02 -0.25995629449E+00  0.38256683767E+02  0.39714321029E+02  0.17770000000E+01 0.  1.
</event>
<event>
 6    1  0.1782050E-003  0.5325926E+03  0.7546771E-02  0.9329696E-01
        -11   -1    0    0    0    0  0.00000000000E+00  0.00000000000E+00  0.50000000000E+03  0.50000000000E+03  0.00000000000E+00 0.  1.
         11   -1    0    0    0    0 -0.00000000000E+00 -0.00000000000E+00 -0.50000000000E+03  0.50000000000E+03  0.00000000000E+00 0. -1.
        -11    1    1    2    0    0  0.14800648352E+01 -0.40793063813E+00  0.76856798608E+02  0.76872130786E+02  0.00000000000E+00 0.  1.
         11    1    1    2    0    0  0.55985801487E+01  0.17062601105E+02 -0.46706231575E+03  0.46740740607E+03  0.00000000000E+00 0. -1.
        -15    1    1    2    0    0 -0.73925892549E+01 -0.30747325350E+02  0.42079875204E+03  0.42198909446E+03  0.17770000000E+01 0.  1.
         15    1    1    2    0    0  0.31394427098E+00  0.14092654884E+02 -0.30593234897E+02  0.33731368681E+02  0.17770000000E+01 0. -1.
</event>
<event>
 6    1  0.1782050E-003  0.5060577E+03  0.7546771E-02  0.9386356E-01
        -11   -1    0    0    0    0  0.00000000000E+00  0.00000000000E+00  0.50000000000E+03  0.50000000000E+03  0.00000000000E+00 0. -1.
         11   -1    0    0    0    0 -0.00000000000E+00 -0.00000000000E+00 -0.50000000000E+03  0.50000000000E+03  0.00000000000E+00 0. -1.
        -11    1    1    2    0    0  0.45973963675E+01  0.64601395474E+01  0.49387866743E+03  0.49394231202E+03  0.00000000000E+00 0. -1.
         11    1    1    2    0    0  0.11061337002E+00  0.71994501666E+01 -0.48384332323E+03  0.48389689578E+03  0.00000000000E+00 0. -1.
        -15    1    1    2    0    0  0.21597821028E+01 -0.11969390491E+02 -0.76956199868E+01  0.14502112379E+02  0.17770000000E+01 0. -1.
         15    1    1    2    0    0 -0.68677918403E+01 -0.16901992230E+01 -0.23397242201E+01  0.76586798210E+01  0.17770000000E+01 0.  1.
</event>
<event>
 6    1  0.1782050E-003  0.5002398E+03  0.7546771E-02  0.9399273E-01
        -11   -1    0    0    0    0  0.00000000000E+00  0.00000000000E+00  0.50000000000E+03  0.50000000000E+03  0.00000000000E+00 0. -1.
         11   -1    0    0    0    0 -0.00000000000E+00 -0.00000000000E+00 -0.50000000000E+03  0.50000000000E+03  0.00000000000E+00 0.  1.
        -11    1    1    2    0    0 -0.43194191563E+01  0.27868353813E+01  0.34155936908E+03  0.34159804806E+03  0.00000000000E+00 0. -1.
         11    1    1    2    0    0  0.60569193690E+01 -0.34232899520E+01 -0.49971181456E+03  0.49976024532E+03  0.00000000000E+00 0.  1.
        -15    1    1    2    0    0 -0.10060688192E+00 -0.14710111609E+01  0.14748092892E+03  0.14749900379E+03  0.17770000000E+01 0. -1.
         15    1    1    2    0    0 -0.16368933308E+01  0.21074657316E+01  0.10671516563E+02  0.11142702830E+02  0.17770000000E+01 0.  1.
</event>
<event>
 6    1  0.1782050E-003  0.5115724E+03  0.7546771E-02  0.9374281E-01
        -11   -1    0    0    0    0  0.00000000000E+00  0.00000000000E+00  0.50000000000E+03  0.50000000000E+03  0.00000000000E+00 0.  1.
         11   -1    0    0    0    0 -0.00000000000E+00 -0.00000000000E+00 -0.50000000000E+03  0.50000000000E+03  0.00000000000E+00 0. -1.
        -11    1    1    2    0    0  0.10435893061E+02  0.16850634191E+02  0.48802524263E+03  0.48842756799E+03  0.00000000000E+00 0.  1.
         11    1    1    2    0    0 -0.94907507223E+01  0.66727019804E+01 -0.42669555736E+03  0.42685325109E+03  0.00000000000E+00 0. -1.
        -15    1    1    2    0    0 -0.15804157365E+02 -0.25858513399E+02 -0.11210622547E+02  0.32361549594E+02  0.17770000000E+01 0.  1.
         15    1    1    2    0    0  0.14859015027E+02  0.23351772278E+01 -0.50119062720E+02  0.52357631318E+02  0.17770000000E+01 0. -1.
</event>
<event>
 6    1  0.1782050E-003  0.5061175E+03  0.7546771E-02  0.9386224E-01
        -11   -1    0    0    0    0  0.00000000000E+00  0.00000000000E+00  0.50000000000E+03  0.50000000000E+03  0.00000000000E+00 0.  1.
         11   -1    0    0    0    0 -0.00000000000E+00 -0.00000000000E+00 -0.50000000000E+03  0.50000000000E+03  0.00000000000E+00 0.  1.
        -11    1    1    2    0    0 -0.31090073093E+01  0.55720404947E+01  0.45103611322E+03  0.45108124433E+03  0.00000000000E+00 0.  1.
         11    1    1    2    0    0 -0.71704732967E+01  0.22858867337E+01 -0.49382515774E+03  0.49388250362E+03  0.00000000000E+00 0.  1.
        -15    1    1    2    0    0  0.33858248219E+01 -0.78463095582E+01  0.46288055049E+02  0.47103823121E+02  0.17770000000E+01 0.  1.
         15    1    1    2    0    0  0.68936557841E+01 -0.11617670127E-01 -0.34990105311E+01  0.79324289304E+01  0.17770000000E+01 0. -1.
</event>
<event>
 6    1  0.1782050E-003  0.5141905E+03  0.7546771E-02  0.9368605E-01
        -11   -1    0    0    0    0  0.00000000000E+00  0.00000000000E+00  0.50000000000E+03  0.50000000000E+03  0.00000000000E+00 0. -1.
         11   -1    0    0    0    0 -0.00000000000E+00 -0.00000000000E+00 -0.50000000000E+03  0.50000000000E+03  0.00000000000E+00 0. -1.
        -11    1    1    2    0    0 -0.16849797985E+01 -0.11365892518E+02  0.19327935912E+03  0.19362059119E+03  0.00000000000E+00 0. -1.
         11    1    1    2    0    0  0.28958449304E+02  0.17227363253E+02 -0.48463955554E+03  0.48580950240E+03  0.00000000000E+00 0. -1.
        -15    1    1    2    0    0 -0.15245868459E+01  0.99319937616E+01  0.29010568384E+03  0.29028509157E+03  0.17770000000E+01 0. -1.
         15    1    1    2    0    0 -0.25748882659E+02 -0.15793464496E+02  0.12545125811E+01  0.30284814839E+02  0.17770000000E+01 0.  1.
</event>
<event>
 6    1  0.1782050E-003  0.5087554E+03  0.7546771E-02  0.9380429E-01
        -11   -1    0    0    0    0  0.00000000000E+00  0.00000000000E+00  0.50000000000E+03  0.50000000000E+03  0.00000000000E+00 0.  1.
         11   -1    0    0    0    0 -0.00000000000E+00 -0.00000000000E+00 -0.50000000000E+03  0.50000000000E+03  0.00000000000E+00 0.  1.
        -11    1    1    2    0    0  0.18324834944E+02  0.30006158086E+02  0.31512222311E+03  0.31707756874E+03  0.00000000000E+00 0.  1.
         11    1    1    2    0    0  0.99523444941E+01 -0.10293842263E+02 -0.49103590607E+03  0.49124461666E+03  0.00000000000E+00 0.  1.
        -15    1    1    2    0    0 -0.33314996527E+01 -0.43733320613E+01 -0.54583068269E+01  0.79483184178E+01  0.17770000000E+01 0. -1.
         15    1    1    2    0    0 -0.24945679785E+02 -0.15338983761E+02  0.18137198978E+03  0.18372949618E+03  0.17770000000E+01 0.  1.
</event>
<event>
 6    1  0.1782050E-003  0.5002858E+03  0.7546771E-02  0.9399170E-01
        -11   -1    0    0    0    0  0.00000000000E+00  0.00000000000E+00  0.50000000000E+03  0.50000000000E+03  0.00000000000E+00 0. -1.
         11   -1    0    0    0    0 -0.00000000000E+00 -0.00000000000E+00 -0.50000000000E+03  0.50000000000E+03  0.00000000000E+00 0.  1.
        -11    1    1    2    0    0  0.39356305236E+01  0.38658701222E+01  0.20916362783E+03  0.20923636717E+03  0.00000000000E+00 0. -1.
         11    1    1    2    0    0  0.49852951700E+01  0.71929563832E+01 -0.49963756409E+03  0.49971420556E+03  0.00000000000E+00 0.  1.
        -15    1    1    2    0    0 -0.14168103251E+01 -0.48857941438E+01  0.37763795885E+02  0.38146301846E+02  0.17770000000E+01 0.  1.
         15    1    1    2    0    0 -0.75041153685E+01 -0.61730323617E+01  0.25271014037E+03  0.25290312542E+03  0.17770000000E+01 0. -1.
</event>
<event>
 6    1  0.1782050E-003  0.5302101E+03  0.7546771E-02  0.9334639E-01
        -11   -1    0    0    0    0  0.00000000000E+00  0.00000000000E+00  0.50000000000E+03  0.50000000000E+03  0.00000000000E+00 0.  1.
         11   -1    0    0    0    0 -0.00000000000E+00 -0.00000000000E+00 -0.50000000000E+03  0.50000000000E+03  0.00000000000E+00 0. -1.
        -11    1    1    2    0    0  0.40241335057E+01 -0.36046845674E+02  0.46838765520E+03  0.46978991504E+03  0.00000000000E+00 0.  1.
         11    1    1    2    0    0  0.97049348300E+01  0.42459352165E+01 -0.38200900777E+03  0.38215585268E+03  0.00000000000E+00 0. -1.
        -15    1    1    2    0    0  0.95482151019E+00 -0.27409391237E+02 -0.82436590522E+02  0.86897270372E+02  0.17770000000E+01 0. -1.
         15    1    1    2    0    0 -0.14683889846E+02  0.59210301695E+02 -0.39420569068E+01  0.61156961905E+02  0.17770000000E+01 0.  1.
</event>
<event>
 6    1  0.1782050E-003  0.5028420E+03  0.7546771E-02  0.9393473E-01
        -11   -1    0    0    0    0  0.00000000000E+00  0.00000000000E+00  0.50000000000E+03  0.50000000000E+03  0.00000000000E+00 0. -1.
         11   -1    0    0    0    0 -0.00000000000E+00 -0.00000000000E+00 -0.50000000000E+03  0.50000000000E+03  0.00000000000E+00 0. -1.
        -11    1    1    2    0    0 -0.49619041664E+01  0.82115400334E+01  0.46427436579E+03  0.46437348827E+03  0.00000000000E+00 0. -1.
         11    1    1    2    0    0 -0.57060025664E+01  0.35339009295E+01 -0.49711267038E+03  0.49715797687E+03  0.00000000000E+00 0. -1.
        -15    1    1    2    0    0  0.75734798680E+00 -0.45648680108E+01  0.21895235679E+01  0.54187949198E+01  0.17770000000E+01 0.  1.
         15    1    1    2    0    0  0.99105587460E+01 -0.71805729521E+01  0.30648781022E+02  0.33049739934E+02  0.17770000000E+01 0. -1.
</event>
<event>
 6    1  0.1782050E-003  0.5013994E+03  0.7546771E-02  0.9396684E-01
        -11   -1    0    0    0    0  0.00000000000E+00  0.00000000000E+00  0.50000000000E+03  0.50000000000E+03  0.00000000000E+00 0.  1.
         11   -1    0    0    0    0 -0.00000000000E+00 -0.00000000000E+00 -0.50000000000E+03  0.50000000000E+03  0.00000000000E+00 0. -1.
        -11    1    1    2    0    0  0.12926927637E+02 -0.32763610219E+01  0.49842222495E+03  0.49860059599E+03  0.00000000000E+00 0.  1.
         11    1    1    2    0    0 -0.11928122973E+02  0.28431323152E+01 -0.46633970233E+03  0.46650089120E+03  0.00000000000E+00 0. -1.
        -15    1    1    2    0    0 -0.18517304377E+00  0.12480162786E+01  0.50922676283E+00  0.22380515150E+01  0.17770000000E+01 0. -1.
         15    1    1    2    0    0 -0.81363161993E+00 -0.81478757192E+00 -0.32591749381E+02  0.32660461293E+02  0.17770000000E+01 0.  1.
</event>
<event>
 6    1  0.1782050E-003  0.4832204E+03  0.7546771E-02  0.9438159E-01
        -11   -1    0    0    0    0  0.00000000000E+00  0.00000000000E+00  0.50000000000E+03  0.50000000000E+03  0.00000000000E+00 0.  1.
         11   -1    0    0    0    0 -0.00000000000E+00 -0.00000000000E+00 -0.50000000000E+03  0.50000000000E+03  0.00000000000E+00 0. -1.
        -11    1    1    2    0    0  0.69352060931E+01 -0.15092102621E+02  0.47730667544E+03  0.47759557270E+03  0.00000000000E+00 0.  1.
         11    1    1    2    0    0  0.13030081438E+02  0.12480118060E+02 -0.48879020044E+03  0.48912308923E+03  0.00000000000E+00 0. -1.
        -15    1    1    2    0    0 -0.73007338464E+01  0.98622798279E+01  0.13628951251E+02  0.18424747469E+02  0.17770000000E+01 0.  1.
         15    1    1    2    0    0 -0.12664553685E+02 -0.72502952667E+01 -0.21454262546E+01  0.14856590601E+02  0.17770000000E+01 0. -1.
</event>
<event>
 6    1  0.1782050E-003  0.5333135E+03  0.7546771E-02  0.9328206E-01
        -11   -1    0    0    0    0  0.00000000000E+00  0.00000000000E+00  0.50000000000E+03  0.50000000000E+03  0.00000000000E+00 0. -1.
         11   -1    0    0    0    0 -0.00000000000E+00 -0.00000000000E+00 -0.50000000000E+03  0.50000000000E+03  0.00000000000E+00 0.  1.
        -11    1    1    2    0    0  0.43941637159E+01  0.16351459251E+02  0.39431795896E+03  0.39468130391E+03  0.00000000000E+00 0. -1.
         11    1    1    2    0    0  0.52966251369E+01 -0.14247857994E+02 -0.46643887995E+03  0.46668649480E+03  0.00000000000E+00 0.  1.
        -15    1    1    2    0    0 -0.95111617447E+01 -0.19299499142E+02  0.10191983811E+03  0.10418130347E+03  0.17770000000E+01 0.  1.
         15    1    1    2    0    0 -0.17962710804E+00  0.17195897885E+02 -0.29798917121E+02  0.34450897820E+02  0.17770000000E+01 0. -1.
</event>
<event>
 6    1  0.1782050E-003  0.5076123E+03  0.7546771E-02  0.9382936E-01
        -11   -1    0    0    0    0  0.00000000000E+00  0.00000000000E+00  0.50000000000E+03  0.50000000000E+03  0.00000000000E+00 0.  1.
         11   -1    0    0    0    0 -0.00000000000E+00 -0.00000000000E+00 -0.50000000000E+03  0.50000000000E+03  0.00000000000E+00 0. -1.
        -11    1    1    2    0    0 -0.17599045989E+01  0.10422660638E+02  0.48046124580E+03  0.48057750450E+03  0.00000000000E+00 0.  1.
         11    1    1    2    0    0 -0.10461826084E+02  0.33312439917E+01 -0.49226527070E+03  0.49238769656E+03  0.00000000000E+00 0. -1.
        -15    1    1    2    0    0  0.50589059363E+01 -0.33710756631E+01 -0.34090761727E+01  0.71927887325E+01  0.17770000000E+01 0. -1.
         15    1    1    2    0    0  0.71628247462E+01 -0.10382828967E+02  0.15213101072E+02  0.19842010204E+02  0.17770000000E+01 0.  1.
</event>
<event>
 6    1  0.1782050E-003  0.5022391E+03  0.7546771E-02  0.9394813E-01
        -11   -1    0    0    0    0  0.00000000000E+00  0.00000000000E+00  0.50000000000E+03  0.50000000000E+03  0.00000000000E+00 0. -1.
         11   -1    0    0    0    0 -0.00000000000E+00 -0.00000000000E+00 -0.50000000000E+03  0.50000000000E+03  0.00000000000E+00 0.  1.
        -11    1    1    2    0    0 -0.88966250894E+01 -0.10812784287E+01  0.49768021670E+03  0.49776090365E+03  0.00000000000E+00 0. -1.
         11    1    1    2    0    0  0.60795331642E+01  0.68108636315E+01 -0.48449060165E+03  0.48457661074E+03  0.00000000000E+00 0.  1.
        -15    1    1    2    0    0 -0.25785046217E+01 -0.27323784365E+01 -0.92161409125E+01  0.10109874397E+02  0.17770000000E+01 0.  1.
         15    1    1    2    0    0  0.53955965469E+01 -0.29972067663E+01 -0.39734741384E+01  0.75526112190E+01  0.17770000000E+01 0.  1.
</event>
<event>
 6    1  0.1782050E-003  0.5015249E+03  0.7546771E-02  0.9396404E-01
        -11   -1    0    0    0    0  0.00000000000E+00  0.00000000000E+00  0.50000000000E+03  0.50000000000E+03  0.00000000000E+00 0.  1.
         11   -1    0    0    0    0 -0.00000000000E+00 -0.00000000000E+00 -0.50000000000E+03  0.50000000000E+03  0.00000000000E+00 0.  1.
        -11    1    1    2    0    0 -0.13420474513E+02  0.82417554415E+00  0.49829372435E+03  0.49847509880E+03  0.00000000000E+00 0.  1.
         11    1    1    2    0    0  0.94044193551E+01  0.37262316006E+01 -0.45795943382E+03  0.45807114178E+03  0.00000000000E+00 0.  1.
        -15    1    1    2    0    0 -0.44945580090E+00  0.23450424436E+00  0.61432477219E+00  0.19473383587E+01  0.17770000000E+01 0.  1.
         15    1    1    2    0    0  0.44655109590E+01 -0.47849113891E+01 -0.40948615304E+02  0.41506421063E+02  0.17770000000E+01 0. -1.
</event>
<event>
 6    1  0.1782050E-003  0.5023306E+03  0.7546771E-02  0.9394610E-01
        -11   -1    0    0    0    0  0.00000000000E+00  0.00000000000E+00  0.50000000000E+03  0.50000000000E+03  0.00000000000E+00 0. -1.
         11   -1    0    0    0    0 -0.00000000000E+00 -0.00000000000E+00 -0.50000000000E+03  0.50000000000E+03  0.00000000000E+00 0.  1.
        -11    1    1    2    0    0  0.20444399054E+01 -0.69036266831E+01  0.49761726719E+03  0.49766935249E+03  0.00000000000E+00 0. -1.
         11    1    1    2    0    0 -0.36478277219E+01  0.30896388758E+01 -0.27123044210E+03  0.27127256632E+03  0.00000000000E+00 0.  1.
        -15    1    1    2    0    0 -0.39810773266E+01 -0.42860717499E+01 -0.21778043431E+03  0.21786623117E+03  0.17770000000E+01 0.  1.
         15    1    1    2    0    0  0.55844651431E+01  0.81000595572E+01 -0.86063907801E+01  0.13191850023E+02  0.17770000000E+01 0. -1.
</event>
<event>
 6    1  0.1782050E-003  0.5003801E+03  0.7546771E-02  0.9398960E-01
        -11   -1    0    0    0    0  0.00000000000E+00  0.00000000000E+00  0.50000000000E+03  0.50000000000E+03  0.00000000000E+00 0. -1.
         11   -1    0    0    0    0 -0.00000000000E+00 -0.00000000000E+00 -0.50000000000E+03  0.50000000000E+03  0.00000000000E+00 0. -1.
        -11    1    1    2    0    0  0.10911973695E+02 -0.13205154806E+01  0.49949901277E+03  0.49961993424E+03  0.00000000000E+00 0. -1.
         11    1    1    2    0    0 -0.44819301807E+01 -0.42906796943E+01 -0.21318385233E+03  0.21327412530E+03  0.00000000000E+00 0. -1.
        -15    1    1    2    0    0 -0.10766578298E+01  0.32360679753E+01 -0.26213636836E+03  0.26216457555E+03  0.17770000000E+01 0.  1.
         15    1    1    2    0    0 -0.53533856842E+01  0.23751271996E+01 -0.24178792086E+02  0.24941364903E+02  0.17770000000E+01 0. -1.
</event>
<event>
 6    1  0.1782050E-003  0.5008282E+03  0.7546771E-02  0.9397958E-01
        -11   -1    0    0    0    0  0.00000000000E+00  0.00000000000E+00  0.50000000000E+03  0.50000000000E+03  0.00000000000E+00 0.  1.
         11   -1    0    0    0    0 -0.00000000000E+00 -0.00000000000E+00 -0.50000000000E+03  0.50000000000E+03  0.00000000000E+00 0.  1.
        -11    1    1    2    0    0 -0.18999619425E+02 -0.25097738906E-01  0.49881004872E+03  0.49917176490E+03  0.00000000000E+00 0.  1.
         11    1    1    2    0    0  0.15710766902E+01 -0.14604330708E+00 -0.48721272240E+02  0.48746815068E+02  0.00000000000E+00 0.  1.
        -15    1    1    2    0    0  0.28282588225E+02  0.61689288368E+01 -0.26872435598E+03  0.27028484550E+03  0.17770000000E+01 0. -1.
         15    1    1    2    0    0 -0.10854045490E+02 -0.59977877908E+01 -0.18136442050E+03  0.18179657453E+03  0.17770000000E+01 0.  1.
</event>
<event>
 6    1  0.1782050E-003  0.5068514E+03  0.7546771E-02  0.9384608E-01
        -11   -1    0    0    0    0  0.00000000000E+00  0.00000000000E+00  0.50000000000E+03  0.50000000000E+03  0.00000000000E+00 0. -1.
         11   -1    0    0    0    0 -0.00000000000E+00 -0.00000000000E+00 -0.50000000000E+03  0.50000000000E+03  0.00000000000E+00 0.  1.
        -11    1    1    2    0    0  0.94758926559E+01  0.89982835958E+00  0.40901970170E+03  0.40913044205E+03  0.00000000000E+00 0. -1.
         11    1    1    2    0    0  0.30920883797E+01 -0.11059716561E+02 -0.49301489409E+03  0.49314862276E+03  0.00000000000E+00 0.  1.
        -15    1    1    2    0    0 -0.37224454597E+01  0.92926763880E+01 -0.27269925854E+01  0.10526378875E+02  0.17770000000E+01 0.  1.
         15    1    1    2    0    0 -0.88455355759E+01  0.86721181296E+00  0.86722184969E+02  0.87194556313E+02  0.17770000000E+01 0. -1.
</event>
<event>
 6    1  0.1782050E-003  0.5036411E+03  0.7546771E-02  0.9391699E-01
        -11   -1    0    0    0    0  0.00000000000E+00  0.00000000000E+00  0.50000000000E+03  0.50000000000E+03  0.00000000000E+00 0. -1.
         11   -1    0    0    0    0 -0.00000000000E+00 -0.00000000000E+00 -0.50000000000E+03  0.50000000000E+03  0.00000000000E+00 0. -1.
        -11    1    1    2    0    0 -0.12729453536E+01  0.15788849415E+02  0.49610604898E+03  0.49635886211E+03  0.00000000000E+00 0. -1.
         11    1    1    2    0    0  0.13061004607E+02  0.37378500306E+01 -0.39661701947E+03  0.39684962076E+03  0.00000000000E+00 0. -1.
        -15    1    1    2    0    0  0.32385577211E+01 -0.21844451298E+02 -0.44476050625E+02  0.49688480725E+02  0.17770000000E+01 0. -1.
         15    1    1    2    0    0 -0.15026616975E+02  0.23177518525E+01 -0.55012978893E+02  0.57103036408E+02  0.17770000000E+01 0.  1.
</event>
<event>
 6    1  0.1782050E-003  0.5005149E+03  0.7546771E-02  0.9398658E-01
        -11   -1    0    0    0    0  0.00000000000E+00  0.00000000000E+00  0.50000000000E+03  0.50000000000E+03  0.00000000000E+00 0. -1.
         11   -1    0    0    0    0 -0.00000000000E+00 -0.00000000000E+00 -0.50000000000E+03  0.50000000000E+03  0.00000000000E+00 0. -1.
        -11    1    1    2    0    0 -0.14827229924E+01  0.42991451817E+01  0.33154160525E+03  0.33157279311E+03  0.00000000000E+00 0. -1.
         11    1    1    2    0    0  0.75251346400E+01  0.15915031769E+01 -0.49942587355E+03  0.49948509858E+03  0.00000000000E+00 0. -1.
        -15    1    1    2    0    0  0.40803467402E+01  0.25299633683E+01  0.31635851893E+02  0.32047383640E+02  0.17770000000E+01 0. -1.
         15    1    1    2    0    0 -0.10122758388E+02 -0.84206117270E+01  0.13624841641E+03  0.13689472467E+03  0.17770000000E+01 0. -1.
</event>
<event>
 6    1  0.1782050E-003  0.5028592E+03  0.7546771E-02  0.9393435E-01
        -11   -1    0    0    0    0  0.00000000000E+00  0.00000000000E+00  0.50000000000E+03  0.50000000000E+03  0.00000000000E+00 0.  1.
         11   -1    0    0    0    0 -0.00000000000E+00 -0.00000000000E+00 -0.50000000000E+03  0.50000000000E+03  0.00000000000E+00 0.  1.
        -11    1    1    2    0    0  0.21398625496E+01 -0.61396475778E+01  0.47136778588E+03  0.47141262589E+03  0.00000000000E+00 0.  1.
         11    1    1    2    0    0 -0.65992504445E+01 -0.59731206942E+01 -0.49706112718E+03  0.49714081751E+03  0.00000000000E+00 0.  1.
        -15    1    1    2    0    0  0.63023120907E+01  0.18187677701E+01  0.14565407539E+02  0.16072830481E+02  0.17770000000E+01 0.  1.
         15    1    1    2    0    0 -0.18429241958E+01  0.10294000502E+02  0.11127933760E+02  0.15373726116E+02  0.17770000000E+01 0. -1.
</event>
<event>
 6    1  0.1782050E-003  0.5035486E+03  0.7546771E-02  0.9391904E-01
        -11   -1    0    0    0    0  0.00000000000E+00  0.00000000000E+00  0.50000000000E+03  0.50000000000E+03  0.00000000000E+00 0.  1.
         11   -1    0    0    0    0 -0.00000000000E+00 -0.00000000000E+00 -0.50000000000E+03  0.50000000000E+03  0.00000000000E+00 0.  1.
        -11    1    1    2    0    0  0.93385453340E+01 -0.20917671693E+01  0.49635910742E+03  0.49645135455E+03  0.00000000000E+00 0.  1.
         11    1    1    2    0    0 -0.27493618399E+01 -0.54545444059E+01 -0.41695314041E+03  0.41699788050E+03  0.00000000000E+00 0.  1.
        -15    1    1    2    0    0  0.11621753169E+01  0.29510629933E+01  0.23184310233E+01  0.43118761192E+01  0.17770000000E+01 0. -1.
         15    1    1    2    0    0 -0.77513588109E+01  0.45952485819E+01 -0.81724398034E+02  0.82238888830E+02  0.17770000000E+01 0.  1.
</event>
<event>
 6    1  0.1782050E-003  0.5013100E+03  0.7546771E-02  0.9396883E-01
        -11   -1    0    0    0    0  0.00000000000E+00  0.00000000000E+00  0.50000000000E+03  0.50000000000E+03  0.00000000000E+00 0.  1.
         11   -1    0    0    0    0 -0.00000000000E+00 -0.00000000000E+00 -0.50000000000E+03  0.50000000000E+03  0.00000000000E+00 0.  1.
        -11    1    1    2    0    0  0.86777289418E+01  0.23081389074E+01  0.49860911040E+03  0.49868995925E+03  0.00000000000E+00 0.  1.
         11    1    1    2    0    0  0.26887010626E+00  0.65650315996E+01 -0.40948020062E+03  0.40953291276E+03  0.00000000000E+00 0.  1.
        -15    1    1    2    0    0 -0.10159152212E+01 -0.42920418154E+01 -0.42213755973E+01  0.63585727656E+01  0.17770000000E+01 0. -1.
         15    1    1    2    0    0 -0.79306838269E+01 -0.45811286917E+01 -0.84907534182E+02  0.85418555221E+02  0.17770000000E+01 0.  1.
</event>
<event>
 6    1  0.1782050E-003  0.5044520E+03  0.7546771E-02  0.9389903E-01
        -11   -1    0    0    0    0  0.00000000000E+00  0.00000000000E+00  0.50000000000E+03  0.50000000000E+03  0.00000000000E+00 0.  1.
         11   -1    0    0    0    0 -0.00000000000E+00 -0.00000000000E+00 -0.50000000000E+03  0.50000000000E+03  0.00000000000E+00 0. -1.
        -11    1    1    2    0    0 -0.45106049528E+00 -0.73876692734E+01  0.43821429036E+03  0.43827679084E+03  0.00000000000E+00 0.  1.
         11    1    1    2    0    0  0.28216631227E+01 -0.13801621775E+02 -0.49534775669E+03  0.49554802653E+03  0.00000000000E+00 0. -1.
        -15    1    1    2    0    0  0.83717146457E+01  0.19090760494E+02  0.45629172586E+02  0.50196831197E+02  0.17770000000E+01 0. -1.
         15    1    1    2    0    0 -0.10742317273E+02  0.20985305546E+01  0.11504293742E+02  0.15978351429E+02  0.17770000000E+01 0.  1.
</event>
<event>
 6    1  0.1782050E-003  0.5032006E+03  0.7546771E-02  0.9392677E-01
        -11   -1    0    0    0    0  0.00000000000E+00  0.00000000000E+00  0.50000000000E+03  0.50000000000E+03  0.00000000000E+00 0. -1.
         11   -1    0    0    0    0 -0.00000000000E+00 -0.00000000000E+00 -0.50000000000E+03  0.50000000000E+03  0.00000000000E+00 0. -1.
        -11    1    1    2    0    0  0.60737051105E+01  0.35407158121E+01  0.49674967368E+03  0.49679942116E+03  0.00000000000E+00 0. -1.
         11    1    1    2    0    0  0.10786120600E+02 -0.78411877106E+00 -0.45108336150E+03  0.45121298105E+03  0.00000000000E+00 0. -1.
        -15    1    1    2    0    0 -0.27400480615E+01  0.29991554816E+01 -0.28967531853E+02  0.29304921560E+02  0.17770000000E+01 0. -1.
         15    1    1    2    0    0 -0.14119777649E+02 -0.57557525227E+01 -0.16698780323E+02  0.22682676236E+02  0.17770000000E+01 0.  1.
</event>
<event>
 6    1  0.1782050E-003  0.4458015E+03  0.7546771E-02  0.9529983E-01
        -11   -1    0    0    0    0  0.00000000000E+00  0.00000000000E+00  0.50000000000E+03  0.50000000000E+03  0.00000000000E+00 0.  1.
         11   -1    0    0    0    0 -0.00000000000E+00 -0.00000000000E+00 -0.50000000000E+03  0.50000000000E+03  0.00000000000E+00 0.  1.
        -11    1    1    2    0    0 -0.14935933146E+02 -0.15609940144E+02  0.44732355855E+03  0.44784497135E+03  0.00000000000E+00 0.  1.
         11    1    1    2    0    0  0.69487062528E+01 -0.48038770297E+00 -0.44389087860E+03  0.44394552300E+03  0.00000000000E+00 0.  1.
        -15    1    1    2    0    0 -0.22281315174E+02 -0.38223337735E+02 -0.10782325036E+02  0.45572983396E+02  0.17770000000E+01 0.  1.
         15    1    1    2    0    0  0.30268542068E+02  0.54313665581E+02  0.73496450873E+01  0.62636522251E+02  0.17770000000E+01 0. -1.
</event>
<event>
 6    1  0.1782050E-003  0.5036520E+03  0.7546771E-02  0.9391675E-01
        -11   -1    0    0    0    0  0.00000000000E+00  0.00000000000E+00  0.50000000000E+03  0.50000000000E+03  0.00000000000E+00 0. -1.
         11   -1    0    0    0    0 -0.00000000000E+00 -0.00000000000E+00 -0.50000000000E+03  0.50000000000E+03  0.00000000000E+00 0.  1.
        -11    1    1    2    0    0 -0.94518475104E+01  0.19844553534E+02  0.49586102634E+03  0.49634796381E+03  0.00000000000E+00 0. -1.
         11    1    1    2    0    0 -0.55973512581E+01 -0.41423789804E+01 -0.34577877275E+03  0.34584888222E+03  0.00000000000E+00 0.  1.
        -15    1    1    2    0    0  0.27784288582E+02 -0.27886684396E+01 -0.11395511000E+03  0.11733996842E+03  0.17770000000E+01 0. -1.
         15    1    1    2    0    0 -0.12735089813E+02 -0.12913506114E+02 -0.36127143588E+02  0.40463185558E+02  0.17770000000E+01 0.  1.
</event>
<event>
 6    1  0.1782050E-003  0.5062768E+03  0.7546771E-02  0.9385873E-01
        -11   -1    0    0    0    0  0.00000000000E+00  0.00000000000E+00  0.50000000000E+03  0.50000000000E+03  0.00000000000E+00 0.  1.
         11   -1    0    0    0    0 -0.00000000000E+00 -0.00000000000E+00 -0.50000000000E+03  0.50000000000E+03  0.00000000000E+00 0.  1.
        -11    1    1    2    0    0  0.99577492538E+01  0.10119866569E+02  0.49351903881E+03  0.49372321207E+03  0.00000000000E+00 0.  1.
         11    1    1    2    0    0 -0.13816811409E+01 -0.87452270916E+01 -0.47588808282E+03  0.47597043543E+03  0.00000000000E+00 0.  1.
        -15    1    1    2    0    0 -0.11081612940E+02 -0.23316778823E+01  0.90005367062E+00  0.11498116920E+02  0.17770000000E+01 0. -1.
         15    1    1    2    0    0  0.25055448273E+01  0.95703840495E+00 -0.18531009661E+02  0.18808235575E+02  0.17770000000E+01 0.  1.
</event>
<event>
 6    1  0.1782050E-003  0.4762071E+03  0.7546771E-02  0.9454681E-01
        -11   -1    0    0    0    0  0.00000000000E+00  0.00000000000E+00  0.50000000000E+03  0.50000000000E+03  0.00000000000E+00 0.  1.
         11   -1    0    0    0    0 -0.00000000000E+00 -0.00000000000E+00 -0.50000000000E+03  0.50000000000E+03  0.00000000000E+00 0.  1.
        -11    1    1    2    0    0  0.15358716046E+02 -0.55310302748E+01  0.47715503938E+03  0.47743419867E+03  0.00000000000E+00 0.  1.
         11    1    1    2    0    0 -0.98487679616E+01 -0.27725779260E+02 -0.47466864512E+03  0.47557968809E+03  0.00000000000E+00 0.  1.
        -15    1    1    2    0    0 -0.15271829046E+02  0.75944226031E+01  0.60409276797E+01  0.18181159295E+02  0.17770000000E+01 0. -1.
         15    1    1    2    0    0  0.97618809608E+01  0.25662386931E+02 -0.85273219403E+01  0.28804953938E+02  0.17770000000E+01 0.  1.
</event>
<event>
 6    1  0.1782050E-003  0.5016290E+03  0.7546771E-02  0.9396172E-01
        -11   -1    0    0    0    0  0.00000000000E+00  0.00000000000E+00  0.50000000000E+03  0.50000000000E+03  0.00000000000E+00 0.  1.
         11   -1    0    0    0    0 -0.00000000000E+00 -0.00000000000E+00 -0.50000000000E+03  0.50000000000E+03  0.00000000000E+00 0. -1.
        -11    1    1    2    0    0  0.11926670043E+02  0.60109966599E+01  0.24642128629E+03  0.24678295703E+03  0.00000000000E+00 0.  1.
         11    1    1    2    0    0 -0.22714413138E+01  0.79400429872E+01 -0.49830260647E+03  0.49837103782E+03  0.00000000000E+00 0. -1.
        -15    1    1    2    0    0 -0.23794253757E+01 -0.83598480297E+01  0.12754114058E+02  0.15536211848E+02  0.17770000000E+01 0. -1.
         15    1    1    2    0    0 -0.72758033532E+01 -0.55911916174E+01  0.23912720611E+03  0.23930979330E+03  0.17770000000E+01 0.  1.
</event>
<event>
 6    1  0.1782050E-003  0.5044182E+03  0.7546771E-02  0.9389978E-01
        -11   -1    0    0    0    0  0.00000000000E+00  0.00000000000E+00  0.50000000000E+03  0.50000000000E+03  0.00000000000E+00 0.  1.
         11   -1    0    0    0    0 -0.00000000000E+00 -0.00000000000E+00 -0.50000000000E+03  0.50000000000E+03  0.00000000000E+00 0.  1.
        -11    1    1    2    0    0 -0.73481708730E+01  0.86950481739E+01  0.27203288805E+03  0.27227098938E+03  0.00000000000E+00 0.  1.
         11    1    1    2    0    0  0.13019741133E+02 -0.28234265890E+02 -0.49460557753E+03  0.49558184465E+03  0.00000000000E+00 0.  1.
        -15    1    1    2    0    0  0.11461737781E+02 -0.48832022244E+01  0.17822832732E+03  0.17867207808E+03  0.17770000000E+01 0.  1.
         15    1    1    2    0    0 -0.17133308041E+02  0.24422419940E+02  0.44344362162E+02  0.53475087889E+02  0.17770000000E+01 0. -1.
</event>
<event>
 6    1  0.1782050E-003  0.5044070E+03  0.7546771E-02  0.9390002E-01
        -11   -1    0    0    0    0  0.00000000000E+00  0.00000000000E+00  0.50000000000E+03  0.50000000000E+03  0.00000000000E+00 0.  1.
         11   -1    0    0    0    0 -0.00000000000E+00 -0.00000000000E+00 -0.50000000000E+03  0.50000000000E+03  0.00000000000E+00 0. -1.
        -11    1    1    2    0    0  0.14324289051E+02  0.23619687436E+01  0.39019778054E+03  0.39046776063E+03  0.00000000000E+00 0.  1.
         11    1    1    2    0    0 -0.58016202957E+01 -0.21138925478E+02 -0.49510801534E+03  0.49559303851E+03  0.00000000000E+00 0. -1.
        -15    1    1    2    0    0  0.34923231243E+01  0.28196172389E+02  0.76719585461E+02  0.81830758156E+02  0.17770000000E+01 0.  1.
         15    1    1    2    0    0 -0.12014991880E+02 -0.94192156549E+01  0.28190649336E+02  0.32108442697E+02  0.17770000000E+01 0. -1.
</event>
<event>
 6    1  0.1782050E-003  0.5229488E+03  0.7546771E-02  0.9349875E-01
        -11   -1    0    0    0    0  0.00000000000E+00  0.00000000000E+00  0.50000000000E+03  0.50000000000E+03  0.00000000000E+00 0. -1.
         11   -1    0    0    0    0 -0.00000000000E+00 -0.00000000000E+00 -0.50000000000E+03  0.50000000000E+03  0.00000000000E+00 0.  1.
        -11    1    1    2    0    0  0.49202502263E+02  0.38843832903E+02  0.47291449764E+03  0.47705120444E+03  0.00000000000E+00 0. -1.
         11    1    1    2    0    0 -0.11065778820E+02 -0.10683986890E+02 -0.32088777768E+03  0.32125622936E+03  0.00000000000E+00 0.  1.
        -15    1    1    2    0    0  0.33174980534E+01  0.21750794060E+02  0.12117990748E+02  0.25181466684E+02  0.17770000000E+01 0. -1.
         15    1    1    2    0    0 -0.41454221497E+02 -0.49910640073E+02 -0.16414471070E+03  0.17651109952E+03  0.17770000000E+01 0.  1.
</event>
<event>
 6    1  0.1782050E-003  0.5404192E+03  0.7546771E-02  0.9313650E-01
        -11   -1    0    0    0    0  0.00000000000E+00  0.00000000000E+00  0.50000000000E+03  0.50000000000E+03  0.00000000000E+00 0.  1.
         11   -1    0    0    0    0 -0.00000000000E+00 -0.00000000000E+00 -0.50000000000E+03  0.50000000000E+03  0.00000000000E+00 0. -1.
        -11    1    1    2    0    0 -0.32562014419E+02 -0.61434663636E+01  0.44875730979E+03  0.44997905513E+03  0.00000000000E+00 0.  1.
         11    1    1    2    0    0  0.22787890313E+02  0.36938613134E+01 -0.45900060983E+03  0.45958077895E+03  0.00000000000E+00 0. -1.
        -15    1    1    2    0    0  0.20140265804E+02 -0.15538253663E+01  0.47432643748E+02  0.51585444670E+02  0.17770000000E+01 0.  1.
         15    1    1    2    0    0 -0.10366141698E+02  0.40034304165E+01 -0.37189343713E+02  0.38854721253E+02  0.17770000000E+01 0. -1.
</event>
<event>
 6    1  0.1782050E-003  0.5220032E+03  0.7546771E-02  0.9351879E-01
        -11   -1    0    0    0    0  0.00000000000E+00  0.00000000000E+00  0.50000000000E+03  0.50000000000E+03  0.00000000000E+00 0. -1.
         11   -1    0    0    0    0 -0.00000000000E+00 -0.00000000000E+00 -0.50000000000E+03  0.50000000000E+03  0.00000000000E+00 0. -1.
        -11    1    1    2    0    0  0.20124626164E+01 -0.13171713083E+02  0.47781106310E+03  0.47799681594E+03  0.00000000000E+00 0. -1.
         11    1    1    2    0    0  0.80918019833E+01  0.56082929058E+01 -0.30375230997E+03  0.30391182277E+03  0.00000000000E+00 0. -1.
        -15    1    1    2    0    0 -0.10141643434E+02 -0.14484844048E+02 -0.18999781367E+03  0.19082712220E+03  0.17770000000E+01 0. -1.
         15    1    1    2    0    0  0.37378834139E-01  0.22048264225E+02  0.15939060548E+02  0.27264239081E+02  0.17770000000E+01 0.  1.
</event>
<event>
 6    1  0.1782050E-003  0.5185401E+03  0.7546771E-02  0.9359255E-01
        -11   -1    0    0    0    0  0.00000000000E+00  0.00000000000E+00  0.50000000000E+03  0.50000000000E+03  0.00000000000E+00 0. -1.
         11   -1    0    0    0    0 -0.00000000000E+00 -0.00000000000E+00 -0.50000000000E+03  0.50000000000E+03  0.00000000000E+00 0.  1.
        -11    1    1    2    0    0  0.87463412164E+01  0.92079574418E+01  0.48129242107E+03  0.48145994594E+03  0.00000000000E+00 0. -1.
         11    1    1    2    0    0 -0.63043539593E+01  0.32963671464E+01 -0.46475482629E+03  0.46480927215E+03  0.00000000000E+00 0.  1.
        -15    1    1    2    0    0 -0.80236849785E+01 -0.15149010893E+02  0.14198466010E+02  0.22329939940E+02  0.17770000000E+01 0. -1.
         15    1    1    2    0    0  0.55816977214E+01  0.26446863046E+01 -0.30736060789E+02  0.31400841978E+02  0.17770000000E+01 0.  1.
</event>
<event>
 6    1  0.1782050E-003  0.5300625E+03  0.7546771E-02  0.9334946E-01
        -11   -1    0    0    0    0  0.00000000000E+00  0.00000000000E+00  0.50000000000E+03  0.50000000000E+03  0.00000000000E+00 0. -1.
         11   -1    0    0    0    0 -0.00000000000E+00 -0.00000000000E+00 -0.50000000000E+03  0.50000000000E+03  0.00000000000E+00 0.  1.
        -11    1    1    2    0    0  0.63184170326E+01 -0.90789787152E+01  0.38185048425E+03  0.38201065767E+03  0.00000000000E+00 0. -1.
         11    1    1    2    0    0  0.56369174962E+01 -0.34575524094E+01 -0.46989097406E+03  0.46993750330E+03  0.00000000000E+00 0.  1.
        -15    1    1    2    0    0 -0.61031805703E+01  0.58885854246E+01  0.11720270874E+03  0.11752258045E+03  0.17770000000E+01 0.  1.
         15    1    1    2    0    0 -0.58521539585E+01  0.66479457000E+01 -0.29162218929E+02  0.30529258587E+02  0.17770000000E+01 0. -1.
</event>
<event>
 6    1  0.1782050E-003  0.5241313E+03  0.7546771E-02  0.9347376E-01
        -11   -1    0    0    0    0  0.00000000000E+00  0.00000000000E+00  0.50000000000E+03  0.50000000000E+03  0.00000000000E+00 0. -1.
         11   -1    0    0    0    0 -0.00000000000E+00 -0.00000000000E+00 -0.50000000000E+03  0.50000000000E+03  0.00000000000E+00 0.  1.
        -11    1    1    2    0    0  0.11460390748E+02 -0.40645548488E+01  0.21915570903E+03  0.21949279250E+03  0.00000000000E+00 0. -1.
         11    1    1    2    0    0 -0.10989219495E+02  0.81779796258E+01 -0.47567145981E+03  0.47586865832E+03  0.00000000000E+00 0.  1.
        -15    1    1    2    0    0 -0.75889203715E+01  0.28085691074E+01  0.27945603112E+03  0.27957880969E+03  0.17770000000E+01 0. -1.
         15    1    1    2    0    0  0.71177491185E+01 -0.69219938844E+01 -0.22940280338E+02  0.25059739481E+02  0.17770000000E+01 0. -1.
</event>
<event>
 6    1  0.1782050E-003  0.5042151E+03  0.7546771E-02  0.9390427E-01
        -11   -1    0    0    0    0  0.00000000000E+00  0.00000000000E+00  0.50000000000E+03  0.50000000000E+03  0.00000000000E+00 0. -1.
         11   -1    0    0    0    0 -0.00000000000E+00 -0.00000000000E+00 -0.50000000000E+03  0.50000000000E+03  0.00000000000E+00 0.  1.
        -11    1    1    2    0    0 -0.79543607937E+01  0.42588806534E+01  0.49570282450E+03  0.49578493335E+03  0.00000000000E+00 0. -1.
         11    1    1    2    0    0  0.61183521072E+01 -0.84607623660E+01 -0.45198609637E+03  0.45210667994E+03  0.00000000000E+00 0.  1.
        -15    1    1    2    0    0 -0.48905349802E+01  0.77441728787E+01 -0.43296037731E+02  0.44289887764E+02  0.17770000000E+01 0. -1.
         15    1    1    2    0    0  0.67265436666E+01 -0.35422911661E+01 -0.42069039059E+00  0.78184989486E+01  0.17770000000E+01 0.  1.
</event>
<event>
 6    1  0.1782050E-003  0.5014679E+03  0.7546771E-02  0.9396531E-01
        -11   -1    0    0    0    0  0.00000000000E+00  0.00000000000E+00  0.50000000000E+03  0.50000000000E+03  0.00000000000E+00 0. -1.
         11   -1    0    0    0    0 -0.00000000000E+00 -0.00000000000E+00 -0.50000000000E+03  0.50000000000E+03  0.00000000000E+00 0. -1.
        -11    1    1    2    0    0 -0.62204991725E+01 -0.14008071840E+02  0.49829642228E+03  0.49853209039E+03  0.00000000000E+00 0. -1.
         11    1    1    2    0    0  0.39878861797E+01  0.78432229980E+00 -0.19306012839E+03  0.19310290410E+03  0.00000000000E+00 0. -1.
        -15    1    1    2    0    0  0.16825834063E+02  0.14386863227E+02 -0.25615892768E+03  0.25711990293E+03  0.17770000000E+01 0.  1.
         15    1    1    2    0    0 -0.14593221070E+02 -0.11631136866E+01 -0.49077366214E+02  0.51245102578E+02  0.17770000000E+01 0. -1.
</event>
<event>
 6    1  0.1782050E-003  0.5048788E+03  0.7546771E-02  0.9388959E-01
        -11   -1    0    0    0    0  0.00000000000E+00  0.00000000000E+00  0.50000000000E+03  0.50000000000E+03  0.00000000000E+00 0.  1.
         11   -1    0    0    0    0 -0.00000000000E+00 -0.00000000000E+00 -0.50000000000E+03  0.50000000000E+03  0.00000000000E+00 0.  1.
        -11    1    1    2    0    0 -0.11624224838E+02 -0.11248294499E+02  0.45565636657E+03  0.45594338588E+03  0.00000000000E+00 0.  1.
         11    1    1    2    0    0  0.67604035951E+01 -0.82995117727E+01 -0.49500543257E+03  0.49512116015E+03  0.00000000000E+00 0.  1.
        -15    1    1    2    0    0 -0.79260331668E+00  0.26245457569E+00 -0.20765030427E+01  0.28577432194E+01  0.17770000000E+01 0.  1.
         15    1    1    2    0    0  0.56564245598E+01  0.19285351696E+02  0.41425569040E+02  0.46077710752E+02  0.17770000000E+01 0. -1.
</event>
<event>
 6    1  0.1782050E-003  0.5045818E+03  0.7546771E-02  0.9389616E-01
        -11   -1    0    0    0    0  0.00000000000E+00  0.00000000000E+00  0.50000000000E+03  0.50000000000E+03  0.00000000000E+00 0. -1.
         11   -1    0    0    0    0 -0.00000000000E+00 -0.00000000000E+00 -0.50000000000E+03  0.50000000000E+03  0.00000000000E+00 0. -1.
        -11    1    1    2    0    0  0.69122814451E+01  0.67429945667E+00  0.49536956620E+03  0.49541824899E+03  0.00000000000E+00 0. -1.
         11    1    1    2    0    0  0.28106191389E+00 -0.93904766284E+01 -0.46338434226E+03  0.46347956665E+03  0.00000000000E+00 0. -1.
        -15    1    1    2    0    0 -0.36145320239E+01  0.75078816566E+01 -0.34955524552E+02  0.35978876503E+02  0.17770000000E+01 0.  1.
         15    1    1    2    0    0 -0.35788113351E+01  0.12082955151E+01  0.29703006117E+01  0.51233078522E+01  0.17770000000E+01 0. -1.
</event>
<event>
 6    1  0.1782050E-003  0.4756822E+03  0.7546771E-02  0.9455929E-01
        -11   -1    0    0    0    0  0.00000000000E+00  0.00000000000E+00  0.50000000000E+03  0.50000000000E+03  0.00000000000E+00 0. -1.
         11   -1    0    0    0    0 -0.00000000000E+00 -0.00000000000E+00 -0.50000000000E+03  0.50000000000E+03  0.00000000000E+00 0.  1.
        -11    1    1    2    0    0  0.14359680845E+02 -0.21457024103E+02  0.46578054427E+03  0.46649557312E+03  0.00000000000E+00 0. -1.
         11    1    1    2    0    0  0.14771442970E+02 -0.12709220134E+01 -0.48556536634E+03  0.48579165880E+03  0.00000000000E+00 0.  1.
        -15    1    1    2    0    0 -0.10724166029E+01 -0.39774793339E+01  0.33399054953E+01  0.55931312285E+01  0.17770000000E+01 0.  1.
         15    1    1    2    0    0 -0.28058707211E+02  0.26705425451E+02  0.16444916566E+02  0.42119636854E+02  0.17770000000E+01 0. -1.
</event>
<event>
 6    1  0.1782050E-003  0.4865897E+03  0.7546771E-02  0.9430327E-01
        -11   -1    0    0    0    0  0.00000000000E+00  0.00000000000E+00  0.50000000000E+03  0.50000000000E+03  0.00000000000E+00 0.  1.
         11   -1    0    0    0    0 -0.00000000000E+00 -0.00000000000E+00 -0.50000000000E+03  0.50000000000E+03  0.00000000000E+00 0. -1.
        -11    1    1    2    0    0 -0.12046753954E+02  0.42926891995E+01  0.48477471803E+03  0.48494337680E+03  0.00000000000E+00 0.  1.
         11    1    1    2    0    0 -0.24470195027E+01 -0.14643380708E+02 -0.48817914307E+03  0.48840484460E+03  0.00000000000E+00 0. -1.
        -15    1    1    2    0    0  0.36853457074E+01  0.11820008136E+02 -0.42475694269E+01  0.13209615450E+02  0.17770000000E+01 0. -1.
         15    1    1    2    0    0  0.10808427750E+02 -0.14693166273E+01  0.76519944612E+01  0.13442163144E+02  0.17770000000E+01 0.  1.
</event>
<event>
 6    1  0.1782050E-003  0.5005640E+03  0.7546771E-02  0.9398549E-01
        -11   -1    0    0    0    0  0.00000000000E+00  0.00000000000E+00  0.50000000000E+03  0.50000000000E+03  0.00000000000E+00 0.  1.
         11   -1    0    0    0    0 -0.00000000000E+00 -0.00000000000E+00 -0.50000000000E+03  0.50000000000E+03  0.00000000000E+00 0. -1.
        -11    1    1    2    0    0 -0.77996627688E+01 -0.45739317811E+00  0.32417533001E+03  0.32426946902E+03  0.00000000000E+00 0.  1.
         11    1    1    2    0    0 -0.10221589693E+02  0.79479829662E+01 -0.49926817009E+03  0.49943603894E+03  0.00000000000E+00 0. -1.
        -15    1    1    2    0    0  0.22144064742E+01 -0.28598678436E+00  0.35323388502E+02  0.35438466231E+02  0.17770000000E+01 0.  1.
         15    1    1    2    0    0  0.15806845988E+02 -0.72046030037E+01  0.13976945157E+03  0.14085602581E+03  0.17770000000E+01 0. -1.
</event>
<event>
 6    1  0.1782050E-003  0.5036202E+03  0.7546771E-02  0.9391746E-01
        -11   -1    0    0    0    0  0.00000000000E+00  0.00000000000E+00  0.50000000000E+03  0.50000000000E+03  0.00000000000E+00 0.  1.
         11   -1    0    0    0    0 -0.00000000000E+00 -0.00000000000E+00 -0.50000000000E+03  0.50000000000E+03  0.00000000000E+00 0.  1.
        -11    1    1    2    0    0  0.43407247093E+01 -0.49229863116E+01  0.20090454955E+03  0.20101173030E+03  0.00000000000E+00 0.  1.
         11    1    1    2    0    0 -0.13420498699E+02 -0.34277649118E+00 -0.49619826831E+03  0.49637984322E+03  0.00000000000E+00 0.  1.
        -15    1    1    2    0    0  0.69049353850E+01 -0.41655239372E+01  0.11932113563E+01  0.83433329481E+01  0.17770000000E+01 0. -1.
         15    1    1    2    0    0  0.21748386045E+01  0.94312867400E+01  0.29410050740E+03  0.29426509354E+03  0.17770000000E+01 0.  1.
</event>
<event>
 6    1  0.1782050E-003  0.5021952E+03  0.7546771E-02  0.9394911E-01
        -11   -1    0    0    0    0  0.00000000000E+00  0.00000000000E+00  0.50000000000E+03  0.50000000000E+03  0.00000000000E+00 0. -1.
         11   -1    0    0    0    0 -0.00000000000E+00 -0.00000000000E+00 -0.50000000000E+03  0.50000000000E+03  0.00000000000E+00 0. -1.
        -11    1    1    2    0    0  0.24519046608E+02  0.14608907061E+02  0.49698597915E+03  0.49780484859E+03  0.00000000000E+00 0. -1.
         11    1    1    2    0    0  0.51083296278E+01  0.47628577248E+01 -0.23658225208E+03  0.23668532241E+03  0.00000000000E+00 0. -1.
        -15    1    1    2    0    0 -0.11590410409E+01 -0.12068678359E+02 -0.21088701809E+02  0.24390314604E+02  0.17770000000E+01 0.  1.
         15    1    1    2    0    0 -0.28468335194E+02 -0.73030864262E+01 -0.23931502525E+03  0.24111951439E+03  0.17770000000E+01 0. -1.
</event>
<event>
 6    1  0.1782050E-003  0.5021623E+03  0.7546771E-02  0.9394984E-01
        -11   -1    0    0    0    0  0.00000000000E+00  0.00000000000E+00  0.50000000000E+03  0.50000000000E+03  0.00000000000E+00 0. -1.
         11   -1    0    0    0    0 -0.00000000000E+00 -0.00000000000E+00 -0.50000000000E+03  0.50000000000E+03  0.00000000000E+00 0.  1.
        -11    1    1    2    0    0 -0.65370136688E+01 -0.26635880565E+01  0.49778765106E+03  0.49783769725E+03  0.00000000000E+00 0. -1.
         11    1    1    2    0    0  0.21123477731E+01 -0.70040645905E+01 -0.44295198753E+03  0.44301239508E+03  0.00000000000E+00 0.  1.
        -15    1    1    2    0    0  0.76358862400E+01  0.10735076783E+02 -0.19451242704E+02  0.23559652033E+02  0.17770000000E+01 0. -1.
         15    1    1    2    0    0 -0.32112203443E+01 -0.10674241364E+01 -0.35384420827E+02  0.35590255642E+02  0.17770000000E+01 0.  1.
</event>
<event>
 6    1  0.1782050E-003  0.4762066E+03  0.7546771E-02  0.9454682E-01
        -11   -1    0    0    0    0  0.00000000000E+00  0.00000000000E+00  0.50000000000E+03  0.50000000000E+03  0.00000000000E+00 0.  1.
         11   -1    0    0    0    0 -0.00000000000E+00 -0.00000000000E+00 -0.50000000000E+03  0.50000000000E+03  0.00000000000E+00 0. -1.
        -11    1    1    2    0    0 -0.20200909856E+02 -0.14949036207E+02  0.47508707327E+03  0.47575127707E+03  0.00000000000E+00 0.  1.
         11    1    1    2    0    0 -0.40550978030E+01 -0.12342969900E+02 -0.47718697683E+03  0.47736380632E+03  0.00000000000E+00 0. -1.
        -15    1    1    2    0    0 -0.41145338720E+01  0.12779799402E+01  0.66113894905E+01  0.80889320498E+01  0.17770000000E+01 0.  1.
         15    1    1    2    0    0  0.28370541531E+02  0.26014026167E+02 -0.45114859306E+01  0.38795984567E+02  0.17770000000E+01 0. -1.
</event>
<event>
 6    1  0.1782050E-003  0.5050419E+03  0.7546771E-02  0.9388598E-01
        -11   -1    0    0    0    0  0.00000000000E+00  0.00000000000E+00  0.50000000000E+03  0.50000000000E+03  0.00000000000E+00 0. -1.
         11   -1    0    0    0    0 -0.00000000000E+00 -0.00000000000E+00 -0.50000000000E+03  0.50000000000E+03  0.00000000000E+00 0.  1.
        -11    1    1    2    0    0  0.12215698621E+02  0.49930292189E+01  0.49478211800E+03  0.49495807694E+03  0.00000000000E+00 0. -1.
         11    1    1    2    0    0  0.10241623493E+02  0.44095849708E+01 -0.45571697249E+03  0.45585336931E+03  0.00000000000E+00 0.  1.
        -15    1    1    2    0    0 -0.16783060839E+02 -0.22635347349E+01 -0.35245123070E+02  0.39142957857E+02  0.17770000000E+01 0.  1.
         15    1    1    2    0    0 -0.56742612751E+01 -0.71390794549E+01 -0.38200224357E+01  0.10045595895E+02  0.17770000000E+01 0. -1.
</event>
<event>
 6    1  0.1782050E-003  0.5200960E+03  0.7546771E-02  0.9355933E-01
        -11   -1    0    0    0    0  0.00000000000E+00  0.00000000000E+00  0.50000000000E+03  0.50000000000E+03  0.00000000000E+00 0. -1.
         11   -1    0    0    0    0 -0.00000000000E+00 -0.00000000000E+00 -0.50000000000E+03  0.50000000000E+03  0.00000000000E+00 0.  1.
        -11    1    1    2    0    0 -0.85772690088E+01 -0.66588350020E+01  0.43924749569E+03  0.43938169295E+03  0.00000000000E+00 0. -1.
         11    1    1    2    0    0  0.15995396956E+01 -0.93022803086E+01 -0.47981119105E+03  0.47990402166E+03  0.00000000000E+00 0.  1.
        -15    1    1    2    0    0  0.59482821449E+01  0.62620614081E+01  0.59067426124E+02  0.59721972769E+02  0.17770000000E+01 0. -1.
         15    1    1    2    0    0  0.10294471683E+01  0.96990539025E+01 -0.18503730765E+02  0.20992312624E+02  0.17770000000E+01 0.  1.
</event>
<event>
 6    1  0.1782050E-003  0.5182896E+03  0.7546771E-02  0.9359790E-01
        -11   -1    0    0    0    0  0.00000000000E+00  0.00000000000E+00  0.50000000000E+03  0.50000000000E+03  0.00000000000E+00 0. -1.
         11   -1    0    0    0    0 -0.00000000000E+00 -0.00000000000E+00 -0.50000000000E+03  0.50000000000E+03  0.00000000000E+00 0.  1.
        -11    1    1    2    0    0 -0.34228421503E+01  0.75388712677E+02  0.47576228400E+03  0.48171041584E+03  0.00000000000E+00 0. -1.
         11    1    1    2    0    0  0.62144358203E+02 -0.34753282420E+02 -0.16250870865E+03  0.17742263746E+03  0.00000000000E+00 0.  1.
        -15    1    1    2    0    0 -0.75994102501E+02 -0.15017638890E+02 -0.29484864449E+03  0.30485982677E+03  0.17770000000E+01 0.  1.
         15    1    1    2    0    0  0.17272586449E+02 -0.25617791367E+02 -0.18404930862E+02  0.36007119938E+02  0.17770000000E+01 0. -1.
</event>
<event>
 6    1  0.1782050E-003  0.5102831E+03  0.7546771E-02  0.9377090E-01
        -11   -1    0    0    0    0  0.00000000000E+00  0.00000000000E+00  0.50000000000E+03  0.50000000000E+03  0.00000000000E+00 0.  1.
         11   -1    0    0    0    0 -0.00000000000E+00 -0.00000000000E+00 -0.50000000000E+03  0.50000000000E+03  0.00000000000E+00 0.  1.
        -11    1    1    2    0    0 -0.10952715200E+02  0.16111555777E+02  0.48932920117E+03  0.48971686853E+03  0.00000000000E+00 0.  1.
         11    1    1    2    0    0 -0.35930916537E+01 -0.62260062271E+01 -0.42613499994E+03  0.42619562601E+03  0.00000000000E+00 0.  1.
        -15    1    1    2    0    0  0.31863337748E+01  0.58543022581E+01 -0.64200041975E+02  0.64569564785E+02  0.17770000000E+01 0. -1.
         15    1    1    2    0    0  0.11359473079E+02 -0.15739851808E+02  0.10058407398E+01  0.19517940674E+02  0.17770000000E+01 0.  1.
</event>
<event>
 6    1  0.1782050E-003  0.5049553E+03  0.7546771E-02  0.9388790E-01
        -11   -1    0    0    0    0  0.00000000000E+00  0.00000000000E+00  0.50000000000E+03  0.50000000000E+03  0.00000000000E+00 0.  1.
         11   -1    0    0    0    0 -0.00000000000E+00 -0.00000000000E+00 -0.50000000000E+03  0.50000000000E+03  0.00000000000E+00 0.  1.
        -11    1    1    2    0    0  0.62858590193E+01  0.16425098380E+01  0.46379366632E+03  0.46383916908E+03  0.00000000000E+00 0.  1.
         11    1    1    2    0    0 -0.67853046893E+01  0.72669732401E+01 -0.49494485746E+03  0.49504470625E+03  0.00000000000E+00 0.  1.
        -15    1    1    2    0    0 -0.26286412254E+01 -0.14943174918E+01  0.32565533481E+02  0.32753846176E+02  0.17770000000E+01 0.  1.
         15    1    1    2    0    0  0.31280868954E+01 -0.74151655863E+01 -0.14143423375E+01  0.83622784900E+01  0.17770000000E+01 0. -1.
</event>
<event>
 6    1  0.1782050E-003  0.5236802E+03  0.7546771E-02  0.9348329E-01
        -11   -1    0    0    0    0  0.00000000000E+00  0.00000000000E+00  0.50000000000E+03  0.50000000000E+03  0.00000000000E+00 0.  1.
         11   -1    0    0    0    0 -0.00000000000E+00 -0.00000000000E+00 -0.50000000000E+03  0.50000000000E+03  0.00000000000E+00 0. -1.
        -11    1    1    2    0    0  0.35088763203E+01 -0.15208307402E+02  0.47606403461E+03  0.47631981890E+03  0.00000000000E+00 0.  1.
         11    1    1    2    0    0 -0.39471130109E+01  0.71096365979E+01 -0.45653835299E+03  0.45661076902E+03  0.00000000000E+00 0. -1.
        -15    1    1    2    0    0  0.80745287045E+01  0.22973331351E+02  0.15008148121E+02  0.28659626763E+02  0.17770000000E+01 0.  1.
         15    1    1    2    0    0 -0.76362920138E+01 -0.14874660547E+02 -0.34533829748E+02  0.38409785318E+02  0.17770000000E+01 0. -1.
</event>
<event>
 6    1  0.1782050E-003  0.5023469E+03  0.7546771E-02  0.9394574E-01
        -11   -1    0    0    0    0  0.00000000000E+00  0.00000000000E+00  0.50000000000E+03  0.50000000000E+03  0.00000000000E+00 0. -1.
         11   -1    0    0    0    0 -0.00000000000E+00 -0.00000000000E+00 -0.50000000000E+03  0.50000000000E+03  0.00000000000E+00 0. -1.
        -11    1    1    2    0    0  0.33882706335E+01  0.12379169870E+02  0.49748754792E+03  0.49765307651E+03  0.00000000000E+00 0. -1.
         11    1    1    2    0    0 -0.82357663624E+01  0.37309230857E+01 -0.18770414802E+03  0.18792177845E+03  0.00000000000E+00 0. -1.
        -15    1    1    2    0    0 -0.33432029298E+01 -0.60289777162E+01 -0.36301539571E+01  0.79913281052E+01  0.17770000000E+01 0.  1.
         15    1    1    2    0    0  0.81906986587E+01 -0.10081115239E+02 -0.30615324594E+03  0.30643381693E+03  0.17770000000E+01 0. -1.
</event>
<event>
 6    1  0.1782050E-003  0.5011290E+03  0.7546771E-02  0.9397287E-01
        -11   -1    0    0    0    0  0.00000000000E+00  0.00000000000E+00  0.50000000000E+03  0.50000000000E+03  0.00000000000E+00 0. -1.
         11   -1    0    0    0    0 -0.00000000000E+00 -0.00000000000E+00 -0.50000000000E+03  0.50000000000E+03  0.00000000000E+00 0. -1.
        -11    1    1    2    0    0  0.49347610198E+01  0.50980439783E+01  0.36902384653E+03  0.36909204980E+03  0.00000000000E+00 0. -1.
         11    1    1    2    0    0 -0.14133999945E+02 -0.13298478108E+02 -0.49849340375E+03  0.49887101845E+03  0.00000000000E+00 0. -1.
        -15    1    1    2    0    0  0.30017317413E+01 -0.55879635334E+01  0.80191620008E+02  0.80461726171E+02  0.17770000000E+01 0. -1.
         15    1    1    2    0    0  0.61975071842E+01  0.13788397663E+02  0.49277937210E+02  0.51575205575E+02  0.17770000000E+01 0.  1.
</event>
<event>
 6    1  0.1782050E-003  0.5004649E+03  0.7546771E-02  0.9398770E-01
        -11   -1    0    0    0    0  0.00000000000E+00  0.00000000000E+00  0.50000000000E+03  0.50000000000E+03  0.00000000000E+00 0.  1.
         11   -1    0    0    0    0 -0.00000000000E+00 -0.00000000000E+00 -0.50000000000E+03  0.50000000000E+03  0.00000000000E+00 0.  1.
        -11    1    1    2    0    0  0.11137045938E+01  0.48077670621E+01  0.23841671256E+03  0.23846778355E+03  0.00000000000E+00 0.  1.
         11    1    1    2    0    0  0.44901570688E+00 -0.12091098081E+02 -0.49938856730E+03  0.49953512130E+03  0.00000000000E+00 0.  1.
        -15    1    1    2    0    0 -0.78704584679E+01 -0.22214234673E+01  0.18130768896E+03  0.18150072905E+03  0.17770000000E+01 0. -1.
         15    1    1    2    0    0  0.63077381672E+01  0.95047544865E+01  0.79664165771E+02  0.80496366102E+02  0.17770000000E+01 0.  1.
</event>
<event>
 6    1  0.1782050E-003  0.4769655E+03  0.7546771E-02  0.9452879E-01
        -11   -1    0    0    0    0  0.00000000000E+00  0.00000000000E+00  0.50000000000E+03  0.50000000000E+03  0.00000000000E+00 0. -1.
         11   -1    0    0    0    0 -0.00000000000E+00 -0.00000000000E+00 -0.50000000000E+03  0.50000000000E+03  0.00000000000E+00 0. -1.
        -11    1    1    2    0    0  0.97550718869E+01 -0.32919966394E+01  0.48225637223E+03  0.48236625839E+03  0.00000000000E+00 0. -1.
         11    1    1    2    0    0  0.72395416731E+01 -0.13235109425E+01 -0.47172797718E+03  0.47178538246E+03  0.00000000000E+00 0. -1.
        -15    1    1    2    0    0 -0.74508132617E+01  0.77319208842E+01 -0.25505280279E+02  0.27730385319E+02  0.17770000000E+01 0. -1.
         15    1    1    2    0    0 -0.95438002982E+01 -0.31164133022E+01  0.14976885225E+02  0.18117973840E+02  0.17770000000E+01 0.  1.
</event>
<event>
 6    1  0.1782050E-003  0.5065425E+03  0.7546771E-02  0.9385288E-01
        -11   -1    0    0    0    0  0.00000000000E+00  0.00000000000E+00  0.50000000000E+03  0.50000000000E+03  0.00000000000E+00 0.  1.
         11   -1    0    0    0    0 -0.00000000000E+00 -0.00000000000E+00 -0.50000000000E+03  0.50000000000E+03  0.00000000000E+00 0. -1.
        -11    1    1    2    0    0  0.40367920591E+00  0.30267035654E+02  0.49252819330E+03  0.49345747294E+03  0.00000000000E+00 0.  1.
         11    1    1    2    0    0 -0.10976349018E+01  0.84347448712E+01 -0.35751044752E+03  0.35761161867E+03  0.00000000000E+00 0. -1.
        -15    1    1    2    0    0 -0.11368675660E+02 -0.94625009097E+01 -0.59664511618E+01  0.16048114475E+02  0.17770000000E+01 0. -1.
         15    1    1    2    0    0  0.12062631356E+02 -0.29239279616E+02 -0.12905129462E+03  0.13288279392E+03  0.17770000000E+01 0.  1.
</event>
<event>
 6    1  0.1782050E-003  0.5079348E+03  0.7546771E-02  0.9382228E-01
        -11   -1    0    0    0    0  0.00000000000E+00  0.00000000000E+00  0.50000000000E+03  0.50000000000E+03  0.00000000000E+00 0. -1.
         11   -1    0    0    0    0 -0.00000000000E+00 -0.00000000000E+00 -0.50000000000E+03  0.50000000000E+03  0.00000000000E+00 0.  1.
        -11    1    1    2    0    0 -0.13914457762E+01  0.75678382904E+01  0.49200500586E+03  0.49206517261E+03  0.00000000000E+00 0. -1.
         11    1    1    2    0    0  0.23224953852E+02  0.20811698194E+01 -0.37814468732E+03  0.37886294922E+03  0.00000000000E+00 0.  1.
        -15    1    1    2    0    0  0.81394673436E+00 -0.28215227459E+02 -0.76551104641E+02  0.81608767425E+02  0.17770000000E+01 0. -1.
         15    1    1    2    0    0 -0.22647454810E+02  0.18566219349E+02 -0.37309213908E+02  0.47463110746E+02  0.17770000000E+01 0.  1.
</event>
<event>
 6    1  0.1782050E-003  0.4961066E+03  0.7546771E-02  0.9408564E-01
        -11   -1    0    0    0    0  0.00000000000E+00  0.00000000000E+00  0.50000000000E+03  0.50000000000E+03  0.00000000000E+00 0. -1.
         11   -1    0    0    0    0 -0.00000000000E+00 -0.00000000000E+00 -0.50000000000E+03  0.50000000000E+03  0.00000000000E+00 0. -1.
        -11    1    1    2    0    0  0.12510170464E+01  0.53211828176E+00  0.90744487138E+01  0.91757186627E+01  0.00000000000E+00 0. -1.
         11    1    1    2    0    0  0.76583294608E+01  0.12649910878E+01 -0.49915478170E+03  0.49921513029E+03  0.00000000000E+00 0. -1.
        -15    1    1    2    0    0 -0.22451035124E+01 -0.13731821806E+02  0.75028215396E+02  0.76328200912E+02  0.17770000000E+01 0.  1.
         15    1    1    2    0    0 -0.66642429948E+01  0.11934712437E+02  0.41505211759E+03  0.41528095013E+03  0.17770000000E+01 0. -1.
</event>
<event>
 6    1  0.1782050E-003  0.5001134E+03  0.7546771E-02  0.9399556E-01
        -11   -1    0    0    0    0  0.00000000000E+00  0.00000000000E+00  0.50000000000E+03  0.50000000000E+03  0.00000000000E+00 0.  1.
         11   -1    0    0    0    0 -0.00000000000E+00 -0.00000000000E+00 -0.50000000000E+03  0.50000000000E+03  0.00000000000E+00 0. -1.
        -11    1    1    2    0    0  0.14240831412E+01 -0.12150655615E+01  0.13123447211E+03  0.13124782309E+03  0.00000000000E+00 0.  1.
         11    1    1    2    0    0 -0.15247250634E+01 -0.73608715181E+01 -0.49983010811E+03  0.49988663133E+03  0.00000000000E+00 0. -1.
        -15    1    1    2    0    0  0.36377173871E+01  0.86557179607E+01  0.30291913803E+03  0.30306982093E+03  0.17770000000E+01 0.  1.
         15    1    1    2    0    0 -0.35370754649E+01 -0.79780881101E-01  0.65676497963E+02  0.65795724644E+02  0.17770000000E+01 0. -1.
</event>
<event>
 6    1  0.1782050E-003  0.5054723E+03  0.7546771E-02  0.9387648E-01
        -11   -1    0    0    0    0  0.00000000000E+00  0.00000000000E+00  0.50000000000E+03  0.50000000000E+03  0.00000000000E+00 0. -1.
         11   -1    0    0    0    0 -0.00000000000E+00 -0.00000000000E+00 -0.50000000000E+03  0.50000000000E+03  0.00000000000E+00 0.  1.
        -11    1    1    2    0    0 -0.50023969092E+01 -0.17231576177E+02  0.40941260035E+03  0.40980559845E+03  0.00000000000E+00 0. -1.
         11    1    1    2    0    0  0.30909514022E+00 -0.24147020515E+02 -0.49393775052E+03  0.49452772979E+03  0.00000000000E+00 0.  1.
        -15    1    1    2    0    0  0.45987484521E+01  0.36240157732E+02  0.57841723056E+02  0.68434787754E+02  0.17770000000E+01 0.  1.
         15    1    1    2    0    0  0.94553316857E-01  0.51384389596E+01  0.26683427113E+02  0.27231884011E+02  0.17770000000E+01 0. -1.
</event>
<event>
 6    1  0.1782050E-003  0.5397004E+03  0.7546771E-02  0.9315112E-01
        -11   -1    0    0    0    0  0.00000000000E+00  0.00000000000E+00  0.50000000000E+03  0.50000000000E+03  0.00000000000E+00 0. -1.
         11   -1    0    0    0    0 -0.00000000000E+00 -0.00000000000E+00 -0.50000000000E+03  0.50000000000E+03  0.00000000000E+00 0.  1.
        -11    1    1    2    0    0  0.42755807414E+01 -0.62182944189E+01  0.44080171496E+03  0.44086630591E+03  0.00000000000E+00 0. -1.
         11    1    1    2    0    0  0.87221404764E+01 -0.12355260469E+02 -0.46005108338E+03  0.46029960625E+03  0.00000000000E+00 0.  1.
        -15    1    1    2    0    0 -0.17724452896E+02  0.17809629105E+02  0.56171285516E+02  0.61560621869E+02  0.17770000000E+01 0. -1.
         15    1    1    2    0    0  0.47267316777E+01  0.76392578263E+00 -0.36921917092E+02  0.37273465974E+02  0.17770000000E+01 0.  1.
</event>
<event>
 6    1  0.1782050E-003  0.5069574E+03  0.7546771E-02  0.9384375E-01
        -11   -1    0    0    0    0  0.00000000000E+00  0.00000000000E+00  0.50000000000E+03  0.50000000000E+03  0.00000000000E+00 0. -1.
         11   -1    0    0    0    0 -0.00000000000E+00 -0.00000000000E+00 -0.50000000000E+03  0.50000000000E+03  0.00000000000E+00 0. -1.
        -11    1    1    2    0    0 -0.16006411488E+01  0.16295911984E+02  0.45914718073E+03  0.45943906274E+03  0.00000000000E+00 0. -1.
         11    1    1    2    0    0  0.12455295081E+02 -0.90606250023E+01 -0.49280193840E+03  0.49304257401E+03  0.00000000000E+00 0. -1.
        -15    1    1    2    0    0  0.46287731877E+01 -0.14336654342E+02  0.94685255570E+01  0.17882279054E+02  0.17770000000E+01 0.  1.
         15    1    1    2    0    0 -0.15483427120E+02  0.71013673608E+01  0.24186232113E+02  0.29636084198E+02  0.17770000000E+01 0. -1.
</event>
<event>
 6    1  0.1782050E-003  0.5011411E+03  0.7546771E-02  0.9397260E-01
        -11   -1    0    0    0    0  0.00000000000E+00  0.00000000000E+00  0.50000000000E+03  0.50000000000E+03  0.00000000000E+00 0. -1.
         11   -1    0    0    0    0 -0.00000000000E+00 -0.00000000000E+00 -0.50000000000E+03  0.50000000000E+03  0.00000000000E+00 0. -1.
        -11    1    1    2    0    0  0.93618993905E+01  0.82105077776E+01  0.49870346206E+03  0.49885889856E+03  0.00000000000E+00 0. -1.
         11    1    1    2    0    0  0.26544661737E+01 -0.95139597307E+01 -0.46214044763E+03  0.46224598966E+03  0.00000000000E+00 0. -1.
        -15    1    1    2    0    0 -0.67029370426E+01 -0.82848662176E+00 -0.15601836655E+02  0.17093589181E+02  0.17770000000E+01 0. -1.
         15    1    1    2    0    0 -0.53134285216E+01  0.21319385749E+01 -0.20961177775E+02  0.21801522595E+02  0.17770000000E+01 0.  1.
</event>
<event>
 6    1  0.1782050E-003  0.5035800E+03  0.7546771E-02  0.9391835E-01
        -11   -1    0    0    0    0  0.00000000000E+00  0.00000000000E+00  0.50000000000E+03  0.50000000000E+03  0.00000000000E+00 0.  1.
         11   -1    0    0    0    0 -0.00000000000E+00 -0.00000000000E+00 -0.50000000000E+03  0.50000000000E+03  0.00000000000E+00 0. -1.
        -11    1    1    2    0    0 -0.99325944380E+01  0.28108699340E+01  0.49631270901E+03  0.49642004648E+03  0.00000000000E+00 0.  1.
         11    1    1    2    0    0 -0.55603693969E+00 -0.11047018110E+02 -0.45208527109E+03  0.45222056358E+03  0.00000000000E+00 0. -1.
        -15    1    1    2    0    0  0.20010859114E+01 -0.14035834300E+01 -0.35728526460E+02  0.35856097435E+02  0.17770000000E+01 0. -1.
         15    1    1    2    0    0  0.84875454663E+01  0.96397316056E+01 -0.84989114568E+01  0.15503292503E+02  0.17770000000E+01 0.  1.
</event>
<event>
 6    1  0.1782050E-003  0.5022526E+03  0.7546771E-02  0.9394783E-01
        -11   -1    0    0    0    0  0.00000000000E+00  0.00000000000E+00  0.50000000000E+03  0.50000000000E+03  0.00000000000E+00 0.  1.
         11   -1    0    0    0    0 -0.00000000000E+00 -0.00000000000E+00 -0.50000000000E+03  0.50000000000E+03  0.00000000000E+00 0. -1.
        -11    1    1    2    0    0  0.67146439872E+01 -0.13702191889E+01  0.43487544079E+03  0.43492943444E+03  0.00000000000E+00 0.  1.
         11    1    1    2    0    0 -0.78448754295E+01  0.34447941557E+01 -0.49767360964E+03  0.49774735601E+03  0.00000000000E+00 0. -1.
        -15    1    1    2    0    0 -0.41554585728E+01 -0.61201205212E+00  0.61160217825E+02  0.61330028274E+02  0.17770000000E+01 0. -1.
         15    1    1    2    0    0  0.52856900151E+01 -0.14625629146E+01  0.16379510273E+01  0.59931812740E+01  0.17770000000E+01 0.  1.
</event>
<event>
 6    1  0.1782050E-003  0.5051376E+03  0.7546771E-02  0.9388387E-01
        -11   -1    0    0    0    0  0.00000000000E+00  0.00000000000E+00  0.50000000000E+03  0.50000000000E+03  0.00000000000E+00 0.  1.
         11   -1    0    0    0    0 -0.00000000000E+00 -0.00000000000E+00 -0.50000000000E+03  0.50000000000E+03  0.00000000000E+00 0. -1.
        -11    1    1    2    0    0 -0.68424970336E+01 -0.75764340916E+01  0.36676550154E+03  0.36690755680E+03  0.00000000000E+00 0.  1.
         11    1    1    2    0    0 -0.15688173789E+02  0.12070190854E+02 -0.49446635541E+03  0.49486238990E+03  0.00000000000E+00 0. -1.
        -15    1    1    2    0    0  0.16037460847E+02 -0.91063241992E+01  0.11636173684E+02  0.21878838128E+02  0.17770000000E+01 0.  1.
         15    1    1    2    0    0  0.64932099753E+01  0.46125674366E+01  0.11606468019E+03  0.11635121517E+03  0.17770000000E+01 0.  1.
</event>
<event>
 6    1  0.1782050E-003  0.5019216E+03  0.7546771E-02  0.9395520E-01
        -11   -1    0    0    0    0  0.00000000000E+00  0.00000000000E+00  0.50000000000E+03  0.50000000000E+03  0.00000000000E+00 0.  1.
         11   -1    0    0    0    0 -0.00000000000E+00 -0.00000000000E+00 -0.50000000000E+03  0.50000000000E+03  0.00000000000E+00 0. -1.
        -11    1    1    2    0    0  0.17545334863E+01 -0.18850906485E+00  0.75495850465E+02  0.75516470792E+02  0.00000000000E+00 0.  1.
         11    1    1    2    0    0  0.11538846201E+02  0.22066831691E+02 -0.49745557160E+03  0.49807844337E+03  0.00000000000E+00 0. -1.
        -15    1    1    2    0    0  0.31277858589E+01  0.17572890969E+02  0.97200490473E+02  0.98841704855E+02  0.17770000000E+01 0. -1.
         15    1    1    2    0    0 -0.16421165547E+02 -0.39451213595E+02  0.32475923066E+03  0.32756338098E+03  0.17770000000E+01 0.  1.
</event>
<event>
 6    1  0.1782050E-003  0.5152053E+03  0.7546771E-02  0.9366415E-01
        -11   -1    0    0    0    0  0.00000000000E+00  0.00000000000E+00  0.50000000000E+03  0.50000000000E+03  0.00000000000E+00 0.  1.
         11   -1    0    0    0    0 -0.00000000000E+00 -0.00000000000E+00 -0.50000000000E+03  0.50000000000E+03  0.00000000000E+00 0.  1.
        -11    1    1    2    0    0 -0.51485121140E+01 -0.40178339572E+01  0.12417522057E+03  0.12434683578E+03  0.00000000000E+00 0.  1.
         11    1    1    2    0    0 -0.49080171673E-01  0.94066289878E+01 -0.48470341052E+03  0.48479468153E+03  0.00000000000E+00 0.  1.
        -15    1    1    2    0    0 -0.10959367470E+02 -0.11015083204E+02 -0.10880247675E+02  0.19051963463E+02  0.17770000000E+01 0. -1.
         15    1    1    2    0    0  0.16156959756E+02  0.56262881731E+01  0.37140843762E+03  0.37180651922E+03  0.17770000000E+01 0.  1.
</event>
<event>
 6    1  0.1782050E-003  0.5036770E+03  0.7546771E-02  0.9391620E-01
        -11   -1    0    0    0    0  0.00000000000E+00  0.00000000000E+00  0.50000000000E+03  0.50000000000E+03  0.00000000000E+00 0. -1.
         11   -1    0    0    0    0 -0.00000000000E+00 -0.00000000000E+00 -0.50000000000E+03  0.50000000000E+03  0.00000000000E+00 0. -1.
        -11    1    1    2    0    0 -0.11184999638E+02 -0.12762362648E+02  0.49603281447E+03  0.49632301493E+03  0.00000000000E+00 0. -1.
         11    1    1    2    0    0  0.12325643784E+02 -0.18304642349E+01 -0.40741596096E+03  0.40760647362E+03  0.00000000000E+00 0. -1.
        -15    1    1    2    0    0  0.63969187627E+01 -0.43249899704E+00 -0.86945979027E+00  0.67097924235E+01  0.17770000000E+01 0. -1.
         15    1    1    2    0    0 -0.75375629086E+01  0.15025325880E+02 -0.87747393721E+02  0.89360719034E+02  0.17770000000E+01 0.  1.
</event>
<event>
 6    1  0.1782050E-003  0.5004872E+03  0.7546771E-02  0.9398720E-01
        -11   -1    0    0    0    0  0.00000000000E+00  0.00000000000E+00  0.50000000000E+03  0.50000000000E+03  0.00000000000E+00 0.  1.
         11   -1    0    0    0    0 -0.00000000000E+00 -0.00000000000E+00 -0.50000000000E+03  0.50000000000E+03  0.00000000000E+00 0.  1.
        -11    1    1    2    0    0 -0.29633340026E+01  0.91237943471E+01  0.33065794071E+03  0.33079706578E+03  0.00000000000E+00 0.  1.
         11    1    1    2    0    0 -0.55061060096E+01 -0.95565496604E+01 -0.49939098247E+03  0.49951276081E+03  0.00000000000E+00 0.  1.
        -15    1    1    2    0    0  0.22002926144E+01  0.16098587428E+01  0.60272690075E+01  0.68497177642E+01  0.17770000000E+01 0. -1.
         15    1    1    2    0    0  0.62691473979E+01 -0.11771034295E+01  0.16270577275E+03  0.16284045565E+03  0.17770000000E+01 0.  1.
</event>
<event>
 6    1  0.1782050E-003  0.5063847E+03  0.7546771E-02  0.9385636E-01
        -11   -1    0    0    0    0  0.00000000000E+00  0.00000000000E+00  0.50000000000E+03  0.50000000000E+03  0.00000000000E+00 0. -1.
         11   -1    0    0    0    0 -0.00000000000E+00 -0.00000000000E+00 -0.50000000000E+03  0.50000000000E+03  0.00000000000E+00 0. -1.
        -11    1    1    2    0    0 -0.16480844752E+02 -0.49214216881E+01  0.49331550374E+03  0.49361525996E+03  0.00000000000E+00 0. -1.
         11    1    1    2    0    0  0.12547828111E+02 -0.22230387828E+01 -0.42012907096E+03  0.42032228844E+03  0.00000000000E+00 0. -1.
        -15    1    1    2    0    0  0.10787881505E+02 -0.81466672950E+00  0.10976105964E+01  0.11018373168E+02  0.17770000000E+01 0.  1.
         15    1    1    2    0    0 -0.68548648643E+01  0.79591272005E+01 -0.74284043379E+02  0.75044078433E+02  0.17770000000E+01 0. -1.
</event>
<event>
 6    1  0.1782050E-003  0.5087084E+03  0.7546771E-02  0.9380532E-01
        -11   -1    0    0    0    0  0.00000000000E+00  0.00000000000E+00  0.50000000000E+03  0.50000000000E+03  0.00000000000E+00 0.  1.
         11   -1    0    0    0    0 -0.00000000000E+00 -0.00000000000E+00 -0.50000000000E+03  0.50000000000E+03  0.00000000000E+00 0.  1.
        -11    1    1    2    0    0  0.89941731922E+01 -0.47159709350E+01  0.49118659604E+03  0.49129157093E+03  0.00000000000E+00 0.  1.
         11    1    1    2    0    0 -0.10408685034E+02  0.68981206473E+01 -0.43707839363E+03  0.43725672890E+03  0.00000000000E+00 0.  1.
        -15    1    1    2    0    0  0.13978762831E+02  0.22424575743E+01 -0.56082250068E+02  0.57868911584E+02  0.17770000000E+01 0.  1.
         15    1    1    2    0    0 -0.12564250988E+02 -0.44246072866E+01  0.19740476564E+01  0.13582788583E+02  0.17770000000E+01 0.  1.
</event>
<event>
 6    1  0.1782050E-003  0.5023688E+03  0.7546771E-02  0.9394525E-01
        -11   -1    0    0    0    0  0.00000000000E+00  0.00000000000E+00  0.50000000000E+03  0.50000000000E+03  0.00000000000E+00 0. -1.
         11   -1    0    0    0    0 -0.00000000000E+00 -0.00000000000E+00 -0.50000000000E+03  0.50000000000E+03  0.00000000000E+00 0. -1.
        -11    1    1    2    0    0 -0.11143273826E+01  0.19573243803E+01  0.15698528188E+03  0.15700143812E+03  0.00000000000E+00 0. -1.
         11    1    1    2    0    0  0.11867366731E+01  0.78733229314E+01 -0.49756749741E+03  0.49763120083E+03  0.00000000000E+00 0. -1.
        -15    1    1    2    0    0 -0.14007999034E+02  0.17589216175E+02  0.85264545926E+02  0.88197534453E+02  0.17770000000E+01 0. -1.
         15    1    1    2    0    0  0.13935589744E+02 -0.27419863487E+02  0.25531766960E+03  0.25716982660E+03  0.17770000000E+01 0.  1.
</event>
<event>
 6    1  0.1782050E-003  0.5115685E+03  0.7546771E-02  0.9374290E-01
        -11   -1    0    0    0    0  0.00000000000E+00  0.00000000000E+00  0.50000000000E+03  0.50000000000E+03  0.00000000000E+00 0.  1.
         11   -1    0    0    0    0 -0.00000000000E+00 -0.00000000000E+00 -0.50000000000E+03  0.50000000000E+03  0.00000000000E+00 0.  1.
        -11    1    1    2    0    0  0.89203154586E+01 -0.24611439561E+01  0.42258181996E+03  0.42268312460E+03  0.00000000000E+00 0.  1.
         11    1    1    2    0    0  0.33577657789E+02  0.32060435700E+01 -0.48726543625E+03  0.48843151330E+03  0.00000000000E+00 0.  1.
        -15    1    1    2    0    0 -0.23677773928E+02  0.13484733277E+02  0.96164272638E+01  0.28950102108E+02  0.17770000000E+01 0. -1.
         15    1    1    2    0    0 -0.18820199319E+02 -0.14229632890E+02  0.55067189027E+02  0.59935259997E+02  0.17770000000E+01 0.  1.
</event>
<event>
 6    1  0.1782050E-003  0.5046261E+03  0.7546771E-02  0.9389518E-01
        -11   -1    0    0    0    0  0.00000000000E+00  0.00000000000E+00  0.50000000000E+03  0.50000000000E+03  0.00000000000E+00 0. -1.
         11   -1    0    0    0    0 -0.00000000000E+00 -0.00000000000E+00 -0.50000000000E+03  0.50000000000E+03  0.00000000000E+00 0. -1.
        -11    1    1    2    0    0 -0.16164014763E+00  0.87420005473E+01  0.47768596305E+03  0.47776597619E+03  0.00000000000E+00 0. -1.
         11    1    1    2    0    0  0.30101539033E+01 -0.10392071820E+02 -0.49525575631E+03  0.49537391972E+03  0.00000000000E+00 0. -1.
        -15    1    1    2    0    0 -0.78504364076E+01  0.32876530085E+01  0.27919497363E+00  0.86990627615E+01  0.17770000000E+01 0. -1.
         15    1    1    2    0    0  0.50019226519E+01 -0.16375817361E+01  0.17290598283E+02  0.18161041329E+02  0.17770000000E+01 0. -1.
</event>
<event>
 6    1  0.1782050E-003  0.5226678E+03  0.7546771E-02  0.9350470E-01
        -11   -1    0    0    0    0  0.00000000000E+00  0.00000000000E+00  0.50000000000E+03  0.50000000000E+03  0.00000000000E+00 0. -1.
         11   -1    0    0    0    0 -0.00000000000E+00 -0.00000000000E+00 -0.50000000000E+03  0.50000000000E+03  0.00000000000E+00 0.  1.
        -11    1    1    2    0    0 -0.56523629726E+02  0.20627144495E+01  0.47396924764E+03  0.47733219378E+03  0.00000000000E+00 0. -1.
         11    1    1    2    0    0  0.10540134272E+02 -0.31591338480E+01 -0.36419084351E+03  0.36435702965E+03  0.00000000000E+00 0.  1.
        -15    1    1    2    0    0  0.40343300762E+02 -0.24127747518E+02 -0.15950240183E+01  0.47068375235E+02  0.17770000000E+01 0. -1.
         15    1    1    2    0    0  0.56401946917E+01  0.25224166917E+02 -0.10818338011E+03  0.11124240134E+03  0.17770000000E+01 0.  1.
</event>
<event>
 6    1  0.1782050E-003  0.4803331E+03  0.7546771E-02  0.9444924E-01
        -11   -1    0    0    0    0  0.00000000000E+00  0.00000000000E+00  0.50000000000E+03  0.50000000000E+03  0.00000000000E+00 0.  1.
         11   -1    0    0    0    0 -0.00000000000E+00 -0.00000000000E+00 -0.50000000000E+03  0.50000000000E+03  0.00000000000E+00 0. -1.
        -11    1    1    2    0    0 -0.86476810414E+01 -0.51452776624E+01  0.48614542201E+03  0.48624955282E+03  0.00000000000E+00 0.  1.
         11    1    1    2    0    0 -0.97081869247E+01 -0.10047560709E+02 -0.47457621482E+03  0.47478182994E+03  0.00000000000E+00 0. -1.
        -15    1    1    2    0    0  0.13372557739E+02  0.18584726107E+02 -0.18589965639E+02  0.29545928593E+02  0.17770000000E+01 0.  1.
         15    1    1    2    0    0  0.49833102275E+01 -0.33918877349E+01  0.70207584455E+01  0.94226886492E+01  0.17770000000E+01 0. -1.
</event>
<event>
 6    1  0.1782050E-003  0.4352674E+03  0.7546771E-02  0.9557578E-01
        -11   -1    0    0    0    0  0.00000000000E+00  0.00000000000E+00  0.50000000000E+03  0.50000000000E+03  0.00000000000E+00 0. -1.
         11   -1    0    0    0    0 -0.00000000000E+00 -0.00000000000E+00 -0.50000000000E+03  0.50000000000E+03  0.00000000000E+00 0. -1.
        -11    1    1    2    0    0 -0.14165885531E+01 -0.14182597817E+02  0.43086751420E+03  0.43110319832E+03  0.00000000000E+00 0. -1.
         11    1    1    2    0    0  0.68508833098E+01 -0.12809555214E+02 -0.43967149745E+03  0.43991140583E+03  0.00000000000E+00 0. -1.
        -15    1    1    2    0    0  0.35186802181E+01  0.32577557746E+02  0.64448211005E+02  0.72321559786E+02  0.17770000000E+01 0.  1.
         15    1    1    2    0    0 -0.89529749749E+01 -0.55854047150E+01 -0.55644227756E+02  0.56663836071E+02  0.17770000000E+01 0. -1.
</event>
<event>
 6    1  0.1782050E-003  0.5139020E+03  0.7546771E-02  0.9369229E-01
        -11   -1    0    0    0    0  0.00000000000E+00  0.00000000000E+00  0.50000000000E+03  0.50000000000E+03  0.00000000000E+00 0.  1.
         11   -1    0    0    0    0 -0.00000000000E+00 -0.00000000000E+00 -0.50000000000E+03  0.50000000000E+03  0.00000000000E+00 0.  1.
        -11    1    1    2    0    0  0.80032386362E+01  0.88613968723E+01  0.48595130556E+03  0.48609798144E+03  0.00000000000E+00 0.  1.
         11    1    1    2    0    0 -0.85973167322E+01  0.12642744635E+01 -0.47447634568E+03  0.47455591331E+03  0.00000000000E+00 0.  1.
        -15    1    1    2    0    0 -0.76524419328E+01 -0.81995530841E+01  0.10662971408E+02  0.15577202142E+02  0.17770000000E+01 0. -1.
         15    1    1    2    0    0  0.82465200288E+01 -0.19261182517E+01 -0.22137931288E+02  0.23768903105E+02  0.17770000000E+01 0.  1.
</event>
<event>
 6    1  0.1782050E-003  0.4880296E+03  0.7546771E-02  0.9427000E-01
        -11   -1    0    0    0    0  0.00000000000E+00  0.00000000000E+00  0.50000000000E+03  0.50000000000E+03  0.00000000000E+00 0. -1.
         11   -1    0    0    0    0 -0.00000000000E+00 -0.00000000000E+00 -0.50000000000E+03  0.50000000000E+03  0.00000000000E+00 0. -1.
        -11    1    1    2    0    0  0.74188679977E+01  0.11155142652E+02  0.48605799424E+03  0.48624258408E+03  0.00000000000E+00 0. -1.
         11    1    1    2    0    0  0.86766575335E+01  0.36231662530E+00 -0.48994800372E+03  0.49002496060E+03  0.00000000000E+00 0. -1.
        -15    1    1    2    0    0 -0.34595682964E+01  0.12502965327E+01  0.39481157211E+01  0.56813027524E+01  0.17770000000E+01 0.  1.
         15    1    1    2    0    0 -0.12635957235E+02 -0.12767755810E+02 -0.58106235161E-01  0.18051152567E+02  0.17770000000E+01 0. -1.
</event>
<event>
 6    1  0.1782050E-003  0.5039614E+03  0.7546771E-02  0.9390989E-01
        -11   -1    0    0    0    0  0.00000000000E+00  0.00000000000E+00  0.50000000000E+03  0.50000000000E+03  0.00000000000E+00 0.  1.
         11   -1    0    0    0    0 -0.00000000000E+00 -0.00000000000E+00 -0.50000000000E+03  0.50000000000E+03  0.00000000000E+00 0.  1.
        -11    1    1    2    0    0 -0.12020114055E+02 -0.23313096964E+01  0.49588746379E+03  0.49603860222E+03  0.00000000000E+00 0.  1.
         11    1    1    2    0    0 -0.56210666460E+01 -0.15775799105E+02 -0.40095097822E+03  0.40130058456E+03  0.00000000000E+00 0.  1.
        -15    1    1    2    0    0 -0.67782966848E+01  0.22583599012E+01 -0.75922341412E+01  0.10575691166E+02  0.17770000000E+01 0.  1.
         15    1    1    2    0    0  0.24419477385E+02  0.15848748901E+02 -0.87344251428E+02  0.92085122056E+02  0.17770000000E+01 0. -1.
</event>
<event>
 6    1  0.1782050E-003  0.5008373E+03  0.7546771E-02  0.9397938E-01
        -11   -1    0    0    0    0  0.00000000000E+00  0.00000000000E+00  0.50000000000E+03  0.50000000000E+03  0.00000000000E+00 0.  1.
         11   -1    0    0    0    0 -0.00000000000E+00 -0.00000000000E+00 -0.50000000000E+03  0.50000000000E+03  0.00000000000E+00 0.  1.
        -11    1    1    2    0    0  0.54347808771E+01 -0.46751184284E+01  0.49911124656E+03  0.49916272900E+03  0.00000000000E+00 0.  1.
         11    1    1    2    0    0  0.77836387368E-01 -0.27353481359E+01 -0.11392664902E+03  0.11395950835E+03  0.00000000000E+00 0.  1.
        -15    1    1    2    0    0 -0.53722231039E+01 -0.11079206702E+02 -0.66590767533E+02  0.67742878976E+02  0.17770000000E+01 0. -1.
         15    1    1    2    0    0 -0.14039416051E+00  0.18489673266E+02 -0.31859383001E+03  0.31913488367E+03  0.17770000000E+01 0.  1.
</event>
<event>
 6    1  0.1782050E-003  0.5020127E+03  0.7546771E-02  0.9395317E-01
        -11   -1    0    0    0    0  0.00000000000E+00  0.00000000000E+00  0.50000000000E+03  0.50000000000E+03  0.00000000000E+00 0. -1.
         11   -1    0    0    0    0 -0.00000000000E+00 -0.00000000000E+00 -0.50000000000E+03  0.50000000000E+03  0.00000000000E+00 0.  1.
        -11    1    1    2    0    0 -0.71764924262E+01  0.65661963850E+01  0.49789230612E+03  0.49798731457E+03  0.00000000000E+00 0. -1.
         11    1    1    2    0    0 -0.14278275222E+01  0.53786838996E+01 -0.32138382575E+03  0.32143200274E+03  0.00000000000E+00 0.  1.
        -15    1    1    2    0    0  0.74219812947E+00 -0.68968331242E+01 -0.16692652828E+03  0.16708004290E+03  0.17770000000E+01 0.  1.
         15    1    1    2    0    0  0.78621218189E+01 -0.50480471604E+01 -0.95819520974E+01  0.13500639786E+02  0.17770000000E+01 0. -1.
</event>
<event>
 6    1  0.1782050E-003  0.5038938E+03  0.7546771E-02  0.9391139E-01
        -11   -1    0    0    0    0  0.00000000000E+00  0.00000000000E+00  0.50000000000E+03  0.50000000000E+03  0.00000000000E+00 0. -1.
         11   -1    0    0    0    0 -0.00000000000E+00 -0.00000000000E+00 -0.50000000000E+03  0.50000000000E+03  0.00000000000E+00 0. -1.
        -11    1    1    2    0    0  0.92331605453E+01 -0.23198917647E+02  0.49547742723E+03  0.49610615994E+03  0.00000000000E+00 0. -1.
         11    1    1    2    0    0 -0.11956073905E+02 -0.96400346925E-01 -0.44344952960E+03  0.44361068777E+03  0.00000000000E+00 0. -1.
        -15    1    1    2    0    0  0.70981940271E+01  0.75175779013E+00 -0.14276670778E+02  0.16060216553E+02  0.17770000000E+01 0. -1.
         15    1    1    2    0    0 -0.43752806673E+01  0.22543560204E+02 -0.37751226854E+02  0.44222935741E+02  0.17770000000E+01 0.  1.
</event>
<event>
 6    1  0.1782050E-003  0.5139262E+03  0.7546771E-02  0.9369177E-01
        -11   -1    0    0    0    0  0.00000000000E+00  0.00000000000E+00  0.50000000000E+03  0.50000000000E+03  0.00000000000E+00 0.  1.
         11   -1    0    0    0    0 -0.00000000000E+00 -0.00000000000E+00 -0.50000000000E+03  0.50000000000E+03  0.00000000000E+00 0.  1.
        -11    1    1    2    0    0  0.87980328452E+01 -0.56926024670E+01  0.48596081601E+03  0.48607378637E+03  0.00000000000E+00 0.  1.
         11    1    1    2    0    0 -0.12522970980E+01 -0.14013663236E+02 -0.44727130443E+03  0.44749253711E+03  0.00000000000E+00 0.  1.
        -15    1    1    2    0    0 -0.12642258849E+02  0.23676425823E+02 -0.47964128661E+02  0.54991955918E+02  0.17770000000E+01 0. -1.
         15    1    1    2    0    0  0.50965231018E+01 -0.39701601194E+01  0.92746170856E+01  0.11441720595E+02  0.17770000000E+01 0.  1.
</event>
<event>
 6    1  0.1782050E-003  0.5002457E+03  0.7546771E-02  0.9399260E-01
        -11   -1    0    0    0    0  0.00000000000E+00  0.00000000000E+00  0.50000000000E+03  0.50000000000E+03  0.00000000000E+00 0.  1.
         11   -1    0    0    0    0 -0.00000000000E+00 -0.00000000000E+00 -0.50000000000E+03  0.50000000000E+03  0.00000000000E+00 0. -1.
        -11    1    1    2    0    0 -0.31545126062E+01 -0.81925151943E+01  0.49967717707E+03  0.49975428917E+03  0.00000000000E+00 0.  1.
         11    1    1    2    0    0  0.18822608322E+01 -0.15448610580E+01 -0.31772566571E+02  0.31865741605E+02  0.00000000000E+00 0. -1.
        -15    1    1    2    0    0 -0.64891568864E+01  0.60941826434E+01 -0.36206340216E+03  0.36217718472E+03  0.17770000000E+01 0. -1.
         15    1    1    2    0    0  0.77614086603E+01  0.36431936089E+01 -0.10584120834E+03  0.10620278451E+03  0.17770000000E+01 0.  1.
</event>
<event>
 6    1  0.1782050E-003  0.5091266E+03  0.7546771E-02  0.9379617E-01
        -11   -1    0    0    0    0  0.00000000000E+00  0.00000000000E+00  0.50000000000E+03  0.50000000000E+03  0.00000000000E+00 0. -1.
         11   -1    0    0    0    0 -0.00000000000E+00 -0.00000000000E+00 -0.50000000000E+03  0.50000000000E+03  0.00000000000E+00 0.  1.
        -11    1    1    2    0    0  0.93821000749E+01  0.10253645667E+02  0.47155261557E+03  0.47175738500E+03  0.00000000000E+00 0. -1.
         11    1    1    2    0    0 -0.41600050604E+01 -0.71881788724E+01 -0.49080309858E+03  0.49087336160E+03  0.00000000000E+00 0.  1.
        -15    1    1    2    0    0 -0.64167382861E+01 -0.11654676972E+02  0.23869439276E+02  0.27384555609E+02  0.17770000000E+01 0.  1.
         15    1    1    2    0    0  0.11946432716E+01  0.85892101773E+01 -0.46189562642E+01  0.99846977915E+01  0.17770000000E+01 0. -1.
</event>
<event>
 6    1  0.2289632E-003  0.5258927E+03  0.7546771E-02  0.9343667E-01
        -11   -1    0    0    0    0  0.00000000000E+00  0.00000000000E+00  0.50000000000E+03  0.50000000000E+03  0.00000000000E+00 0.  1.
         11   -1    0    0    0    0 -0.00000000000E+00 -0.00000000000E+00 -0.50000000000E+03  0.50000000000E+03  0.00000000000E+00 0.  1.
        -11    1    1    2    0    0  0.79429517304E+01  0.55104819025E+00  0.47404041364E+03  0.47410727468E+03  0.00000000000E+00 0.  1.
         11    1    1    2    0    0  0.54161178476E+02  0.15389116907E+02 -0.26602765953E+03  0.27192089624E+03  0.00000000000E+00 0.  1.
        -15    1    1    2    0    0 -0.50548554180E+02 -0.74946034675E+01 -0.22554567624E+03  0.23126896724E+03  0.17770000000E+01 0.  1.
         15    1    1    2    0    0 -0.11555576027E+02 -0.84455616297E+01  0.17532922130E+02  0.22702861845E+02  0.17770000000E+01 0. -1.
</event>
<event>
 6    1  0.1782050E-003  0.5000858E+03  0.7546771E-02  0.9399618E-01
        -11   -1    0    0    0    0  0.00000000000E+00  0.00000000000E+00  0.50000000000E+03  0.50000000000E+03  0.00000000000E+00 0. -1.
         11   -1    0    0    0    0 -0.00000000000E+00 -0.00000000000E+00 -0.50000000000E+03  0.50000000000E+03  0.00000000000E+00 0.  1.
        -11    1    1    2    0    0  0.12834359015E+01 -0.12106659121E+01  0.48249714214E+02  0.48281961864E+02  0.00000000000E+00 0. -1.
         11    1    1    2    0    0  0.82599967306E+01 -0.16882599484E+01 -0.49984307568E+03  0.49991417070E+03  0.00000000000E+00 0.  1.
        -15    1    1    2    0    0 -0.91194206088E+01  0.44317378594E+01  0.41765054637E+03  0.41777738181E+03  0.17770000000E+01 0. -1.
         15    1    1    2    0    0 -0.42401202336E+00 -0.15328119989E+01  0.33942815090E+02  0.34026485626E+02  0.17770000000E+01 0. -1.
</event>
<event>
 6    1  0.1782050E-003  0.5009191E+03  0.7546771E-02  0.9397756E-01
        -11   -1    0    0    0    0  0.00000000000E+00  0.00000000000E+00  0.50000000000E+03  0.50000000000E+03  0.00000000000E+00 0.  1.
         11   -1    0    0    0    0 -0.00000000000E+00 -0.00000000000E+00 -0.50000000000E+03  0.50000000000E+03  0.00000000000E+00 0. -1.
        -11    1    1    2    0    0  0.39843785662E+01 -0.71577632071E+01  0.49901370861E+03  0.49908094557E+03  0.00000000000E+00 0.  1.
         11    1    1    2    0    0 -0.91050523510E+00  0.44788540040E+01 -0.27876293243E+03  0.27880039751E+03  0.00000000000E+00 0. -1.
        -15    1    1    2    0    0 -0.86814479832E+01  0.24078434598E+01 -0.22794945469E+02  0.24575038497E+02  0.17770000000E+01 0.  1.
         15    1    1    2    0    0  0.56075746522E+01  0.27106574335E+00 -0.19745583071E+03  0.19754361843E+03  0.17770000000E+01 0. -1.
</event>
<event>
 6    1  0.1782050E-003  0.5024366E+03  0.7546771E-02  0.9394374E-01
        -11   -1    0    0    0    0  0.00000000000E+00  0.00000000000E+00  0.50000000000E+03  0.50000000000E+03  0.00000000000E+00 0.  1.
         11   -1    0    0    0    0 -0.00000000000E+00 -0.00000000000E+00 -0.50000000000E+03  0.50000000000E+03  0.00000000000E+00 0.  1.
        -11    1    1    2    0    0 -0.89609057895E+01  0.12918963370E+01  0.49748100809E+03  0.49756338313E+03  0.00000000000E+00 0.  1.
         11    1    1    2    0    0  0.63779204028E+01  0.88621876124E+01 -0.47042858985E+03  0.47055528303E+03  0.00000000000E+00 0.  1.
        -15    1    1    2    0    0 -0.39477199894E+01 -0.82786874665E+01 -0.11498778432E+02  0.14815559176E+02  0.17770000000E+01 0.  1.
         15    1    1    2    0    0  0.65307053760E+01 -0.18753964829E+01 -0.15553639800E+02  0.17065774659E+02  0.17770000000E+01 0. -1.
</event>
<event>
 6    1  0.1782050E-003  0.5078834E+03  0.7546771E-02  0.9382341E-01
        -11   -1    0    0    0    0  0.00000000000E+00  0.00000000000E+00  0.50000000000E+03  0.50000000000E+03  0.00000000000E+00 0. -1.
         11   -1    0    0    0    0 -0.00000000000E+00 -0.00000000000E+00 -0.50000000000E+03  0.50000000000E+03  0.00000000000E+00 0. -1.
        -11    1    1    2    0    0 -0.92592105207E+01  0.39816324337E+01  0.44397127152E+03  0.44408566326E+03  0.00000000000E+00 0. -1.
         11    1    1    2    0    0 -0.31555129704E+01  0.12163092047E+02 -0.49195613076E+03  0.49211658442E+03  0.00000000000E+00 0. -1.
        -15    1    1    2    0    0 -0.72657755839E-01 -0.58154086275E+01  0.47078448741E+02  0.47469593652E+02  0.17770000000E+01 0. -1.
         15    1    1    2    0    0  0.12487381247E+02 -0.10329315853E+02  0.90641050065E+00  0.16328158665E+02  0.17770000000E+01 0.  1.
</event>
<event>
 6    1  0.1782050E-003  0.5017757E+03  0.7546771E-02  0.9395845E-01
        -11   -1    0    0    0    0  0.00000000000E+00  0.00000000000E+00  0.50000000000E+03  0.50000000000E+03  0.00000000000E+00 0.  1.
         11   -1    0    0    0    0 -0.00000000000E+00 -0.00000000000E+00 -0.50000000000E+03  0.50000000000E+03  0.00000000000E+00 0. -1.
        -11    1    1    2    0    0  0.20385937626E+02 -0.38685525915E+01  0.49779199003E+03  0.49822426425E+03  0.00000000000E+00 0.  1.
         11    1    1    2    0    0 -0.14878192468E+01  0.36737493714E+00 -0.79581316076E+02  0.79596070499E+02  0.00000000000E+00 0. -1.
        -15    1    1    2    0    0 -0.23694246285E+02 -0.37994754069E+01 -0.73194064453E+02  0.77047920936E+02  0.17770000000E+01 0. -1.
         15    1    1    2    0    0  0.47961279052E+01  0.73006530613E+01 -0.34501660950E+03  0.34513174432E+03  0.17770000000E+01 0. -1.
</event>
<event>
 6    1  0.1782050E-003  0.5023015E+03  0.7546771E-02  0.9394675E-01
        -11   -1    0    0    0    0  0.00000000000E+00  0.00000000000E+00  0.50000000000E+03  0.50000000000E+03  0.00000000000E+00 0. -1.
         11   -1    0    0    0    0 -0.00000000000E+00 -0.00000000000E+00 -0.50000000000E+03  0.50000000000E+03  0.00000000000E+00 0.  1.
        -11    1    1    2    0    0  0.81118865554E+01  0.59046949619E+01  0.49759732419E+03  0.49769846812E+03  0.00000000000E+00 0. -1.
         11    1    1    2    0    0  0.61788040351E+01 -0.22334939415E+01 -0.42226357920E+03  0.42231468886E+03  0.00000000000E+00 0.  1.
        -15    1    1    2    0    0 -0.45673159305E+01  0.33063611522E+01 -0.60752766587E+02  0.61039731125E+02  0.17770000000E+01 0.  1.
         15    1    1    2    0    0 -0.97233746600E+01 -0.69775621726E+01 -0.14580978407E+02  0.18947111890E+02  0.17770000000E+01 0.  1.
</event>
<event>
 6    1  0.1782050E-003  0.5003436E+03  0.7546771E-02  0.9399041E-01
        -11   -1    0    0    0    0  0.00000000000E+00  0.00000000000E+00  0.50000000000E+03  0.50000000000E+03  0.00000000000E+00 0.  1.
         11   -1    0    0    0    0 -0.00000000000E+00 -0.00000000000E+00 -0.50000000000E+03  0.50000000000E+03  0.00000000000E+00 0.  1.
        -11    1    1    2    0    0 -0.26390717925E+01 -0.47262134057E+01  0.29674969313E+03  0.29679906025E+03  0.00000000000E+00 0.  1.
         11    1    1    2    0    0  0.86089386906E+01 -0.24946884590E+01 -0.49957602808E+03  0.49965642709E+03  0.00000000000E+00 0.  1.
        -15    1    1    2    0    0  0.56360532823E+00  0.91789419507E+01  0.14257439664E+03  0.14288172358E+03  0.17770000000E+01 0.  1.
         15    1    1    2    0    0 -0.65334722263E+01 -0.19580400861E+01  0.60251938315E+02  0.60662789089E+02  0.17770000000E+01 0. -1.
</event>
<event>
 6    1  0.1782050E-003  0.4845368E+03  0.7546771E-02  0.9435090E-01
        -11   -1    0    0    0    0  0.00000000000E+00  0.00000000000E+00  0.50000000000E+03  0.50000000000E+03  0.00000000000E+00 0. -1.
         11   -1    0    0    0    0 -0.00000000000E+00 -0.00000000000E+00 -0.50000000000E+03  0.50000000000E+03  0.00000000000E+00 0.  1.
        -11    1    1    2    0    0  0.48868229773E+00 -0.68563583159E+01  0.48651685095E+03  0.48656540641E+03  0.00000000000E+00 0. -1.
         11    1    1    2    0    0 -0.16469166188E+02  0.30490323252E+01 -0.48236561405E+03  0.48265631214E+03  0.00000000000E+00 0.  1.
        -15    1    1    2    0    0  0.11063541416E+02  0.20592807915E+01  0.10270432289E+02  0.15338907863E+02  0.17770000000E+01 0.  1.
         15    1    1    2    0    0  0.49169424745E+01  0.17480451992E+01 -0.14421669193E+02  0.15439373583E+02  0.17770000000E+01 0. -1.
</event>
<event>
 6    1  0.1782050E-003  0.5001905E+03  0.7546771E-02  0.9399384E-01
        -11   -1    0    0    0    0  0.00000000000E+00  0.00000000000E+00  0.50000000000E+03  0.50000000000E+03  0.00000000000E+00 0. -1.
         11   -1    0    0    0    0 -0.00000000000E+00 -0.00000000000E+00 -0.50000000000E+03  0.50000000000E+03  0.00000000000E+00 0.  1.
        -11    1    1    2    0    0  0.75121414827E+01  0.75168560435E+01  0.49969653796E+03  0.49980952917E+03  0.00000000000E+00 0. -1.
         11    1    1    2    0    0 -0.30069481739E+00 -0.39667856660E+01 -0.28125459929E+03  0.28128273219E+03  0.00000000000E+00 0.  1.
        -15    1    1    2    0    0 -0.10249671010E+01  0.35710935428E+01 -0.96836118656E+02  0.96923654863E+02  0.17770000000E+01 0.  1.
         15    1    1    2    0    0 -0.61864795643E+01 -0.71211639203E+01 -0.12160582001E+03  0.12198408378E+03  0.17770000000E+01 0.  1.
</event>
<event>
 6    1  0.1782050E-003  0.5031651E+03  0.7546771E-02  0.9392755E-01
        -11   -1    0    0    0    0  0.00000000000E+00  0.00000000000E+00  0.50000000000E+03  0.50000000000E+03  0.00000000000E+00 0. -1.
         11   -1    0    0    0    0 -0.00000000000E+00 -0.00000000000E+00 -0.50000000000E+03  0.50000000000E+03  0.00000000000E+00 0.  1.
        -11    1    1    2    0    0  0.97609814595E+01  0.36250459389E+01  0.49672582780E+03  0.49683494817E+03  0.00000000000E+00 0. -1.
         11    1    1    2    0    0  0.95568390562E+01  0.90583313828E+01 -0.40441967615E+03  0.40463398398E+03  0.00000000000E+00 0.  1.
        -15    1    1    2    0    0 -0.15236086211E+02 -0.24694744897E+01 -0.81645204606E+02  0.83110371142E+02  0.17770000000E+01 0.  1.
         15    1    1    2    0    0 -0.40817343045E+01 -0.10213902832E+02 -0.10660947047E+02  0.15420696707E+02  0.17770000000E+01 0. -1.
</event>
<event>
 6    1  0.1782050E-003  0.5092891E+03  0.7546771E-02  0.9379261E-01
        -11   -1    0    0    0    0  0.00000000000E+00  0.00000000000E+00  0.50000000000E+03  0.50000000000E+03  0.00000000000E+00 0. -1.
         11   -1    0    0    0    0 -0.00000000000E+00 -0.00000000000E+00 -0.50000000000E+03  0.50000000000E+03  0.00000000000E+00 0.  1.
        -11    1    1    2    0    0 -0.99844258290E+01  0.72745906260E+01  0.49055534823E+03  0.49071087018E+03  0.00000000000E+00 0. -1.
         11    1    1    2    0    0  0.18004463064E+02 -0.21244520262E+01 -0.48232524954E+03  0.48266584748E+03  0.00000000000E+00 0.  1.
        -15    1    1    2    0    0 -0.65086080759E+01 -0.87817301262E+01  0.54038942843E+01  0.12322360388E+02  0.17770000000E+01 0. -1.
         15    1    1    2    0    0 -0.15114291591E+01  0.36315915264E+01 -0.13633992982E+02  0.14300921955E+02  0.17770000000E+01 0.  1.
</event>
<event>
 6    1  0.1782050E-003  0.5023933E+03  0.7546771E-02  0.9394470E-01
        -11   -1    0    0    0    0  0.00000000000E+00  0.00000000000E+00  0.50000000000E+03  0.50000000000E+03  0.00000000000E+00 0.  1.
         11   -1    0    0    0    0 -0.00000000000E+00 -0.00000000000E+00 -0.50000000000E+03  0.50000000000E+03  0.00000000000E+00 0.  1.
        -11    1    1    2    0    0  0.46103019890E+01  0.51145249626E+01  0.34025385397E+03  0.34032352019E+03  0.00000000000E+00 0.  1.
         11    1    1    2    0    0  0.12779637279E+02  0.20710100435E+01 -0.49743824532E+03  0.49760668818E+03  0.00000000000E+00 0.  1.
        -15    1    1    2    0    0 -0.12493397249E+01  0.89187986853E+00  0.12580075177E+03  0.12582266558E+03  0.17770000000E+01 0.  1.
         15    1    1    2    0    0 -0.16140599543E+02 -0.80774148746E+01  0.31383639575E+02  0.36247126047E+02  0.17770000000E+01 0. -1.
</event>
<event>
 6    1  0.1782050E-003  0.5254183E+03  0.7546771E-02  0.9344664E-01
        -11   -1    0    0    0    0  0.00000000000E+00  0.00000000000E+00  0.50000000000E+03  0.50000000000E+03  0.00000000000E+00 0.  1.
         11   -1    0    0    0    0 -0.00000000000E+00 -0.00000000000E+00 -0.50000000000E+03  0.50000000000E+03  0.00000000000E+00 0. -1.
        -11    1    1    2    0    0  0.29489361969E+01 -0.84023141562E+01  0.22266065563E+03  0.22283864718E+03  0.00000000000E+00 0.  1.
         11    1    1    2    0    0 -0.27888946394E+02 -0.48178134587E+01 -0.47373702544E+03  0.47458168309E+03  0.00000000000E+00 0. -1.
        -15    1    1    2    0    0 -0.25701865992E+02 -0.30811043624E+02  0.22812597841E+03  0.23163446652E+03  0.17770000000E+01 0.  1.
         15    1    1    2    0    0  0.50641876189E+02  0.44031171239E+02  0.22950391395E+02  0.70945203212E+02  0.17770000000E+01 0. -1.
</event>
<event>
 6    1  0.1782050E-003  0.5053973E+03  0.7546771E-02  0.9387813E-01
        -11   -1    0    0    0    0  0.00000000000E+00  0.00000000000E+00  0.50000000000E+03  0.50000000000E+03  0.00000000000E+00 0.  1.
         11   -1    0    0    0    0 -0.00000000000E+00 -0.00000000000E+00 -0.50000000000E+03  0.50000000000E+03  0.00000000000E+00 0.  1.
        -11    1    1    2    0    0  0.30026710981E-01 -0.65049463993E+01  0.47565857265E+03  0.47570305125E+03  0.00000000000E+00 0.  1.
         11    1    1    2    0    0 -0.91485548685E+01 -0.41346220128E+01 -0.49450083816E+03  0.49460273968E+03  0.00000000000E+00 0.  1.
        -15    1    1    2    0    0  0.88076044105E+01  0.11139342276E+02  0.41749818186E+01  0.14907952374E+02  0.17770000000E+01 0. -1.
         15    1    1    2    0    0  0.31092374708E+00 -0.49977386396E+00  0.14667283688E+02  0.14786256703E+02  0.17770000000E+01 0.  1.
</event>
<event>
 6    1  0.1782050E-003  0.5007490E+03  0.7546771E-02  0.9398135E-01
        -11   -1    0    0    0    0  0.00000000000E+00  0.00000000000E+00  0.50000000000E+03  0.50000000000E+03  0.00000000000E+00 0.  1.
         11   -1    0    0    0    0 -0.00000000000E+00 -0.00000000000E+00 -0.50000000000E+03  0.50000000000E+03  0.00000000000E+00 0.  1.
        -11    1    1    2    0    0  0.45928000334E+00  0.32398464709E+01  0.23019167517E+03  0.23021493188E+03  0.00000000000E+00 0.  1.
         11    1    1    2    0    0  0.15418614509E+02  0.65608756996E+01 -0.49896974110E+03  0.49925102033E+03  0.00000000000E+00 0.  1.
        -15    1    1    2    0    0 -0.49357347684E+01  0.40138315240E+01  0.18751361427E+02  0.19880734533E+02  0.17770000000E+01 0. -1.
         15    1    1    2    0    0 -0.10942159744E+02 -0.13814553694E+02  0.25002670450E+03  0.25065331326E+03  0.17770000000E+01 0.  1.
</event>
<event>
 6    1  0.1782050E-003  0.5017575E+03  0.7546771E-02  0.9395886E-01
        -11   -1    0    0    0    0  0.00000000000E+00  0.00000000000E+00  0.50000000000E+03  0.50000000000E+03  0.00000000000E+00 0.  1.
         11   -1    0    0    0    0 -0.00000000000E+00 -0.00000000000E+00 -0.50000000000E+03  0.50000000000E+03  0.00000000000E+00 0.  1.
        -11    1    1    2    0    0 -0.25427272059E+01  0.49276999425E+01  0.32828889488E+03  0.32833572177E+03  0.00000000000E+00 0.  1.
         11    1    1    2    0    0 -0.52342414596E+01  0.56430856342E+01 -0.49818305089E+03  0.49824250511E+03  0.00000000000E+00 0.  1.
        -15    1    1    2    0    0  0.19672223974E+02 -0.28772226369E+01  0.11391367955E+03  0.11564929280E+03  0.17770000000E+01 0.  1.
         15    1    1    2    0    0 -0.11895255308E+02 -0.76935629397E+01  0.55980476461E+02  0.57772480329E+02  0.17770000000E+01 0. -1.
</event>
<event>
 6    1  0.1782050E-003  0.5001636E+03  0.7546771E-02  0.9399444E-01
        -11   -1    0    0    0    0  0.00000000000E+00  0.00000000000E+00  0.50000000000E+03  0.50000000000E+03  0.00000000000E+00 0.  1.
         11   -1    0    0    0    0 -0.00000000000E+00 -0.00000000000E+00 -0.50000000000E+03  0.50000000000E+03  0.00000000000E+00 0. -1.
        -11    1    1    2    0    0  0.21387305517E+01 -0.66899408524E+01  0.49978709415E+03  0.49983644220E+03  0.00000000000E+00 0.  1.
         11    1    1    2    0    0  0.48586656203E+01  0.13327062666E+01 -0.24662746895E+03  0.24667892325E+03  0.00000000000E+00 0. -1.
        -15    1    1    2    0    0 -0.37750524807E+01  0.72794808912E+01 -0.19273818821E+03  0.19292073187E+03  0.17770000000E+01 0.  1.
         15    1    1    2    0    0 -0.32223436912E+01 -0.19222463054E+01 -0.60421436987E+02  0.60563902668E+02  0.17770000000E+01 0. -1.
</event>
<event>
 6    1  0.1782050E-003  0.5165459E+03  0.7546771E-02  0.9363529E-01
        -11   -1    0    0    0    0  0.00000000000E+00  0.00000000000E+00  0.50000000000E+03  0.50000000000E+03  0.00000000000E+00 0.  1.
         11   -1    0    0    0    0 -0.00000000000E+00 -0.00000000000E+00 -0.50000000000E+03  0.50000000000E+03  0.00000000000E+00 0. -1.
        -11    1    1    2    0    0  0.15012248399E+02 -0.13774672214E+01  0.48321895620E+03  0.48345405640E+03  0.00000000000E+00 0.  1.
         11    1    1    2    0    0  0.53004364169E+01  0.21908225640E+01 -0.27767232985E+03  0.27773155581E+03  0.00000000000E+00 0. -1.
        -15    1    1    2    0    0 -0.78077463567E+01 -0.21211165344E+00 -0.21969380703E+03  0.21983978819E+03  0.17770000000E+01 0. -1.
         15    1    1    2    0    0 -0.12504938460E+02 -0.60124368919E+00  0.14147180680E+02  0.18974599602E+02  0.17770000000E+01 0.  1.
</event>
<event>
 6    1  0.1782050E-003  0.5030881E+03  0.7546771E-02  0.9392926E-01
        -11   -1    0    0    0    0  0.00000000000E+00  0.00000000000E+00  0.50000000000E+03  0.50000000000E+03  0.00000000000E+00 0. -1.
         11   -1    0    0    0    0 -0.00000000000E+00 -0.00000000000E+00 -0.50000000000E+03  0.50000000000E+03  0.00000000000E+00 0.  1.
        -11    1    1    2    0    0 -0.10815552615E+02 -0.48180334001E+01  0.32331182504E+03  0.32352855489E+03  0.00000000000E+00 0. -1.
         11    1    1    2    0    0 -0.79558797500E+00 -0.30936449271E+02 -0.49594728794E+03  0.49691187274E+03  0.00000000000E+00 0.  1.
        -15    1    1    2    0    0 -0.14874256857E+01  0.17598339924E+02  0.13150119054E+03  0.13269376340E+03  0.17770000000E+01 0. -1.
         15    1    1    2    0    0  0.13098566276E+02  0.18156142748E+02  0.41134272362E+02  0.46865808963E+02  0.17770000000E+01 0.  1.
</event>
<event>
 6    1  0.1782050E-003  0.5015480E+03  0.7546771E-02  0.9396353E-01
        -11   -1    0    0    0    0  0.00000000000E+00  0.00000000000E+00  0.50000000000E+03  0.50000000000E+03  0.00000000000E+00 0.  1.
         11   -1    0    0    0    0 -0.00000000000E+00 -0.00000000000E+00 -0.50000000000E+03  0.50000000000E+03  0.00000000000E+00 0. -1.
        -11    1    1    2    0    0 -0.16816341450E+03 -0.14993523214E+03  0.41393804490E+03  0.47127933631E+03  0.00000000000E+00 0.  1.
         11    1    1    2    0    0  0.52449082784E+01  0.13126821868E+01 -0.46484870574E+02  0.46798241309E+02  0.00000000000E+00 0. -1.
        -15    1    1    2    0    0  0.16162279924E+03  0.13319580209E+03 -0.13551299582E+03  0.24945937685E+03  0.17770000000E+01 0.  1.
         15    1    1    2    0    0  0.12957069815E+01  0.15426747858E+02 -0.23194017851E+03  0.23246304554E+03  0.17770000000E+01 0. -1.
</event>
<event>
 6    1  0.1782050E-003  0.6123026E+03  0.7546771E-02  0.9178554E-01
        -11   -1    0    0    0    0  0.00000000000E+00  0.00000000000E+00  0.50000000000E+03  0.50000000000E+03  0.00000000000E+00 0.  1.
         11   -1    0    0    0    0 -0.00000000000E+00 -0.00000000000E+00 -0.50000000000E+03  0.50000000000E+03  0.00000000000E+00 0. -1.
        -11    1    1    2    0    0  0.81727694793E+01 -0.53099639796E+01  0.38757490257E+03  0.38769742710E+03  0.00000000000E+00 0.  1.
         11    1    1    2    0    0 -0.57258556280E+01 -0.13658175453E+02 -0.34011722833E+03  0.34043951032E+03  0.00000000000E+00 0. -1.
        -15    1    1    2    0    0 -0.11892665430E+02 -0.25674279953E+01  0.11099049170E+03  0.11166948623E+03  0.17770000000E+01 0.  1.
         15    1    1    2    0    0  0.94457515785E+01  0.21535567428E+02 -0.15844816594E+03  0.16019357635E+03  0.17770000000E+01 0. -1.
</event>
<event>
 6    1  0.1782050E-003  0.5028317E+03  0.7546771E-02  0.9393496E-01
        -11   -1    0    0    0    0  0.00000000000E+00  0.00000000000E+00  0.50000000000E+03  0.50000000000E+03  0.00000000000E+00 0. -1.
         11   -1    0    0    0    0 -0.00000000000E+00 -0.00000000000E+00 -0.50000000000E+03  0.50000000000E+03  0.00000000000E+00 0.  1.
        -11    1    1    2    0    0  0.24788750218E+01  0.98937270635E+00  0.15817431242E+03  0.15819682927E+03  0.00000000000E+00 0. -1.
         11    1    1    2    0    0  0.15016240440E+02  0.13570829784E+02 -0.49675609936E+03  0.49716825839E+03  0.00000000000E+00 0.  1.
        -15    1    1    2    0    0 -0.81731506833E+00 -0.55205807776E+01  0.31131911757E+03  0.31137420495E+03  0.17770000000E+01 0. -1.
         15    1    1    2    0    0 -0.16677800394E+02 -0.90396217131E+01  0.27262669369E+02  0.33260707401E+02  0.17770000000E+01 0.  1.
</event>
<event>
 6    1  0.1782050E-003  0.5023013E+03  0.7546771E-02  0.9394675E-01
        -11   -1    0    0    0    0  0.00000000000E+00  0.00000000000E+00  0.50000000000E+03  0.50000000000E+03  0.00000000000E+00 0.  1.
         11   -1    0    0    0    0 -0.00000000000E+00 -0.00000000000E+00 -0.50000000000E+03  0.50000000000E+03  0.00000000000E+00 0.  1.
        -11    1    1    2    0    0 -0.16918464256E+01 -0.50589274769E+01  0.32367886096E+03  0.32372281373E+03  0.00000000000E+00 0.  1.
         11    1    1    2    0    0  0.10803683864E+02  0.34912638152E+02 -0.49635513675E+03  0.49769873786E+03  0.00000000000E+00 0.  1.
        -15    1    1    2    0    0 -0.33810050388E+01  0.45693997522E+01  0.67234755335E+02  0.67498004883E+02  0.17770000000E+01 0. -1.
         15    1    1    2    0    0 -0.57308323995E+01 -0.34423110427E+02  0.10544152045E+03  0.11108044353E+03  0.17770000000E+01 0.  1.
</event>
<event>
 6    1  0.1782050E-003  0.5254153E+03  0.7546771E-02  0.9344671E-01
        -11   -1    0    0    0    0  0.00000000000E+00  0.00000000000E+00  0.50000000000E+03  0.50000000000E+03  0.00000000000E+00 0.  1.
         11   -1    0    0    0    0 -0.00000000000E+00 -0.00000000000E+00 -0.50000000000E+03  0.50000000000E+03  0.00000000000E+00 0. -1.
        -11    1    1    2    0    0  0.70928469572E+01 -0.10667095006E+02  0.44435340179E+03  0.44453800858E+03  0.00000000000E+00 0.  1.
         11    1    1    2    0    0 -0.30117728345E+01  0.12481121028E+02 -0.47441098960E+03  0.47458469867E+03  0.00000000000E+00 0. -1.
        -15    1    1    2    0    0 -0.65404885567E+01 -0.11297216826E+01  0.55158287949E+02  0.55584608662E+02  0.17770000000E+01 0. -1.
         15    1    1    2    0    0  0.24594144340E+01 -0.68430433882E+00 -0.25100700138E+02  0.25292684085E+02  0.17770000000E+01 0.  1.
</event>
<event>
 6    1  0.1782050E-003  0.5043967E+03  0.7546771E-02  0.9390025E-01
        -11   -1    0    0    0    0  0.00000000000E+00  0.00000000000E+00  0.50000000000E+03  0.50000000000E+03  0.00000000000E+00 0. -1.
         11   -1    0    0    0    0 -0.00000000000E+00 -0.00000000000E+00 -0.50000000000E+03  0.50000000000E+03  0.00000000000E+00 0. -1.
        -11    1    1    2    0    0  0.59198323110E+01  0.40879527204E+01  0.49555106295E+03  0.49560328063E+03  0.00000000000E+00 0. -1.
         11    1    1    2    0    0  0.26902155466E+01  0.94068045216E+00 -0.16802715613E+03  0.16805132352E+03  0.00000000000E+00 0. -1.
        -15    1    1    2    0    0 -0.16419968631E+02  0.29552376964E+02 -0.89493479631E+02  0.95682803991E+02  0.17770000000E+01 0.  1.
         15    1    1    2    0    0  0.78099207732E+01 -0.34581010136E+02 -0.23803042719E+03  0.24066259186E+03  0.17770000000E+01 0. -1.
</event>
<event>
 6    1  0.1782050E-003  0.4629712E+03  0.7546771E-02  0.9486703E-01
        -11   -1    0    0    0    0  0.00000000000E+00  0.00000000000E+00  0.50000000000E+03  0.50000000000E+03  0.00000000000E+00 0. -1.
         11   -1    0    0    0    0 -0.00000000000E+00 -0.00000000000E+00 -0.50000000000E+03  0.50000000000E+03  0.00000000000E+00 0. -1.
        -11    1    1    2    0    0 -0.74365901019E+01 -0.70668668617E+01  0.47439199603E+03  0.47450290766E+03  0.00000000000E+00 0. -1.
         11    1    1    2    0    0 -0.29572197505E+02  0.54648158081E+01 -0.45146325181E+03  0.45246375193E+03  0.00000000000E+00 0. -1.
        -15    1    1    2    0    0  0.33812364734E+02 -0.70150689897E+01 -0.40421428439E+02  0.53193390641E+02  0.17770000000E+01 0.  1.
         15    1    1    2    0    0  0.31964228725E+01  0.86171200433E+01  0.17492684215E+02  0.19839949775E+02  0.17770000000E+01 0. -1.
</event>
<event>
 6    1  0.1782050E-003  0.5002474E+03  0.7546771E-02  0.9399256E-01
        -11   -1    0    0    0    0  0.00000000000E+00  0.00000000000E+00  0.50000000000E+03  0.50000000000E+03  0.00000000000E+00 0. -1.
         11   -1    0    0    0    0 -0.00000000000E+00 -0.00000000000E+00 -0.50000000000E+03  0.50000000000E+03  0.00000000000E+00 0. -1.
        -11    1    1    2    0    0  0.37928269850E+00  0.77735448588E+01  0.49969200534E+03  0.49975261085E+03  0.00000000000E+00 0. -1.
         11    1    1    2    0    0 -0.30697893249E+01  0.26084255189E+01 -0.27611344303E+03  0.27614282701E+03  0.00000000000E+00 0. -1.
        -15    1    1    2    0    0 -0.73345959430E+00 -0.10966625803E+02 -0.14365064494E+03  0.14408147128E+03  0.17770000000E+01 0. -1.
         15    1    1    2    0    0  0.34239662207E+01  0.58465542502E+00 -0.79927917368E+02  0.80023090858E+02  0.17770000000E+01 0.  1.
</event>
<event>
 6    1  0.1782050E-003  0.5075493E+03  0.7546771E-02  0.9383074E-01
        -11   -1    0    0    0    0  0.00000000000E+00  0.00000000000E+00  0.50000000000E+03  0.50000000000E+03  0.00000000000E+00 0.  1.
         11   -1    0    0    0    0 -0.00000000000E+00 -0.00000000000E+00 -0.50000000000E+03  0.50000000000E+03  0.00000000000E+00 0. -1.
        -11    1    1    2    0    0 -0.46176926016E+00  0.17854522425E+02  0.49212672710E+03  0.49245072112E+03  0.00000000000E+00 0.  1.
         11    1    1    2    0    0 -0.43324600061E+01  0.12079755368E+02 -0.27632560945E+03  0.27662345009E+03  0.00000000000E+00 0. -1.
        -15    1    1    2    0    0 -0.51642217407E+01 -0.31846144339E+02 -0.27746341386E+02  0.42589473872E+02  0.17770000000E+01 0.  1.
         15    1    1    2    0    0  0.99584510070E+01  0.19118665450E+01 -0.18805477627E+03  0.18833635492E+03  0.17770000000E+01 0. -1.
</event>
<event>
 6    1  0.1782050E-003  0.5007945E+03  0.7546771E-02  0.9398034E-01
        -11   -1    0    0    0    0  0.00000000000E+00  0.00000000000E+00  0.50000000000E+03  0.50000000000E+03  0.00000000000E+00 0.  1.
         11   -1    0    0    0    0 -0.00000000000E+00 -0.00000000000E+00 -0.50000000000E+03  0.50000000000E+03  0.00000000000E+00 0.  1.
        -11    1    1    2    0    0  0.93613686511E+01 -0.13134763082E+02  0.49894483963E+03  0.49920547895E+03  0.00000000000E+00 0.  1.
         11    1    1    2    0    0  0.66105651661E+01 -0.16099638892E+01 -0.11819957152E+03  0.11839522905E+03  0.00000000000E+00 0.  1.
        -15    1    1    2    0    0 -0.12885218847E+02  0.78836766833E+01 -0.73521989272E+02  0.75078771023E+02  0.17770000000E+01 0. -1.
         15    1    1    2    0    0 -0.30867149698E+01  0.68610502879E+01 -0.30722327884E+03  0.30732052097E+03  0.17770000000E+01 0.  1.
</event>
<event>
 6    1  0.1782050E-003  0.5082967E+03  0.7546771E-02  0.9381434E-01
        -11   -1    0    0    0    0  0.00000000000E+00  0.00000000000E+00  0.50000000000E+03  0.50000000000E+03  0.00000000000E+00 0. -1.
         11   -1    0    0    0    0 -0.00000000000E+00 -0.00000000000E+00 -0.50000000000E+03  0.50000000000E+03  0.00000000000E+00 0. -1.
        -11    1    1    2    0    0 -0.98194938392E+01 -0.66311808970E+01  0.45577949788E+03  0.45593348825E+03  0.00000000000E+00 0. -1.
         11    1    1    2    0    0 -0.44534814334E+01 -0.23416660260E+02 -0.49112523393E+03  0.49170333422E+03  0.00000000000E+00 0. -1.
        -15    1    1    2    0    0  0.16914422672E+02  0.22368289421E+02  0.18689258438E+02  0.33747358058E+02  0.17770000000E+01 0. -1.
         15    1    1    2    0    0 -0.26414473992E+01  0.76795517368E+01  0.16656477617E+02  0.18615819478E+02  0.17770000000E+01 0.  1.
</event>
<event>
 6    1  0.1782050E-003  0.5060839E+03  0.7546771E-02  0.9386298E-01
        -11   -1    0    0    0    0  0.00000000000E+00  0.00000000000E+00  0.50000000000E+03  0.50000000000E+03  0.00000000000E+00 0.  1.
         11   -1    0    0    0    0 -0.00000000000E+00 -0.00000000000E+00 -0.50000000000E+03  0.50000000000E+03  0.00000000000E+00 0. -1.
        -11    1    1    2    0    0 -0.53758912906E+01 -0.42881496136E+01  0.49386819217E+03  0.49391606541E+03  0.00000000000E+00 0.  1.
         11    1    1    2    0    0  0.12368737738E+01 -0.12414356886E+02 -0.35233706646E+03  0.35255787399E+03  0.00000000000E+00 0. -1.
        -15    1    1    2    0    0 -0.10641890260E+02 -0.38406801211E+01 -0.19002085254E+01  0.11609012599E+02  0.17770000000E+01 0. -1.
         15    1    1    2    0    0  0.14780907777E+02  0.20543186621E+02 -0.13963091718E+03  0.14191704800E+03  0.17770000000E+01 0.  1.
</event>
<event>
 6    1  0.1782050E-003  0.5071565E+03  0.7546771E-02  0.9383937E-01
        -11   -1    0    0    0    0  0.00000000000E+00  0.00000000000E+00  0.50000000000E+03  0.50000000000E+03  0.00000000000E+00 0. -1.
         11   -1    0    0    0    0 -0.00000000000E+00 -0.00000000000E+00 -0.50000000000E+03  0.50000000000E+03  0.00000000000E+00 0.  1.
        -11    1    1    2    0    0 -0.15084413270E+02 -0.98503049959E+00  0.39108468673E+03  0.39137672645E+03  0.00000000000E+00 0. -1.
         11    1    1    2    0    0  0.14861938826E+02  0.11916916027E+00 -0.49261932855E+03  0.49284347848E+03  0.00000000000E+00 0.  1.
        -15    1    1    2    0    0 -0.14135099816E+02  0.16732279240E+02  0.87287173324E+02  0.90010991391E+02  0.17770000000E+01 0.  1.
         15    1    1    2    0    0  0.14357574260E+02 -0.15866417901E+02  0.14247468490E+02  0.25768803678E+02  0.17770000000E+01 0. -1.
</event>
<event>
 6    1  0.1782050E-003  0.5006733E+03  0.7546771E-02  0.9398305E-01
        -11   -1    0    0    0    0  0.00000000000E+00  0.00000000000E+00  0.50000000000E+03  0.50000000000E+03  0.00000000000E+00 0.  1.
         11   -1    0    0    0    0 -0.00000000000E+00 -0.00000000000E+00 -0.50000000000E+03  0.50000000000E+03  0.00000000000E+00 0. -1.
        -11    1    1    2    0    0  0.11855121190E+01 -0.71342114156E+01  0.37154781737E+03  0.37161819520E+03  0.00000000000E+00 0.  1.
         11    1    1    2    0    0 -0.83488560567E+00  0.76078416292E+01 -0.49926808437E+03  0.49932674308E+03  0.00000000000E+00 0. -1.
        -15    1    1    2    0    0  0.15882912083E+01  0.24460144149E+01  0.12236550907E+03  0.12241315777E+03  0.17770000000E+01 0.  1.
         15    1    1    2    0    0 -0.19389177216E+01 -0.29196446284E+01  0.53547579244E+01  0.66419039527E+01  0.17770000000E+01 0. -1.
</event>
<event>
 6    1  0.1782050E-003  0.4995390E+03  0.7546771E-02  0.9400842E-01
        -11   -1    0    0    0    0  0.00000000000E+00  0.00000000000E+00  0.50000000000E+03  0.50000000000E+03  0.00000000000E+00 0.  1.
         11   -1    0    0    0    0 -0.00000000000E+00 -0.00000000000E+00 -0.50000000000E+03  0.50000000000E+03  0.00000000000E+00 0. -1.
        -11    1    1    2    0    0  0.78373072569E+01 -0.68146875464E+01  0.49384941750E+03  0.49395861215E+03  0.00000000000E+00 0.  1.
         11    1    1    2    0    0 -0.58977444939E+01 -0.57910959574E+00  0.10164902129E+01  0.60126541886E+01  0.00000000000E+00 0. -1.
        -15    1    1    2    0    0 -0.36459787231E+02  0.54148972121E+01 -0.27112787501E+03  0.27362770243E+03  0.17770000000E+01 0. -1.
         15    1    1    2    0    0  0.34520224468E+02  0.19788999301E+01 -0.22373803270E+03  0.22640103124E+03  0.17770000000E+01 0.  1.
</event>
<event>
 6    1  0.1782050E-003  0.5138831E+03  0.7546771E-02  0.9369270E-01
        -11   -1    0    0    0    0  0.00000000000E+00  0.00000000000E+00  0.50000000000E+03  0.50000000000E+03  0.00000000000E+00 0. -1.
         11   -1    0    0    0    0 -0.00000000000E+00 -0.00000000000E+00 -0.50000000000E+03  0.50000000000E+03  0.00000000000E+00 0.  1.
        -11    1    1    2    0    0 -0.16094536887E+02  0.42064496486E+01  0.46391934089E+03  0.46421749556E+03  0.00000000000E+00 0. -1.
         11    1    1    2    0    0 -0.10900889129E+02 -0.39777988013E+01 -0.48597833745E+03  0.48611685502E+03  0.00000000000E+00 0.  1.
        -15    1    1    2    0    0 -0.23265613393E+01  0.39205741222E+01 -0.67335667552E+01  0.83236073525E+01  0.17770000000E+01 0.  1.
         15    1    1    2    0    0  0.29321987356E+02 -0.41492249695E+01  0.28792563317E+02  0.41342042060E+02  0.17770000000E+01 0.  1.
</event>
<event>
 6    1  0.1782050E-003  0.5678624E+03  0.7546771E-02  0.9259583E-01
        -11   -1    0    0    0    0  0.00000000000E+00  0.00000000000E+00  0.50000000000E+03  0.50000000000E+03  0.00000000000E+00 0.  1.
         11   -1    0    0    0    0 -0.00000000000E+00 -0.00000000000E+00 -0.50000000000E+03  0.50000000000E+03  0.00000000000E+00 0. -1.
        -11    1    1    2    0    0  0.22930621053E+02  0.13114131013E+02  0.43132943561E+03  0.43213756587E+03  0.00000000000E+00 0.  1.
         11    1    1    2    0    0 -0.11273195588E+03 -0.28962836002E+02 -0.14499001123E+03  0.18592859678E+03  0.00000000000E+00 0. -1.
        -15    1    1    2    0    0 -0.19705030573E+02 -0.12608943376E+01  0.35983011603E+02  0.41083000589E+02  0.17770000000E+01 0.  1.
         15    1    1    2    0    0  0.10950636540E+03  0.17109599326E+02 -0.32232243598E+03  0.34085083676E+03  0.17770000000E+01 0. -1.
</event>
<event>
 6    1  0.1782050E-003  0.5026188E+03  0.7546771E-02  0.9393969E-01
        -11   -1    0    0    0    0  0.00000000000E+00  0.00000000000E+00  0.50000000000E+03  0.50000000000E+03  0.00000000000E+00 0. -1.
         11   -1    0    0    0    0 -0.00000000000E+00 -0.00000000000E+00 -0.50000000000E+03  0.50000000000E+03  0.00000000000E+00 0. -1.
        -11    1    1    2    0    0 -0.56471058299E+01  0.36812312789E+01  0.49733549511E+03  0.49738117774E+03  0.00000000000E+00 0. -1.
         11    1    1    2    0    0  0.61339129756E+01  0.28878011095E+01 -0.46494110091E+03  0.46499052851E+03  0.00000000000E+00 0. -1.
        -15    1    1    2    0    0 -0.82011738274E+01 -0.11279306653E+01 -0.21481213842E+02  0.23089646097E+02  0.17770000000E+01 0.  1.
         15    1    1    2    0    0  0.77143666818E+01 -0.54411017231E+01 -0.10913180359E+02  0.14538647661E+02  0.17770000000E+01 0.  1.
</event>
<event>
 6    1  0.1782050E-003  0.5083162E+03  0.7546771E-02  0.9381391E-01
        -11   -1    0    0    0    0  0.00000000000E+00  0.00000000000E+00  0.50000000000E+03  0.50000000000E+03  0.00000000000E+00 0.  1.
         11   -1    0    0    0    0 -0.00000000000E+00 -0.00000000000E+00 -0.50000000000E+03  0.50000000000E+03  0.00000000000E+00 0.  1.
        -11    1    1    2    0    0 -0.93048056470E+00  0.19498836805E+02  0.49129613343E+03  0.49168380201E+03  0.00000000000E+00 0.  1.
         11    1    1    2    0    0  0.53543262133E+01  0.62578886383E+01 -0.43655474021E+03  0.43663242113E+03  0.00000000000E+00 0.  1.
        -15    1    1    2    0    0  0.13261506505E+02  0.10505816199E+01 -0.10793117078E+02  0.17222670576E+02  0.17770000000E+01 0. -1.
         15    1    1    2    0    0 -0.17685352153E+02 -0.26807307063E+02 -0.43948276146E+02  0.54461106287E+02  0.17770000000E+01 0.  1.
</event>
<event>
 6    1  0.1782050E-003  0.5003931E+03  0.7546771E-02  0.9398930E-01
        -11   -1    0    0    0    0  0.00000000000E+00  0.00000000000E+00  0.50000000000E+03  0.50000000000E+03  0.00000000000E+00 0. -1.
         11   -1    0    0    0    0 -0.00000000000E+00 -0.00000000000E+00 -0.50000000000E+03  0.50000000000E+03  0.00000000000E+00 0.  1.
        -11    1    1    2    0    0  0.87404864058E+01  0.21717362499E+01  0.49952567709E+03  0.49960686005E+03  0.00000000000E+00 0. -1.
         11    1    1    2    0    0  0.53945361862E+01 -0.12338428758E+01 -0.15565829265E+03  0.15575662894E+03  0.00000000000E+00 0.  1.
        -15    1    1    2    0    0 -0.57870055393E+01 -0.54845524043E+01 -0.54614607784E+02  0.55222122927E+02  0.17770000000E+01 0. -1.
         15    1    1    2    0    0 -0.83480170528E+01  0.45466590302E+01 -0.28925277665E+03  0.28941438808E+03  0.17770000000E+01 0.  1.
</event>
<event>
 6    1  0.1782050E-003  0.5123718E+03  0.7546771E-02  0.9372545E-01
        -11   -1    0    0    0    0  0.00000000000E+00  0.00000000000E+00  0.50000000000E+03  0.50000000000E+03  0.00000000000E+00 0.  1.
         11   -1    0    0    0    0 -0.00000000000E+00 -0.00000000000E+00 -0.50000000000E+03  0.50000000000E+03  0.00000000000E+00 0. -1.
        -11    1    1    2    0    0  0.24805797410E+01 -0.66473832619E+01  0.42710484030E+03  0.42716376905E+03  0.00000000000E+00 0.  1.
         11    1    1    2    0    0 -0.13856603103E+02  0.71697136602E+00 -0.48743073396E+03  0.48762817793E+03  0.00000000000E+00 0. -1.
        -15    1    1    2    0    0  0.46900311193E+01  0.32835747980E+01  0.71527851239E+02  0.71778614414E+02  0.17770000000E+01 0. -1.
         15    1    1    2    0    0  0.66859922431E+01  0.26468370979E+01 -0.11201957576E+02  0.13429438612E+02  0.17770000000E+01 0. -1.
</event>
<event>
 6    1  0.1782050E-003  0.5019363E+03  0.7546771E-02  0.9395488E-01
        -11   -1    0    0    0    0  0.00000000000E+00  0.00000000000E+00  0.50000000000E+03  0.50000000000E+03  0.00000000000E+00 0.  1.
         11   -1    0    0    0    0 -0.00000000000E+00 -0.00000000000E+00 -0.50000000000E+03  0.50000000000E+03  0.00000000000E+00 0.  1.
        -11    1    1    2    0    0 -0.15931996819E-01 -0.49574871456E+01  0.32456094979E+03  0.32459880939E+03  0.00000000000E+00 0.  1.
         11    1    1    2    0    0 -0.10821483921E+02  0.47140517317E+01 -0.49792384354E+03  0.49806373163E+03  0.00000000000E+00 0.  1.
        -15    1    1    2    0    0  0.65555593470E+01 -0.58851997517E+00  0.17239409408E+03  0.17252884720E+03  0.17770000000E+01 0.  1.
         15    1    1    2    0    0  0.42818565706E+01  0.83195538901E+00  0.96879967238E+00  0.48086117815E+01  0.17770000000E+01 0. -1.
</event>
<event>
 6    1  0.1782050E-003  0.5277527E+03  0.7546771E-02  0.9339766E-01
        -11   -1    0    0    0    0  0.00000000000E+00  0.00000000000E+00  0.50000000000E+03  0.50000000000E+03  0.00000000000E+00 0. -1.
         11   -1    0    0    0    0 -0.00000000000E+00 -0.00000000000E+00 -0.50000000000E+03  0.50000000000E+03  0.00000000000E+00 0. -1.
        -11    1    1    2    0    0  0.35431686178E+01  0.82235573624E+01  0.47216241493E+03  0.47224731552E+03  0.00000000000E+00 0. -1.
         11    1    1    2    0    0 -0.44168929654E+01  0.55398167803E+01 -0.45704958540E+03  0.45710449793E+03  0.00000000000E+00 0. -1.
        -15    1    1    2    0    0 -0.61853241366E-01 -0.18408002189E+02  0.24509559756E+02  0.30703983762E+02  0.17770000000E+01 0.  1.
         15    1    1    2    0    0  0.93557758903E+00  0.46446280467E+01 -0.39622389280E+02  0.39944202788E+02  0.17770000000E+01 0. -1.
</event>
<event>
 6    1  0.1782050E-003  0.5031307E+03  0.7546771E-02  0.9392832E-01
        -11   -1    0    0    0    0  0.00000000000E+00  0.00000000000E+00  0.50000000000E+03  0.50000000000E+03  0.00000000000E+00 0. -1.
         11   -1    0    0    0    0 -0.00000000000E+00 -0.00000000000E+00 -0.50000000000E+03  0.50000000000E+03  0.00000000000E+00 0. -1.
        -11    1    1    2    0    0  0.11922701047E+02  0.94226819960E+01  0.49663688701E+03  0.49686933420E+03  0.00000000000E+00 0. -1.
         11    1    1    2    0    0  0.18996041293E+01  0.24094305984E+01 -0.15468448811E+03  0.15471491432E+03  0.00000000000E+00 0. -1.
        -15    1    1    2    0    0 -0.10245574276E+02 -0.54900864346E+01 -0.34059633826E+03  0.34079926087E+03  0.17770000000E+01 0. -1.
         15    1    1    2    0    0 -0.35767309010E+01 -0.63420261598E+01 -0.13560606358E+01  0.76164906091E+01  0.17770000000E+01 0.  1.
</event>
<event>
 6    1  0.1782050E-003  0.5079111E+03  0.7546771E-02  0.9382280E-01
        -11   -1    0    0    0    0  0.00000000000E+00  0.00000000000E+00  0.50000000000E+03  0.50000000000E+03  0.00000000000E+00 0. -1.
         11   -1    0    0    0    0 -0.00000000000E+00 -0.00000000000E+00 -0.50000000000E+03  0.50000000000E+03  0.00000000000E+00 0. -1.
        -11    1    1    2    0    0  0.80004486082E+01  0.70771525954E+01  0.49197293595E+03  0.49208887711E+03  0.00000000000E+00 0. -1.
         11    1    1    2    0    0 -0.33304014400E+01 -0.36187044842E+02 -0.38701226623E+03  0.38871466142E+03  0.00000000000E+00 0. -1.
        -15    1    1    2    0    0 -0.22224749704E+02  0.72875496970E+00 -0.32725101003E+02  0.39605057100E+02  0.17770000000E+01 0. -1.
         15    1    1    2    0    0  0.17554702536E+02  0.28381137277E+02 -0.72235568709E+02  0.79591404373E+02  0.17770000000E+01 0.  1.
</event>
<event>
 6    1  0.1782050E-003  0.5011599E+03  0.7546771E-02  0.9397218E-01
        -11   -1    0    0    0    0  0.00000000000E+00  0.00000000000E+00  0.50000000000E+03  0.50000000000E+03  0.00000000000E+00 0.  1.
         11   -1    0    0    0    0 -0.00000000000E+00 -0.00000000000E+00 -0.50000000000E+03  0.50000000000E+03  0.00000000000E+00 0. -1.
        -11    1    1    2    0    0 -0.13488329613E+01 -0.19990307458E+02  0.49843752966E+03  0.49884005725E+03  0.00000000000E+00 0.  1.
         11    1    1    2    0    0 -0.56295935282E+01  0.33217992953E+01 -0.25450951800E+03  0.25459344341E+03  0.00000000000E+00 0. -1.
        -15    1    1    2    0    0  0.68277372397E+01 -0.59252327163E+01 -0.13455066268E+03  0.13486572928E+03  0.17770000000E+01 0.  1.
         15    1    1    2    0    0  0.15068924979E+00  0.22593740879E+02 -0.10937734898E+03  0.11170077006E+03  0.17770000000E+01 0. -1.
</event>
<event>
 6    1  0.1782050E-003  0.5012729E+03  0.7546771E-02  0.9396966E-01
        -11   -1    0    0    0    0  0.00000000000E+00  0.00000000000E+00  0.50000000000E+03  0.50000000000E+03  0.00000000000E+00 0. -1.
         11   -1    0    0    0    0 -0.00000000000E+00 -0.00000000000E+00 -0.50000000000E+03  0.50000000000E+03  0.00000000000E+00 0. -1.
        -11    1    1    2    0    0  0.75439427012E-01 -0.71010300156E+01  0.49867653124E+03  0.49872709283E+03  0.00000000000E+00 0. -1.
         11    1    1    2    0    0  0.52485947318E+01 -0.32103578022E+01 -0.41156674324E+03  0.41161272853E+03  0.00000000000E+00 0. -1.
        -15    1    1    2    0    0 -0.40956436283E+01  0.11444036401E+02 -0.28938721413E+02  0.31437995991E+02  0.17770000000E+01 0. -1.
         15    1    1    2    0    0 -0.12283905305E+01 -0.11326485831E+01 -0.58171066579E+02  0.58222182646E+02  0.17770000000E+01 0.  1.
</event>
<event>
 6    1  0.1782050E-003  0.5017703E+03  0.7546771E-02  0.9395857E-01
        -11   -1    0    0    0    0  0.00000000000E+00  0.00000000000E+00  0.50000000000E+03  0.50000000000E+03  0.00000000000E+00 0.  1.
         11   -1    0    0    0    0 -0.00000000000E+00 -0.00000000000E+00 -0.50000000000E+03  0.50000000000E+03  0.00000000000E+00 0. -1.
        -11    1    1    2    0    0 -0.24796726362E+01  0.73275057090E+01  0.41270046203E+03  0.41277295511E+03  0.00000000000E+00 0.  1.
         11    1    1    2    0    0 -0.12469106840E+01  0.10104008562E+02 -0.49812570114E+03  0.49822972604E+03  0.00000000000E+00 0. -1.
        -15    1    1    2    0    0 -0.31639481717E+01 -0.14451841655E+01  0.35669318814E+01  0.52895989784E+01  0.17770000000E+01 0.  1.
         15    1    1    2    0    0  0.68905314919E+01 -0.15986330106E+02  0.81858307228E+02  0.83707719870E+02  0.17770000000E+01 0.  1.
</event>
<event>
 6    1  0.1782050E-003  0.5008878E+03  0.7546771E-02  0.9397825E-01
        -11   -1    0    0    0    0  0.00000000000E+00  0.00000000000E+00  0.50000000000E+03  0.50000000000E+03  0.00000000000E+00 0. -1.
         11   -1    0    0    0    0 -0.00000000000E+00 -0.00000000000E+00 -0.50000000000E+03  0.50000000000E+03  0.00000000000E+00 0.  1.
        -11    1    1    2    0    0 -0.43108500636E+01  0.64939777024E+01  0.49905129095E+03  0.49911215791E+03  0.00000000000E+00 0. -1.
         11    1    1    2    0    0  0.41158927652E+01  0.18516248027E+01 -0.17495076153E+03  0.17500896562E+03  0.00000000000E+00 0.  1.
        -15    1    1    2    0    0 -0.36273783769E+01 -0.80355866544E+01 -0.31951895710E+03  0.31964550709E+03  0.17770000000E+01 0.  1.
         15    1    1    2    0    0  0.38223356752E+01 -0.31001585072E+00 -0.45815723196E+01  0.62333693747E+01  0.17770000000E+01 0. -1.
</event>
<event>
 6    1  0.1782050E-003  0.3352194E+03  0.7546771E-02  0.9869918E-01
        -11   -1    0    0    0    0  0.00000000000E+00  0.00000000000E+00  0.50000000000E+03  0.50000000000E+03  0.00000000000E+00 0. -1.
         11   -1    0    0    0    0 -0.00000000000E+00 -0.00000000000E+00 -0.50000000000E+03  0.50000000000E+03  0.00000000000E+00 0.  1.
        -11    1    1    2    0    0  0.59745083866E+01  0.81127775646E+01  0.38346584898E+03  0.38359818723E+03  0.00000000000E+00 0. -1.
         11    1    1    2    0    0 -0.15758935968E+00  0.19268185388E+02 -0.20411074541E+03  0.20501825332E+03  0.00000000000E+00 0.  1.
        -15    1    1    2    0    0  0.84771786216E+01 -0.32487397554E+02  0.11337468980E+03  0.11825511225E+03  0.17770000000E+01 0.  1.
         15    1    1    2    0    0 -0.14294097648E+02  0.51064346022E+01 -0.29272979337E+03  0.29312844720E+03  0.17770000000E+01 0. -1.
</event>
<event>
 6    1  0.1782050E-003  0.5479423E+03  0.7546771E-02  0.9298495E-01
        -11   -1    0    0    0    0  0.00000000000E+00  0.00000000000E+00  0.50000000000E+03  0.50000000000E+03  0.00000000000E+00 0.  1.
         11   -1    0    0    0    0 -0.00000000000E+00 -0.00000000000E+00 -0.50000000000E+03  0.50000000000E+03  0.00000000000E+00 0.  1.
        -11    1    1    2    0    0  0.27324825808E+02 -0.13096257475E+02  0.45104100518E+03  0.45205768042E+03  0.00000000000E+00 0.  1.
         11    1    1    2    0    0  0.39620151027E+00 -0.42284861470E+02 -0.37591675996E+03  0.37828769066E+03  0.00000000000E+00 0.  1.
        -15    1    1    2    0    0 -0.67967666110E+02 -0.93847770770E+01 -0.61533406980E+02  0.92180234220E+02  0.17770000000E+01 0. -1.
         15    1    1    2    0    0  0.40246638792E+02  0.64765896023E+02 -0.13590838244E+02  0.77474394705E+02  0.17770000000E+01 0.  1.
</event>
<event>
 6    1  0.1782050E-003  0.5035530E+03  0.7546771E-02  0.9391894E-01
        -11   -1    0    0    0    0  0.00000000000E+00  0.00000000000E+00  0.50000000000E+03  0.50000000000E+03  0.00000000000E+00 0. -1.
         11   -1    0    0    0    0 -0.00000000000E+00 -0.00000000000E+00 -0.50000000000E+03  0.50000000000E+03  0.00000000000E+00 0. -1.
        -11    1    1    2    0    0  0.17586776809E+01  0.13434707267E+02  0.42948742856E+03  0.42970110030E+03  0.00000000000E+00 0. -1.
         11    1    1    2    0    0 -0.72836441945E+01 -0.10289202739E+02 -0.49628687787E+03  0.49644696022E+03  0.00000000000E+00 0. -1.
        -15    1    1    2    0    0  0.33236661848E+01  0.52502362184E+01 -0.46406634538E-02  0.64629318264E+01  0.17770000000E+01 0. -1.
         15    1    1    2    0    0  0.22013003287E+01 -0.83957407459E+01  0.66804089971E+02  0.67389007648E+02  0.17770000000E+01 0.  1.
</event>
<event>
 6    1  0.3112325E-003  0.5559394E+03  0.7546771E-02  0.9282666E-01
        -11   -1    0    0    0    0  0.00000000000E+00  0.00000000000E+00  0.50000000000E+03  0.50000000000E+03  0.00000000000E+00 0.  1.
         11   -1    0    0    0    0 -0.00000000000E+00 -0.00000000000E+00 -0.50000000000E+03  0.50000000000E+03  0.00000000000E+00 0.  1.
        -11    1    1    2    0    0 -0.20317763038E+02  0.47416067632E+02  0.44105406777E+03  0.44406056531E+03  0.00000000000E+00 0.  1.
         11    1    1    2    0    0 -0.68130750045E+01  0.19270478949E+02 -0.32990703946E+03  0.33053959527E+03  0.00000000000E+00 0.  1.
        -15    1    1    2    0    0  0.29761132485E+02 -0.57774171003E+02  0.38431136243E+02  0.75522776722E+02  0.17770000000E+01 0. -1.
         15    1    1    2    0    0 -0.26302944432E+01 -0.89123755782E+01 -0.14957816455E+03  0.14987706271E+03  0.17770000000E+01 0.  1.
</event>
<event>
 6    1  0.1782050E-003  0.5036756E+03  0.7546771E-02  0.9391623E-01
        -11   -1    0    0    0    0  0.00000000000E+00  0.00000000000E+00  0.50000000000E+03  0.50000000000E+03  0.00000000000E+00 0. -1.
         11   -1    0    0    0    0 -0.00000000000E+00 -0.00000000000E+00 -0.50000000000E+03  0.50000000000E+03  0.00000000000E+00 0. -1.
        -11    1    1    2    0    0  0.10328772991E+02  0.54213906983E+01  0.13964522798E+03  0.14013159789E+03  0.00000000000E+00 0. -1.
         11    1    1    2    0    0 -0.12180399510E+02 -0.73422654380E+01 -0.49612062645E+03  0.49632443722E+03  0.00000000000E+00 0. -1.
        -15    1    1    2    0    0  0.16504541812E+02  0.31807433933E+02  0.22846035296E+03  0.23126046648E+03  0.17770000000E+01 0.  1.
         15    1    1    2    0    0 -0.14652915294E+02 -0.29886559193E+02  0.12801504551E+03  0.13228349841E+03  0.17770000000E+01 0. -1.
</event>
<event>
 6    1  0.1782050E-003  0.5017999E+03  0.7546771E-02  0.9395791E-01
        -11   -1    0    0    0    0  0.00000000000E+00  0.00000000000E+00  0.50000000000E+03  0.50000000000E+03  0.00000000000E+00 0. -1.
         11   -1    0    0    0    0 -0.00000000000E+00 -0.00000000000E+00 -0.50000000000E+03  0.50000000000E+03  0.00000000000E+00 0. -1.
        -11    1    1    2    0    0  0.10082269353E+02  0.53592111426E+01  0.49806927672E+03  0.49820013821E+03  0.00000000000E+00 0. -1.
         11    1    1    2    0    0 -0.13627125153E+02 -0.20296817529E+01 -0.46309088050E+03  0.46329578214E+03  0.00000000000E+00 0. -1.
        -15    1    1    2    0    0 -0.35408516560E+01 -0.64524125883E+01 -0.11980007687E+02  0.14172140694E+02  0.17770000000E+01 0.  1.
         15    1    1    2    0    0  0.70857074555E+01  0.31228831986E+01 -0.22998388531E+02  0.24331938961E+02  0.17770000000E+01 0. -1.
</event>
<event>
 6    1  0.1782050E-003  0.5031928E+03  0.7546771E-02  0.9392694E-01
        -11   -1    0    0    0    0  0.00000000000E+00  0.00000000000E+00  0.50000000000E+03  0.50000000000E+03  0.00000000000E+00 0. -1.
         11   -1    0    0    0    0 -0.00000000000E+00 -0.00000000000E+00 -0.50000000000E+03  0.50000000000E+03  0.00000000000E+00 0. -1.
        -11    1    1    2    0    0 -0.70184783123E+01 -0.12916269808E+01  0.21451121337E+03  0.21462988608E+03  0.00000000000E+00 0. -1.
         11    1    1    2    0    0 -0.37949603151E+01 -0.40451719500E+02 -0.49514310870E+03  0.49680724776E+03  0.00000000000E+00 0. -1.
        -15    1    1    2    0    0 -0.12165157703E+01 -0.10112035794E+02  0.19676004471E+02  0.22226921952E+02  0.17770000000E+01 0. -1.
         15    1    1    2    0    0  0.12029954398E+02  0.51855382275E+02  0.26095589086E+03  0.26633594421E+03  0.17770000000E+01 0.  1.
</event>
<event>
 6    1  0.3092198E-003  0.5527019E+03  0.7546771E-02  0.9289040E-01
        -11   -1    0    0    0    0  0.00000000000E+00  0.00000000000E+00  0.50000000000E+03  0.50000000000E+03  0.00000000000E+00 0. -1.
         11   -1    0    0    0    0 -0.00000000000E+00 -0.00000000000E+00 -0.50000000000E+03  0.50000000000E+03  0.00000000000E+00 0.  1.
        -11    1    1    2    0    0 -0.40118404940E+01  0.26102839064E+01  0.32949902365E+03  0.32953378436E+03  0.00000000000E+00 0. -1.
         11    1    1    2    0    0 -0.20604091273E+02  0.32419627905E+02 -0.44564559464E+03  0.44729806267E+03  0.00000000000E+00 0.  1.
        -15    1    1    2    0    0  0.32727047749E+02 -0.22059366561E+02 -0.45803212053E+02  0.60487744798E+02  0.17770000000E+01 0.  1.
         15    1    1    2    0    0 -0.81111159810E+01 -0.12970545251E+02  0.16194978304E+03  0.16268040817E+03  0.17770000000E+01 0. -1.
</event>
<event>
 6    1  0.1782050E-003  0.5033630E+03  0.7546771E-02  0.9392316E-01
        -11   -1    0    0    0    0  0.00000000000E+00  0.00000000000E+00  0.50000000000E+03  0.50000000000E+03  0.00000000000E+00 0.  1.
         11   -1    0    0    0    0 -0.00000000000E+00 -0.00000000000E+00 -0.50000000000E+03  0.50000000000E+03  0.00000000000E+00 0. -1.
        -11    1    1    2    0    0 -0.13740564461E+02 -0.30093188977E+01  0.45549677596E+03  0.45571391467E+03  0.00000000000E+00 0.  1.
         11    1    1    2    0    0  0.11514625723E+02  0.41678163773E+01 -0.49648599446E+03  0.49663699016E+03  0.00000000000E+00 0. -1.
        -15    1    1    2    0    0  0.75562607384E+00 -0.46405428107E+01 -0.12698012329E+01  0.51841809876E+01  0.17770000000E+01 0. -1.
         15    1    1    2    0    0  0.14703126636E+01  0.34820453310E+01  0.42259019732E+02  0.42464914185E+02  0.17770000000E+01 0.  1.
</event>
<event>
 6    1  0.1782050E-003  0.5119068E+03  0.7546771E-02  0.9373554E-01
        -11   -1    0    0    0    0  0.00000000000E+00  0.00000000000E+00  0.50000000000E+03  0.50000000000E+03  0.00000000000E+00 0. -1.
         11   -1    0    0    0    0 -0.00000000000E+00 -0.00000000000E+00 -0.50000000000E+03  0.50000000000E+03  0.00000000000E+00 0.  1.
        -11    1    1    2    0    0  0.14874514406E+01 -0.92368831837E+01  0.48800350995E+03  0.48809318603E+03  0.00000000000E+00 0. -1.
         11    1    1    2    0    0  0.11505042723E+02 -0.17436495781E+01 -0.41935733913E+03  0.41951875310E+03  0.00000000000E+00 0.  1.
        -15    1    1    2    0    0  0.18554528289E+02 -0.35631269603E+01 -0.46319913371E+01  0.19534059140E+02  0.17770000000E+01 0. -1.
         15    1    1    2    0    0 -0.31547022452E+02  0.14543659722E+02 -0.64014179485E+02  0.72854001729E+02  0.17770000000E+01 0.  1.
</event>
<event>
 6    1  0.1782050E-003  0.5130141E+03  0.7546771E-02  0.9371152E-01
        -11   -1    0    0    0    0  0.00000000000E+00  0.00000000000E+00  0.50000000000E+03  0.50000000000E+03  0.00000000000E+00 0.  1.
         11   -1    0    0    0    0 -0.00000000000E+00 -0.00000000000E+00 -0.50000000000E+03  0.50000000000E+03  0.00000000000E+00 0. -1.
        -11    1    1    2    0    0  0.17326181792E+00  0.82271684461E+01  0.48691641309E+03  0.48698594401E+03  0.00000000000E+00 0.  1.
         11    1    1    2    0    0  0.51892448659E+01  0.56276176754E+01 -0.47193554385E+03  0.47199762276E+03  0.00000000000E+00 0. -1.
        -15    1    1    2    0    0 -0.70668635388E+00 -0.12721067529E+02 -0.25923150962E+02  0.28939461804E+02  0.17770000000E+01 0.  1.
         15    1    1    2    0    0 -0.46558203299E+01 -0.11337185921E+01  0.10942281715E+02  0.12076971430E+02  0.17770000000E+01 0. -1.
</event>
<event>
 6    1  0.1782050E-003  0.5005544E+03  0.7546771E-02  0.9398570E-01
        -11   -1    0    0    0    0  0.00000000000E+00  0.00000000000E+00  0.50000000000E+03  0.50000000000E+03  0.00000000000E+00 0. -1.
         11   -1    0    0    0    0 -0.00000000000E+00 -0.00000000000E+00 -0.50000000000E+03  0.50000000000E+03  0.00000000000E+00 0. -1.
        -11    1    1    2    0    0 -0.48473540275E+01  0.55799364771E+01  0.49939087790E+03  0.49944557408E+03  0.00000000000E+00 0. -1.
         11    1    1    2    0    0  0.41103764615E+01  0.71721614302E+01 -0.30610726407E+03  0.30621886325E+03  0.00000000000E+00 0. -1.
        -15    1    1    2    0    0  0.13097218162E+01 -0.11070984761E+02 -0.18923063765E+03  0.18956707000E+03  0.17770000000E+01 0. -1.
         15    1    1    2    0    0 -0.57274425014E+00 -0.16811131459E+01 -0.40529761782E+01  0.47684926640E+01  0.17770000000E+01 0.  1.
</event>
<event>
 6    1  0.1782050E-003  0.5004100E+03  0.7546771E-02  0.9398893E-01
        -11   -1    0    0    0    0  0.00000000000E+00  0.00000000000E+00  0.50000000000E+03  0.50000000000E+03  0.00000000000E+00 0.  1.
         11   -1    0    0    0    0 -0.00000000000E+00 -0.00000000000E+00 -0.50000000000E+03  0.50000000000E+03  0.00000000000E+00 0. -1.
        -11    1    1    2    0    0  0.49909983528E+01 -0.66131498308E+01  0.49952130092E+03  0.49959000579E+03  0.00000000000E+00 0.  1.
         11    1    1    2    0    0 -0.79997320219E-01  0.61179624094E+01 -0.33205589313E+03  0.33211225816E+03  0.00000000000E+00 0. -1.
        -15    1    1    2    0    0 -0.28288597909E+01 -0.75292629580E+01 -0.81356685191E+02  0.81772612791E+02  0.17770000000E+01 0. -1.
         15    1    1    2    0    0 -0.20821412416E+01  0.80244503793E+01 -0.86108722604E+02  0.86525123251E+02  0.17770000000E+01 0.  1.
</event>
<event>
 6    1  0.1782050E-003  0.5109417E+03  0.7546771E-02  0.9375654E-01
        -11   -1    0    0    0    0  0.00000000000E+00  0.00000000000E+00  0.50000000000E+03  0.50000000000E+03  0.00000000000E+00 0.  1.
         11   -1    0    0    0    0 -0.00000000000E+00 -0.00000000000E+00 -0.50000000000E+03  0.50000000000E+03  0.00000000000E+00 0.  1.
        -11    1    1    2    0    0  0.73535133981E+01 -0.13080129881E+01  0.48900128461E+03  0.48905832107E+03  0.00000000000E+00 0.  1.
         11    1    1    2    0    0 -0.11112956761E+02  0.61807127208E-01 -0.47984177434E+03  0.47997044703E+03  0.00000000000E+00 0.  1.
        -15    1    1    2    0    0 -0.43169340427E+01 -0.41510282308E+01  0.86127564164E+01  0.10639748916E+02  0.17770000000E+01 0.  1.
         15    1    1    2    0    0  0.80763774052E+01  0.53972340917E+01 -0.17772266691E+02  0.20331482980E+02  0.17770000000E+01 0. -1.
</event>
<event>
 6    1  0.1782050E-003  0.5033990E+03  0.7546771E-02  0.9392236E-01
        -11   -1    0    0    0    0  0.00000000000E+00  0.00000000000E+00  0.50000000000E+03  0.50000000000E+03  0.00000000000E+00 0. -1.
         11   -1    0    0    0    0 -0.00000000000E+00 -0.00000000000E+00 -0.50000000000E+03  0.50000000000E+03  0.00000000000E+00 0. -1.
        -11    1    1    2    0    0  0.43624036634E+01 -0.64114412502E+01  0.49654041651E+03  0.49660096896E+03  0.00000000000E+00 0. -1.
         11    1    1    2    0    0 -0.20603001869E+01 -0.44940771244E+01 -0.16364726948E+03  0.16372193003E+03  0.00000000000E+00 0. -1.
        -15    1    1    2    0    0  0.15895445178E+02  0.18171010768E+02 -0.44877072133E+02  0.50989804294E+02  0.17770000000E+01 0.  1.
         15    1    1    2    0    0 -0.18197548654E+02 -0.72654923938E+01 -0.28801607489E+03  0.28868729671E+03  0.17770000000E+01 0. -1.
</event>
<event>
 6    1  0.1782050E-003  0.5039678E+03  0.7546771E-02  0.9390975E-01
        -11   -1    0    0    0    0  0.00000000000E+00  0.00000000000E+00  0.50000000000E+03  0.50000000000E+03  0.00000000000E+00 0.  1.
         11   -1    0    0    0    0 -0.00000000000E+00 -0.00000000000E+00 -0.50000000000E+03  0.50000000000E+03  0.00000000000E+00 0. -1.
        -11    1    1    2    0    0  0.48725763140E+01 -0.11644035491E+02  0.40053902920E+03  0.40073786878E+03  0.00000000000E+00 0.  1.
         11    1    1    2    0    0  0.99568756167E-01 -0.15996045729E+02 -0.49577419611E+03  0.49603219343E+03  0.00000000000E+00 0. -1.
        -15    1    1    2    0    0 -0.57187106777E+01  0.22715861067E+02  0.31600446847E+02  0.39375880508E+02  0.17770000000E+01 0. -1.
         15    1    1    2    0    0  0.74656560752E+00  0.49242201523E+01  0.63634720066E+02  0.63854057280E+02  0.17770000000E+01 0.  1.
</event>
<event>
 6    1  0.1782050E-003  0.5211987E+03  0.7546771E-02  0.9353587E-01
        -11   -1    0    0    0    0  0.00000000000E+00  0.00000000000E+00  0.50000000000E+03  0.50000000000E+03  0.00000000000E+00 0.  1.
         11   -1    0    0    0    0 -0.00000000000E+00 -0.00000000000E+00 -0.50000000000E+03  0.50000000000E+03  0.00000000000E+00 0. -1.
        -11    1    1    2    0    0 -0.20383527645E+02 -0.10265649161E+02  0.36672375869E+03  0.36743324147E+03  0.00000000000E+00 0.  1.
         11    1    1    2    0    0 -0.34196266284E+02 -0.13611621730E+02 -0.47738461222E+03  0.47880134593E+03  0.00000000000E+00 0. -1.
        -15    1    1    2    0    0 -0.56747457248E+01  0.42768191993E+02  0.38394894356E+02  0.57781023069E+02  0.17770000000E+01 0. -1.
         15    1    1    2    0    0  0.60254539654E+02 -0.18890921102E+02  0.72265959178E+02  0.95984389532E+02  0.17770000000E+01 0.  1.
</event>
<event>
 6    1  0.1782050E-003  0.5161530E+03  0.7546771E-02  0.9364374E-01
        -11   -1    0    0    0    0  0.00000000000E+00  0.00000000000E+00  0.50000000000E+03  0.50000000000E+03  0.00000000000E+00 0.  1.
         11   -1    0    0    0    0 -0.00000000000E+00 -0.00000000000E+00 -0.50000000000E+03  0.50000000000E+03  0.00000000000E+00 0. -1.
        -11    1    1    2    0    0 -0.16081608432E+02  0.77167541792E+01  0.41941892356E+03  0.41979804652E+03  0.00000000000E+00 0.  1.
         11    1    1    2    0    0  0.13000405797E+02 -0.52218856994E+02 -0.48084514786E+03  0.48384695493E+03  0.00000000000E+00 0. -1.
        -15    1    1    2    0    0  0.49709476526E+01  0.52558780052E+02  0.24064373956E+02  0.58046425420E+02  0.17770000000E+01 0.  1.
         15    1    1    2    0    0 -0.18897450173E+01 -0.80566772376E+01  0.37361850349E+02  0.38308573124E+02  0.17770000000E+01 0. -1.
</event>
<event>
 6    1  0.1782050E-003  0.5029931E+03  0.7546771E-02  0.9393137E-01
        -11   -1    0    0    0    0  0.00000000000E+00  0.00000000000E+00  0.50000000000E+03  0.50000000000E+03  0.00000000000E+00 0.  1.
         11   -1    0    0    0    0 -0.00000000000E+00 -0.00000000000E+00 -0.50000000000E+03  0.50000000000E+03  0.00000000000E+00 0.  1.
        -11    1    1    2    0    0 -0.73297626826E+01  0.25217239233E+02  0.49631267023E+03  0.49700694281E+03  0.00000000000E+00 0.  1.
         11    1    1    2    0    0 -0.34861848605E+01  0.55954090488E+01 -0.26472331927E+03  0.26480539619E+03  0.00000000000E+00 0.  1.
        -15    1    1    2    0    0 -0.17589993985E+02 -0.10305391612E+02 -0.93361594060E+02  0.95577999347E+02  0.17770000000E+01 0. -1.
         15    1    1    2    0    0  0.28405941528E+02 -0.20507256670E+02 -0.13822775689E+03  0.14260966165E+03  0.17770000000E+01 0.  1.
</event>
<event>
 6    1  0.1782050E-003  0.5000981E+03  0.7546771E-02  0.9399590E-01
        -11   -1    0    0    0    0  0.00000000000E+00  0.00000000000E+00  0.50000000000E+03  0.50000000000E+03  0.00000000000E+00 0.  1.
         11   -1    0    0    0    0 -0.00000000000E+00 -0.00000000000E+00 -0.50000000000E+03  0.50000000000E+03  0.00000000000E+00 0. -1.
        -11    1    1    2    0    0 -0.26269788020E+01 -0.51921992359E+01  0.35813731485E+03  0.35818458404E+03  0.00000000000E+00 0.  1.
         11    1    1    2    0    0  0.62398256717E+01  0.28117982704E+01 -0.49985500466E+03  0.49990185769E+03  0.00000000000E+00 0. -1.
        -15    1    1    2    0    0 -0.58996373963E+00  0.30469645769E+01  0.91106577270E+02  0.91176741559E+02  0.17770000000E+01 0.  1.
         15    1    1    2    0    0 -0.30228831301E+01 -0.66656361146E+00  0.50611112538E+02  0.50736816719E+02  0.17770000000E+01 0. -1.
</event>
<event>
 6    1  0.1782050E-003  0.5103780E+03  0.7546771E-02  0.9376883E-01
        -11   -1    0    0    0    0  0.00000000000E+00  0.00000000000E+00  0.50000000000E+03  0.50000000000E+03  0.00000000000E+00 0.  1.
         11   -1    0    0    0    0 -0.00000000000E+00 -0.00000000000E+00 -0.50000000000E+03  0.50000000000E+03  0.00000000000E+00 0. -1.
        -11    1    1    2    0    0  0.20429152891E+02 -0.21858346378E+02  0.43092194864E+03  0.43195933075E+03  0.00000000000E+00 0.  1.
         11    1    1    2    0    0  0.18040632105E+01 -0.71907249437E+01 -0.48956589068E+03  0.48962202002E+03  0.00000000000E+00 0. -1.
        -15    1    1    2    0    0 -0.91943640792E+01  0.90854840792E+01 -0.20288198927E+01  0.13204400438E+02  0.17770000000E+01 0.  1.
         15    1    1    2    0    0 -0.13038852022E+02  0.19963587242E+02  0.60672761927E+02  0.65214248799E+02  0.17770000000E+01 0. -1.
</event>
<event>
 6    1  0.1782050E-003  0.5020205E+03  0.7546771E-02  0.9395300E-01
        -11   -1    0    0    0    0  0.00000000000E+00  0.00000000000E+00  0.50000000000E+03  0.50000000000E+03  0.00000000000E+00 0.  1.
         11   -1    0    0    0    0 -0.00000000000E+00 -0.00000000000E+00 -0.50000000000E+03  0.50000000000E+03  0.00000000000E+00 0. -1.
        -11    1    1    2    0    0  0.11109954331E+01 -0.11143903241E+02  0.49785359137E+03  0.49797953706E+03  0.00000000000E+00 0.  1.
         11    1    1    2    0    0  0.46507648866E+01 -0.37612487310E+01 -0.41851507789E+03  0.41855781802E+03  0.00000000000E+00 0. -1.
        -15    1    1    2    0    0 -0.36041496671E+01  0.12657718305E+02 -0.19950292601E+02  0.23966218545E+02  0.17770000000E+01 0.  1.
         15    1    1    2    0    0 -0.21576106527E+01  0.22474336675E+01 -0.59388220888E+02  0.59496426372E+02  0.17770000000E+01 0. -1.
</event>
<event>
 6    1  0.1782050E-003  0.5182945E+03  0.7546771E-02  0.9359780E-01
        -11   -1    0    0    0    0  0.00000000000E+00  0.00000000000E+00  0.50000000000E+03  0.50000000000E+03  0.00000000000E+00 0. -1.
         11   -1    0    0    0    0 -0.00000000000E+00 -0.00000000000E+00 -0.50000000000E+03  0.50000000000E+03  0.00000000000E+00 0.  1.
        -11    1    1    2    0    0  0.44138247641E+01 -0.67226563738E+01  0.48163839074E+03  0.48170552767E+03  0.00000000000E+00 0. -1.
         11    1    1    2    0    0  0.44321612260E+01  0.82188941971E+01 -0.43226106890E+03  0.43236191548E+03  0.00000000000E+00 0.  1.
        -15    1    1    2    0    0 -0.11040720404E+02 -0.14377730221E+01 -0.67072408797E+02  0.68013457853E+02  0.17770000000E+01 0. -1.
         15    1    1    2    0    0  0.21947344141E+01 -0.58464801223E-01  0.17695086956E+02  0.17919098991E+02  0.17770000000E+01 0.  1.
</event>
<event>
 6    1  0.1782050E-003  0.5024959E+03  0.7546771E-02  0.9394242E-01
        -11   -1    0    0    0    0  0.00000000000E+00  0.00000000000E+00  0.50000000000E+03  0.50000000000E+03  0.00000000000E+00 0.  1.
         11   -1    0    0    0    0 -0.00000000000E+00 -0.00000000000E+00 -0.50000000000E+03  0.50000000000E+03  0.00000000000E+00 0.  1.
        -11    1    1    2    0    0 -0.82282133126E+01 -0.13852262763E+01  0.33278167869E+03  0.33288626889E+03  0.00000000000E+00 0.  1.
         11    1    1    2    0    0 -0.68125676836E+01 -0.50126028017E+00 -0.49745721912E+03  0.49750411777E+03  0.00000000000E+00 0.  1.
        -15    1    1    2    0    0  0.28169372920E+01  0.17499113921E+02  0.47009618213E+02  0.50271423864E+02  0.17770000000E+01 0. -1.
         15    1    1    2    0    0  0.12223843704E+02 -0.15612627365E+02  0.11766592222E+03  0.11933818948E+03  0.17770000000E+01 0.  1.
</event>
<event>
 6    1  0.1782050E-003  0.3978351E+03  0.7546771E-02  0.9662819E-01
        -11   -1    0    0    0    0  0.00000000000E+00  0.00000000000E+00  0.50000000000E+03  0.50000000000E+03  0.00000000000E+00 0.  1.
         11   -1    0    0    0    0 -0.00000000000E+00 -0.00000000000E+00 -0.50000000000E+03  0.50000000000E+03  0.00000000000E+00 0.  1.
        -11    1    1    2    0    0  0.85029836829E+01 -0.36691148634E+01  0.40230219690E+03  0.40240877322E+03  0.00000000000E+00 0.  1.
         11    1    1    2    0    0  0.62886870226E+01  0.87020378054E+01 -0.39331906998E+03  0.39346558154E+03  0.00000000000E+00 0.  1.
        -15    1    1    2    0    0 -0.98536218562E+01  0.65622420210E+01  0.96821229839E+02  0.97558521722E+02  0.17770000000E+01 0.  1.
         15    1    1    2    0    0 -0.49380488493E+01 -0.11595164963E+02 -0.10580435676E+03  0.10656712352E+03  0.17770000000E+01 0. -1.
</event>
<event>
 6    1  0.1782050E-003  0.5117421E+03  0.7546771E-02  0.9373912E-01
        -11   -1    0    0    0    0  0.00000000000E+00  0.00000000000E+00  0.50000000000E+03  0.50000000000E+03  0.00000000000E+00 0. -1.
         11   -1    0    0    0    0 -0.00000000000E+00 -0.00000000000E+00 -0.50000000000E+03  0.50000000000E+03  0.00000000000E+00 0. -1.
        -11    1    1    2    0    0 -0.24617220330E+01 -0.88638984688E+01  0.43670573578E+03  0.43680261954E+03  0.00000000000E+00 0. -1.
         11    1    1    2    0    0 -0.16095997818E+02  0.17669491139E+02 -0.48767248924E+03  0.48825787124E+03  0.00000000000E+00 0. -1.
        -15    1    1    2    0    0  0.21448616007E+02 -0.22447803457E+02  0.11690253938E+02  0.33222985639E+02  0.17770000000E+01 0.  1.
         15    1    1    2    0    0 -0.28908961561E+01  0.13642210787E+02  0.39276499526E+02  0.41716523581E+02  0.17770000000E+01 0. -1.
</event>
<event>
 6    1  0.1782050E-003  0.5007335E+03  0.7546771E-02  0.9398170E-01
        -11   -1    0    0    0    0  0.00000000000E+00  0.00000000000E+00  0.50000000000E+03  0.50000000000E+03  0.00000000000E+00 0.  1.
         11   -1    0    0    0    0 -0.00000000000E+00 -0.00000000000E+00 -0.50000000000E+03  0.50000000000E+03  0.00000000000E+00 0. -1.
        -11    1    1    2    0    0  0.47433244925E+01  0.56929048763E+01  0.49921150449E+03  0.49926649648E+03  0.00000000000E+00 0.  1.
         11    1    1    2    0    0 -0.89690382832E+00 -0.68846015603E+01 -0.39033648441E+03  0.39039822391E+03  0.00000000000E+00 0. -1.
        -15    1    1    2    0    0  0.14341350555E+01 -0.25561756440E+01 -0.93440883920E+02  0.93503728770E+02  0.17770000000E+01 0.  1.
         15    1    1    2    0    0 -0.52805557196E+01  0.37478723280E+01 -0.15434136161E+02  0.16831550842E+02  0.17770000000E+01 0. -1.
</event>
<event>
 6    1  0.1782050E-003  0.5002170E+03  0.7546771E-02  0.9399324E-01
        -11   -1    0    0    0    0  0.00000000000E+00  0.00000000000E+00  0.50000000000E+03  0.50000000000E+03  0.00000000000E+00 0.  1.
         11   -1    0    0    0    0 -0.00000000000E+00 -0.00000000000E+00 -0.50000000000E+03  0.50000000000E+03  0.00000000000E+00 0. -1.
        -11    1    1    2    0    0  0.37813214651E+01 -0.33302470890E+00  0.22529303614E+03  0.22532501289E+03  0.00000000000E+00 0.  1.
         11    1    1    2    0    0  0.53713700462E+01 -0.51021392863E+01 -0.49972807872E+03  0.49978298901E+03  0.00000000000E+00 0. -1.
        -15    1    1    2    0    0 -0.31865846468E+01 -0.10523860201E+01  0.24255601521E+02  0.24551044218E+02  0.17770000000E+01 0. -1.
         15    1    1    2    0    0 -0.59661068645E+01  0.64875500153E+01  0.25017944106E+03  0.25034095389E+03  0.17770000000E+01 0.  1.
</event>
<event>
 6    1  0.1782050E-003  0.5055764E+03  0.7546771E-02  0.9387418E-01
        -11   -1    0    0    0    0  0.00000000000E+00  0.00000000000E+00  0.50000000000E+03  0.50000000000E+03  0.00000000000E+00 0.  1.
         11   -1    0    0    0    0 -0.00000000000E+00 -0.00000000000E+00 -0.50000000000E+03  0.50000000000E+03  0.00000000000E+00 0.  1.
        -11    1    1    2    0    0  0.17267070324E+01  0.17237689372E+02  0.49412002046E+03  0.49442361804E+03  0.00000000000E+00 0.  1.
         11    1    1    2    0    0 -0.28559633223E+01  0.45480081398E+01 -0.39406641092E+03  0.39410300319E+03  0.00000000000E+00 0.  1.
        -15    1    1    2    0    0 -0.54334174620E+00 -0.82308630581E+01 -0.96999807136E+02  0.97366126760E+02  0.17770000000E+01 0.  1.
         15    1    1    2    0    0  0.16725980361E+01 -0.13554834454E+02 -0.30538024051E+01  0.14107252014E+02  0.17770000000E+01 0. -1.
</event>
<event>
 6    1  0.1782050E-003  0.5036231E+03  0.7546771E-02  0.9391739E-01
        -11   -1    0    0    0    0  0.00000000000E+00  0.00000000000E+00  0.50000000000E+03  0.50000000000E+03  0.00000000000E+00 0. -1.
         11   -1    0    0    0    0 -0.00000000000E+00 -0.00000000000E+00 -0.50000000000E+03  0.50000000000E+03  0.00000000000E+00 0.  1.
        -11    1    1    2    0    0 -0.21382988262E+01 -0.72859434547E+01  0.49631886823E+03  0.49637694976E+03  0.00000000000E+00 0. -1.
         11    1    1    2    0    0 -0.48645640927E+01 -0.97388580971E+01 -0.23708046844E+03  0.23733027168E+03  0.00000000000E+00 0.  1.
        -15    1    1    2    0    0 -0.18060296147E+01  0.51557568613E+01  0.82500813569E+00  0.58036143226E+01  0.17770000000E+01 0. -1.
         15    1    1    2    0    0  0.88088925336E+01  0.11869044690E+02 -0.26006340793E+03  0.26048916423E+03  0.17770000000E+01 0.  1.
</event>
<event>
 6    1  0.1782050E-003  0.5017284E+03  0.7546771E-02  0.9395951E-01
        -11   -1    0    0    0    0  0.00000000000E+00  0.00000000000E+00  0.50000000000E+03  0.50000000000E+03  0.00000000000E+00 0.  1.
         11   -1    0    0    0    0 -0.00000000000E+00 -0.00000000000E+00 -0.50000000000E+03  0.50000000000E+03  0.00000000000E+00 0.  1.
        -11    1    1    2    0    0  0.37603737050E+01 -0.64209119344E+01  0.27733867522E+03  0.27743847840E+03  0.00000000000E+00 0.  1.
         11    1    1    2    0    0  0.66912646819E+01  0.29262828696E+01 -0.49821805983E+03  0.49827158387E+03  0.00000000000E+00 0.  1.
        -15    1    1    2    0    0  0.56580101996E+01 -0.11637193285E+01  0.52597628259E+01  0.80118759401E+01  0.17770000000E+01 0. -1.
         15    1    1    2    0    0 -0.16109648587E+02  0.46583483934E+01  0.21561962178E+03  0.21627806179E+03  0.17770000000E+01 0.  1.
</event>
<event>
 6    1  0.1782050E-003  0.4865624E+03  0.7546771E-02  0.9430390E-01
        -11   -1    0    0    0    0  0.00000000000E+00  0.00000000000E+00  0.50000000000E+03  0.50000000000E+03  0.00000000000E+00 0. -1.
         11   -1    0    0    0    0 -0.00000000000E+00 -0.00000000000E+00 -0.50000000000E+03  0.50000000000E+03  0.00000000000E+00 0. -1.
        -11    1    1    2    0    0 -0.11248812486E+02 -0.46027661007E+01  0.49072187155E+03  0.49087236269E+03  0.00000000000E+00 0. -1.
         11    1    1    2    0    0  0.41867778189E+01 -0.78377408824E+01 -0.48231213300E+03  0.48239398102E+03  0.00000000000E+00 0. -1.
        -15    1    1    2    0    0  0.94152499653E+01  0.33143113124E+01  0.41293809898E+01  0.10947196342E+02  0.17770000000E+01 0.  1.
         15    1    1    2    0    0 -0.23532152985E+01  0.91261956707E+01 -0.12539119541E+02  0.15786459943E+02  0.17770000000E+01 0. -1.
</event>
<event>
 6    1  0.1782050E-003  0.5308330E+03  0.7546771E-02  0.9333344E-01
        -11   -1    0    0    0    0  0.00000000000E+00  0.00000000000E+00  0.50000000000E+03  0.50000000000E+03  0.00000000000E+00 0.  1.
         11   -1    0    0    0    0 -0.00000000000E+00 -0.00000000000E+00 -0.50000000000E+03  0.50000000000E+03  0.00000000000E+00 0.  1.
        -11    1    1    2    0    0  0.10544521767E+02 -0.21648792118E+02  0.21491310311E+03  0.21625794559E+03  0.00000000000E+00 0.  1.
         11    1    1    2    0    0 -0.14715660277E+02  0.92403719692E+01 -0.46884511961E+03  0.46916700792E+03  0.00000000000E+00 0.  1.
        -15    1    1    2    0    0 -0.87762885845E+01 -0.60784205824E+02  0.13495019491E+02  0.62904818568E+02  0.17770000000E+01 0. -1.
         15    1    1    2    0    0  0.12947427094E+02  0.73192625972E+02  0.24043699701E+03  0.25167022793E+03  0.17770000000E+01 0.  1.
</event>
<event>
 6    1  0.1782050E-003  0.4933370E+03  0.7546771E-02  0.9414843E-01
        -11   -1    0    0    0    0  0.00000000000E+00  0.00000000000E+00  0.50000000000E+03  0.50000000000E+03  0.00000000000E+00 0. -1.
         11   -1    0    0    0    0 -0.00000000000E+00 -0.00000000000E+00 -0.50000000000E+03  0.50000000000E+03  0.00000000000E+00 0.  1.
        -11    1    1    2    0    0 -0.56549482203E+01  0.39789499751E+01  0.49507055825E+03  0.49511884242E+03  0.00000000000E+00 0. -1.
         11    1    1    2    0    0  0.32055611862E+01  0.62680091819E+01 -0.49156724259E+03  0.49161765382E+03  0.00000000000E+00 0.  1.
        -15    1    1    2    0    0  0.84859596246E+00 -0.97384269260E+00  0.12970149243E+01  0.25511686364E+01  0.17770000000E+01 0. -1.
         15    1    1    2    0    0  0.16007910717E+01 -0.92731164644E+01 -0.48003305831E+01  0.10712335120E+02  0.17770000000E+01 0.  1.
</event>
<event>
 6    1  0.1782050E-003  0.5008820E+03  0.7546771E-02  0.9397838E-01
        -11   -1    0    0    0    0  0.00000000000E+00  0.00000000000E+00  0.50000000000E+03  0.50000000000E+03  0.00000000000E+00 0.  1.
         11   -1    0    0    0    0 -0.00000000000E+00 -0.00000000000E+00 -0.50000000000E+03  0.50000000000E+03  0.00000000000E+00 0. -1.
        -11    1    1    2    0    0 -0.97568419959E+00  0.10532247645E+02  0.41316675317E+03  0.41330212451E+03  0.00000000000E+00 0.  1.
         11    1    1    2    0    0 -0.11627579553E+02 -0.50770989805E+01 -0.49895674985E+03  0.49911803790E+03  0.00000000000E+00 0. -1.
        -15    1    1    2    0    0  0.26377047930E+01 -0.62827979100E+01  0.44812656037E+02  0.45362571645E+02  0.17770000000E+01 0. -1.
         15    1    1    2    0    0  0.99655589600E+01  0.82764924559E+00  0.40977340643E+02  0.42217265945E+02  0.17770000000E+01 0.  1.
</event>
<event>
 6    1  0.1782050E-003  0.5003711E+03  0.7546771E-02  0.9398980E-01
        -11   -1    0    0    0    0  0.00000000000E+00  0.00000000000E+00  0.50000000000E+03  0.50000000000E+03  0.00000000000E+00 0.  1.
         11   -1    0    0    0    0 -0.00000000000E+00 -0.00000000000E+00 -0.50000000000E+03  0.50000000000E+03  0.00000000000E+00 0.  1.
        -11    1    1    2    0    0  0.25061979306E+01 -0.90336325192E+01  0.49954098199E+03  0.49962894255E+03  0.00000000000E+00 0.  1.
         11    1    1    2    0    0 -0.62231926990E+01 -0.21452354335E+01 -0.31037242704E+03  0.31044222269E+03  0.00000000000E+00 0.  1.
        -15    1    1    2    0    0 -0.54121960615E+00  0.10539636309E+02 -0.87253788007E+02  0.87907668054E+02  0.17770000000E+01 0.  1.
         15    1    1    2    0    0  0.42582143746E+01  0.63923164334E+00 -0.10191476694E+03  0.10202116671E+03  0.17770000000E+01 0.  1.
</event>
<event>
 6    1  0.1782050E-003  0.5005909E+03  0.7546771E-02  0.9398489E-01
        -11   -1    0    0    0    0  0.00000000000E+00  0.00000000000E+00  0.50000000000E+03  0.50000000000E+03  0.00000000000E+00 0. -1.
         11   -1    0    0    0    0 -0.00000000000E+00 -0.00000000000E+00 -0.50000000000E+03  0.50000000000E+03  0.00000000000E+00 0.  1.
        -11    1    1    2    0    0  0.57676217399E+01 -0.46638840513E+01  0.21898483242E+03  0.21911041533E+03  0.00000000000E+00 0. -1.
         11    1    1    2    0    0  0.11034476907E+02  0.32616792143E+01 -0.49927656101E+03  0.49940913349E+03  0.00000000000E+00 0.  1.
        -15    1    1    2    0    0 -0.87353283633E+01 -0.89013549573E+01  0.14450932719E+03  0.14505737987E+03  0.17770000000E+01 0. -1.
         15    1    1    2    0    0 -0.80667702838E+01  0.10303559794E+02  0.13578240140E+03  0.13642307131E+03  0.17770000000E+01 0.  1.
</event>
<event>
 6    1  0.1782050E-003  0.6264128E+03  0.7546771E-02  0.9154337E-01
        -11   -1    0    0    0    0  0.00000000000E+00  0.00000000000E+00  0.50000000000E+03  0.50000000000E+03  0.00000000000E+00 0.  1.
         11   -1    0    0    0    0 -0.00000000000E+00 -0.00000000000E+00 -0.50000000000E+03  0.50000000000E+03  0.00000000000E+00 0. -1.
        -11    1    1    2    0    0 -0.99169897911E+01  0.43747620249E+02  0.37088434618E+03  0.37358720429E+03  0.00000000000E+00 0.  1.
         11    1    1    2    0    0 -0.14482479881E+02 -0.52675868676E+00 -0.30963405359E+03  0.30997300986E+03  0.00000000000E+00 0. -1.
        -15    1    1    2    0    0  0.86918424208E+01 -0.31634348608E+02  0.12495689898E+03  0.12920396460E+03  0.17770000000E+01 0. -1.
         15    1    1    2    0    0  0.15707627251E+02 -0.11586512954E+02 -0.18620719157E+03  0.18723582125E+03  0.17770000000E+01 0.  1.
</event>
<event>
 6    1  0.1782050E-003  0.5050277E+03  0.7546771E-02  0.9388630E-01
        -11   -1    0    0    0    0  0.00000000000E+00  0.00000000000E+00  0.50000000000E+03  0.50000000000E+03  0.00000000000E+00 0. -1.
         11   -1    0    0    0    0 -0.00000000000E+00 -0.00000000000E+00 -0.50000000000E+03  0.50000000000E+03  0.00000000000E+00 0.  1.
        -11    1    1    2    0    0  0.99377926588E+01  0.41983390992E+01  0.49485468040E+03  0.49497226234E+03  0.00000000000E+00 0. -1.
         11    1    1    2    0    0  0.39608250640E+01 -0.41642718915E+01 -0.39905540055E+03  0.39909678276E+03  0.00000000000E+00 0.  1.
        -15    1    1    2    0    0  0.98093900179E+01 -0.12212504574E+02 -0.54595680180E+02  0.56826186075E+02  0.17770000000E+01 0. -1.
         15    1    1    2    0    0 -0.23708007741E+02  0.12178437367E+02 -0.41203599661E+02  0.49104768829E+02  0.17770000000E+01 0.  1.
</event>
<event>
 6    1  0.1782050E-003  0.5027436E+03  0.7546771E-02  0.9393692E-01
        -11   -1    0    0    0    0  0.00000000000E+00  0.00000000000E+00  0.50000000000E+03  0.50000000000E+03  0.00000000000E+00 0.  1.
         11   -1    0    0    0    0 -0.00000000000E+00 -0.00000000000E+00 -0.50000000000E+03  0.50000000000E+03  0.00000000000E+00 0. -1.
        -11    1    1    2    0    0  0.12635448069E+01 -0.11038814167E+02  0.49713229385E+03  0.49725644245E+03  0.00000000000E+00 0.  1.
         11    1    1    2    0    0 -0.17032277091E+01 -0.58743842864E+01 -0.29684444932E+03  0.29690745438E+03  0.00000000000E+00 0. -1.
        -15    1    1    2    0    0  0.11039490704E+02 -0.58060366614E+01 -0.13935471765E+03  0.13992310559E+03  0.17770000000E+01 0. -1.
         15    1    1    2    0    0 -0.10599807802E+02  0.22719235114E+02 -0.60933126882E+02  0.65912997582E+02  0.17770000000E+01 0.  1.
</event>
<event>
 6    1  0.1910826E-003  0.3538419E+03  0.7546771E-02  0.9803566E-01
        -11   -1    0    0    0    0  0.00000000000E+00  0.00000000000E+00  0.50000000000E+03  0.50000000000E+03  0.00000000000E+00 0. -1.
         11   -1    0    0    0    0 -0.00000000000E+00 -0.00000000000E+00 -0.50000000000E+03  0.50000000000E+03  0.00000000000E+00 0.  1.
        -11    1    1    2    0    0  0.27554030213E+02  0.95675286967E-01  0.38703341087E+03  0.38801300863E+03  0.00000000000E+00 0. -1.
         11    1    1    2    0    0  0.42944477651E+02  0.51965219319E+02 -0.32111663391E+03  0.32811660238E+03  0.00000000000E+00 0.  1.
        -15    1    1    2    0    0 -0.19365035652E+02 -0.36472062403E+02  0.10071417631E+03  0.10886560054E+03  0.17770000000E+01 0. -1.
         15    1    1    2    0    0 -0.51133472212E+02 -0.15588832204E+02 -0.16663095326E+03  0.17500478846E+03  0.17770000000E+01 0.  1.
</event>
<event>
 6    1  0.1782050E-003  0.5064518E+03  0.7546771E-02  0.9385488E-01
        -11   -1    0    0    0    0  0.00000000000E+00  0.00000000000E+00  0.50000000000E+03  0.50000000000E+03  0.00000000000E+00 0.  1.
         11   -1    0    0    0    0 -0.00000000000E+00 -0.00000000000E+00 -0.50000000000E+03  0.50000000000E+03  0.00000000000E+00 0. -1.
        -11    1    1    2    0    0 -0.14460469126E+01  0.12767560043E+02  0.49338092751E+03  0.49354821576E+03  0.00000000000E+00 0.  1.
         11    1    1    2    0    0 -0.92162035679E+01 -0.16932415032E+02 -0.45737862258E+03  0.45778471958E+03  0.00000000000E+00 0. -1.
        -15    1    1    2    0    0  0.17615798559E+02  0.12527910174E+02 -0.24946511608E+02  0.33056785425E+02  0.17770000000E+01 0.  1.
         15    1    1    2    0    0 -0.69535480783E+01 -0.83630551843E+01 -0.11055793326E+02  0.15610279241E+02  0.17770000000E+01 0. -1.
</event>
<event>
 6    1  0.1782050E-003  0.5103532E+03  0.7546771E-02  0.9376937E-01
        -11   -1    0    0    0    0  0.00000000000E+00  0.00000000000E+00  0.50000000000E+03  0.50000000000E+03  0.00000000000E+00 0.  1.
         11   -1    0    0    0    0 -0.00000000000E+00 -0.00000000000E+00 -0.50000000000E+03  0.50000000000E+03  0.00000000000E+00 0.  1.
        -11    1    1    2    0    0 -0.86552922786E+01 -0.10270597227E+02  0.48946251880E+03  0.48964676713E+03  0.00000000000E+00 0.  1.
         11    1    1    2    0    0 -0.70233490487E+01 -0.32463714542E+01 -0.43083691154E+03  0.43090638276E+03  0.00000000000E+00 0.  1.
        -15    1    1    2    0    0  0.80867240901E+01  0.22692910870E+02 -0.52372111515E+01  0.24717391042E+02  0.17770000000E+01 0.  1.
         15    1    1    2    0    0  0.75919172373E+01 -0.91759421894E+01 -0.53388396106E+02  0.54729459071E+02  0.17770000000E+01 0. -1.
</event>
<event>
 6    1  0.1782050E-003  0.5006329E+03  0.7546771E-02  0.9398395E-01
        -11   -1    0    0    0    0  0.00000000000E+00  0.00000000000E+00  0.50000000000E+03  0.50000000000E+03  0.00000000000E+00 0. -1.
         11   -1    0    0    0    0 -0.00000000000E+00 -0.00000000000E+00 -0.50000000000E+03  0.50000000000E+03  0.00000000000E+00 0. -1.
        -11    1    1    2    0    0 -0.11325871700E+02  0.18134961997E+02  0.49890911449E+03  0.49936705612E+03  0.00000000000E+00 0. -1.
         11    1    1    2    0    0  0.47856149498E-01 -0.35448298299E+01 -0.22431898911E+03  0.22434700129E+03  0.00000000000E+00 0. -1.
        -15    1    1    2    0    0  0.12682171271E+02 -0.16131490175E+02 -0.12613557080E+03  0.12780611251E+03  0.17770000000E+01 0.  1.
         15    1    1    2    0    0 -0.14041557201E+01  0.15413580070E+01 -0.14845455458E+03  0.14847983009E+03  0.17770000000E+01 0. -1.
</event>
<event>
 6    1  0.1782050E-003  0.5439266E+03  0.7546771E-02  0.9306552E-01
        -11   -1    0    0    0    0  0.00000000000E+00  0.00000000000E+00  0.50000000000E+03  0.50000000000E+03  0.00000000000E+00 0.  1.
         11   -1    0    0    0    0 -0.00000000000E+00 -0.00000000000E+00 -0.50000000000E+03  0.50000000000E+03  0.00000000000E+00 0. -1.
        -11    1    1    2    0    0 -0.94727846975E+01 -0.66345566291E+00  0.33008970190E+03  0.33022626352E+03  0.00000000000E+00 0.  1.
         11    1    1    2    0    0  0.85461466423E+01  0.27018280745E+00 -0.45599321880E+03  0.45607337701E+03  0.00000000000E+00 0. -1.
        -15    1    1    2    0    0  0.38838715017E+02  0.97499463537E+01  0.15807258752E+03  0.16307546686E+03  0.17770000000E+01 0.  1.
         15    1    1    2    0    0 -0.37912076962E+02 -0.93566734982E+01 -0.32169070610E+02  0.50624892606E+02  0.17770000000E+01 0. -1.
</event>
<event>
 6    1  0.1782050E-003  0.5145804E+03  0.7546771E-02  0.9367763E-01
        -11   -1    0    0    0    0  0.00000000000E+00  0.00000000000E+00  0.50000000000E+03  0.50000000000E+03  0.00000000000E+00 0. -1.
         11   -1    0    0    0    0 -0.00000000000E+00 -0.00000000000E+00 -0.50000000000E+03  0.50000000000E+03  0.00000000000E+00 0.  1.
        -11    1    1    2    0    0  0.50420943926E+01  0.27673052009E+02  0.45516936951E+03  0.45603769084E+03  0.00000000000E+00 0. -1.
         11    1    1    2    0    0 -0.18310468751E+01  0.68641083220E+01 -0.48536761110E+03  0.48541959851E+03  0.00000000000E+00 0.  1.
        -15    1    1    2    0    0 -0.10694340261E+02 -0.26041859639E+02  0.35969933874E+02  0.45711500074E+02  0.17770000000E+01 0. -1.
         15    1    1    2    0    0  0.74832927431E+01 -0.84953006912E+01 -0.57716922878E+01  0.12831210581E+02  0.17770000000E+01 0.  1.
</event>
<event>
 6    1  0.1782050E-003  0.5032585E+03  0.7546771E-02  0.9392548E-01
        -11   -1    0    0    0    0  0.00000000000E+00  0.00000000000E+00  0.50000000000E+03  0.50000000000E+03  0.00000000000E+00 0.  1.
         11   -1    0    0    0    0 -0.00000000000E+00 -0.00000000000E+00 -0.50000000000E+03  0.50000000000E+03  0.00000000000E+00 0.  1.
        -11    1    1    2    0    0  0.85008168458E+01 -0.31800144205E+00  0.16958509768E+03  0.16979832263E+03  0.00000000000E+00 0.  1.
         11    1    1    2    0    0 -0.20057263218E+02 -0.11788611784E+02 -0.49619634241E+03  0.49674145729E+03  0.00000000000E+00 0.  1.
        -15    1    1    2    0    0  0.17155282188E+02  0.12998272236E+02  0.30954820119E+02  0.37744104251E+02  0.17770000000E+01 0. -1.
         15    1    1    2    0    0 -0.55988358160E+01 -0.89165900920E+00  0.29565642461E+03  0.29571611583E+03  0.17770000000E+01 0.  1.
</event>
<event>
 6    1  0.1782050E-003  0.5108854E+03  0.7546771E-02  0.9375777E-01
        -11   -1    0    0    0    0  0.00000000000E+00  0.00000000000E+00  0.50000000000E+03  0.50000000000E+03  0.00000000000E+00 0.  1.
         11   -1    0    0    0    0 -0.00000000000E+00 -0.00000000000E+00 -0.50000000000E+03  0.50000000000E+03  0.00000000000E+00 0. -1.
        -11    1    1    2    0    0  0.88069645426E+00  0.10531616896E+02  0.47278792439E+03  0.47290602876E+03  0.00000000000E+00 0.  1.
         11    1    1    2    0    0 -0.43333082278E+01  0.72961477300E+01 -0.48904098333E+03  0.48911460284E+03  0.00000000000E+00 0. -1.
        -15    1    1    2    0    0  0.13674539800E+02 -0.13954825473E+02  0.18169982406E+02  0.26740160477E+02  0.17770000000E+01 0. -1.
         15    1    1    2    0    0 -0.10221928026E+02 -0.38729391538E+01 -0.19169234666E+01  0.11239207927E+02  0.17770000000E+01 0.  1.
</event>
<event>
 6    1  0.1782050E-003  0.5020729E+03  0.7546771E-02  0.9395183E-01
        -11   -1    0    0    0    0  0.00000000000E+00  0.00000000000E+00  0.50000000000E+03  0.50000000000E+03  0.00000000000E+00 0.  1.
         11   -1    0    0    0    0 -0.00000000000E+00 -0.00000000000E+00 -0.50000000000E+03  0.50000000000E+03  0.00000000000E+00 0. -1.
        -11    1    1    2    0    0 -0.55300555875E+01  0.55093537903E+01  0.46923542105E+03  0.46930034611E+03  0.00000000000E+00 0.  1.
         11    1    1    2    0    0  0.67345090222E+01  0.79418738793E+00 -0.49788093610E+03  0.49792711402E+03  0.00000000000E+00 0. -1.
        -15    1    1    2    0    0  0.14601136110E+01 -0.56935874584E+01  0.28463518357E+01  0.67681842230E+01  0.17770000000E+01 0.  1.
         15    1    1    2    0    0 -0.26645670457E+01 -0.60995371989E+00  0.25799163214E+02  0.26004355647E+02  0.17770000000E+01 0. -1.
</event>
<event>
 6    1  0.1782050E-003  0.5196740E+03  0.7546771E-02  0.9356833E-01
        -11   -1    0    0    0    0  0.00000000000E+00  0.00000000000E+00  0.50000000000E+03  0.50000000000E+03  0.00000000000E+00 0.  1.
         11   -1    0    0    0    0 -0.00000000000E+00 -0.00000000000E+00 -0.50000000000E+03  0.50000000000E+03  0.00000000000E+00 0. -1.
        -11    1    1    2    0    0  0.31062725855E+01  0.10441321282E+02  0.48020245169E+03  0.48032599839E+03  0.00000000000E+00 0.  1.
         11    1    1    2    0    0  0.16842132709E+02  0.17103904269E+02 -0.32683867079E+03  0.32771896146E+03  0.00000000000E+00 0. -1.
        -15    1    1    2    0    0 -0.50165511813E+02  0.54767740946E+01 -0.25697407393E+02  0.56657639429E+02  0.17770000000E+01 0.  1.
         15    1    1    2    0    0  0.30217106519E+02 -0.33021999646E+02 -0.12766637351E+03  0.13529740072E+03  0.17770000000E+01 0. -1.
</event>
<event>
 6    1  0.1782050E-003  0.5009311E+03  0.7546771E-02  0.9397729E-01
        -11   -1    0    0    0    0  0.00000000000E+00  0.00000000000E+00  0.50000000000E+03  0.50000000000E+03  0.00000000000E+00 0. -1.
         11   -1    0    0    0    0 -0.00000000000E+00 -0.00000000000E+00 -0.50000000000E+03  0.50000000000E+03  0.00000000000E+00 0. -1.
        -11    1    1    2    0    0 -0.60767047328E+01 -0.11784533212E+02  0.49889273451E+03  0.49906889515E+03  0.00000000000E+00 0. -1.
         11    1    1    2    0    0 -0.33943238057E+01  0.39151816002E+01 -0.21250453104E+03  0.21256769696E+03  0.00000000000E+00 0. -1.
        -15    1    1    2    0    0 -0.73715390377E+00 -0.44587434460E+01 -0.21986648146E+03  0.21992010183E+03  0.17770000000E+01 0. -1.
         15    1    1    2    0    0  0.10208182442E+02  0.12328095057E+02 -0.66521722010E+02  0.68443306062E+02  0.17770000000E+01 0. -1.
</event>
<event>
 6    1  0.1782050E-003  0.5248647E+03  0.7546771E-02  0.9345830E-01
        -11   -1    0    0    0    0  0.00000000000E+00  0.00000000000E+00  0.50000000000E+03  0.50000000000E+03  0.00000000000E+00 0. -1.
         11   -1    0    0    0    0 -0.00000000000E+00 -0.00000000000E+00 -0.50000000000E+03  0.50000000000E+03  0.00000000000E+00 0.  1.
        -11    1    1    2    0    0 -0.20738863024E+01 -0.18240546707E+02  0.47478053573E+03  0.47513532352E+03  0.00000000000E+00 0. -1.
         11    1    1    2    0    0 -0.13088091728E+02  0.12391931948E+01 -0.43604504816E+03  0.43624318650E+03  0.00000000000E+00 0.  1.
        -15    1    1    2    0    0  0.21165703187E+02  0.13665351103E+02 -0.60590569065E+02  0.65643762848E+02  0.17770000000E+01 0. -1.
         15    1    1    2    0    0 -0.60037251569E+01  0.33360024092E+01  0.21855081491E+02  0.22977727125E+02  0.17770000000E+01 0.  1.
</event>
<event>
 6    1  0.1782050E-003  0.5063278E+03  0.7546771E-02  0.9385761E-01
        -11   -1    0    0    0    0  0.00000000000E+00  0.00000000000E+00  0.50000000000E+03  0.50000000000E+03  0.00000000000E+00 0.  1.
         11   -1    0    0    0    0 -0.00000000000E+00 -0.00000000000E+00 -0.50000000000E+03  0.50000000000E+03  0.00000000000E+00 0.  1.
        -11    1    1    2    0    0 -0.36347479554E+01 -0.64001203336E+01  0.38183616795E+03  0.38190709877E+03  0.00000000000E+00 0.  1.
         11    1    1    2    0    0 -0.63032081959E+01  0.74086134880E+01 -0.49357638620E+03  0.49367222628E+03  0.00000000000E+00 0.  1.
        -15    1    1    2    0    0 -0.24154565594E+01 -0.96434761378E+01 -0.14632635621E+01  0.10204407463E+02  0.17770000000E+01 0. -1.
         15    1    1    2    0    0  0.12353412711E+02  0.86349829835E+01  0.11320348181E+03  0.11421626749E+03  0.17770000000E+01 0.  1.
</event>
<event>
 6    1  0.1782050E-003  0.5007663E+03  0.7546771E-02  0.9398097E-01
        -11   -1    0    0    0    0  0.00000000000E+00  0.00000000000E+00  0.50000000000E+03  0.50000000000E+03  0.00000000000E+00 0.  1.
         11   -1    0    0    0    0 -0.00000000000E+00 -0.00000000000E+00 -0.50000000000E+03  0.50000000000E+03  0.00000000000E+00 0.  1.
        -11    1    1    2    0    0 -0.91668103022E+01  0.92511771197E+00  0.13944680683E+03  0.13975084325E+03  0.00000000000E+00 0.  1.
         11    1    1    2    0    0 -0.30035191426E+01 -0.95944935763E+01 -0.49913240926E+03  0.49923365011E+03  0.00000000000E+00 0.  1.
        -15    1    1    2    0    0 -0.42242415833E+01  0.27335663290E+01  0.15668203540E+02  0.16551946502E+02  0.17770000000E+01 0. -1.
         15    1    1    2    0    0  0.16394571028E+02  0.59358095354E+01  0.34401739888E+03  0.34446356013E+03  0.17770000000E+01 0.  1.
</event>
<event>
 6    1  0.1782050E-003  0.5070395E+03  0.7546771E-02  0.9384195E-01
        -11   -1    0    0    0    0  0.00000000000E+00  0.00000000000E+00  0.50000000000E+03  0.50000000000E+03  0.00000000000E+00 0. -1.
         11   -1    0    0    0    0 -0.00000000000E+00 -0.00000000000E+00 -0.50000000000E+03  0.50000000000E+03  0.00000000000E+00 0.  1.
        -11    1    1    2    0    0 -0.62620044844E+01 -0.50526575125E+01  0.49289481445E+03  0.49296048539E+03  0.00000000000E+00 0. -1.
         11    1    1    2    0    0  0.91616580214E+00 -0.81186083277E+01 -0.46342074210E+03  0.46349275655E+03  0.00000000000E+00 0.  1.
        -15    1    1    2    0    0  0.44172298421E+00  0.70707071759E+01 -0.33695366388E+02  0.34477898198E+02  0.17770000000E+01 0. -1.
         15    1    1    2    0    0  0.49041156981E+01  0.61005586643E+01  0.42212940415E+01  0.90688598612E+01  0.17770000000E+01 0.  1.
</event>
<event>
 6    1  0.1782050E-003  0.5003001E+03  0.7546771E-02  0.9399139E-01
        -11   -1    0    0    0    0  0.00000000000E+00  0.00000000000E+00  0.50000000000E+03  0.50000000000E+03  0.00000000000E+00 0.  1.
         11   -1    0    0    0    0 -0.00000000000E+00 -0.00000000000E+00 -0.50000000000E+03  0.50000000000E+03  0.00000000000E+00 0.  1.
        -11    1    1    2    0    0  0.21171676472E+01  0.14159688991E+01  0.92279029870E+02  0.92314173996E+02  0.00000000000E+00 0.  1.
         11    1    1    2    0    0 -0.57364692765E+01 -0.43956423771E+01 -0.49964765179E+03  0.49969991464E+03  0.00000000000E+00 0.  1.
        -15    1    1    2    0    0  0.35544948460E+01 -0.86848221062E+01  0.24659917514E+03  0.24678405839E+03  0.17770000000E+01 0.  1.
         15    1    1    2    0    0  0.64806783256E-01  0.11664495584E+02  0.16076944678E+03  0.16120185298E+03  0.17770000000E+01 0. -1.
</event>
<event>
 6    1  0.1782050E-003  0.5007301E+03  0.7546771E-02  0.9398177E-01
        -11   -1    0    0    0    0  0.00000000000E+00  0.00000000000E+00  0.50000000000E+03  0.50000000000E+03  0.00000000000E+00 0.  1.
         11   -1    0    0    0    0 -0.00000000000E+00 -0.00000000000E+00 -0.50000000000E+03  0.50000000000E+03  0.00000000000E+00 0. -1.
        -11    1    1    2    0    0 -0.10714095137E+02  0.34079009237E+01  0.49914325338E+03  0.49926985991E+03  0.00000000000E+00 0.  1.
         11    1    1    2    0    0  0.42099692854E+00  0.36847652593E+01 -0.15258721396E+03  0.15263227901E+03  0.00000000000E+00 0. -1.
        -15    1    1    2    0    0  0.71826732674E+01 -0.56900521355E+01 -0.34203175088E+03  0.34215909140E+03  0.17770000000E+01 0. -1.
         15    1    1    2    0    0  0.31104249407E+01 -0.14026140475E+01 -0.45242885438E+01  0.59387696795E+01  0.17770000000E+01 0.  1.
</event>
<event>
 6    1  0.1782050E-003  0.4500252E+03  0.7546771E-02  0.9519146E-01
        -11   -1    0    0    0    0  0.00000000000E+00  0.00000000000E+00  0.50000000000E+03  0.50000000000E+03  0.00000000000E+00 0.  1.
         11   -1    0    0    0    0 -0.00000000000E+00 -0.00000000000E+00 -0.50000000000E+03  0.50000000000E+03  0.00000000000E+00 0.  1.
        -11    1    1    2    0    0 -0.68021506340E+01 -0.18100576194E+02  0.44648328819E+03  0.44690180884E+03  0.00000000000E+00 0.  1.
         11    1    1    2    0    0  0.13764670380E+02 -0.10792336889E+02 -0.45332776766E+03  0.45366508089E+03  0.00000000000E+00 0.  1.
        -15    1    1    2    0    0  0.97687643739E+00  0.87045547906E+01  0.50163360537E+02  0.50953351519E+02  0.17770000000E+01 0.  1.
         15    1    1    2    0    0 -0.79393961832E+01  0.20188358292E+02 -0.43318881066E+02  0.48479758747E+02  0.17770000000E+01 0. -1.
</event>
<event>
 6    1  0.1782050E-003  0.5005104E+03  0.7546771E-02  0.9398668E-01
        -11   -1    0    0    0    0  0.00000000000E+00  0.00000000000E+00  0.50000000000E+03  0.50000000000E+03  0.00000000000E+00 0. -1.
         11   -1    0    0    0    0 -0.00000000000E+00 -0.00000000000E+00 -0.50000000000E+03  0.50000000000E+03  0.00000000000E+00 0.  1.
        -11    1    1    2    0    0  0.35138629352E+01 -0.32477191741E+01  0.22543765042E+03  0.22548842351E+03  0.00000000000E+00 0. -1.
         11    1    1    2    0    0 -0.14308055406E+02 -0.13329479165E+02 -0.49910664766E+03  0.49948958068E+03  0.00000000000E+00 0.  1.
        -15    1    1    2    0    0 -0.26488760843E+01  0.12691531420E+02  0.12302628461E+03  0.12372031340E+03  0.17770000000E+01 0.  1.
         15    1    1    2    0    0  0.13443068555E+02  0.38856669190E+01  0.15064271264E+03  0.15130168241E+03  0.17770000000E+01 0. -1.
</event>
<event>
 6    1  0.1782050E-003  0.3899288E+03  0.7546771E-02  0.9686635E-01
        -11   -1    0    0    0    0  0.00000000000E+00  0.00000000000E+00  0.50000000000E+03  0.50000000000E+03  0.00000000000E+00 0.  1.
         11   -1    0    0    0    0 -0.00000000000E+00 -0.00000000000E+00 -0.50000000000E+03  0.50000000000E+03  0.00000000000E+00 0.  1.
        -11    1    1    2    0    0 -0.52398269667E+02  0.10457081737E+02  0.40919688296E+03  0.41267059290E+03  0.00000000000E+00 0.  1.
         11    1    1    2    0    0 -0.11350475725E+02  0.19041883221E+02 -0.37063093953E+03  0.37129330717E+03  0.00000000000E+00 0.  1.
        -15    1    1    2    0    0  0.41607596188E+02  0.50852657204E+02  0.58565085236E+02  0.88035286919E+02  0.17770000000E+01 0. -1.
         15    1    1    2    0    0  0.22141149205E+02 -0.80351622162E+02 -0.97131028665E+02  0.12800081301E+03  0.17770000000E+01 0.  1.
</event>
<event>
 6    1  0.1782050E-003  0.5006590E+03  0.7546771E-02  0.9398336E-01
        -11   -1    0    0    0    0  0.00000000000E+00  0.00000000000E+00  0.50000000000E+03  0.50000000000E+03  0.00000000000E+00 0. -1.
         11   -1    0    0    0    0 -0.00000000000E+00 -0.00000000000E+00 -0.50000000000E+03  0.50000000000E+03  0.00000000000E+00 0.  1.
        -11    1    1    2    0    0  0.39651356370E+01  0.61402478628E+01  0.33151529171E+03  0.33159585882E+03  0.00000000000E+00 0. -1.
         11    1    1    2    0    0 -0.10825986592E+02  0.38602400310E+01 -0.49920868612E+03  0.49934098143E+03  0.00000000000E+00 0.  1.
        -15    1    1    2    0    0 -0.54624203175E+01 -0.61378906521E+01  0.61109263943E+02  0.61684776129E+02  0.17770000000E+01 0.  1.
         15    1    1    2    0    0  0.12323271272E+02 -0.38625972417E+01  0.10658413047E+03  0.10737838362E+03  0.17770000000E+01 0. -1.
</event>
<event>
 6    1  0.1782050E-003  0.5025208E+03  0.7546771E-02  0.9394187E-01
        -11   -1    0    0    0    0  0.00000000000E+00  0.00000000000E+00  0.50000000000E+03  0.50000000000E+03  0.00000000000E+00 0.  1.
         11   -1    0    0    0    0 -0.00000000000E+00 -0.00000000000E+00 -0.50000000000E+03  0.50000000000E+03  0.00000000000E+00 0.  1.
        -11    1    1    2    0    0  0.12170145601E+02 -0.13669366301E+02  0.49714239772E+03  0.49747917306E+03  0.00000000000E+00 0.  1.
         11    1    1    2    0    0 -0.33528908495E+01 -0.54671689808E+01 -0.44933632587E+03  0.44938209306E+03  0.00000000000E+00 0.  1.
        -15    1    1    2    0    0 -0.66318628666E+01  0.19178937375E+02 -0.41383290612E+02  0.46125347856E+02  0.17770000000E+01 0.  1.
         15    1    1    2    0    0 -0.21853918850E+01 -0.42402092814E-01 -0.64227812375E+01  0.70133860191E+01  0.17770000000E+01 0. -1.
</event>
<event>
 6    1  0.1782050E-003  0.5154389E+03  0.7546771E-02  0.9365911E-01
        -11   -1    0    0    0    0  0.00000000000E+00  0.00000000000E+00  0.50000000000E+03  0.50000000000E+03  0.00000000000E+00 0.  1.
         11   -1    0    0    0    0 -0.00000000000E+00 -0.00000000000E+00 -0.50000000000E+03  0.50000000000E+03  0.00000000000E+00 0. -1.
        -11    1    1    2    0    0 -0.13960745101E+02  0.65926532584E+01  0.48431503990E+03  0.48456106257E+03  0.00000000000E+00 0.  1.
         11    1    1    2    0    0  0.10973922551E+02 -0.29424756465E+02 -0.45992107592E+03  0.46099201657E+03  0.00000000000E+00 0. -1.
        -15    1    1    2    0    0  0.13566609827E+02  0.10289862329E+01  0.64660403369E+01  0.15168359223E+02  0.17770000000E+01 0.  1.
         15    1    1    2    0    0 -0.10579787278E+02  0.21803116973E+02 -0.30860004319E+02  0.39278561636E+02  0.17770000000E+01 0. -1.
</event>
<event>
 6    1  0.1782050E-003  0.5059955E+03  0.7546771E-02  0.9386493E-01
        -11   -1    0    0    0    0  0.00000000000E+00  0.00000000000E+00  0.50000000000E+03  0.50000000000E+03  0.00000000000E+00 0.  1.
         11   -1    0    0    0    0 -0.00000000000E+00 -0.00000000000E+00 -0.50000000000E+03  0.50000000000E+03  0.00000000000E+00 0.  1.
        -11    1    1    2    0    0 -0.49933626191E+01 -0.13487505690E+02  0.49379509203E+03  0.49400449329E+03  0.00000000000E+00 0.  1.
         11    1    1    2    0    0  0.87559920337E+01 -0.46343207277E+01 -0.45780204760E+03  0.45790922585E+03  0.00000000000E+00 0.  1.
        -15    1    1    2    0    0 -0.25725821775E+01  0.44839520941E+01 -0.33641683584E+02  0.34082907869E+02  0.17770000000E+01 0. -1.
         15    1    1    2    0    0 -0.11900472372E+01  0.13637874323E+02 -0.23513608403E+01  0.14003372997E+02  0.17770000000E+01 0.  1.
</event>
<event>
 6    1  0.1782050E-003  0.5022685E+03  0.7546771E-02  0.9394748E-01
        -11   -1    0    0    0    0  0.00000000000E+00  0.00000000000E+00  0.50000000000E+03  0.50000000000E+03  0.00000000000E+00 0. -1.
         11   -1    0    0    0    0 -0.00000000000E+00 -0.00000000000E+00 -0.50000000000E+03  0.50000000000E+03  0.00000000000E+00 0. -1.
        -11    1    1    2    0    0  0.69284572317E+01 -0.46723229172E+01  0.49766137469E+03  0.49773153203E+03  0.00000000000E+00 0. -1.
         11    1    1    2    0    0  0.24604149333E+01 -0.96330035086E+00 -0.18086314636E+03  0.18088244608E+03  0.00000000000E+00 0. -1.
        -15    1    1    2    0    0 -0.24152707851E+02  0.11165020237E+02 -0.28059136081E+03  0.28185577954E+03  0.17770000000E+01 0. -1.
         15    1    1    2    0    0  0.14763835686E+02 -0.55293969689E+01 -0.36206867527E+02  0.39530242349E+02  0.17770000000E+01 0.  1.
</event>
<event>
 6    1  0.1782050E-003  0.5002562E+03  0.7546771E-02  0.9399237E-01
        -11   -1    0    0    0    0  0.00000000000E+00  0.00000000000E+00  0.50000000000E+03  0.50000000000E+03  0.00000000000E+00 0. -1.
         11   -1    0    0    0    0 -0.00000000000E+00 -0.00000000000E+00 -0.50000000000E+03  0.50000000000E+03  0.00000000000E+00 0. -1.
        -11    1    1    2    0    0 -0.22046330597E+01 -0.13720752834E+01  0.13925626203E+03  0.13928047067E+03  0.00000000000E+00 0. -1.
         11    1    1    2    0    0  0.69298712120E+01 -0.76824776780E+00 -0.49969520370E+03  0.49974384430E+03  0.00000000000E+00 0. -1.
        -15    1    1    2    0    0 -0.19423407039E+01  0.57213307542E+01  0.39430792971E+02  0.39930583220E+02  0.17770000000E+01 0.  1.
         15    1    1    2    0    0 -0.27828974484E+01 -0.35810077029E+01  0.32100814870E+03  0.32104510181E+03  0.17770000000E+01 0. -1.
</event>
<event>
 6    1  0.1782050E-003  0.5138304E+03  0.7546771E-02  0.9369384E-01
        -11   -1    0    0    0    0  0.00000000000E+00  0.00000000000E+00  0.50000000000E+03  0.50000000000E+03  0.00000000000E+00 0.  1.
         11   -1    0    0    0    0 -0.00000000000E+00 -0.00000000000E+00 -0.50000000000E+03  0.50000000000E+03  0.00000000000E+00 0. -1.
        -11    1    1    2    0    0 -0.67438305373E+01 -0.61202290444E+01  0.42704223843E+03  0.42713933307E+03  0.00000000000E+00 0.  1.
         11    1    1    2    0    0  0.67228463542E+01 -0.61450545038E+01 -0.48608425126E+03  0.48616957708E+03  0.00000000000E+00 0. -1.
        -15    1    1    2    0    0 -0.63447210835E+01 -0.24806864299E+02  0.26919866746E+02  0.37195066294E+02  0.17770000000E+01 0. -1.
         15    1    1    2    0    0  0.63657052667E+01  0.37072147847E+02  0.32122146080E+02  0.49496023551E+02  0.17770000000E+01 0.  1.
</event>
<event>
 6    1  0.1782050E-003  0.5002910E+03  0.7546771E-02  0.9399159E-01
        -11   -1    0    0    0    0  0.00000000000E+00  0.00000000000E+00  0.50000000000E+03  0.50000000000E+03  0.00000000000E+00 0. -1.
         11   -1    0    0    0    0 -0.00000000000E+00 -0.00000000000E+00 -0.50000000000E+03  0.50000000000E+03  0.00000000000E+00 0.  1.
        -11    1    1    2    0    0 -0.43194323024E+01  0.65839635707E+01  0.49964695546E+03  0.49970900149E+03  0.00000000000E+00 0. -1.
         11    1    1    2    0    0  0.59561764200E+01  0.11270506358E+00 -0.26744222020E+03  0.26750856040E+03  0.00000000000E+00 0.  1.
        -15    1    1    2    0    0  0.59589792456E+01 -0.57351148107E+01 -0.10954016943E+03  0.10986631614E+03  0.17770000000E+01 0.  1.
         15    1    1    2    0    0 -0.75957233632E+01 -0.96155382364E+00 -0.12266456583E+03  0.12291612197E+03  0.17770000000E+01 0. -1.
</event>
<event>
 6    1  0.1782050E-003  0.5211258E+03  0.7546771E-02  0.9353742E-01
        -11   -1    0    0    0    0  0.00000000000E+00  0.00000000000E+00  0.50000000000E+03  0.50000000000E+03  0.00000000000E+00 0. -1.
         11   -1    0    0    0    0 -0.00000000000E+00 -0.00000000000E+00 -0.50000000000E+03  0.50000000000E+03  0.00000000000E+00 0.  1.
        -11    1    1    2    0    0  0.73824048908E+01  0.15738247546E+02  0.47855861068E+03  0.47887423839E+03  0.00000000000E+00 0. -1.
         11    1    1    2    0    0  0.37717795928E+01  0.86073075719E+01 -0.43084917268E+03  0.43095164655E+03  0.00000000000E+00 0.  1.
        -15    1    1    2    0    0  0.15894054108E+02 -0.43182775445E+01 -0.53474890018E+02  0.55982051305E+02  0.17770000000E+01 0.  1.
         15    1    1    2    0    0 -0.27048238591E+02 -0.20027277574E+02  0.57654520141E+01  0.34192063755E+02  0.17770000000E+01 0. -1.
</event>
<event>
 6    1  0.1782050E-003  0.5135678E+03  0.7546771E-02  0.9369952E-01
        -11   -1    0    0    0    0  0.00000000000E+00  0.00000000000E+00  0.50000000000E+03  0.50000000000E+03  0.00000000000E+00 0.  1.
         11   -1    0    0    0    0 -0.00000000000E+00 -0.00000000000E+00 -0.50000000000E+03  0.50000000000E+03  0.00000000000E+00 0. -1.
        -11    1    1    2    0    0 -0.36097619718E+01 -0.42330770219E+01  0.34460579443E+03  0.34465069691E+03  0.00000000000E+00 0.  1.
         11    1    1    2    0    0 -0.18445767008E+02 -0.10029980264E+02 -0.48597886730E+03  0.48643222168E+03  0.00000000000E+00 0. -1.
        -15    1    1    2    0    0  0.29394723215E+02  0.32896353400E+02  0.14209750038E+03  0.14879878079E+03  0.17770000000E+01 0.  1.
         15    1    1    2    0    0 -0.73391942350E+01 -0.18633296114E+02 -0.72442751505E+00  0.20118300632E+02  0.17770000000E+01 0. -1.
</event>
<event>
 6    1  0.1782050E-003  0.5080454E+03  0.7546771E-02  0.9381985E-01
        -11   -1    0    0    0    0  0.00000000000E+00  0.00000000000E+00  0.50000000000E+03  0.50000000000E+03  0.00000000000E+00 0.  1.
         11   -1    0    0    0    0 -0.00000000000E+00 -0.00000000000E+00 -0.50000000000E+03  0.50000000000E+03  0.00000000000E+00 0. -1.
        -11    1    1    2    0    0  0.54341663972E+01  0.83601550020E+01  0.46706531057E+03  0.46717173148E+03  0.00000000000E+00 0.  1.
         11    1    1    2    0    0 -0.50269233489E+01  0.77689392848E+01 -0.49186758592E+03  0.49195462032E+03  0.00000000000E+00 0. -1.
        -15    1    1    2    0    0  0.24695684881E+01 -0.10393617557E+02 -0.38226410673E+01  0.11484614411E+02  0.17770000000E+01 0.  1.
         15    1    1    2    0    0 -0.28768115364E+01 -0.57354767302E+01  0.28624916416E+02  0.29389033784E+02  0.17770000000E+01 0. -1.
</event>
<event>
 6    1  0.1782050E-003  0.4926809E+03  0.7546771E-02  0.9416337E-01
        -11   -1    0    0    0    0  0.00000000000E+00  0.00000000000E+00  0.50000000000E+03  0.50000000000E+03  0.00000000000E+00 0.  1.
         11   -1    0    0    0    0 -0.00000000000E+00 -0.00000000000E+00 -0.50000000000E+03  0.50000000000E+03  0.00000000000E+00 0.  1.
        -11    1    1    2    0    0  0.29827419926E+01  0.79848993584E+01  0.49951547371E+03  0.49958819426E+03  0.00000000000E+00 0.  1.
         11    1    1    2    0    0  0.43560683674E+00 -0.19407937917E+01 -0.15095174036E+02  0.15225659691E+02  0.00000000000E+00 0.  1.
        -15    1    1    2    0    0  0.66036715673E+01 -0.10398606757E+02 -0.13034892664E+03  0.13094174241E+03  0.17770000000E+01 0. -1.
         15    1    1    2    0    0 -0.10022020397E+02  0.43545011902E+01 -0.35407137304E+03  0.35424440364E+03  0.17770000000E+01 0.  1.
</event>
<event>
 6    1  0.1782050E-003  0.5046656E+03  0.7546771E-02  0.9389430E-01
        -11   -1    0    0    0    0  0.00000000000E+00  0.00000000000E+00  0.50000000000E+03  0.50000000000E+03  0.00000000000E+00 0. -1.
         11   -1    0    0    0    0 -0.00000000000E+00 -0.00000000000E+00 -0.50000000000E+03  0.50000000000E+03  0.00000000000E+00 0.  1.
        -11    1    1    2    0    0 -0.49924988443E+01 -0.78384076033E+01  0.49524720772E+03  0.49533439456E+03  0.00000000000E+00 0. -1.
         11    1    1    2    0    0  0.71128632159E+01 -0.73224719709E+01 -0.45141729327E+03  0.45153270544E+03  0.00000000000E+00 0.  1.
        -15    1    1    2    0    0 -0.11826203258E+02  0.11421929274E+02 -0.37096813668E+02  0.40615894243E+02  0.17770000000E+01 0. -1.
         15    1    1    2    0    0  0.97058388861E+01  0.37389503005E+01 -0.67331007856E+01  0.12517005753E+02  0.17770000000E+01 0.  1.
</event>
<event>
 6    1  0.1782050E-003  0.5067702E+03  0.7546771E-02  0.9384787E-01
        -11   -1    0    0    0    0  0.00000000000E+00  0.00000000000E+00  0.50000000000E+03  0.50000000000E+03  0.00000000000E+00 0. -1.
         11   -1    0    0    0    0 -0.00000000000E+00 -0.00000000000E+00 -0.50000000000E+03  0.50000000000E+03  0.00000000000E+00 0. -1.
        -11    1    1    2    0    0  0.22506219083E+02  0.20337764296E+02  0.49229616344E+03  0.49322983192E+03  0.00000000000E+00 0. -1.
         11    1    1    2    0    0  0.89513598618E+01 -0.40089536801E+01 -0.34528384910E+03  0.34542312460E+03  0.00000000000E+00 0. -1.
        -15    1    1    2    0    0 -0.13587787482E+02 -0.42489712102E+01 -0.13656157601E+03  0.13731315850E+03  0.17770000000E+01 0. -1.
         15    1    1    2    0    0 -0.17869791463E+02 -0.12079839405E+02 -0.10450738325E+02  0.24033884986E+02  0.17770000000E+01 0.  1.
</event>
<event>
 6    1  0.1782050E-003  0.5014930E+03  0.7546771E-02  0.9396475E-01
        -11   -1    0    0    0    0  0.00000000000E+00  0.00000000000E+00  0.50000000000E+03  0.50000000000E+03  0.00000000000E+00 0.  1.
         11   -1    0    0    0    0 -0.00000000000E+00 -0.00000000000E+00 -0.50000000000E+03  0.50000000000E+03  0.00000000000E+00 0. -1.
        -11    1    1    2    0    0  0.12016395640E+02  0.10154171161E+02  0.49825866428E+03  0.49850696835E+03  0.00000000000E+00 0.  1.
         11    1    1    2    0    0 -0.75034477935E+01 -0.51869719343E+01 -0.23179091859E+03  0.23197033506E+03  0.00000000000E+00 0. -1.
        -15    1    1    2    0    0 -0.61103130641E+01 -0.39525520836E+00 -0.26348829865E+03  0.26356542529E+03  0.17770000000E+01 0. -1.
         15    1    1    2    0    0  0.15973652178E+01 -0.45719440184E+01 -0.29794470451E+01  0.59572713083E+01  0.17770000000E+01 0.  1.
</event>
<event>
 6    1  0.1782050E-003  0.5018818E+03  0.7546771E-02  0.9395609E-01
        -11   -1    0    0    0    0  0.00000000000E+00  0.00000000000E+00  0.50000000000E+03  0.50000000000E+03  0.00000000000E+00 0. -1.
         11   -1    0    0    0    0 -0.00000000000E+00 -0.00000000000E+00 -0.50000000000E+03  0.50000000000E+03  0.00000000000E+00 0. -1.
        -11    1    1    2    0    0  0.19933788467E+01 -0.47896026646E+01  0.35158611923E+03  0.35162439206E+03  0.00000000000E+00 0. -1.
         11    1    1    2    0    0 -0.76237323188E+01 -0.81988438236E+01 -0.49799235803E+03  0.49811818978E+03  0.00000000000E+00 0. -1.
        -15    1    1    2    0    0  0.44377192209E+01  0.61830951265E+01  0.14122354585E+03  0.14143963959E+03  0.17770000000E+01 0. -1.
         15    1    1    2    0    0  0.11926342512E+01  0.68053513617E+01  0.51826929500E+01  0.88177785653E+01  0.17770000000E+01 0.  1.
</event>
<event>
 6    1  0.1782050E-003  0.4590423E+03  0.7546771E-02  0.9496429E-01
        -11   -1    0    0    0    0  0.00000000000E+00  0.00000000000E+00  0.50000000000E+03  0.50000000000E+03  0.00000000000E+00 0.  1.
         11   -1    0    0    0    0 -0.00000000000E+00 -0.00000000000E+00 -0.50000000000E+03  0.50000000000E+03  0.00000000000E+00 0. -1.
        -11    1    1    2    0    0 -0.16037879759E+02 -0.17728567777E-01  0.46658799798E+03  0.46686354941E+03  0.00000000000E+00 0.  1.
         11    1    1    2    0    0 -0.17967434386E+02 -0.13107853941E+02 -0.45152040739E+03  0.45206782989E+03  0.00000000000E+00 0. -1.
        -15    1    1    2    0    0  0.46105427632E+02 -0.13375414828E+02  0.39076502697E+00  0.48040843095E+02  0.17770000000E+01 0. -1.
         15    1    1    2    0    0 -0.12100113487E+02  0.26500997337E+02 -0.15458355621E+02  0.33027777609E+02  0.17770000000E+01 0.  1.
</event>
<event>
 6    1  0.1782050E-003  0.4563821E+03  0.7546771E-02  0.9503072E-01
        -11   -1    0    0    0    0  0.00000000000E+00  0.00000000000E+00  0.50000000000E+03  0.50000000000E+03  0.00000000000E+00 0.  1.
         11   -1    0    0    0    0 -0.00000000000E+00 -0.00000000000E+00 -0.50000000000E+03  0.50000000000E+03  0.00000000000E+00 0.  1.
        -11    1    1    2    0    0 -0.27597841797E+02 -0.22523739748E+02  0.45344581638E+03  0.45484290487E+03  0.00000000000E+00 0.  1.
         11    1    1    2    0    0 -0.43034323135E+01 -0.11231772019E+02 -0.45896132325E+03  0.45911890451E+03  0.00000000000E+00 0.  1.
        -15    1    1    2    0    0  0.23402669994E+02  0.23764290426E+02  0.38219280812E+02  0.50757242016E+02  0.17770000000E+01 0.  1.
         15    1    1    2    0    0  0.84986041170E+01  0.99912213414E+01 -0.32703773935E+02  0.35280948604E+02  0.17770000000E+01 0.  1.
</event>
<event>
 6    1  0.1782050E-003  0.5241742E+03  0.7546771E-02  0.9347286E-01
        -11   -1    0    0    0    0  0.00000000000E+00  0.00000000000E+00  0.50000000000E+03  0.50000000000E+03  0.00000000000E+00 0.  1.
         11   -1    0    0    0    0 -0.00000000000E+00 -0.00000000000E+00 -0.50000000000E+03  0.50000000000E+03  0.00000000000E+00 0.  1.
        -11    1    1    2    0    0  0.17486903480E+01  0.72630833389E+01  0.20722889114E+03  0.20736350600E+03  0.00000000000E+00 0.  1.
         11    1    1    2    0    0  0.13400602413E+02 -0.21589169983E+02 -0.47514684491E+03  0.47582580073E+03  0.00000000000E+00 0.  1.
        -15    1    1    2    0    0 -0.14712490539E+02 -0.94418349421E+01  0.28621880253E+03  0.28675767866E+03  0.17770000000E+01 0.  1.
         15    1    1    2    0    0 -0.43680222186E+00  0.23767921586E+02 -0.18300848755E+02  0.30053014605E+02  0.17770000000E+01 0. -1.
</event>
<event>
 6    1  0.3528898E-003  0.4651682E+03  0.7546771E-02  0.9481310E-01
        -11   -1    0    0    0    0  0.00000000000E+00  0.00000000000E+00  0.50000000000E+03  0.50000000000E+03  0.00000000000E+00 0.  1.
         11   -1    0    0    0    0 -0.00000000000E+00 -0.00000000000E+00 -0.50000000000E+03  0.50000000000E+03  0.00000000000E+00 0. -1.
        -11    1    1    2    0    0  0.15768646462E+02 -0.61249992038E+01  0.46935388616E+03  0.46965863804E+03  0.00000000000E+00 0.  1.
         11    1    1    2    0    0 -0.32600368011E+02 -0.14729597551E+02 -0.45972365193E+03  0.46111341466E+03  0.00000000000E+00 0. -1.
        -15    1    1    2    0    0  0.27362973453E+02  0.17101854902E+02 -0.31167157014E+02  0.44897162077E+02  0.17770000000E+01 0. -1.
         15    1    1    2    0    0 -0.10531251905E+02  0.37527418535E+01  0.21536922775E+02  0.24330785226E+02  0.17770000000E+01 0.  1.
</event>
<event>
 6    1  0.1782050E-003  0.5012444E+03  0.7546771E-02  0.9397030E-01
        -11   -1    0    0    0    0  0.00000000000E+00  0.00000000000E+00  0.50000000000E+03  0.50000000000E+03  0.00000000000E+00 0.  1.
         11   -1    0    0    0    0 -0.00000000000E+00 -0.00000000000E+00 -0.50000000000E+03  0.50000000000E+03  0.00000000000E+00 0. -1.
        -11    1    1    2    0    0 -0.41132720671E+01  0.12757828058E+01  0.18739980837E+03  0.18744928596E+03  0.00000000000E+00 0.  1.
         11    1    1    2    0    0 -0.24297254362E+01 -0.87190297406E+01 -0.49867346950E+03  0.49875560571E+03  0.00000000000E+00 0. -1.
        -15    1    1    2    0    0 -0.14242164259E+02 -0.17061917363E+01  0.71790806738E+02  0.73231332053E+02  0.17770000000E+01 0. -1.
         15    1    1    2    0    0  0.20785161763E+02  0.91494386711E+01  0.23948285440E+03  0.24056377628E+03  0.17770000000E+01 0.  1.
</event>
<event>
 6    1  0.1782050E-003  0.5026777E+03  0.7546771E-02  0.9393838E-01
        -11   -1    0    0    0    0  0.00000000000E+00  0.00000000000E+00  0.50000000000E+03  0.50000000000E+03  0.00000000000E+00 0. -1.
         11   -1    0    0    0    0 -0.00000000000E+00 -0.00000000000E+00 -0.50000000000E+03  0.50000000000E+03  0.00000000000E+00 0. -1.
        -11    1    1    2    0    0 -0.11976905007E+01 -0.66186562150E+01  0.45842204115E+03  0.45847138284E+03  0.00000000000E+00 0. -1.
         11    1    1    2    0    0  0.10950200617E+02 -0.66244402785E+01 -0.49715757744E+03  0.49732227670E+03  0.00000000000E+00 0. -1.
        -15    1    1    2    0    0 -0.81343041113E+01  0.32910121031E+01  0.87402017152E+01  0.12511855141E+02  0.17770000000E+01 0. -1.
         15    1    1    2    0    0 -0.16182060046E+01  0.99520843905E+01  0.29995334574E+02  0.31694485318E+02  0.17770000000E+01 0.  1.
</event>
<event>
 6    1  0.1782050E-003  0.5007031E+03  0.7546771E-02  0.9398238E-01
        -11   -1    0    0    0    0  0.00000000000E+00  0.00000000000E+00  0.50000000000E+03  0.50000000000E+03  0.00000000000E+00 0. -1.
         11   -1    0    0    0    0 -0.00000000000E+00 -0.00000000000E+00 -0.50000000000E+03  0.50000000000E+03  0.00000000000E+00 0.  1.
        -11    1    1    2    0    0 -0.37207857084E+00  0.67356717425E+01  0.21954745347E+03  0.21965106884E+03  0.00000000000E+00 0. -1.
         11    1    1    2    0    0  0.46706862859E+01 -0.50058556420E+01 -0.49924994604E+03  0.49929688816E+03  0.00000000000E+00 0.  1.
        -15    1    1    2    0    0  0.27196339385E+01  0.89546107295E+01  0.45109407628E+02  0.46104206398E+02  0.17770000000E+01 0.  1.
         15    1    1    2    0    0 -0.70182416535E+01 -0.10684426830E+02  0.23459308495E+03  0.23494783661E+03  0.17770000000E+01 0. -1.
</event>
<event>
 6    1  0.1782050E-003  0.5277364E+03  0.7546771E-02  0.9339800E-01
        -11   -1    0    0    0    0  0.00000000000E+00  0.00000000000E+00  0.50000000000E+03  0.50000000000E+03  0.00000000000E+00 0. -1.
         11   -1    0    0    0    0 -0.00000000000E+00 -0.00000000000E+00 -0.50000000000E+03  0.50000000000E+03  0.00000000000E+00 0. -1.
        -11    1    1    2    0    0 -0.99271355883E+01  0.58448394453E+01  0.24873209437E+03  0.24899872478E+03  0.00000000000E+00 0. -1.
         11    1    1    2    0    0  0.22674898169E+02 -0.87108724757E+01 -0.47163850865E+03  0.47226360557E+03  0.00000000000E+00 0. -1.
        -15    1    1    2    0    0  0.76741216043E+01  0.11157860773E+02 -0.25724407850E+02  0.29125468025E+02  0.17770000000E+01 0.  1.
         15    1    1    2    0    0 -0.20421884185E+02 -0.82918277429E+01  0.24863082213E+03  0.24961220163E+03  0.17770000000E+01 0. -1.
</event>
<event>
 6    1  0.1782050E-003  0.5004153E+03  0.7546771E-02  0.9398881E-01
        -11   -1    0    0    0    0  0.00000000000E+00  0.00000000000E+00  0.50000000000E+03  0.50000000000E+03  0.00000000000E+00 0.  1.
         11   -1    0    0    0    0 -0.00000000000E+00 -0.00000000000E+00 -0.50000000000E+03  0.50000000000E+03  0.00000000000E+00 0. -1.
        -11    1    1    2    0    0 -0.28027969081E+01 -0.97426808410E+01  0.49948180353E+03  0.49958467506E+03  0.00000000000E+00 0.  1.
         11    1    1    2    0    0 -0.53545260103E+01 -0.73977917454E+00 -0.14624822898E+03  0.14634808746E+03  0.00000000000E+00 0. -1.
        -15    1    1    2    0    0 -0.42025610011E+00  0.30476536600E+01 -0.95146004410E+01  0.10156286653E+02  0.17770000000E+01 0.  1.
         15    1    1    2    0    0  0.85775790184E+01  0.74348063556E+01 -0.34371897411E+03  0.34391095083E+03  0.17770000000E+01 0. -1.
</event>
<event>
 6    1  0.1782050E-003  0.5069951E+03  0.7546771E-02  0.9384292E-01
        -11   -1    0    0    0    0  0.00000000000E+00  0.00000000000E+00  0.50000000000E+03  0.50000000000E+03  0.00000000000E+00 0.  1.
         11   -1    0    0    0    0 -0.00000000000E+00 -0.00000000000E+00 -0.50000000000E+03  0.50000000000E+03  0.00000000000E+00 0. -1.
        -11    1    1    2    0    0  0.23945196378E+02 -0.11962049663E+02  0.28825958481E+03  0.28949965682E+03  0.00000000000E+00 0.  1.
         11    1    1    2    0    0  0.13133395658E+02  0.22701447967E+01 -0.49282470393E+03  0.49300489697E+03  0.00000000000E+00 0. -1.
        -15    1    1    2    0    0 -0.38277031306E+02  0.13284928684E+02  0.20810198445E+03  0.21201701375E+03  0.17770000000E+01 0.  1.
         15    1    1    2    0    0  0.11984392697E+01 -0.35930238176E+01 -0.35368653381E+01  0.54784324635E+01  0.17770000000E+01 0. -1.
</event>
<event>
 6    1  0.1782050E-003  0.4811004E+03  0.7546771E-02  0.9443121E-01
        -11   -1    0    0    0    0  0.00000000000E+00  0.00000000000E+00  0.50000000000E+03  0.50000000000E+03  0.00000000000E+00 0. -1.
         11   -1    0    0    0    0 -0.00000000000E+00 -0.00000000000E+00 -0.50000000000E+03  0.50000000000E+03  0.00000000000E+00 0.  1.
        -11    1    1    2    0    0  0.20545890507E+01  0.11608649039E+02  0.48407545051E+03  0.48421898337E+03  0.00000000000E+00 0. -1.
         11    1    1    2    0    0 -0.39085155671E+01  0.78971183622E+01 -0.47811863705E+03  0.47819982441E+03  0.00000000000E+00 0.  1.
        -15    1    1    2    0    0  0.38968063232E+01 -0.16871757832E+02  0.10745922463E+02  0.20456634388E+02  0.17770000000E+01 0. -1.
         15    1    1    2    0    0 -0.20428798068E+01 -0.26340095687E+01 -0.16702735930E+02  0.17124557830E+02  0.17770000000E+01 0.  1.
</event>
<event>
 6    1  0.1782050E-003  0.5011767E+03  0.7546771E-02  0.9397181E-01
        -11   -1    0    0    0    0  0.00000000000E+00  0.00000000000E+00  0.50000000000E+03  0.50000000000E+03  0.00000000000E+00 0.  1.
         11   -1    0    0    0    0 -0.00000000000E+00 -0.00000000000E+00 -0.50000000000E+03  0.50000000000E+03  0.00000000000E+00 0.  1.
        -11    1    1    2    0    0 -0.94429464979E-02  0.46353000065E+01  0.18140876403E+03  0.18146797448E+03  0.00000000000E+00 0.  1.
         11    1    1    2    0    0 -0.49904337758E+01  0.71745255639E+01 -0.49874675690E+03  0.49882332120E+03  0.00000000000E+00 0.  1.
        -15    1    1    2    0    0  0.97317769752E+01  0.19224066012E+01  0.26936927751E+03  0.26955772763E+03  0.17770000000E+01 0.  1.
         15    1    1    2    0    0 -0.47319002529E+01 -0.13732232172E+02  0.47968715368E+02  0.50150976695E+02  0.17770000000E+01 0. -1.
</event>
<event>
 6    1  0.1782050E-003  0.4715427E+03  0.7546771E-02  0.9465838E-01
        -11   -1    0    0    0    0  0.00000000000E+00  0.00000000000E+00  0.50000000000E+03  0.50000000000E+03  0.00000000000E+00 0. -1.
         11   -1    0    0    0    0 -0.00000000000E+00 -0.00000000000E+00 -0.50000000000E+03  0.50000000000E+03  0.00000000000E+00 0.  1.
        -11    1    1    2    0    0  0.71414718093E+01 -0.24891390679E+01  0.47811760677E+03  0.47817741721E+03  0.00000000000E+00 0. -1.
         11    1    1    2    0    0  0.18039290491E+02 -0.87836015873E+01 -0.46497040015E+03  0.46540309483E+03  0.00000000000E+00 0.  1.
        -15    1    1    2    0    0 -0.11339307044E+02 -0.13519799638E+02 -0.20428158944E+02  0.27052398661E+02  0.17770000000E+01 0.  1.
         15    1    1    2    0    0 -0.13841455256E+02  0.24792540293E+02  0.72809523304E+01  0.29367089295E+02  0.17770000000E+01 0. -1.
</event>
<event>
 6    1  0.1782050E-003  0.5025861E+03  0.7546771E-02  0.9394042E-01
        -11   -1    0    0    0    0  0.00000000000E+00  0.00000000000E+00  0.50000000000E+03  0.50000000000E+03  0.00000000000E+00 0.  1.
         11   -1    0    0    0    0 -0.00000000000E+00 -0.00000000000E+00 -0.50000000000E+03  0.50000000000E+03  0.00000000000E+00 0.  1.
        -11    1    1    2    0    0  0.37428648912E+01 -0.49543528702E+01  0.44446382678E+03  0.44450719675E+03  0.00000000000E+00 0.  1.
         11    1    1    2    0    0  0.26914134436E+01  0.98195013999E+01 -0.49730971470E+03  0.49741393089E+03  0.00000000000E+00 0.  1.
        -15    1    1    2    0    0 -0.61564306805E+01 -0.69121459494E+01  0.54215797332E+02  0.55028990630E+02  0.17770000000E+01 0.  1.
         15    1    1    2    0    0 -0.27784765433E+00  0.20469974197E+01 -0.13699094096E+01  0.30498817266E+01  0.17770000000E+01 0. -1.
</event>
<event>
 6    1  0.1782050E-003  0.5020786E+03  0.7546771E-02  0.9395171E-01
        -11   -1    0    0    0    0  0.00000000000E+00  0.00000000000E+00  0.50000000000E+03  0.50000000000E+03  0.00000000000E+00 0.  1.
         11   -1    0    0    0    0 -0.00000000000E+00 -0.00000000000E+00 -0.50000000000E+03  0.50000000000E+03  0.00000000000E+00 0.  1.
        -11    1    1    2    0    0 -0.13602479443E+02  0.90295116548E+01  0.43158433300E+03  0.43189303770E+03  0.00000000000E+00 0.  1.
         11    1    1    2    0    0  0.36161556236E+01  0.59192344305E+01 -0.49787304534E+03  0.49792136246E+03  0.00000000000E+00 0.  1.
        -15    1    1    2    0    0  0.49829189290E+01 -0.74416950002E+01  0.11766672385E+02  0.14893643394E+02  0.17770000000E+01 0.  1.
         15    1    1    2    0    0  0.50034048903E+01 -0.75070510851E+01  0.54522039959E+02  0.55291956438E+02  0.17770000000E+01 0. -1.
</event>
<event>
 6    1  0.1782050E-003  0.5026212E+03  0.7546771E-02  0.9393964E-01
        -11   -1    0    0    0    0  0.00000000000E+00  0.00000000000E+00  0.50000000000E+03  0.50000000000E+03  0.00000000000E+00 0.  1.
         11   -1    0    0    0    0 -0.00000000000E+00 -0.00000000000E+00 -0.50000000000E+03  0.50000000000E+03  0.00000000000E+00 0. -1.
        -11    1    1    2    0    0  0.32656395513E+01  0.12938655753E+02  0.49719979438E+03  0.49737883825E+03  0.00000000000E+00 0.  1.
         11    1    1    2    0    0 -0.10162664397E+02  0.17494381062E+02 -0.30665073811E+03  0.30731743897E+03  0.00000000000E+00 0. -1.
        -15    1    1    2    0    0 -0.44535890062E+01 -0.30933719835E+02 -0.14249755753E+03  0.14589530873E+03  0.17770000000E+01 0.  1.
         15    1    1    2    0    0  0.11350613851E+02  0.50068301986E+00 -0.48051498736E+02  0.49408414041E+02  0.17770000000E+01 0. -1.
</event>
<event>
 6    1  0.1782050E-003  0.5160429E+03  0.7546771E-02  0.9364611E-01
        -11   -1    0    0    0    0  0.00000000000E+00  0.00000000000E+00  0.50000000000E+03  0.50000000000E+03  0.00000000000E+00 0.  1.
         11   -1    0    0    0    0 -0.00000000000E+00 -0.00000000000E+00 -0.50000000000E+03  0.50000000000E+03  0.00000000000E+00 0.  1.
        -11    1    1    2    0    0 -0.14995790950E+01 -0.10329833782E+02  0.40356291834E+03  0.40369788612E+03  0.00000000000E+00 0.  1.
         11    1    1    2    0    0 -0.84746058571E+01  0.41014621273E+02 -0.48214155135E+03  0.48395711963E+03  0.00000000000E+00 0.  1.
        -15    1    1    2    0    0 -0.10563171145E+02  0.39523825681E+01  0.70268464563E+02  0.71190004591E+02  0.17770000000E+01 0. -1.
         15    1    1    2    0    0  0.20537356097E+02 -0.34637170059E+02  0.83101684500E+01  0.41154989659E+02  0.17770000000E+01 0.  1.
</event>
<event>
 6    1  0.1782050E-003  0.5167506E+03  0.7546771E-02  0.9363090E-01
        -11   -1    0    0    0    0  0.00000000000E+00  0.00000000000E+00  0.50000000000E+03  0.50000000000E+03  0.00000000000E+00 0. -1.
         11   -1    0    0    0    0 -0.00000000000E+00 -0.00000000000E+00 -0.50000000000E+03  0.50000000000E+03  0.00000000000E+00 0.  1.
        -11    1    1    2    0    0 -0.88687452728E+01  0.11267487181E+02  0.48303656703E+03  0.48324935178E+03  0.00000000000E+00 0. -1.
         11    1    1    2    0    0  0.91015565359E+01 -0.30345991198E+01 -0.47694518213E+03  0.47704166891E+03  0.00000000000E+00 0.  1.
        -15    1    1    2    0    0 -0.19754607237E+01  0.11675258751E+01 -0.21387480545E+02  0.21583503302E+02  0.17770000000E+01 0.  1.
         15    1    1    2    0    0  0.17426494606E+01 -0.94004139365E+01  0.15296095646E+02  0.18125476003E+02  0.17770000000E+01 0. -1.
</event>
<event>
 6    1  0.1782050E-003  0.5334786E+03  0.7546771E-02  0.9327865E-01
        -11   -1    0    0    0    0  0.00000000000E+00  0.00000000000E+00  0.50000000000E+03  0.50000000000E+03  0.00000000000E+00 0. -1.
         11   -1    0    0    0    0 -0.00000000000E+00 -0.00000000000E+00 -0.50000000000E+03  0.50000000000E+03  0.00000000000E+00 0. -1.
        -11    1    1    2    0    0  0.81606942842E+01  0.11953381075E+02  0.46629681955E+03  0.46652138661E+03  0.00000000000E+00 0. -1.
         11    1    1    2    0    0 -0.19453454853E+02 -0.97149745925E+01 -0.41741380768E+03  0.41797978956E+03  0.00000000000E+00 0. -1.
        -15    1    1    2    0    0 -0.21561042621E+02 -0.40334041483E+02 -0.46286996912E+02  0.65094986546E+02  0.17770000000E+01 0. -1.
         15    1    1    2    0    0  0.32853803190E+02  0.38095635001E+02 -0.25960149558E+01  0.50403837283E+02  0.17770000000E+01 0.  1.
</event>
<event>
 6    1  0.1782050E-003  0.5192403E+03  0.7546771E-02  0.9357758E-01
        -11   -1    0    0    0    0  0.00000000000E+00  0.00000000000E+00  0.50000000000E+03  0.50000000000E+03  0.00000000000E+00 0. -1.
         11   -1    0    0    0    0 -0.00000000000E+00 -0.00000000000E+00 -0.50000000000E+03  0.50000000000E+03  0.00000000000E+00 0.  1.
        -11    1    1    2    0    0  0.47736296921E+01 -0.14124003361E+02  0.48052848742E+03  0.48075971361E+03  0.00000000000E+00 0. -1.
         11    1    1    2    0    0 -0.12367611206E+02 -0.14796956448E+01 -0.44046241240E+03  0.44063849587E+03  0.00000000000E+00 0.  1.
        -15    1    1    2    0    0  0.74718349965E+01 -0.32539912571E+01 -0.54281881785E+02  0.54919005785E+02  0.17770000000E+01 0.  1.
         15    1    1    2    0    0  0.12214651747E+00  0.18857690263E+02  0.14215806764E+02  0.23682784734E+02  0.17770000000E+01 0. -1.
</event>
<event>
 6    1  0.1782050E-003  0.5016877E+03  0.7546771E-02  0.9396041E-01
        -11   -1    0    0    0    0  0.00000000000E+00  0.00000000000E+00  0.50000000000E+03  0.50000000000E+03  0.00000000000E+00 0. -1.
         11   -1    0    0    0    0 -0.00000000000E+00 -0.00000000000E+00 -0.50000000000E+03  0.50000000000E+03  0.00000000000E+00 0.  1.
        -11    1    1    2    0    0  0.30390570632E+01 -0.88430297877E+01  0.40469609908E+03  0.40480411022E+03  0.00000000000E+00 0. -1.
         11    1    1    2    0    0 -0.24827180231E+01 -0.87689820309E+01 -0.49822892847E+03  0.49831227568E+03  0.00000000000E+00 0.  1.
        -15    1    1    2    0    0 -0.41043282050E+01  0.16109443197E+02  0.89436891700E+02  0.90986125294E+02  0.17770000000E+01 0. -1.
         15    1    1    2    0    0  0.35479891648E+01  0.15025686218E+01  0.40959376930E+01  0.58974888014E+01  0.17770000000E+01 0.  1.
</event>
<event>
 6    1  0.1782050E-003  0.5003459E+03  0.7546771E-02  0.9399036E-01
        -11   -1    0    0    0    0  0.00000000000E+00  0.00000000000E+00  0.50000000000E+03  0.50000000000E+03  0.00000000000E+00 0. -1.
         11   -1    0    0    0    0 -0.00000000000E+00 -0.00000000000E+00 -0.50000000000E+03  0.50000000000E+03  0.00000000000E+00 0.  1.
        -11    1    1    2    0    0 -0.89354193661E+01 -0.32608024187E+01  0.49956352429E+03  0.49965406968E+03  0.00000000000E+00 0. -1.
         11    1    1    2    0    0  0.42560566737E+01 -0.41045113882E+01 -0.39568700594E+03  0.39573118111E+03  0.00000000000E+00 0.  1.
        -15    1    1    2    0    0  0.60136321782E+01  0.20405352644E+01 -0.59671188840E+02  0.60034457295E+02  0.17770000000E+01 0.  1.
         15    1    1    2    0    0 -0.13342694858E+01  0.53247785425E+01 -0.44205329507E+02  0.44580291917E+02  0.17770000000E+01 0. -1.
</event>
<event>
 6    1  0.1782050E-003  0.5004546E+03  0.7546771E-02  0.9398793E-01
        -11   -1    0    0    0    0  0.00000000000E+00  0.00000000000E+00  0.50000000000E+03  0.50000000000E+03  0.00000000000E+00 0.  1.
         11   -1    0    0    0    0 -0.00000000000E+00 -0.00000000000E+00 -0.50000000000E+03  0.50000000000E+03  0.00000000000E+00 0. -1.
        -11    1    1    2    0    0  0.64549383482E+01 -0.35529371104E+01  0.22732148296E+03  0.22744086309E+03  0.00000000000E+00 0.  1.
         11    1    1    2    0    0 -0.13400916371E+01 -0.82450418355E+01 -0.49947552442E+03  0.49954536937E+03  0.00000000000E+00 0. -1.
        -15    1    1    2    0    0 -0.85581704725E+00  0.40621871982E+01  0.22271806863E+03  0.22276384269E+03  0.17770000000E+01 0. -1.
         15    1    1    2    0    0 -0.42590296638E+01  0.77357917477E+01  0.49435972837E+02  0.50249924845E+02  0.17770000000E+01 0.  1.
</event>
<event>
 6    1  0.1782050E-003  0.5002795E+03  0.7546771E-02  0.9399185E-01
        -11   -1    0    0    0    0  0.00000000000E+00  0.00000000000E+00  0.50000000000E+03  0.50000000000E+03  0.00000000000E+00 0.  1.
         11   -1    0    0    0    0 -0.00000000000E+00 -0.00000000000E+00 -0.50000000000E+03  0.50000000000E+03  0.00000000000E+00 0.  1.
        -11    1    1    2    0    0 -0.50777954844E+00  0.39703603458E+01  0.75395808850E+02  0.75501984037E+02  0.00000000000E+00 0.  1.
         11    1    1    2    0    0 -0.63756188820E+01  0.38443631473E+01 -0.49966506164E+03  0.49972052336E+03  0.00000000000E+00 0.  1.
        -15    1    1    2    0    0  0.16631275769E+01 -0.13931771675E+01  0.91081651333E+01  0.95301278613E+01  0.17770000000E+01 0. -1.
         15    1    1    2    0    0  0.52202708536E+01 -0.64215463256E+01  0.41516108766E+03  0.41524736474E+03  0.17770000000E+01 0.  1.
</event>
<event>
 6    1  0.1782050E-003  0.5013805E+03  0.7546771E-02  0.9396726E-01
        -11   -1    0    0    0    0  0.00000000000E+00  0.00000000000E+00  0.50000000000E+03  0.50000000000E+03  0.00000000000E+00 0.  1.
         11   -1    0    0    0    0 -0.00000000000E+00 -0.00000000000E+00 -0.50000000000E+03  0.50000000000E+03  0.00000000000E+00 0.  1.
        -11    1    1    2    0    0 -0.86608742126E+01  0.21834163769E+01  0.47582926651E+03  0.47591308967E+03  0.00000000000E+00 0.  1.
         11    1    1    2    0    0  0.21867425962E+01 -0.70929756214E+01 -0.49856426744E+03  0.49861951517E+03  0.00000000000E+00 0.  1.
        -15    1    1    2    0    0 -0.98707034992E+00  0.21376690089E+01  0.92408224450E+01  0.97002301585E+01  0.17770000000E+01 0.  1.
         15    1    1    2    0    0  0.74612019663E+01  0.27718902357E+01  0.13494178480E+02  0.15767164999E+02  0.17770000000E+01 0. -1.
</event>
<event>
 6    1  0.1782050E-003  0.5009308E+03  0.7546771E-02  0.9397729E-01
        -11   -1    0    0    0    0  0.00000000000E+00  0.00000000000E+00  0.50000000000E+03  0.50000000000E+03  0.00000000000E+00 0. -1.
         11   -1    0    0    0    0 -0.00000000000E+00 -0.00000000000E+00 -0.50000000000E+03  0.50000000000E+03  0.00000000000E+00 0. -1.
        -11    1    1    2    0    0  0.14503885312E+02  0.95219582886E+01  0.49876750408E+03  0.49906918709E+03  0.00000000000E+00 0. -1.
         11    1    1    2    0    0  0.16738890602E+01 -0.54454184742E+01 -0.28168302048E+03  0.28174062276E+03  0.00000000000E+00 0. -1.
        -15    1    1    2    0    0 -0.19080315680E+02 -0.57823449422E+01 -0.96915925923E+02  0.98961347940E+02  0.17770000000E+01 0.  1.
         15    1    1    2    0    0  0.29025413075E+01  0.17058051278E+01 -0.12016855768E+03  0.12022884221E+03  0.17770000000E+01 0. -1.
</event>
<event>
 6    1  0.1782050E-003  0.5119558E+03  0.7546771E-02  0.9373448E-01
        -11   -1    0    0    0    0  0.00000000000E+00  0.00000000000E+00  0.50000000000E+03  0.50000000000E+03  0.00000000000E+00 0.  1.
         11   -1    0    0    0    0 -0.00000000000E+00 -0.00000000000E+00 -0.50000000000E+03  0.50000000000E+03  0.00000000000E+00 0. -1.
        -11    1    1    2    0    0  0.85333498782E+00 -0.69042374823E+01  0.48799464375E+03  0.48804422853E+03  0.00000000000E+00 0.  1.
         11    1    1    2    0    0  0.58673256327E+01  0.64710746843E+01 -0.20227581413E+03  0.20246433093E+03  0.00000000000E+00 0. -1.
        -15    1    1    2    0    0  0.19093338958E+01 -0.13531354222E+02 -0.29162847154E+03  0.29195387692E+03  0.17770000000E+01 0. -1.
         15    1    1    2    0    0 -0.86299945163E+01  0.13964517020E+02  0.59096419224E+01  0.17537563617E+02  0.17770000000E+01 0.  1.
</event>
<event>
 6    1  0.1782050E-003  0.5002214E+03  0.7546771E-02  0.9399315E-01
        -11   -1    0    0    0    0  0.00000000000E+00  0.00000000000E+00  0.50000000000E+03  0.50000000000E+03  0.00000000000E+00 0.  1.
         11   -1    0    0    0    0 -0.00000000000E+00 -0.00000000000E+00 -0.50000000000E+03  0.50000000000E+03  0.00000000000E+00 0.  1.
        -11    1    1    2    0    0 -0.38727659262E+01 -0.10163560376E+01  0.12672934743E+03  0.12679258178E+03  0.00000000000E+00 0.  1.
         11    1    1    2    0    0 -0.66926710210E+01 -0.11285184885E+02 -0.49960638959E+03  0.49977864276E+03  0.00000000000E+00 0.  1.
        -15    1    1    2    0    0  0.14854957361E+01  0.43425163593E+01  0.22343948742E+03  0.22349368316E+03  0.17770000000E+01 0. -1.
         15    1    1    2    0    0  0.90799412111E+01  0.79590245638E+01  0.14943755474E+03  0.14993509229E+03  0.17770000000E+01 0.  1.
</event>
<event>
 6    1  0.1782050E-003  0.5010908E+03  0.7546771E-02  0.9397372E-01
        -11   -1    0    0    0    0  0.00000000000E+00  0.00000000000E+00  0.50000000000E+03  0.50000000000E+03  0.00000000000E+00 0. -1.
         11   -1    0    0    0    0 -0.00000000000E+00 -0.00000000000E+00 -0.50000000000E+03  0.50000000000E+03  0.00000000000E+00 0.  1.
        -11    1    1    2    0    0 -0.50943985706E+01  0.80818623917E+00  0.26592569002E+03  0.26597571069E+03  0.00000000000E+00 0. -1.
         11    1    1    2    0    0 -0.25680476812E+01 -0.78298160004E+01 -0.49884111706E+03  0.49890917105E+03  0.00000000000E+00 0.  1.
        -15    1    1    2    0    0  0.76602352121E+01  0.15527816445E+02  0.76354505630E+02  0.78313220762E+02  0.17770000000E+01 0. -1.
         15    1    1    2    0    0  0.22110397488E-02 -0.85061866835E+01  0.15656092141E+03  0.15680189750E+03  0.17770000000E+01 0.  1.
</event>
<event>
 6    1  0.1782050E-003  0.5004837E+03  0.7546771E-02  0.9398728E-01
        -11   -1    0    0    0    0  0.00000000000E+00  0.00000000000E+00  0.50000000000E+03  0.50000000000E+03  0.00000000000E+00 0.  1.
         11   -1    0    0    0    0 -0.00000000000E+00 -0.00000000000E+00 -0.50000000000E+03  0.50000000000E+03  0.00000000000E+00 0. -1.
        -11    1    1    2    0    0 -0.64244773842E+01  0.73062342237E+01  0.19009117494E+03  0.19033998466E+03  0.00000000000E+00 0.  1.
         11    1    1    2    0    0  0.65861951547E+01  0.34969991380E+01 -0.49946065058E+03  0.49951631450E+03  0.00000000000E+00 0. -1.
        -15    1    1    2    0    0 -0.91805152093E+01 -0.68761941495E+01  0.14048870744E+03  0.14096736698E+03  0.17770000000E+01 0.  1.
         15    1    1    2    0    0  0.90187974388E+01 -0.39270392122E+01  0.16888076820E+03  0.16917633387E+03  0.17770000000E+01 0. -1.
</event>
<event>
 6    1  0.1782050E-003  0.5057693E+03  0.7546771E-02  0.9386992E-01
        -11   -1    0    0    0    0  0.00000000000E+00  0.00000000000E+00  0.50000000000E+03  0.50000000000E+03  0.00000000000E+00 0.  1.
         11   -1    0    0    0    0 -0.00000000000E+00 -0.00000000000E+00 -0.50000000000E+03  0.50000000000E+03  0.00000000000E+00 0. -1.
        -11    1    1    2    0    0 -0.10957070038E+02 -0.48168887100E+01  0.49408578396E+03  0.49423073732E+03  0.00000000000E+00 0.  1.
         11    1    1    2    0    0  0.12013878225E+01  0.39300280690E+01 -0.28374300378E+03  0.28377276234E+03  0.00000000000E+00 0. -1.
        -15    1    1    2    0    0 -0.17810578392E+02  0.16370109425E+02 -0.28534170614E+02  0.37450684998E+02  0.17770000000E+01 0.  1.
         15    1    1    2    0    0  0.27566260607E+02 -0.15483248784E+02 -0.18180860957E+03  0.18454581534E+03  0.17770000000E+01 0. -1.
</event>
<event>
 6    1  0.1782050E-003  0.5064585E+03  0.7546771E-02  0.9385473E-01
        -11   -1    0    0    0    0  0.00000000000E+00  0.00000000000E+00  0.50000000000E+03  0.50000000000E+03  0.00000000000E+00 0. -1.
         11   -1    0    0    0    0 -0.00000000000E+00 -0.00000000000E+00 -0.50000000000E+03  0.50000000000E+03  0.00000000000E+00 0.  1.
        -11    1    1    2    0    0 -0.19342785990E+02  0.26787000523E+02  0.49243429773E+03  0.49354151228E+03  0.00000000000E+00 0. -1.
         11    1    1    2    0    0  0.22243546508E+01  0.51014382331E+01 -0.40233131790E+03  0.40236980725E+03  0.00000000000E+00 0.  1.
        -15    1    1    2    0    0  0.15242474714E+02 -0.26798154351E+02 -0.92779504795E+02  0.97783783681E+02  0.17770000000E+01 0.  1.
         15    1    1    2    0    0  0.18759566252E+01 -0.50902844056E+01  0.26765249668E+01  0.63048967864E+01  0.17770000000E+01 0. -1.
</event>
<event>
 6    1  0.1782050E-003  0.5023503E+03  0.7546771E-02  0.9394566E-01
        -11   -1    0    0    0    0  0.00000000000E+00  0.00000000000E+00  0.50000000000E+03  0.50000000000E+03  0.00000000000E+00 0.  1.
         11   -1    0    0    0    0 -0.00000000000E+00 -0.00000000000E+00 -0.50000000000E+03  0.50000000000E+03  0.00000000000E+00 0.  1.
        -11    1    1    2    0    0  0.53970430069E+01  0.50536305210E+01  0.49759475050E+03  0.49764967897E+03  0.00000000000E+00 0.  1.
         11    1    1    2    0    0 -0.12076875880E+02  0.14989298237E+01 -0.45878385613E+03  0.45894523025E+03  0.00000000000E+00 0.  1.
        -15    1    1    2    0    0 -0.14101143153E+00 -0.38781788571E+01 -0.34414130062E+02  0.34677806049E+02  0.17770000000E+01 0. -1.
         15    1    1    2    0    0  0.68208443048E+01 -0.26743814876E+01 -0.43967643110E+01  0.87272847311E+01  0.17770000000E+01 0.  1.
</event>
<event>
 6    1  0.1782050E-003  0.5001308E+03  0.7546771E-02  0.9399517E-01
        -11   -1    0    0    0    0  0.00000000000E+00  0.00000000000E+00  0.50000000000E+03  0.50000000000E+03  0.00000000000E+00 0.  1.
         11   -1    0    0    0    0 -0.00000000000E+00 -0.00000000000E+00 -0.50000000000E+03  0.50000000000E+03  0.00000000000E+00 0.  1.
        -11    1    1    2    0    0 -0.50367770603E+01 -0.55751756131E+01  0.49981268578E+03  0.49986915545E+03  0.00000000000E+00 0.  1.
         11    1    1    2    0    0 -0.24010108096E+01 -0.37657628708E+00 -0.53943929727E+02  0.53998650141E+02  0.00000000000E+00 0.  1.
        -15    1    1    2    0    0  0.54681163299E+01  0.10336051809E+01 -0.37431211778E+03  0.37435770044E+03  0.17770000000E+01 0.  1.
         15    1    1    2    0    0  0.19696715399E+01  0.49181467193E+01 -0.71556638279E+02  0.71774493965E+02  0.17770000000E+01 0. -1.
</event>
<event>
 6    1  0.1782050E-003  0.5121501E+03  0.7546771E-02  0.9373026E-01
        -11   -1    0    0    0    0  0.00000000000E+00  0.00000000000E+00  0.50000000000E+03  0.50000000000E+03  0.00000000000E+00 0.  1.
         11   -1    0    0    0    0 -0.00000000000E+00 -0.00000000000E+00 -0.50000000000E+03  0.50000000000E+03  0.00000000000E+00 0. -1.
        -11    1    1    2    0    0  0.48149119983E+02 -0.61705662993E+01  0.48542874298E+03  0.48784985206E+03  0.00000000000E+00 0.  1.
         11    1    1    2    0    0 -0.57464143129E+01  0.11554632453E+02 -0.41322509809E+03  0.41342655030E+03  0.00000000000E+00 0. -1.
        -15    1    1    2    0    0 -0.37643033112E+01  0.49817166851E+00 -0.56356192136E+02  0.56511912687E+02  0.17770000000E+01 0.  1.
         15    1    1    2    0    0 -0.38638402359E+02 -0.58822378226E+01 -0.15847452755E+02  0.42211684952E+02  0.17770000000E+01 0. -1.
</event>
<event>
 6    1  0.1782050E-003  0.5026474E+03  0.7546771E-02  0.9393905E-01
        -11   -1    0    0    0    0  0.00000000000E+00  0.00000000000E+00  0.50000000000E+03  0.50000000000E+03  0.00000000000E+00 0. -1.
         11   -1    0    0    0    0 -0.00000000000E+00 -0.00000000000E+00 -0.50000000000E+03  0.50000000000E+03  0.00000000000E+00 0.  1.
        -11    1    1    2    0    0  0.13910323978E+02 -0.29652658817E+01  0.49714919492E+03  0.49735260322E+03  0.00000000000E+00 0. -1.
         11    1    1    2    0    0  0.40520857721E+01  0.51501936270E+01 -0.45204302810E+03  0.45209052539E+03  0.00000000000E+00 0.  1.
        -15    1    1    2    0    0 -0.19747343263E+02 -0.62229964124E+00 -0.38264855534E+02  0.43101064033E+02  0.17770000000E+01 0.  1.
         15    1    1    2    0    0  0.17849335134E+01 -0.15626281040E+01 -0.68413112908E+01  0.74558073618E+01  0.17770000000E+01 0. -1.
</event>
<event>
 6    1  0.1782050E-003  0.5008141E+03  0.7546771E-02  0.9397990E-01
        -11   -1    0    0    0    0  0.00000000000E+00  0.00000000000E+00  0.50000000000E+03  0.50000000000E+03  0.00000000000E+00 0.  1.
         11   -1    0    0    0    0 -0.00000000000E+00 -0.00000000000E+00 -0.50000000000E+03  0.50000000000E+03  0.00000000000E+00 0. -1.
        -11    1    1    2    0    0  0.88205173614E+01 -0.45470461190E+01  0.36440014562E+03  0.36453524286E+03  0.00000000000E+00 0.  1.
         11    1    1    2    0    0  0.81051707013E+01 -0.33283119603E+01 -0.49910898177E+03  0.49918588436E+03  0.00000000000E+00 0. -1.
        -15    1    1    2    0    0 -0.15804355183E+02  0.59326398781E+01  0.98045856456E+02  0.99504379581E+02  0.17770000000E+01 0. -1.
         15    1    1    2    0    0 -0.11213328794E+01  0.19427182012E+01  0.36662979695E+02  0.36774493206E+02  0.17770000000E+01 0.  1.
</event>
<event>
 6    1  0.1782050E-003  0.5208560E+03  0.7546771E-02  0.9354315E-01
        -11   -1    0    0    0    0  0.00000000000E+00  0.00000000000E+00  0.50000000000E+03  0.50000000000E+03  0.00000000000E+00 0.  1.
         11   -1    0    0    0    0 -0.00000000000E+00 -0.00000000000E+00 -0.50000000000E+03  0.50000000000E+03  0.00000000000E+00 0.  1.
        -11    1    1    2    0    0 -0.69544102527E+01 -0.33648486319E+01  0.41740758042E+03  0.41747907040E+03  0.00000000000E+00 0.  1.
         11    1    1    2    0    0 -0.10912615423E+02  0.21069333364E+02 -0.47855612844E+03  0.47914399720E+03  0.00000000000E+00 0.  1.
        -15    1    1    2    0    0  0.73904493401E+01 -0.16883219451E+02 -0.16620526817E+02  0.24880946147E+02  0.17770000000E+01 0.  1.
         15    1    1    2    0    0  0.10476576336E+02 -0.82126528148E+00  0.77769074837E+02  0.78495986257E+02  0.17770000000E+01 0.  1.
</event>
<event>
 6    1  0.1782050E-003  0.5015361E+03  0.7546771E-02  0.9396379E-01
        -11   -1    0    0    0    0  0.00000000000E+00  0.00000000000E+00  0.50000000000E+03  0.50000000000E+03  0.00000000000E+00 0. -1.
         11   -1    0    0    0    0 -0.00000000000E+00 -0.00000000000E+00 -0.50000000000E+03  0.50000000000E+03  0.00000000000E+00 0. -1.
        -11    1    1    2    0    0  0.12803783360E+02  0.11471382822E+02  0.49816739911E+03  0.49846392751E+03  0.00000000000E+00 0. -1.
         11    1    1    2    0    0  0.48836620717E+01  0.11767152996E+00 -0.36238131711E+03  0.36241424226E+03  0.00000000000E+00 0. -1.
        -15    1    1    2    0    0 -0.81710821545E+00  0.57196369323E+01 -0.27775132592E+02  0.28425299154E+02  0.17770000000E+01 0. -1.
         15    1    1    2    0    0 -0.16870337216E+02 -0.17308691285E+02 -0.10801094941E+03  0.11069653108E+03  0.17770000000E+01 0.  1.
</event>
<event>
 6    1  0.1782050E-003  0.5025216E+03  0.7546771E-02  0.9394185E-01
        -11   -1    0    0    0    0  0.00000000000E+00  0.00000000000E+00  0.50000000000E+03  0.50000000000E+03  0.00000000000E+00 0.  1.
         11   -1    0    0    0    0 -0.00000000000E+00 -0.00000000000E+00 -0.50000000000E+03  0.50000000000E+03  0.00000000000E+00 0. -1.
        -11    1    1    2    0    0  0.13953931201E+01 -0.51966113748E+01  0.18857456048E+03  0.18865130997E+03  0.00000000000E+00 0.  1.
         11    1    1    2    0    0 -0.27804671553E+00  0.10691701641E+02 -0.49736341647E+03  0.49747839936E+03  0.00000000000E+00 0. -1.
        -15    1    1    2    0    0  0.44581064248E+01 -0.78280366549E+01  0.58963189031E+01  0.10912248915E+02  0.17770000000E+01 0.  1.
         15    1    1    2    0    0 -0.55754528293E+01  0.23329463886E+01  0.30289253709E+03  0.30295804176E+03  0.17770000000E+01 0.  1.
</event>
<event>
 6    1  0.1782050E-003  0.5006512E+03  0.7546771E-02  0.9398354E-01
        -11   -1    0    0    0    0  0.00000000000E+00  0.00000000000E+00  0.50000000000E+03  0.50000000000E+03  0.00000000000E+00 0. -1.
         11   -1    0    0    0    0 -0.00000000000E+00 -0.00000000000E+00 -0.50000000000E+03  0.50000000000E+03  0.00000000000E+00 0.  1.
        -11    1    1    2    0    0  0.13697950595E+02 -0.81245555433E-01  0.49916091293E+03  0.49934883343E+03  0.00000000000E+00 0. -1.
         11    1    1    2    0    0 -0.96662470104E+01 -0.16791876761E+01 -0.26652420438E+03  0.26670471972E+03  0.00000000000E+00 0.  1.
        -15    1    1    2    0    0 -0.18783420981E+00  0.46244997309E+01 -0.91960668448E+01  0.10447327594E+02  0.17770000000E+01 0. -1.
         15    1    1    2    0    0 -0.38438693750E+01 -0.28640664994E+01 -0.22344064171E+03  0.22349911925E+03  0.17770000000E+01 0.  1.
</event>
<event>
 6    1  0.1782050E-003  0.5063055E+03  0.7546771E-02  0.9385810E-01
        -11   -1    0    0    0    0  0.00000000000E+00  0.00000000000E+00  0.50000000000E+03  0.50000000000E+03  0.00000000000E+00 0.  1.
         11   -1    0    0    0    0 -0.00000000000E+00 -0.00000000000E+00 -0.50000000000E+03  0.50000000000E+03  0.00000000000E+00 0.  1.
        -11    1    1    2    0    0  0.55191376984E+01  0.40663550466E+01  0.37066116214E+03  0.37072455172E+03  0.00000000000E+00 0.  1.
         11    1    1    2    0    0 -0.20475569255E+02 -0.23229248802E+02 -0.49272241262E+03  0.49369446304E+03  0.00000000000E+00 0.  1.
        -15    1    1    2    0    0 -0.64529472695E+00 -0.98461160664E+01  0.86489531898E+02  0.87068704274E+02  0.17770000000E+01 0.  1.
         15    1    1    2    0    0  0.15601726283E+02  0.29009009821E+02  0.35571718577E+02  0.48512280974E+02  0.17770000000E+01 0. -1.
</event>
<event>
 6    1  0.1782050E-003  0.5020654E+03  0.7546771E-02  0.9395200E-01
        -11   -1    0    0    0    0  0.00000000000E+00  0.00000000000E+00  0.50000000000E+03  0.50000000000E+03  0.00000000000E+00 0.  1.
         11   -1    0    0    0    0 -0.00000000000E+00 -0.00000000000E+00 -0.50000000000E+03  0.50000000000E+03  0.00000000000E+00 0. -1.
        -11    1    1    2    0    0  0.48917118269E+01  0.35196480972E+01  0.34915597211E+03  0.34920797475E+03  0.00000000000E+00 0.  1.
         11    1    1    2    0    0 -0.10453403223E+02  0.92458989691E+01 -0.49773903784E+03  0.49793464438E+03  0.00000000000E+00 0. -1.
        -15    1    1    2    0    0 -0.29422137938E-01 -0.22810707762E+02  0.76725051373E+02  0.80063852589E+02  0.17770000000E+01 0.  1.
         15    1    1    2    0    0  0.55911135343E+01  0.10045160696E+02  0.71858014352E+02  0.72793528281E+02  0.17770000000E+01 0. -1.
</event>
<event>
 6    1  0.1782050E-003  0.5138610E+03  0.7546771E-02  0.9369318E-01
        -11   -1    0    0    0    0  0.00000000000E+00  0.00000000000E+00  0.50000000000E+03  0.50000000000E+03  0.00000000000E+00 0. -1.
         11   -1    0    0    0    0 -0.00000000000E+00 -0.00000000000E+00 -0.50000000000E+03  0.50000000000E+03  0.00000000000E+00 0.  1.
        -11    1    1    2    0    0  0.48352624586E+01 -0.58199713462E+01  0.48608010797E+03  0.48613899576E+03  0.00000000000E+00 0. -1.
         11    1    1    2    0    0  0.69313476492E+00 -0.23749094116E+02 -0.28399810936E+03  0.28499022093E+03  0.00000000000E+00 0.  1.
        -15    1    1    2    0    0 -0.41866433847E+01  0.22280136983E+01  0.12007050808E+02  0.13031462926E+02  0.17770000000E+01 0. -1.
         15    1    1    2    0    0 -0.13417538388E+01  0.27341051764E+02 -0.21408904942E+03  0.21583932039E+03  0.17770000000E+01 0.  1.
</event>
<event>
 6    1  0.1782050E-003  0.5061871E+03  0.7546771E-02  0.9386071E-01
        -11   -1    0    0    0    0  0.00000000000E+00  0.00000000000E+00  0.50000000000E+03  0.50000000000E+03  0.00000000000E+00 0. -1.
         11   -1    0    0    0    0 -0.00000000000E+00 -0.00000000000E+00 -0.50000000000E+03  0.50000000000E+03  0.00000000000E+00 0.  1.
        -11    1    1    2    0    0  0.10939457757E+02  0.69546968466E+00  0.44623595699E+03  0.44637056883E+03  0.00000000000E+00 0. -1.
         11    1    1    2    0    0  0.73986829349E+01  0.19210725992E+01 -0.49375369543E+03  0.49381286211E+03  0.00000000000E+00 0.  1.
        -15    1    1    2    0    0 -0.10975879292E+02 -0.10386763738E+01  0.50353479073E+02  0.51576926610E+02  0.17770000000E+01 0. -1.
         15    1    1    2    0    0 -0.73622613997E+01 -0.15778659100E+01 -0.28357406250E+01  0.82396424461E+01  0.17770000000E+01 0. -1.
</event>
<event>
 6    1  0.1782050E-003  0.5050897E+03  0.7546771E-02  0.9388493E-01
        -11   -1    0    0    0    0  0.00000000000E+00  0.00000000000E+00  0.50000000000E+03  0.50000000000E+03  0.00000000000E+00 0. -1.
         11   -1    0    0    0    0 -0.00000000000E+00 -0.00000000000E+00 -0.50000000000E+03  0.50000000000E+03  0.00000000000E+00 0. -1.
        -11    1    1    2    0    0  0.12745813881E+02 -0.85282919003E+01  0.34553250885E+03  0.34587266762E+03  0.00000000000E+00 0. -1.
         11    1    1    2    0    0 -0.10148447846E+02 -0.20196020750E+02 -0.49439394391E+03  0.49491033736E+03  0.00000000000E+00 0. -1.
        -15    1    1    2    0    0  0.12042188985E+02 -0.46060262486E+01  0.82367171488E+02  0.83389078789E+02  0.17770000000E+01 0.  1.
         15    1    1    2    0    0 -0.14639555020E+02  0.33330338899E+02  0.66494263577E+02  0.75827916231E+02  0.17770000000E+01 0. -1.
</event>
<event>
 6    1  0.1782050E-003  0.5025458E+03  0.7546771E-02  0.9394131E-01
        -11   -1    0    0    0    0  0.00000000000E+00  0.00000000000E+00  0.50000000000E+03  0.50000000000E+03  0.00000000000E+00 0. -1.
         11   -1    0    0    0    0 -0.00000000000E+00 -0.00000000000E+00 -0.50000000000E+03  0.50000000000E+03  0.00000000000E+00 0.  1.
        -11    1    1    2    0    0  0.54695301648E+01  0.87106614494E+01  0.42876038464E+03  0.42888373578E+03  0.00000000000E+00 0. -1.
         11    1    1    2    0    0 -0.54966807783E+01  0.40444044413E+01 -0.49740736710E+03  0.49745417834E+03  0.00000000000E+00 0.  1.
        -15    1    1    2    0    0  0.24569645394E+01 -0.77916148750E+01  0.49812178942E+01  0.97322247106E+01  0.17770000000E+01 0. -1.
         15    1    1    2    0    0 -0.24298139259E+01 -0.49634510156E+01  0.63665764567E+02  0.63929861165E+02  0.17770000000E+01 0.  1.
</event>
<event>
 6    1  0.1782050E-003  0.5137921E+03  0.7546771E-02  0.9369467E-01
        -11   -1    0    0    0    0  0.00000000000E+00  0.00000000000E+00  0.50000000000E+03  0.50000000000E+03  0.00000000000E+00 0. -1.
         11   -1    0    0    0    0 -0.00000000000E+00 -0.00000000000E+00 -0.50000000000E+03  0.50000000000E+03  0.00000000000E+00 0.  1.
        -11    1    1    2    0    0  0.10186445008E+02 -0.16236874773E+01  0.48609847053E+03  0.48620790109E+03  0.00000000000E+00 0. -1.
         11    1    1    2    0    0 -0.14723052072E+01  0.84837532910E+01 -0.47269444318E+03  0.47277286128E+03  0.00000000000E+00 0.  1.
        -15    1    1    2    0    0 -0.54139088716E+01  0.87467649794E+00  0.12479106109E+02  0.13746319017E+02  0.17770000000E+01 0. -1.
         15    1    1    2    0    0 -0.33002309288E+01 -0.77347423116E+01 -0.25883133468E+02  0.27272918618E+02  0.17770000000E+01 0. -1.
</event>
<event>
 6    1  0.1782050E-003  0.5026656E+03  0.7546771E-02  0.9393865E-01
        -11   -1    0    0    0    0  0.00000000000E+00  0.00000000000E+00  0.50000000000E+03  0.50000000000E+03  0.00000000000E+00 0. -1.
         11   -1    0    0    0    0 -0.00000000000E+00 -0.00000000000E+00 -0.50000000000E+03  0.50000000000E+03  0.00000000000E+00 0.  1.
        -11    1    1    2    0    0  0.19430150639E+01  0.11571297817E+02  0.41561701752E+03  0.41578260605E+03  0.00000000000E+00 0. -1.
         11    1    1    2    0    0 -0.17213349837E+02  0.23598282425E+01 -0.49703084022E+03  0.49733441901E+03  0.00000000000E+00 0.  1.
        -15    1    1    2    0    0 -0.31135813391E+01 -0.64928781949E+01  0.42799424383E+02  0.43437314748E+02  0.17770000000E+01 0. -1.
         15    1    1    2    0    0  0.18383916112E+02 -0.74382478645E+01  0.38614398322E+02  0.43445660194E+02  0.17770000000E+01 0.  1.
</event>
<event>
 6    1  0.1782050E-003  0.5014179E+03  0.7546771E-02  0.9396643E-01
        -11   -1    0    0    0    0  0.00000000000E+00  0.00000000000E+00  0.50000000000E+03  0.50000000000E+03  0.00000000000E+00 0.  1.
         11   -1    0    0    0    0 -0.00000000000E+00 -0.00000000000E+00 -0.50000000000E+03  0.50000000000E+03  0.00000000000E+00 0.  1.
        -11    1    1    2    0    0 -0.43219712144E+00  0.52953927367E+01  0.30357153436E+03  0.30361802393E+03  0.00000000000E+00 0.  1.
         11    1    1    2    0    0  0.20967452007E+02  0.86951745971E+01 -0.49806517521E+03  0.49858214856E+03  0.00000000000E+00 0.  1.
        -15    1    1    2    0    0 -0.13499402226E+02  0.30348767062E+01  0.43646908226E+02  0.45821988868E+02  0.17770000000E+01 0. -1.
         15    1    1    2    0    0 -0.70358526589E+01 -0.17025444040E+02  0.15084673262E+03  0.15197783864E+03  0.17770000000E+01 0.  1.
</event>
<event>
 6    1  0.1782050E-003  0.4995737E+03  0.7546771E-02  0.9400764E-01
        -11   -1    0    0    0    0  0.00000000000E+00  0.00000000000E+00  0.50000000000E+03  0.50000000000E+03  0.00000000000E+00 0. -1.
         11   -1    0    0    0    0 -0.00000000000E+00 -0.00000000000E+00 -0.50000000000E+03  0.50000000000E+03  0.00000000000E+00 0.  1.
        -11    1    1    2    0    0 -0.39953106598E-01 -0.42982271635E+01  0.12644954291E+01  0.44805470302E+01  0.00000000000E+00 0. -1.
         11    1    1    2    0    0  0.19530725606E+01  0.74300492716E+01 -0.49653408749E+03  0.49659351604E+03  0.00000000000E+00 0.  1.
        -15    1    1    2    0    0 -0.19609656884E+02 -0.81600921108E+01  0.44250261041E+03  0.44301562467E+03  0.17770000000E+01 0. -1.
         15    1    1    2    0    0  0.17696537430E+02  0.50282700027E+01  0.52766981652E+02  0.55910312268E+02  0.17770000000E+01 0.  1.
</event>
<event>
 6    1  0.1782050E-003  0.5021554E+03  0.7546771E-02  0.9395000E-01
        -11   -1    0    0    0    0  0.00000000000E+00  0.00000000000E+00  0.50000000000E+03  0.50000000000E+03  0.00000000000E+00 0.  1.
         11   -1    0    0    0    0 -0.00000000000E+00 -0.00000000000E+00 -0.50000000000E+03  0.50000000000E+03  0.00000000000E+00 0. -1.
        -11    1    1    2    0    0 -0.25703624355E+01 -0.43974455386E+01  0.30491428316E+02  0.30913936842E+02  0.00000000000E+00 0.  1.
         11    1    1    2    0    0  0.10801570931E+02  0.97751422584E+01 -0.49763139905E+03  0.49784459088E+03  0.00000000000E+00 0. -1.
        -15    1    1    2    0    0 -0.19570276582E+02 -0.11604367796E+02  0.65005586360E+02  0.68895145435E+02  0.17770000000E+01 0. -1.
         15    1    1    2    0    0  0.11339068086E+02  0.62266710757E+01  0.40213438438E+03  0.40234632685E+03  0.17770000000E+01 0.  1.
</event>
<event>
 6    1  0.1782050E-003  0.5064745E+03  0.7546771E-02  0.9385438E-01
        -11   -1    0    0    0    0  0.00000000000E+00  0.00000000000E+00  0.50000000000E+03  0.50000000000E+03  0.00000000000E+00 0.  1.
         11   -1    0    0    0    0 -0.00000000000E+00 -0.00000000000E+00 -0.50000000000E+03  0.50000000000E+03  0.00000000000E+00 0.  1.
        -11    1    1    2    0    0 -0.62731246039E+01 -0.50523868428E+01  0.49345981201E+03  0.49352554622E+03  0.00000000000E+00 0.  1.
         11    1    1    2    0    0 -0.19397965688E+01 -0.48176904738E+01 -0.38322659453E+03  0.38326178482E+03  0.00000000000E+00 0.  1.
        -15    1    1    2    0    0  0.10719610134E+02  0.76299857717E+01 -0.36866656968E+00  0.13282332941E+02  0.17770000000E+01 0. -1.
         15    1    1    2    0    0 -0.25066889615E+01  0.22400915449E+01 -0.10986455091E+03  0.10993033601E+03  0.17770000000E+01 0.  1.
</event>
<event>
 6    1  0.1782050E-003  0.5010678E+03  0.7546771E-02  0.9397424E-01
        -11   -1    0    0    0    0  0.00000000000E+00  0.00000000000E+00  0.50000000000E+03  0.50000000000E+03  0.00000000000E+00 0.  1.
         11   -1    0    0    0    0 -0.00000000000E+00 -0.00000000000E+00 -0.50000000000E+03  0.50000000000E+03  0.00000000000E+00 0. -1.
        -11    1    1    2    0    0 -0.15967006897E+01  0.23964915478E+00  0.48216441280E+02  0.48243466859E+02  0.00000000000E+00 0.  1.
         11    1    1    2    0    0 -0.14472966742E+02  0.11950750643E+02 -0.49857905848E+03  0.49893222461E+03  0.00000000000E+00 0. -1.
        -15    1    1    2    0    0  0.14840380543E+02  0.24108092920E+01  0.40139652562E+03  0.40168193562E+03  0.17770000000E+01 0.  1.
         15    1    1    2    0    0  0.12292868890E+01 -0.14601209089E+02  0.48966091580E+02  0.51142372909E+02  0.17770000000E+01 0. -1.
</event>
<event>
 6    1  0.1782050E-003  0.5037725E+03  0.7546771E-02  0.9391408E-01
        -11   -1    0    0    0    0  0.00000000000E+00  0.00000000000E+00  0.50000000000E+03  0.50000000000E+03  0.00000000000E+00 0.  1.
         11   -1    0    0    0    0 -0.00000000000E+00 -0.00000000000E+00 -0.50000000000E+03  0.50000000000E+03  0.00000000000E+00 0. -1.
        -11    1    1    2    0    0  0.52912193789E+01  0.74110047404E+01  0.49614396610E+03  0.49622752351E+03  0.00000000000E+00 0.  1.
         11    1    1    2    0    0  0.13612475450E+02 -0.30774348443E+00 -0.40866534919E+03  0.40889211514E+03  0.00000000000E+00 0. -1.
        -15    1    1    2    0    0  0.14130989005E+01 -0.26953531557E+01  0.12440184501E+01  0.37372567534E+01  0.17770000000E+01 0. -1.
         15    1    1    2    0    0 -0.20316793729E+02 -0.44079081002E+01 -0.88722635361E+02  0.91143104598E+02  0.17770000000E+01 0.  1.
</event>
<event>
 6    1  0.1782050E-003  0.5194887E+03  0.7546771E-02  0.9357228E-01
        -11   -1    0    0    0    0  0.00000000000E+00  0.00000000000E+00  0.50000000000E+03  0.50000000000E+03  0.00000000000E+00 0. -1.
         11   -1    0    0    0    0 -0.00000000000E+00 -0.00000000000E+00 -0.50000000000E+03  0.50000000000E+03  0.00000000000E+00 0. -1.
        -11    1    1    2    0    0 -0.23451484247E+02 -0.44487844928E+00  0.47993852181E+03  0.48051134716E+03  0.00000000000E+00 0. -1.
         11    1    1    2    0    0  0.20753848325E+02  0.33765730653E+02 -0.41532226485E+03  0.41720909681E+03  0.00000000000E+00 0. -1.
        -15    1    1    2    0    0 -0.23278896083E+02 -0.23925859466E+02 -0.66609573979E+02  0.74527490423E+02  0.17770000000E+01 0.  1.
         15    1    1    2    0    0  0.25976532004E+02 -0.93949927377E+01  0.19933170110E+01  0.27752065602E+02  0.17770000000E+01 0. -1.
</event>
<event>
 6    1  0.1782050E-003  0.5001378E+03  0.7546771E-02  0.9399501E-01
        -11   -1    0    0    0    0  0.00000000000E+00  0.00000000000E+00  0.50000000000E+03  0.50000000000E+03  0.00000000000E+00 0.  1.
         11   -1    0    0    0    0 -0.00000000000E+00 -0.00000000000E+00 -0.50000000000E+03  0.50000000000E+03  0.00000000000E+00 0. -1.
        -11    1    1    2    0    0  0.70723524573E+01 -0.12354686240E+02  0.49965946214E+03  0.49986221556E+03  0.00000000000E+00 0.  1.
         11    1    1    2    0    0  0.13876986858E+01  0.10746130647E+01 -0.61049089938E+02  0.61074314431E+02  0.00000000000E+00 0. -1.
        -15    1    1    2    0    0  0.20332135197E+01 -0.15250377332E+01 -0.93907138854E+02  0.93958332010E+02  0.17770000000E+01 0.  1.
         15    1    1    2    0    0 -0.10493264663E+02  0.12805110908E+02 -0.34470323334E+03  0.34510513800E+03  0.17770000000E+01 0. -1.
</event>
<event>
 6    1  0.1782050E-003  0.5047532E+03  0.7546771E-02  0.9389236E-01
        -11   -1    0    0    0    0  0.00000000000E+00  0.00000000000E+00  0.50000000000E+03  0.50000000000E+03  0.00000000000E+00 0. -1.
         11   -1    0    0    0    0 -0.00000000000E+00 -0.00000000000E+00 -0.50000000000E+03  0.50000000000E+03  0.00000000000E+00 0.  1.
        -11    1    1    2    0    0  0.10100506791E+02  0.11345180219E+02  0.49501379671E+03  0.49524679937E+03  0.00000000000E+00 0. -1.
         11    1    1    2    0    0 -0.71652660268E+01 -0.14121526557E+01 -0.48500278729E+03  0.48505776861E+03  0.00000000000E+00 0.  1.
        -15    1    1    2    0    0 -0.43390274372E+01 -0.11804337801E+01  0.14963648264E+01  0.50613653991E+01  0.17770000000E+01 0.  1.
         15    1    1    2    0    0  0.14037866726E+01 -0.87525937828E+01 -0.11507374242E+02  0.14634066622E+02  0.17770000000E+01 0. -1.
</event>
<event>
 6    1  0.1782050E-003  0.5218005E+03  0.7546771E-02  0.9352309E-01
        -11   -1    0    0    0    0  0.00000000000E+00  0.00000000000E+00  0.50000000000E+03  0.50000000000E+03  0.00000000000E+00 0.  1.
         11   -1    0    0    0    0 -0.00000000000E+00 -0.00000000000E+00 -0.50000000000E+03  0.50000000000E+03  0.00000000000E+00 0.  1.
        -11    1    1    2    0    0 -0.14768933221E+02  0.31974175045E+01  0.47796066835E+03  0.47819948281E+03  0.00000000000E+00 0.  1.
         11    1    1    2    0    0  0.13957622692E+02 -0.18003723303E+02 -0.42699240610E+03  0.42759965406E+03  0.00000000000E+00 0.  1.
        -15    1    1    2    0    0 -0.17525014693E+02  0.41908937047E+02 -0.36842976439E+02  0.58515363677E+02  0.17770000000E+01 0. -1.
         15    1    1    2    0    0  0.18336325222E+02 -0.27102631248E+02 -0.14125285816E+02  0.35685499458E+02  0.17770000000E+01 0.  1.
</event>
<event>
 6    1  0.1782050E-003  0.5005048E+03  0.7546771E-02  0.9398681E-01
        -11   -1    0    0    0    0  0.00000000000E+00  0.00000000000E+00  0.50000000000E+03  0.50000000000E+03  0.00000000000E+00 0. -1.
         11   -1    0    0    0    0 -0.00000000000E+00 -0.00000000000E+00 -0.50000000000E+03  0.50000000000E+03  0.00000000000E+00 0.  1.
        -11    1    1    2    0    0  0.23093395410E+01  0.94638736447E+00  0.55253280117E+02  0.55309616359E+02  0.00000000000E+00 0. -1.
         11    1    1    2    0    0  0.29590344371E+01  0.70418221676E+01 -0.49943683635E+03  0.49949524186E+03  0.00000000000E+00 0.  1.
        -15    1    1    2    0    0 -0.40860084746E+01  0.46639470225E+01  0.25110837276E+02  0.25926043755E+02  0.17770000000E+01 0.  1.
         15    1    1    2    0    0 -0.11823655035E+01 -0.12652156555E+02  0.41907271896E+03  0.41926909802E+03  0.17770000000E+01 0. -1.
</event>
<event>
 6    1  0.1974852E-003  0.5101654E+03  0.7546771E-02  0.9377347E-01
        -11   -1    0    0    0    0  0.00000000000E+00  0.00000000000E+00  0.50000000000E+03  0.50000000000E+03  0.00000000000E+00 0.  1.
         11   -1    0    0    0    0 -0.00000000000E+00 -0.00000000000E+00 -0.50000000000E+03  0.50000000000E+03  0.00000000000E+00 0. -1.
        -11    1    1    2    0    0 -0.29913504293E+00  0.35402950750E+01  0.21323403976E+03  0.21326363704E+03  0.00000000000E+00 0.  1.
         11    1    1    2    0    0 -0.90773913947E+01 -0.13535884235E+01 -0.48974858956E+03  0.48983457637E+03  0.00000000000E+00 0. -1.
        -15    1    1    2    0    0  0.30786868774E+01 -0.25714395016E+01  0.28563576825E+03  0.28566946012E+03  0.17770000000E+01 0. -1.
         15    1    1    2    0    0  0.62978395603E+01  0.38473285016E+00 -0.91212184581E+01  0.11232326458E+02  0.17770000000E+01 0.  1.
</event>
<event>
 6    1  0.1782050E-003  0.5024218E+03  0.7546771E-02  0.9394407E-01
        -11   -1    0    0    0    0  0.00000000000E+00  0.00000000000E+00  0.50000000000E+03  0.50000000000E+03  0.00000000000E+00 0.  1.
         11   -1    0    0    0    0 -0.00000000000E+00 -0.00000000000E+00 -0.50000000000E+03  0.50000000000E+03  0.00000000000E+00 0. -1.
        -11    1    1    2    0    0 -0.28188190542E+01  0.90392684515E+01  0.36267172479E+03  0.36279530603E+03  0.00000000000E+00 0.  1.
         11    1    1    2    0    0  0.12376925731E+02  0.67633711923E+01 -0.49737821165E+03  0.49757815156E+03  0.00000000000E+00 0. -1.
        -15    1    1    2    0    0  0.32024358624E+01 -0.71092262839E+01  0.11094815495E+03  0.11123599916E+03  0.17770000000E+01 0.  1.
         15    1    1    2    0    0 -0.12760542540E+02 -0.86934133599E+01  0.23758331909E+02  0.28390543247E+02  0.17770000000E+01 0. -1.
</event>
<event>
 6    1  0.1782050E-003  0.5135612E+03  0.7546771E-02  0.9369967E-01
        -11   -1    0    0    0    0  0.00000000000E+00  0.00000000000E+00  0.50000000000E+03  0.50000000000E+03  0.00000000000E+00 0. -1.
         11   -1    0    0    0    0 -0.00000000000E+00 -0.00000000000E+00 -0.50000000000E+03  0.50000000000E+03  0.00000000000E+00 0.  1.
        -11    1    1    2    0    0  0.35591870010E+02 -0.79711334545E+01  0.37908614137E+03  0.38083674030E+03  0.00000000000E+00 0. -1.
         11    1    1    2    0    0 -0.54769197537E+01  0.12034256183E+02 -0.48625911329E+03  0.48643884017E+03  0.00000000000E+00 0.  1.
        -15    1    1    2    0    0  0.11060786920E+01  0.12803801595E+02  0.93905988452E+02  0.94797959585E+02  0.17770000000E+01 0.  1.
         15    1    1    2    0    0 -0.31221028948E+02 -0.16866924324E+02  0.13266983465E+02  0.37926459945E+02  0.17770000000E+01 0. -1.
</event>
<event>
 6    1  0.1782050E-003  0.5160673E+03  0.7546771E-02  0.9364559E-01
        -11   -1    0    0    0    0  0.00000000000E+00  0.00000000000E+00  0.50000000000E+03  0.50000000000E+03  0.00000000000E+00 0.  1.
         11   -1    0    0    0    0 -0.00000000000E+00 -0.00000000000E+00 -0.50000000000E+03  0.50000000000E+03  0.00000000000E+00 0.  1.
        -11    1    1    2    0    0 -0.22691388895E+02  0.31366103964E+02  0.48238172524E+03  0.48393270240E+03  0.00000000000E+00 0.  1.
         11    1    1    2    0    0  0.30815288562E+02  0.12881326022E+02 -0.43767807661E+03  0.43895057730E+03  0.00000000000E+00 0.  1.
        -15    1    1    2    0    0 -0.18635062164E+02 -0.11477884841E+02 -0.34997881526E+02  0.41316060105E+02  0.17770000000E+01 0. -1.
         15    1    1    2    0    0  0.10511162498E+02 -0.32769545145E+02 -0.97057671081E+01  0.35800660193E+02  0.17770000000E+01 0.  1.
</event>
<event>
 6    1  0.1782050E-003  0.5004343E+03  0.7546771E-02  0.9398839E-01
        -11   -1    0    0    0    0  0.00000000000E+00  0.00000000000E+00  0.50000000000E+03  0.50000000000E+03  0.00000000000E+00 0. -1.
         11   -1    0    0    0    0 -0.00000000000E+00 -0.00000000000E+00 -0.50000000000E+03  0.50000000000E+03  0.00000000000E+00 0.  1.
        -11    1    1    2    0    0  0.27351929257E+01 -0.52809518068E+01  0.16934838527E+03  0.16945278200E+03  0.00000000000E+00 0. -1.
         11    1    1    2    0    0 -0.68262448443E+01 -0.17708420437E+02 -0.49920510464E+03  0.49956573368E+03  0.00000000000E+00 0.  1.
        -15    1    1    2    0    0 -0.28966958883E+01  0.69284624102E+01  0.52217031229E+02  0.52784188142E+02  0.17770000000E+01 0.  1.
         15    1    1    2    0    0  0.69877478069E+01  0.16060909834E+02  0.27763968814E+03  0.27819729618E+03  0.17770000000E+01 0. -1.
</event>
<event>
 6    1  0.1782050E-003  0.5040285E+03  0.7546771E-02  0.9390840E-01
        -11   -1    0    0    0    0  0.00000000000E+00  0.00000000000E+00  0.50000000000E+03  0.50000000000E+03  0.00000000000E+00 0. -1.
         11   -1    0    0    0    0 -0.00000000000E+00 -0.00000000000E+00 -0.50000000000E+03  0.50000000000E+03  0.00000000000E+00 0. -1.
        -11    1    1    2    0    0 -0.11234775009E+02 -0.18185636226E+01  0.49584088665E+03  0.49597148327E+03  0.00000000000E+00 0. -1.
         11    1    1    2    0    0  0.17764077089E+02  0.50635678492E+01 -0.47512557169E+03  0.47548450135E+03  0.00000000000E+00 0. -1.
        -15    1    1    2    0    0 -0.12632796982E+02 -0.33754959752E+01 -0.15179152899E+02  0.20113327532E+02  0.17770000000E+01 0.  1.
         15    1    1    2    0    0  0.61034949026E+01  0.13049174862E+00 -0.55361620643E+01  0.84306878441E+01  0.17770000000E+01 0. -1.
</event>
<event>
 6    1  0.1782050E-003  0.5053918E+03  0.7546771E-02  0.9387825E-01
        -11   -1    0    0    0    0  0.00000000000E+00  0.00000000000E+00  0.50000000000E+03  0.50000000000E+03  0.00000000000E+00 0. -1.
         11   -1    0    0    0    0 -0.00000000000E+00 -0.00000000000E+00 -0.50000000000E+03  0.50000000000E+03  0.00000000000E+00 0. -1.
        -11    1    1    2    0    0  0.50830009919E+01  0.11238175267E+02  0.49445439974E+03  0.49460821557E+03  0.00000000000E+00 0. -1.
         11    1    1    2    0    0 -0.59129241302E+01 -0.83702167600E+01 -0.39668271319E+03  0.39681506794E+03  0.00000000000E+00 0. -1.
        -15    1    1    2    0    0  0.28505803503E+01  0.17309218606E+00 -0.10237964809E+03  0.10243488586E+03  0.17770000000E+01 0. -1.
         15    1    1    2    0    0 -0.20206572120E+01 -0.30410506929E+01  0.46079615424E+01  0.61418306279E+01  0.17770000000E+01 0.  1.
</event>
<event>
 6    1  0.1782050E-003  0.4781562E+03  0.7546771E-02  0.9450059E-01
        -11   -1    0    0    0    0  0.00000000000E+00  0.00000000000E+00  0.50000000000E+03  0.50000000000E+03  0.00000000000E+00 0. -1.
         11   -1    0    0    0    0 -0.00000000000E+00 -0.00000000000E+00 -0.50000000000E+03  0.50000000000E+03  0.00000000000E+00 0.  1.
        -11    1    1    2    0    0  0.66884625402E+01 -0.26416333783E+02  0.48100607726E+03  0.48177733921E+03  0.00000000000E+00 0. -1.
         11    1    1    2    0    0  0.17757550534E+01  0.12944426238E+02 -0.47450964543E+03  0.47468949333E+03  0.00000000000E+00 0.  1.
        -15    1    1    2    0    0  0.31299669165E+01 -0.52035612001E+01 -0.17700139366E+02  0.18796978604E+02  0.17770000000E+01 0.  1.
         15    1    1    2    0    0 -0.11594184510E+02  0.18675468745E+02  0.11203707537E+02  0.24736188852E+02  0.17770000000E+01 0. -1.
</event>
<event>
 6    1  0.1782050E-003  0.5095721E+03  0.7546771E-02  0.9378642E-01
        -11   -1    0    0    0    0  0.00000000000E+00  0.00000000000E+00  0.50000000000E+03  0.50000000000E+03  0.00000000000E+00 0. -1.
         11   -1    0    0    0    0 -0.00000000000E+00 -0.00000000000E+00 -0.50000000000E+03  0.50000000000E+03  0.00000000000E+00 0. -1.
        -11    1    1    2    0    0  0.13049655950E+01 -0.13502099674E+02  0.47826860578E+03  0.47846093770E+03  0.00000000000E+00 0. -1.
         11    1    1    2    0    0  0.88971737239E+01  0.15229696369E+02 -0.49011058118E+03  0.49042785926E+03  0.00000000000E+00 0. -1.
        -15    1    1    2    0    0 -0.72196720332E+01 -0.13825752744E+02  0.37238434243E+01  0.16133810525E+02  0.17770000000E+01 0. -1.
         15    1    1    2    0    0 -0.29824672857E+01  0.12098156048E+02  0.81181319758E+01  0.14977392518E+02  0.17770000000E+01 0.  1.
</event>
<event>
 6    1  0.1782050E-003  0.4791651E+03  0.7546771E-02  0.9447675E-01
        -11   -1    0    0    0    0  0.00000000000E+00  0.00000000000E+00  0.50000000000E+03  0.50000000000E+03  0.00000000000E+00 0.  1.
         11   -1    0    0    0    0 -0.00000000000E+00 -0.00000000000E+00 -0.50000000000E+03  0.50000000000E+03  0.00000000000E+00 0. -1.
        -11    1    1    2    0    0  0.10377621148E+02  0.26255659755E+00  0.47379315132E+03  0.47390686237E+03  0.00000000000E+00 0.  1.
         11    1    1    2    0    0  0.81906642524E+01 -0.19537660695E+01 -0.48459237928E+03  0.48466553234E+03  0.00000000000E+00 0. -1.
        -15    1    1    2    0    0 -0.42963843859E+01  0.35611143482E+01 -0.12602114018E+02  0.13896454976E+02  0.17770000000E+01 0. -1.
         15    1    1    2    0    0 -0.14271901015E+02 -0.18699048763E+01  0.23401341971E+02  0.27531150318E+02  0.17770000000E+01 0.  1.
</event>
<event>
 6    1  0.1782050E-003  0.5010058E+03  0.7546771E-02  0.9397562E-01
        -11   -1    0    0    0    0  0.00000000000E+00  0.00000000000E+00  0.50000000000E+03  0.50000000000E+03  0.00000000000E+00 0. -1.
         11   -1    0    0    0    0 -0.00000000000E+00 -0.00000000000E+00 -0.50000000000E+03  0.50000000000E+03  0.00000000000E+00 0. -1.
        -11    1    1    2    0    0 -0.30489517830E+01  0.93903093609E+01  0.34771656181E+03  0.34785669661E+03  0.00000000000E+00 0. -1.
         11    1    1    2    0    0 -0.34155377796E+01 -0.11822789637E+02 -0.49884243991E+03  0.49899421250E+03  0.00000000000E+00 0. -1.
        -15    1    1    2    0    0  0.65283080498E+00 -0.10411925274E+02  0.67516833503E+02  0.68341165568E+02  0.17770000000E+01 0.  1.
         15    1    1    2    0    0  0.58116587576E+01  0.12844405550E+02  0.83609044591E+02  0.84807925325E+02  0.17770000000E+01 0. -1.
</event>
<event>
 6    1  0.1782050E-003  0.5081941E+03  0.7546771E-02  0.9381659E-01
        -11   -1    0    0    0    0  0.00000000000E+00  0.00000000000E+00  0.50000000000E+03  0.50000000000E+03  0.00000000000E+00 0. -1.
         11   -1    0    0    0    0 -0.00000000000E+00 -0.00000000000E+00 -0.50000000000E+03  0.50000000000E+03  0.00000000000E+00 0. -1.
        -11    1    1    2    0    0  0.19998250326E+01  0.75848796932E+01  0.49174337934E+03  0.49180593817E+03  0.00000000000E+00 0. -1.
         11    1    1    2    0    0  0.70116091739E+01  0.88942443037E+01 -0.46151066946E+03  0.46164961634E+03  0.00000000000E+00 0. -1.
        -15    1    1    2    0    0 -0.53094328527E+01 -0.16824151567E+02 -0.18087734829E+01  0.17823342663E+02  0.17770000000E+01 0.  1.
         15    1    1    2    0    0 -0.37020013538E+01  0.34502756977E+00 -0.28423936397E+02  0.28721102823E+02  0.17770000000E+01 0. -1.
</event>
<event>
 6    1  0.1782050E-003  0.5196786E+03  0.7546771E-02  0.9356823E-01
        -11   -1    0    0    0    0  0.00000000000E+00  0.00000000000E+00  0.50000000000E+03  0.50000000000E+03  0.00000000000E+00 0. -1.
         11   -1    0    0    0    0 -0.00000000000E+00 -0.00000000000E+00 -0.50000000000E+03  0.50000000000E+03  0.00000000000E+00 0.  1.
        -11    1    1    2    0    0  0.68770573469E-01  0.25245347558E+02  0.47965751383E+03  0.48032141621E+03  0.00000000000E+00 0. -1.
         11    1    1    2    0    0 -0.22410414040E+01 -0.54433550097E+01 -0.42631110303E+03  0.42635174322E+03  0.00000000000E+00 0.  1.
        -15    1    1    2    0    0 -0.10059952638E+01 -0.29686878609E+02  0.82153814444E+01  0.30870260920E+02  0.17770000000E+01 0.  1.
         15    1    1    2    0    0  0.31782660944E+01  0.98848860600E+01 -0.61561792246E+02  0.62456579648E+02  0.17770000000E+01 0.  1.
</event>
<event>
 6    1  0.1782050E-003  0.5088958E+03  0.7546771E-02  0.9380122E-01
        -11   -1    0    0    0    0  0.00000000000E+00  0.00000000000E+00  0.50000000000E+03  0.50000000000E+03  0.00000000000E+00 0. -1.
         11   -1    0    0    0    0 -0.00000000000E+00 -0.00000000000E+00 -0.50000000000E+03  0.50000000000E+03  0.00000000000E+00 0.  1.
        -11    1    1    2    0    0  0.10470002623E+02 -0.13688678498E+02  0.49080174082E+03  0.49110421467E+03  0.00000000000E+00 0. -1.
         11    1    1    2    0    0  0.19502364849E+02  0.12586240338E+02 -0.45615699328E+03  0.45674714909E+03  0.00000000000E+00 0.  1.
        -15    1    1    2    0    0 -0.31753804766E+02 -0.43696494158E+01 -0.24629693120E+02  0.40462049692E+02  0.17770000000E+01 0. -1.
         15    1    1    2    0    0  0.17814372934E+01  0.54720875761E+01 -0.10015054417E+02  0.11686586552E+02  0.17770000000E+01 0.  1.
</event>
<event>
 6    1  0.1782050E-003  0.5134292E+03  0.7546771E-02  0.9370252E-01
        -11   -1    0    0    0    0  0.00000000000E+00  0.00000000000E+00  0.50000000000E+03  0.50000000000E+03  0.00000000000E+00 0. -1.
         11   -1    0    0    0    0 -0.00000000000E+00 -0.00000000000E+00 -0.50000000000E+03  0.50000000000E+03  0.00000000000E+00 0. -1.
        -11    1    1    2    0    0 -0.61218084271E+01  0.78092357628E+01  0.42810883461E+03  0.42822381412E+03  0.00000000000E+00 0. -1.
         11    1    1    2    0    0  0.52428113526E+02 -0.66252666500E+01 -0.48369265457E+03  0.48657084307E+03  0.00000000000E+00 0. -1.
        -15    1    1    2    0    0 -0.51888663687E+02 -0.34821515174E+01  0.32666117934E+02  0.61439334211E+02  0.17770000000E+01 0.  1.
         15    1    1    2    0    0  0.55823585883E+01  0.22981824046E+01  0.22917702020E+02  0.23766008598E+02  0.17770000000E+01 0. -1.
</event>
<event>
 6    1  0.1782050E-003  0.5012506E+03  0.7546771E-02  0.9397016E-01
        -11   -1    0    0    0    0  0.00000000000E+00  0.00000000000E+00  0.50000000000E+03  0.50000000000E+03  0.00000000000E+00 0.  1.
         11   -1    0    0    0    0 -0.00000000000E+00 -0.00000000000E+00 -0.50000000000E+03  0.50000000000E+03  0.00000000000E+00 0. -1.
        -11    1    1    2    0    0 -0.61601801662E+01  0.24348491520E+01  0.18134021175E+03  0.18146114931E+03  0.00000000000E+00 0.  1.
         11    1    1    2    0    0  0.76477755576E+01 -0.78487807776E+00 -0.49869015690E+03  0.49874941313E+03  0.00000000000E+00 0. -1.
        -15    1    1    2    0    0  0.11185852379E+02  0.44552975867E+01  0.34492244213E+02  0.36576571871E+02  0.17770000000E+01 0. -1.
         15    1    1    2    0    0 -0.12673447771E+02 -0.61052686609E+01  0.28285770094E+03  0.28321286569E+03  0.17770000000E+01 0.  1.
</event>
<event>
 6    1  0.1782050E-003  0.5591196E+03  0.7546771E-02  0.9276450E-01
        -11   -1    0    0    0    0  0.00000000000E+00  0.00000000000E+00  0.50000000000E+03  0.50000000000E+03  0.00000000000E+00 0. -1.
         11   -1    0    0    0    0 -0.00000000000E+00 -0.00000000000E+00 -0.50000000000E+03  0.50000000000E+03  0.00000000000E+00 0.  1.
        -11    1    1    2    0    0 -0.41554131969E+01  0.45455710715E+01  0.35256994483E+03  0.35262373101E+03  0.00000000000E+00 0. -1.
         11    1    1    2    0    0 -0.80637709372E+01 -0.27060672279E+01 -0.44079831175E+03  0.44088036795E+03  0.00000000000E+00 0.  1.
        -15    1    1    2    0    0  0.12229566802E+00 -0.49944415694E+01  0.14663957653E+03  0.14673541678E+03  0.17770000000E+01 0. -1.
         15    1    1    2    0    0  0.12096888466E+02  0.31549377259E+01 -0.58411209609E+02  0.59760484265E+02  0.17770000000E+01 0.  1.
</event>
<event>
 6    1  0.1782050E-003  0.5009512E+03  0.7546771E-02  0.9397684E-01
        -11   -1    0    0    0    0  0.00000000000E+00  0.00000000000E+00  0.50000000000E+03  0.50000000000E+03  0.00000000000E+00 0. -1.
         11   -1    0    0    0    0 -0.00000000000E+00 -0.00000000000E+00 -0.50000000000E+03  0.50000000000E+03  0.00000000000E+00 0. -1.
        -11    1    1    2    0    0 -0.96373343215E+01 -0.55293663483E+01  0.49892506281E+03  0.49904876556E+03  0.00000000000E+00 0. -1.
         11    1    1    2    0    0  0.97513828669E+00 -0.76157422362E+01 -0.22043085225E+03  0.22056452808E+03  0.00000000000E+00 0. -1.
        -15    1    1    2    0    0  0.16224306128E+02  0.14432350430E+02 -0.14160909245E+03  0.14327530716E+03  0.17770000000E+01 0.  1.
         15    1    1    2    0    0 -0.75621100934E+01 -0.12872418452E+01 -0.13688511811E+03  0.13711139919E+03  0.17770000000E+01 0. -1.
</event>
<event>
 6    1  0.1782050E-003  0.5092583E+03  0.7546771E-02  0.9379329E-01
        -11   -1    0    0    0    0  0.00000000000E+00  0.00000000000E+00  0.50000000000E+03  0.50000000000E+03  0.00000000000E+00 0.  1.
         11   -1    0    0    0    0 -0.00000000000E+00 -0.00000000000E+00 -0.50000000000E+03  0.50000000000E+03  0.00000000000E+00 0. -1.
        -11    1    1    2    0    0 -0.36463641647E+01 -0.93541295213E+01  0.45777457740E+03  0.45788465734E+03  0.00000000000E+00 0.  1.
         11    1    1    2    0    0  0.32198438956E+01 -0.94152183244E+01 -0.49064081577E+03  0.49074170786E+03  0.00000000000E+00 0. -1.
        -15    1    1    2    0    0 -0.80997738313E+01  0.19305799574E+02  0.36343678105E+02  0.41980244169E+02  0.17770000000E+01 0.  1.
         15    1    1    2    0    0  0.85262941005E+01 -0.53645172818E+00 -0.34774397377E+01  0.93933906378E+01  0.17770000000E+01 0. -1.
</event>
<event>
 6    1  0.1782050E-003  0.5096785E+03  0.7546771E-02  0.9378410E-01
        -11   -1    0    0    0    0  0.00000000000E+00  0.00000000000E+00  0.50000000000E+03  0.50000000000E+03  0.00000000000E+00 0. -1.
         11   -1    0    0    0    0 -0.00000000000E+00 -0.00000000000E+00 -0.50000000000E+03  0.50000000000E+03  0.00000000000E+00 0.  1.
        -11    1    1    2    0    0  0.16605391950E+02  0.22344309608E+01  0.49003509704E+03  0.49032145380E+03  0.00000000000E+00 0. -1.
         11    1    1    2    0    0  0.22491670954E+01 -0.36746358549E+01 -0.29797759614E+03  0.29800874065E+03  0.00000000000E+00 0.  1.
        -15    1    1    2    0    0 -0.26437133878E+02  0.27811602804E+01 -0.85333275218E+01  0.27975566264E+02  0.17770000000E+01 0. -1.
         15    1    1    2    0    0  0.75825748324E+01 -0.13409553863E+01 -0.18352417338E+03  0.18369423929E+03  0.17770000000E+01 0.  1.
</event>
<event>
 6    1  0.1782050E-003  0.5004836E+03  0.7546771E-02  0.9398728E-01
        -11   -1    0    0    0    0  0.00000000000E+00  0.00000000000E+00  0.50000000000E+03  0.50000000000E+03  0.00000000000E+00 0.  1.
         11   -1    0    0    0    0 -0.00000000000E+00 -0.00000000000E+00 -0.50000000000E+03  0.50000000000E+03  0.00000000000E+00 0.  1.
        -11    1    1    2    0    0  0.14635184913E+01 -0.15166273319E+01  0.78435330731E+02  0.78463642229E+02  0.00000000000E+00 0.  1.
         11    1    1    2    0    0  0.56512740586E+01 -0.91214482854E+01 -0.49940112353E+03  0.49951638602E+03  0.00000000000E+00 0.  1.
        -15    1    1    2    0    0 -0.89150751575E+01  0.60037060850E+01  0.57910075191E+02  0.58925865199E+02  0.17770000000E+01 0.  1.
         15    1    1    2    0    0  0.18002826075E+01  0.46343695322E+01  0.36305571761E+03  0.36309410655E+03  0.17770000000E+01 0.  1.
</event>
<event>
 6    1  0.1782050E-003  0.5000684E+03  0.7546771E-02  0.9399657E-01
        -11   -1    0    0    0    0  0.00000000000E+00  0.00000000000E+00  0.50000000000E+03  0.50000000000E+03  0.00000000000E+00 0. -1.
         11   -1    0    0    0    0 -0.00000000000E+00 -0.00000000000E+00 -0.50000000000E+03  0.50000000000E+03  0.00000000000E+00 0.  1.
        -11    1    1    2    0    0  0.40589141247E+00  0.76510836173E+01  0.49987290076E+03  0.49993161607E+03  0.00000000000E+00 0. -1.
         11    1    1    2    0    0  0.17251720699E+01  0.77584745790E-01 -0.56165868242E+02  0.56192410461E+02  0.00000000000E+00 0.  1.
        -15    1    1    2    0    0 -0.36278471854E+01 -0.86218656222E+00 -0.24862125861E+03  0.24865557023E+03  0.17770000000E+01 0.  1.
         15    1    1    2    0    0  0.14967837030E+01 -0.68664818009E+01 -0.19508577391E+03  0.19522040324E+03  0.17770000000E+01 0. -1.
</event>
<event>
 6    1  0.1782050E-003  0.5048495E+03  0.7546771E-02  0.9389024E-01
        -11   -1    0    0    0    0  0.00000000000E+00  0.00000000000E+00  0.50000000000E+03  0.50000000000E+03  0.00000000000E+00 0.  1.
         11   -1    0    0    0    0 -0.00000000000E+00 -0.00000000000E+00 -0.50000000000E+03  0.50000000000E+03  0.00000000000E+00 0.  1.
        -11    1    1    2    0    0 -0.20227307178E+02  0.19521837839E+01  0.49473335158E+03  0.49515052675E+03  0.00000000000E+00 0.  1.
         11    1    1    2    0    0 -0.10923114872E+02  0.25511858369E+01 -0.39389019011E+03  0.39404987610E+03  0.00000000000E+00 0.  1.
        -15    1    1    2    0    0  0.15508045323E+01  0.48734176372E+01 -0.55804977575E+02  0.56066999610E+02  0.17770000000E+01 0.  1.
         15    1    1    2    0    0  0.29599617517E+02 -0.93767872580E+01 -0.45038183890E+02  0.54732597541E+02  0.17770000000E+01 0. -1.
</event>
<event>
 6    1  0.1782050E-003  0.5063805E+03  0.7546771E-02  0.9385645E-01
        -11   -1    0    0    0    0  0.00000000000E+00  0.00000000000E+00  0.50000000000E+03  0.50000000000E+03  0.00000000000E+00 0.  1.
         11   -1    0    0    0    0 -0.00000000000E+00 -0.00000000000E+00 -0.50000000000E+03  0.50000000000E+03  0.00000000000E+00 0. -1.
        -11    1    1    2    0    0  0.13971747916E+02 -0.47771622181E+01  0.43944984691E+03  0.43969784962E+03  0.00000000000E+00 0.  1.
         11    1    1    2    0    0  0.42850541961E+01 -0.56880825317E+01 -0.49356815352E+03  0.49361952771E+03  0.00000000000E+00 0. -1.
        -15    1    1    2    0    0 -0.77108104576E+01 -0.10646311593E+02  0.99796616774E+01  0.16599756765E+02  0.17770000000E+01 0.  1.
         15    1    1    2    0    0 -0.10545991655E+02  0.21111556343E+02  0.44138644934E+02  0.50082865900E+02  0.17770000000E+01 0. -1.
</event>
<event>
 6    1  0.1782050E-003  0.5009109E+03  0.7546771E-02  0.9397774E-01
        -11   -1    0    0    0    0  0.00000000000E+00  0.00000000000E+00  0.50000000000E+03  0.50000000000E+03  0.00000000000E+00 0. -1.
         11   -1    0    0    0    0 -0.00000000000E+00 -0.00000000000E+00 -0.50000000000E+03  0.50000000000E+03  0.00000000000E+00 0.  1.
        -11    1    1    2    0    0  0.12494322462E+02 -0.42619852961E+00  0.36238353614E+03  0.36259911335E+03  0.00000000000E+00 0. -1.
         11    1    1    2    0    0  0.65195719750E+01 -0.38985433330E+01 -0.49903129611E+03  0.49908910823E+03  0.00000000000E+00 0.  1.
        -15    1    1    2    0    0 -0.11401038965E+02  0.51779692193E+01  0.63850973532E+02  0.65091471060E+02  0.17770000000E+01 0. -1.
         15    1    1    2    0    0 -0.76128554728E+01 -0.85322735665E+00  0.72796786435E+02  0.73220307358E+02  0.17770000000E+01 0.  1.
</event>
<event>
 6    1  0.1782050E-003  0.4534766E+03  0.7546771E-02  0.9510384E-01
        -11   -1    0    0    0    0  0.00000000000E+00  0.00000000000E+00  0.50000000000E+03  0.50000000000E+03  0.00000000000E+00 0. -1.
         11   -1    0    0    0    0 -0.00000000000E+00 -0.00000000000E+00 -0.50000000000E+03  0.50000000000E+03  0.00000000000E+00 0. -1.
        -11    1    1    2    0    0  0.14041141301E+01 -0.22332947421E+01  0.96904529222E+01  0.10043108071E+02  0.00000000000E+00 0. -1.
         11    1    1    2    0    0  0.84967994801E+01  0.57034511521E+01 -0.46020536498E+03  0.46031913159E+03  0.00000000000E+00 0. -1.
        -15    1    1    2    0    0  0.21208366824E+02 -0.75967942730E+02  0.70504075487E+01  0.79207254223E+02  0.17770000000E+01 0.  1.
         15    1    1    2    0    0 -0.31109280434E+02  0.72497786320E+02  0.44346450451E+03  0.45043050611E+03  0.17770000000E+01 0. -1.
</event>
<event>
 6    1  0.1782050E-003  0.5518696E+03  0.7546771E-02  0.9290686E-01
        -11   -1    0    0    0    0  0.00000000000E+00  0.00000000000E+00  0.50000000000E+03  0.50000000000E+03  0.00000000000E+00 0.  1.
         11   -1    0    0    0    0 -0.00000000000E+00 -0.00000000000E+00 -0.50000000000E+03  0.50000000000E+03  0.00000000000E+00 0.  1.
        -11    1    1    2    0    0  0.10838778662E+02 -0.16684282332E+02  0.44768854937E+03  0.44813042927E+03  0.00000000000E+00 0.  1.
         11    1    1    2    0    0 -0.15522942203E+02  0.24601420712E+02 -0.41938150451E+03  0.42038915062E+03  0.00000000000E+00 0.  1.
        -15    1    1    2    0    0  0.18667189810E+02  0.22987600301E+00  0.49006130787E+02  0.52471662849E+02  0.17770000000E+01 0. -1.
         15    1    1    2    0    0 -0.13983026269E+02 -0.81470143831E+01 -0.77313175644E+02  0.79008757262E+02  0.17770000000E+01 0.  1.
</event>
<event>
 6    1  0.1782050E-003  0.5018358E+03  0.7546771E-02  0.9395711E-01
        -11   -1    0    0    0    0  0.00000000000E+00  0.00000000000E+00  0.50000000000E+03  0.50000000000E+03  0.00000000000E+00 0. -1.
         11   -1    0    0    0    0 -0.00000000000E+00 -0.00000000000E+00 -0.50000000000E+03  0.50000000000E+03  0.00000000000E+00 0.  1.
        -11    1    1    2    0    0 -0.75697750826E+01 -0.68936387800E+00  0.49810621033E+03  0.49816420333E+03  0.00000000000E+00 0. -1.
         11    1    1    2    0    0 -0.73059356576E+01  0.81988577857E+00 -0.34706318717E+03  0.34714104453E+03  0.00000000000E+00 0.  1.
        -15    1    1    2    0    0  0.14627226054E+02 -0.50011813422E+01 -0.32446857647E+02  0.35985050466E+02  0.17770000000E+01 0.  1.
         15    1    1    2    0    0  0.24848468568E+00  0.48706594416E+01 -0.11859616551E+03  0.11870970167E+03  0.17770000000E+01 0. -1.
</event>
<event>
 6    1  0.1782050E-003  0.4131732E+03  0.7546771E-02  0.9618259E-01
        -11   -1    0    0    0    0  0.00000000000E+00  0.00000000000E+00  0.50000000000E+03  0.50000000000E+03  0.00000000000E+00 0.  1.
         11   -1    0    0    0    0 -0.00000000000E+00 -0.00000000000E+00 -0.50000000000E+03  0.50000000000E+03  0.00000000000E+00 0. -1.
        -11    1    1    2    0    0  0.94674999285E+01  0.62787857131E+02  0.41259611664E+03  0.41745359505E+03  0.00000000000E+00 0.  1.
         11    1    1    2    0    0  0.44348063940E+01 -0.50761389633E+01 -0.41096856699E+03  0.41102384085E+03  0.00000000000E+00 0. -1.
        -15    1    1    2    0    0 -0.20535155326E+02 -0.67052757915E+02  0.69918663039E+02  0.99043132616E+02  0.17770000000E+01 0.  1.
         15    1    1    2    0    0  0.66328490036E+01  0.93410397474E+01 -0.71546212681E+02  0.72479431479E+02  0.17770000000E+01 0. -1.
</event>
<event>
 6    1  0.1782050E-003  0.5301797E+03  0.7546771E-02  0.9334702E-01
        -11   -1    0    0    0    0  0.00000000000E+00  0.00000000000E+00  0.50000000000E+03  0.50000000000E+03  0.00000000000E+00 0.  1.
         11   -1    0    0    0    0 -0.00000000000E+00 -0.00000000000E+00 -0.50000000000E+03  0.50000000000E+03  0.00000000000E+00 0. -1.
        -11    1    1    2    0    0 -0.16850048563E+02  0.47140096724E+00  0.46951777523E+03  0.46982027161E+03  0.00000000000E+00 0.  1.
         11    1    1    2    0    0  0.11807606801E+01 -0.92075585708E+01 -0.45575847109E+03  0.45585299967E+03  0.00000000000E+00 0. -1.
        -15    1    1    2    0    0  0.99054829255E+01  0.39624306721E+01  0.28963488230E+02  0.30916999018E+02  0.17770000000E+01 0. -1.
         15    1    1    2    0    0  0.57638049572E+01  0.47737269315E+01 -0.42722792369E+02  0.43409729706E+02  0.17770000000E+01 0. -1.
</event>
<event>
 6    1  0.1782050E-003  0.5116492E+03  0.7546771E-02  0.9374115E-01
        -11   -1    0    0    0    0  0.00000000000E+00  0.00000000000E+00  0.50000000000E+03  0.50000000000E+03  0.00000000000E+00 0. -1.
         11   -1    0    0    0    0 -0.00000000000E+00 -0.00000000000E+00 -0.50000000000E+03  0.50000000000E+03  0.00000000000E+00 0. -1.
        -11    1    1    2    0    0  0.12568147042E+02 -0.65756826891E+01  0.48814480776E+03  0.48835084854E+03  0.00000000000E+00 0. -1.
         11    1    1    2    0    0 -0.10517225075E+01  0.79490220370E+01 -0.45774971263E+03  0.45781993457E+03  0.00000000000E+00 0. -1.
        -15    1    1    2    0    0 -0.59241328408E+01  0.21295407858E+01  0.10497932786E+02  0.12369099226E+02  0.17770000000E+01 0.  1.
         15    1    1    2    0    0 -0.55922916941E+01 -0.35028801337E+01 -0.40893027916E+02  0.41460117665E+02  0.17770000000E+01 0. -1.
</event>
<event>
 6    1  0.1782050E-003  0.5052609E+03  0.7546771E-02  0.9388114E-01
        -11   -1    0    0    0    0  0.00000000000E+00  0.00000000000E+00  0.50000000000E+03  0.50000000000E+03  0.00000000000E+00 0. -1.
         11   -1    0    0    0    0 -0.00000000000E+00 -0.00000000000E+00 -0.50000000000E+03  0.50000000000E+03  0.00000000000E+00 0. -1.
        -11    1    1    2    0    0 -0.38464739259E+01 -0.15842969950E+02  0.49447036840E+03  0.49473906283E+03  0.00000000000E+00 0. -1.
         11    1    1    2    0    0 -0.51630505418E+01 -0.10308669852E+02 -0.37666588981E+03  0.37684229900E+03  0.00000000000E+00 0. -1.
        -15    1    1    2    0    0 -0.72958245963E+01  0.50039078193E+01 -0.87598755601E+02  0.88062295347E+02  0.17770000000E+01 0. -1.
         15    1    1    2    0    0  0.16305349064E+02  0.21147731982E+02 -0.30205722990E+02  0.40356342828E+02  0.17770000000E+01 0.  1.
</event>
<event>
 6    1  0.1782050E-003  0.5002863E+03  0.7546771E-02  0.9399169E-01
        -11   -1    0    0    0    0  0.00000000000E+00  0.00000000000E+00  0.50000000000E+03  0.50000000000E+03  0.00000000000E+00 0.  1.
         11   -1    0    0    0    0 -0.00000000000E+00 -0.00000000000E+00 -0.50000000000E+03  0.50000000000E+03  0.00000000000E+00 0.  1.
        -11    1    1    2    0    0  0.31145522376E+01 -0.55160256693E+00  0.11810581944E+03  0.11814816667E+03  0.00000000000E+00 0.  1.
         11    1    1    2    0    0 -0.65025195772E+00  0.94251533015E+01 -0.49962438619E+03  0.49971370165E+03  0.00000000000E+00 0.  1.
        -15    1    1    2    0    0  0.14000625243E+01 -0.12197876592E+02  0.13714973988E+03  0.13770968465E+03  0.17770000000E+01 0.  1.
         15    1    1    2    0    0 -0.38643628042E+01  0.33243258577E+01  0.24436882687E+03  0.24442844703E+03  0.17770000000E+01 0. -1.
</event>
<event>
 6    1  0.1782050E-003  0.4804514E+03  0.7546771E-02  0.9444646E-01
        -11   -1    0    0    0    0  0.00000000000E+00  0.00000000000E+00  0.50000000000E+03  0.50000000000E+03  0.00000000000E+00 0.  1.
         11   -1    0    0    0    0 -0.00000000000E+00 -0.00000000000E+00 -0.50000000000E+03  0.50000000000E+03  0.00000000000E+00 0.  1.
        -11    1    1    2    0    0  0.54633753362E+01  0.59503114372E+01  0.48689659885E+03  0.48696360505E+03  0.00000000000E+00 0.  1.
         11    1    1    2    0    0  0.98408534627E+01  0.86807488661E+01 -0.47407629950E+03  0.47425787874E+03  0.00000000000E+00 0.  1.
        -15    1    1    2    0    0 -0.15764124351E+02 -0.14413904913E+02 -0.21229750482E+02  0.30168332834E+02  0.17770000000E+01 0.  1.
         15    1    1    2    0    0  0.45989555229E+00 -0.21715538983E+00  0.84094511371E+01  0.86101833784E+01  0.17770000000E+01 0. -1.
</event>
<event>
 6    1  0.1782050E-003  0.5000695E+03  0.7546771E-02  0.9399654E-01
        -11   -1    0    0    0    0  0.00000000000E+00  0.00000000000E+00  0.50000000000E+03  0.50000000000E+03  0.00000000000E+00 0.  1.
         11   -1    0    0    0    0 -0.00000000000E+00 -0.00000000000E+00 -0.50000000000E+03  0.50000000000E+03  0.00000000000E+00 0.  1.
        -11    1    1    2    0    0 -0.66202299688E+01  0.49004208059E+01  0.49986263721E+03  0.49993049282E+03  0.00000000000E+00 0.  1.
         11    1    1    2    0    0 -0.56194092747E+00  0.17833522349E+01 -0.46506857798E+02  0.46544429797E+02  0.00000000000E+00 0.  1.
        -15    1    1    2    0    0  0.17982731725E+01 -0.21811794601E+01 -0.53690631147E+02  0.53794357810E+02  0.17770000000E+01 0. -1.
         15    1    1    2    0    0  0.53838977237E+01 -0.45025935807E+01 -0.39966514827E+03  0.39973071958E+03  0.17770000000E+01 0.  1.
</event>
<event>
 6    1  0.1782050E-003  0.5013651E+03  0.7546771E-02  0.9396760E-01
        -11   -1    0    0    0    0  0.00000000000E+00  0.00000000000E+00  0.50000000000E+03  0.50000000000E+03  0.00000000000E+00 0.  1.
         11   -1    0    0    0    0 -0.00000000000E+00 -0.00000000000E+00 -0.50000000000E+03  0.50000000000E+03  0.00000000000E+00 0. -1.
        -11    1    1    2    0    0  0.31494332803E+01 -0.13350774105E+02  0.49844618200E+03  0.49863489494E+03  0.00000000000E+00 0.  1.
         11    1    1    2    0    0  0.37216007695E+01 -0.72642036864E+01 -0.29620873610E+03  0.29632116750E+03  0.00000000000E+00 0. -1.
        -15    1    1    2    0    0 -0.32505617561E+01  0.98506547632E+01 -0.17699223438E+03  0.17730485134E+03  0.17770000000E+01 0. -1.
         15    1    1    2    0    0 -0.36204722937E+01  0.10764323028E+02 -0.25245211529E+02  0.27739086215E+02  0.17770000000E+01 0.  1.
</event>
<event>
 6    1  0.1782050E-003  0.5061943E+03  0.7546771E-02  0.9386055E-01
        -11   -1    0    0    0    0  0.00000000000E+00  0.00000000000E+00  0.50000000000E+03  0.50000000000E+03  0.00000000000E+00 0.  1.
         11   -1    0    0    0    0 -0.00000000000E+00 -0.00000000000E+00 -0.50000000000E+03  0.50000000000E+03  0.00000000000E+00 0. -1.
        -11    1    1    2    0    0 -0.27120897779E+01  0.27832677275E+01  0.19367390543E+03  0.19371288974E+03  0.00000000000E+00 0.  1.
         11    1    1    2    0    0  0.30653730852E+01 -0.92898511269E+01 -0.49370882680E+03  0.49380573459E+03  0.00000000000E+00 0. -1.
        -15    1    1    2    0    0 -0.80304265266E+01  0.14722238553E+02  0.55167672665E+01  0.17743294741E+02  0.17770000000E+01 0. -1.
         15    1    1    2    0    0  0.76771432193E+01 -0.82156551535E+01  0.29451815411E+03  0.29473808093E+03  0.17770000000E+01 0.  1.
</event>
<event>
 6    1  0.1782050E-003  0.5363751E+03  0.7546771E-02  0.9321905E-01
        -11   -1    0    0    0    0  0.00000000000E+00  0.00000000000E+00  0.50000000000E+03  0.50000000000E+03  0.00000000000E+00 0. -1.
         11   -1    0    0    0    0 -0.00000000000E+00 -0.00000000000E+00 -0.50000000000E+03  0.50000000000E+03  0.00000000000E+00 0. -1.
        -11    1    1    2    0    0  0.61157297283E+01  0.24680419734E+01  0.46357800623E+03  0.46362491439E+03  0.00000000000E+00 0. -1.
         11    1    1    2    0    0  0.22657899725E+01  0.12020379271E+02 -0.34823523500E+03  0.34844999959E+03  0.00000000000E+00 0. -1.
        -15    1    1    2    0    0  0.11207386865E+02  0.29382062890E+02 -0.13302155714E+03  0.13669968374E+03  0.17770000000E+01 0. -1.
         15    1    1    2    0    0 -0.19588906566E+02 -0.43870484134E+02  0.17678785912E+02  0.51225402282E+02  0.17770000000E+01 0.  1.
</event>
<event>
 6    1  0.1782050E-003  0.5021743E+03  0.7546771E-02  0.9394958E-01
        -11   -1    0    0    0    0  0.00000000000E+00  0.00000000000E+00  0.50000000000E+03  0.50000000000E+03  0.00000000000E+00 0.  1.
         11   -1    0    0    0    0 -0.00000000000E+00 -0.00000000000E+00 -0.50000000000E+03  0.50000000000E+03  0.00000000000E+00 0. -1.
        -11    1    1    2    0    0 -0.12404773309E+02  0.61231121388E+01  0.37563694298E+03  0.37589158521E+03  0.00000000000E+00 0.  1.
         11    1    1    2    0    0  0.13075586605E+02  0.57342243272E+01 -0.49762087779E+03  0.49782566256E+03  0.00000000000E+00 0. -1.
        -15    1    1    2    0    0 -0.80453620914E+01 -0.14894726455E+02  0.11242967245E+03  0.11371090407E+03  0.17770000000E+01 0.  1.
         15    1    1    2    0    0  0.73745487946E+01  0.30373899894E+01  0.95542623598E+01  0.12571848158E+02  0.17770000000E+01 0. -1.
</event>
<event>
 6    1  0.1782050E-003  0.5045000E+03  0.7546771E-02  0.9389796E-01
        -11   -1    0    0    0    0  0.00000000000E+00  0.00000000000E+00  0.50000000000E+03  0.50000000000E+03  0.00000000000E+00 0. -1.
         11   -1    0    0    0    0 -0.00000000000E+00 -0.00000000000E+00 -0.50000000000E+03  0.50000000000E+03  0.00000000000E+00 0.  1.
        -11    1    1    2    0    0 -0.12291383011E+02 -0.11073513656E+02  0.49522370686E+03  0.49549997037E+03  0.00000000000E+00 0. -1.
         11    1    1    2    0    0 -0.10670352422E+02  0.12696294837E+01 -0.42031916006E+03  0.42045649560E+03  0.00000000000E+00 0.  1.
        -15    1    1    2    0    0  0.18777670071E+02  0.10434952819E+02 -0.21509747960E+02  0.30451865623E+02  0.17770000000E+01 0.  1.
         15    1    1    2    0    0  0.41840653615E+01 -0.63106864720E+00 -0.53394798838E+02  0.53591668406E+02  0.17770000000E+01 0. -1.
</event>
<event>
 6    1  0.1782050E-003  0.5081040E+03  0.7546771E-02  0.9381857E-01
        -11   -1    0    0    0    0  0.00000000000E+00  0.00000000000E+00  0.50000000000E+03  0.50000000000E+03  0.00000000000E+00 0. -1.
         11   -1    0    0    0    0 -0.00000000000E+00 -0.00000000000E+00 -0.50000000000E+03  0.50000000000E+03  0.00000000000E+00 0. -1.
        -11    1    1    2    0    0  0.10529604964E+02 -0.27775692735E+02  0.49099823940E+03  0.49189595728E+03  0.00000000000E+00 0. -1.
         11    1    1    2    0    0  0.69192818341E+01  0.97697387522E+01 -0.37402411923E+03  0.37421566780E+03  0.00000000000E+00 0. -1.
        -15    1    1    2    0    0 -0.85164721155E+01  0.27292099172E+01 -0.11569844013E+03  0.11605716549E+03  0.17770000000E+01 0.  1.
         15    1    1    2    0    0 -0.89324146830E+01  0.15276744065E+02 -0.12756800397E+01  0.17831209434E+02  0.17770000000E+01 0. -1.
</event>
<event>
 6    1  0.1782050E-003  0.5005878E+03  0.7546771E-02  0.9398495E-01
        -11   -1    0    0    0    0  0.00000000000E+00  0.00000000000E+00  0.50000000000E+03  0.50000000000E+03  0.00000000000E+00 0. -1.
         11   -1    0    0    0    0 -0.00000000000E+00 -0.00000000000E+00 -0.50000000000E+03  0.50000000000E+03  0.00000000000E+00 0.  1.
        -11    1    1    2    0    0 -0.20199150087E+00  0.83867005803E+00  0.29883869401E+02  0.29896317807E+02  0.00000000000E+00 0. -1.
         11    1    1    2    0    0  0.74641703187E+01  0.54016282719E+00 -0.49935610870E+03  0.49941218339E+03  0.00000000000E+00 0.  1.
        -15    1    1    2    0    0 -0.98251609409E+01  0.81542369230E+01  0.75575051956E+02  0.76666626211E+02  0.17770000000E+01 0.  1.
         15    1    1    2    0    0  0.25629821232E+01 -0.95330698082E+01  0.39389718735E+03  0.39402487260E+03  0.17770000000E+01 0. -1.
</event>
<event>
 6    1  0.1782050E-003  0.5005073E+03  0.7546771E-02  0.9398675E-01
        -11   -1    0    0    0    0  0.00000000000E+00  0.00000000000E+00  0.50000000000E+03  0.50000000000E+03  0.00000000000E+00 0. -1.
         11   -1    0    0    0    0 -0.00000000000E+00 -0.00000000000E+00 -0.50000000000E+03  0.50000000000E+03  0.00000000000E+00 0.  1.
        -11    1    1    2    0    0 -0.37756348506E+01 -0.74388676217E+01  0.49942305609E+03  0.49949272380E+03  0.00000000000E+00 0. -1.
         11    1    1    2    0    0  0.71193062975E+00  0.27508493730E+01 -0.19618105387E+03  0.19620163077E+03  0.00000000000E+00 0.  1.
        -15    1    1    2    0    0  0.60890612965E+01  0.43152416490E+01 -0.29727159959E+03  0.29737057627E+03  0.17770000000E+01 0.  1.
         15    1    1    2    0    0 -0.30253570756E+01  0.37277659971E+00 -0.59704026275E+01  0.69350691678E+01  0.17770000000E+01 0. -1.
</event>
<event>
 6    1  0.1782050E-003  0.5004744E+03  0.7546771E-02  0.9398749E-01
        -11   -1    0    0    0    0  0.00000000000E+00  0.00000000000E+00  0.50000000000E+03  0.50000000000E+03  0.00000000000E+00 0.  1.
         11   -1    0    0    0    0 -0.00000000000E+00 -0.00000000000E+00 -0.50000000000E+03  0.50000000000E+03  0.00000000000E+00 0. -1.
        -11    1    1    2    0    0  0.95085878407E+00 -0.45385523404E+01  0.23748894558E+03  0.23753421199E+03  0.00000000000E+00 0.  1.
         11    1    1    2    0    0 -0.32996755181E+01 -0.75855946981E+01 -0.49945710468E+03  0.49952560347E+03  0.00000000000E+00 0. -1.
        -15    1    1    2    0    0  0.35299007463E+01 -0.25181542649E+01  0.13990046484E+03  0.13997892375E+03  0.17770000000E+01 0. -1.
         15    1    1    2    0    0 -0.11810840123E+01  0.14642301303E+02  0.12206769425E+03  0.12296126080E+03  0.17770000000E+01 0.  1.
</event>
<event>
 6    1  0.1782050E-003  0.5072005E+03  0.7546771E-02  0.9383841E-01
        -11   -1    0    0    0    0  0.00000000000E+00  0.00000000000E+00  0.50000000000E+03  0.50000000000E+03  0.00000000000E+00 0.  1.
         11   -1    0    0    0    0 -0.00000000000E+00 -0.00000000000E+00 -0.50000000000E+03  0.50000000000E+03  0.00000000000E+00 0.  1.
        -11    1    1    2    0    0 -0.10641699110E+02  0.16943271618E+02  0.49239311298E+03  0.49279945000E+03  0.00000000000E+00 0.  1.
         11    1    1    2    0    0  0.69558042219E+01  0.13425674927E+02 -0.45451499838E+03  0.45476644084E+03  0.00000000000E+00 0.  1.
        -15    1    1    2    0    0 -0.18680668260E+01 -0.20219661488E+02 -0.34801255481E+02  0.40331247146E+02  0.17770000000E+01 0.  1.
         15    1    1    2    0    0  0.55539617143E+01 -0.10149285057E+02 -0.30768591142E+01  0.12102862013E+02  0.17770000000E+01 0. -1.
</event>
<event>
 6    1  0.1782050E-003  0.5578920E+03  0.7546771E-02  0.9278844E-01
        -11   -1    0    0    0    0  0.00000000000E+00  0.00000000000E+00  0.50000000000E+03  0.50000000000E+03  0.00000000000E+00 0. -1.
         11   -1    0    0    0    0 -0.00000000000E+00 -0.00000000000E+00 -0.50000000000E+03  0.50000000000E+03  0.00000000000E+00 0.  1.
        -11    1    1    2    0    0  0.87245798519E+01 -0.15348758399E+01  0.44201923730E+03  0.44210799617E+03  0.00000000000E+00 0. -1.
         11    1    1    2    0    0 -0.28153429369E+01 -0.11197296122E+03 -0.28215309354E+03  0.30357245987E+03  0.00000000000E+00 0.  1.
        -15    1    1    2    0    0 -0.85139611386E+01  0.50964869894E+02  0.26226222818E+02  0.57973079872E+02  0.17770000000E+01 0. -1.
         15    1    1    2    0    0  0.26047242236E+01  0.62542967167E+02 -0.18609236658E+03  0.19634646409E+03  0.17770000000E+01 0.  1.
</event>
<event>
 6    1  0.1782050E-003  0.4066442E+03  0.7546771E-02  0.9636971E-01
        -11   -1    0    0    0    0  0.00000000000E+00  0.00000000000E+00  0.50000000000E+03  0.50000000000E+03  0.00000000000E+00 0.  1.
         11   -1    0    0    0    0 -0.00000000000E+00 -0.00000000000E+00 -0.50000000000E+03  0.50000000000E+03  0.00000000000E+00 0. -1.
        -11    1    1    2    0    0  0.53877417237E+01  0.36071350783E+01  0.43114236545E+03  0.43119111594E+03  0.00000000000E+00 0.  1.
         11    1    1    2    0    0 -0.16884268796E+02  0.64717115025E+02 -0.38076660129E+03  0.38659615643E+03  0.00000000000E+00 0. -1.
        -15    1    1    2    0    0  0.88559061080E+01 -0.34607083917E+02  0.58291883513E+02  0.68389902345E+02  0.17770000000E+01 0.  1.
         15    1    1    2    0    0  0.26406209645E+01 -0.33717166186E+02 -0.10866764767E+03  0.11382282528E+03  0.17770000000E+01 0. -1.
</event>
<event>
 6    1  0.1782050E-003  0.5031795E+03  0.7546771E-02  0.9392723E-01
        -11   -1    0    0    0    0  0.00000000000E+00  0.00000000000E+00  0.50000000000E+03  0.50000000000E+03  0.00000000000E+00 0.  1.
         11   -1    0    0    0    0 -0.00000000000E+00 -0.00000000000E+00 -0.50000000000E+03  0.50000000000E+03  0.00000000000E+00 0. -1.
        -11    1    1    2    0    0 -0.14458761242E+00 -0.79818943925E+01  0.35398585362E+03  0.35407586208E+03  0.00000000000E+00 0.  1.
         11    1    1    2    0    0  0.16664877523E+02  0.23055222930E+02 -0.49600537378E+03  0.49682048293E+03  0.00000000000E+00 0. -1.
        -15    1    1    2    0    0 -0.19099801747E+02 -0.14958186891E+02  0.14356339460E+03  0.14560960058E+03  0.17770000000E+01 0.  1.
         15    1    1    2    0    0  0.25795118363E+01 -0.11514164593E+00 -0.15438744441E+01  0.34940544088E+01  0.17770000000E+01 0. -1.
</event>
<event>
 6    1  0.1782050E-003  0.5009908E+03  0.7546771E-02  0.9397596E-01
        -11   -1    0    0    0    0  0.00000000000E+00  0.00000000000E+00  0.50000000000E+03  0.50000000000E+03  0.00000000000E+00 0.  1.
         11   -1    0    0    0    0 -0.00000000000E+00 -0.00000000000E+00 -0.50000000000E+03  0.50000000000E+03  0.00000000000E+00 0.  1.
        -11    1    1    2    0    0  0.27170078812E+01  0.17406609829E+01  0.18468079202E+03  0.18470897914E+03  0.00000000000E+00 0.  1.
         11    1    1    2    0    0 -0.34949684034E+01 -0.58184524917E+01 -0.49896308412E+03  0.49900924692E+03  0.00000000000E+00 0.  1.
        -15    1    1    2    0    0  0.38169026924E+01 -0.10313777951E+02  0.25258289501E+03  0.25282843856E+03  0.17770000000E+01 0.  1.
         15    1    1    2    0    0 -0.30389421702E+01  0.14391569459E+02  0.61699397090E+02  0.63453335383E+02  0.17770000000E+01 0. -1.
</event>
<event>
 6    1  0.1782050E-003  0.5051631E+03  0.7546771E-02  0.9388330E-01
        -11   -1    0    0    0    0  0.00000000000E+00  0.00000000000E+00  0.50000000000E+03  0.50000000000E+03  0.00000000000E+00 0. -1.
         11   -1    0    0    0    0 -0.00000000000E+00 -0.00000000000E+00 -0.50000000000E+03  0.50000000000E+03  0.00000000000E+00 0. -1.
        -11    1    1    2    0    0  0.86261578653E+01 -0.30852708167E+01  0.46270906387E+03  0.46279974858E+03  0.00000000000E+00 0. -1.
         11    1    1    2    0    0  0.10010482262E+02 -0.26856990107E+01 -0.49472830572E+03  0.49483686121E+03  0.00000000000E+00 0. -1.
        -15    1    1    2    0    0 -0.76029679724E+01  0.19582743905E+01 -0.19611227243E+00  0.80520897661E+01  0.17770000000E+01 0.  1.
         15    1    1    2    0    0 -0.11033672155E+02  0.38126954369E+01  0.32215354125E+02  0.34311300443E+02  0.17770000000E+01 0. -1.
</event>
<event>
 6    1  0.1782050E-003  0.5199805E+03  0.7546771E-02  0.9356179E-01
        -11   -1    0    0    0    0  0.00000000000E+00  0.00000000000E+00  0.50000000000E+03  0.50000000000E+03  0.00000000000E+00 0. -1.
         11   -1    0    0    0    0 -0.00000000000E+00 -0.00000000000E+00 -0.50000000000E+03  0.50000000000E+03  0.00000000000E+00 0. -1.
        -11    1    1    2    0    0  0.32899925711E+02 -0.37307126563E+02  0.39947909518E+03  0.40256400025E+03  0.00000000000E+00 0. -1.
         11    1    1    2    0    0  0.17068956869E+02  0.35919151973E+02 -0.47836931879E+03  0.48001952036E+03  0.00000000000E+00 0. -1.
        -15    1    1    2    0    0 -0.49494576294E+02  0.45986516755E+00  0.91818514568E+02  0.10432507803E+03  0.17770000000E+01 0. -1.
         15    1    1    2    0    0 -0.47430628562E+00  0.92810942282E+00 -0.12928290961E+02  0.13091401366E+02  0.17770000000E+01 0.  1.
</event>
<event>
 6    1  0.1782050E-003  0.5002289E+03  0.7546771E-02  0.9399298E-01
        -11   -1    0    0    0    0  0.00000000000E+00  0.00000000000E+00  0.50000000000E+03  0.50000000000E+03  0.00000000000E+00 0.  1.
         11   -1    0    0    0    0 -0.00000000000E+00 -0.00000000000E+00 -0.50000000000E+03  0.50000000000E+03  0.00000000000E+00 0. -1.
        -11    1    1    2    0    0  0.87746764400E+01  0.66303701210E+01  0.49965003733E+03  0.49977106414E+03  0.00000000000E+00 0.  1.
         11    1    1    2    0    0  0.32984685694E+01 -0.54839905751E+01 -0.12024198031E+03  0.12041215834E+03  0.00000000000E+00 0. -1.
        -15    1    1    2    0    0 -0.71508431616E+01  0.53004454382E+00 -0.75830102026E+02  0.76189091131E+02  0.17770000000E+01 0.  1.
         15    1    1    2    0    0 -0.49223018478E+01 -0.16764240897E+01 -0.30357795499E+03  0.30362768638E+03  0.17770000000E+01 0. -1.
</event>
<event>
 6    1  0.1782050E-003  0.5048739E+03  0.7546771E-02  0.9388970E-01
        -11   -1    0    0    0    0  0.00000000000E+00  0.00000000000E+00  0.50000000000E+03  0.50000000000E+03  0.00000000000E+00 0. -1.
         11   -1    0    0    0    0 -0.00000000000E+00 -0.00000000000E+00 -0.50000000000E+03  0.50000000000E+03  0.00000000000E+00 0.  1.
        -11    1    1    2    0    0 -0.82075008547E+01 -0.96972624158E+01  0.49496309454E+03  0.49512611013E+03  0.00000000000E+00 0. -1.
         11    1    1    2    0    0 -0.13165160582E+02 -0.36669932836E+01 -0.22296222297E+03  0.22338066426E+03  0.00000000000E+00 0.  1.
        -15    1    1    2    0    0  0.10567091484E+02  0.48590448030E+01 -0.26620512435E+03  0.26646500652E+03  0.17770000000E+01 0.  1.
         15    1    1    2    0    0  0.10805569953E+02  0.85052108964E+01 -0.57957472217E+01  0.15028219098E+02  0.17770000000E+01 0. -1.
</event>
<event>
 6    1  0.1782050E-003  0.5067387E+03  0.7546771E-02  0.9384856E-01
        -11   -1    0    0    0    0  0.00000000000E+00  0.00000000000E+00  0.50000000000E+03  0.50000000000E+03  0.00000000000E+00 0. -1.
         11   -1    0    0    0    0 -0.00000000000E+00 -0.00000000000E+00 -0.50000000000E+03  0.50000000000E+03  0.00000000000E+00 0. -1.
        -11    1    1    2    0    0  0.12447274228E+02  0.81114626640E+01  0.47184369485E+03  0.47207753900E+03  0.00000000000E+00 0. -1.
         11    1    1    2    0    0 -0.12966245906E+02  0.79923050762E+01 -0.49302605541E+03  0.49326128146E+03  0.00000000000E+00 0. -1.
        -15    1    1    2    0    0  0.88280329484E+01 -0.16394493373E+02  0.12424210081E+02  0.22455117543E+02  0.17770000000E+01 0. -1.
         15    1    1    2    0    0 -0.83090612706E+01  0.29072563326E+00  0.87581504787E+01  0.12206061994E+02  0.17770000000E+01 0.  1.
</event>
<event>
 6    1  0.1782050E-003  0.5045022E+03  0.7546771E-02  0.9389792E-01
        -11   -1    0    0    0    0  0.00000000000E+00  0.00000000000E+00  0.50000000000E+03  0.50000000000E+03  0.00000000000E+00 0. -1.
         11   -1    0    0    0    0 -0.00000000000E+00 -0.00000000000E+00 -0.50000000000E+03  0.50000000000E+03  0.00000000000E+00 0.  1.
        -11    1    1    2    0    0 -0.45084741384E+01  0.12207816608E+02  0.49532685117E+03  0.49549777660E+03  0.00000000000E+00 0. -1.
         11    1    1    2    0    0  0.11916057994E+02 -0.32554876027E+01 -0.42455809805E+03  0.42473776529E+03  0.00000000000E+00 0.  1.
        -15    1    1    2    0    0 -0.20142952145E+02 -0.37130242142E+01 -0.55195006927E+02  0.58899673926E+02  0.17770000000E+01 0. -1.
         15    1    1    2    0    0  0.12735368290E+02 -0.52393047908E+01 -0.15573746185E+02  0.20864784192E+02  0.17770000000E+01 0.  1.
</event>
<event>
 6    1  0.1782050E-003  0.5003936E+03  0.7546771E-02  0.9398929E-01
        -11   -1    0    0    0    0  0.00000000000E+00  0.00000000000E+00  0.50000000000E+03  0.50000000000E+03  0.00000000000E+00 0.  1.
         11   -1    0    0    0    0 -0.00000000000E+00 -0.00000000000E+00 -0.50000000000E+03  0.50000000000E+03  0.00000000000E+00 0.  1.
        -11    1    1    2    0    0  0.82861007510E+01 -0.89669735710E+01  0.49945720097E+03  0.49960640677E+03  0.00000000000E+00 0.  1.
         11    1    1    2    0    0 -0.37153887822E+01 -0.10083407021E+01 -0.18445942726E+03  0.18449959666E+03  0.00000000000E+00 0.  1.
        -15    1    1    2    0    0 -0.10935016252E+02  0.82160535463E+01 -0.12236116340E+03  0.12313606358E+03  0.17770000000E+01 0.  1.
         15    1    1    2    0    0  0.63643042834E+01  0.17592607269E+01 -0.19263661032E+03  0.19275793299E+03  0.17770000000E+01 0. -1.
</event>
<event>
 6    1  0.1782050E-003  0.5002846E+03  0.7546771E-02  0.9399173E-01
        -11   -1    0    0    0    0  0.00000000000E+00  0.00000000000E+00  0.50000000000E+03  0.50000000000E+03  0.00000000000E+00 0. -1.
         11   -1    0    0    0    0 -0.00000000000E+00 -0.00000000000E+00 -0.50000000000E+03  0.50000000000E+03  0.00000000000E+00 0.  1.
        -11    1    1    2    0    0 -0.13363555002E+02  0.45633568686E+01  0.49951587715E+03  0.49971543938E+03  0.00000000000E+00 0. -1.
         11    1    1    2    0    0 -0.98072344876E+00 -0.45814569586E+00 -0.23475068283E+02  0.23500011635E+02  0.00000000000E+00 0.  1.
        -15    1    1    2    0    0  0.99345922617E+01 -0.13038797084E+02 -0.30199404798E+03  0.30244382800E+03  0.17770000000E+01 0.  1.
         15    1    1    2    0    0  0.44096861887E+01  0.89335859114E+01 -0.17404676089E+03  0.17434072099E+03  0.17770000000E+01 0. -1.
</event>
<event>
 6    1  0.1782050E-003  0.5018180E+03  0.7546771E-02  0.9395751E-01
        -11   -1    0    0    0    0  0.00000000000E+00  0.00000000000E+00  0.50000000000E+03  0.50000000000E+03  0.00000000000E+00 0. -1.
         11   -1    0    0    0    0 -0.00000000000E+00 -0.00000000000E+00 -0.50000000000E+03  0.50000000000E+03  0.00000000000E+00 0.  1.
        -11    1    1    2    0    0  0.36618343602E+01  0.94886176922E+01  0.42735275717E+03  0.42747376757E+03  0.00000000000E+00 0. -1.
         11    1    1    2    0    0  0.86575686805E+01 -0.75851335834E+01 -0.49804898165E+03  0.49818197064E+03  0.00000000000E+00 0.  1.
        -15    1    1    2    0    0 -0.87782968381E+01 -0.97214993420E+01  0.31151833190E+02  0.33840219930E+02  0.17770000000E+01 0. -1.
         15    1    1    2    0    0 -0.35411062026E+01  0.78180152332E+01  0.39544391291E+02  0.40504041859E+02  0.17770000000E+01 0.  1.
</event>
<event>
 6    1  0.1782050E-003  0.5143170E+03  0.7546771E-02  0.9368332E-01
        -11   -1    0    0    0    0  0.00000000000E+00  0.00000000000E+00  0.50000000000E+03  0.50000000000E+03  0.00000000000E+00 0. -1.
         11   -1    0    0    0    0 -0.00000000000E+00 -0.00000000000E+00 -0.50000000000E+03  0.50000000000E+03  0.00000000000E+00 0.  1.
        -11    1    1    2    0    0 -0.62106876329E+01 -0.29377999788E+01  0.48563439072E+03  0.48568298793E+03  0.00000000000E+00 0. -1.
         11    1    1    2    0    0 -0.65579675738E+01 -0.12730990254E+01 -0.46410458987E+03  0.46415266676E+03  0.00000000000E+00 0.  1.
        -15    1    1    2    0    0 -0.19117472941E+01  0.83204311815E+01 -0.30950670045E+02  0.32155653593E+02  0.17770000000E+01 0.  1.
         15    1    1    2    0    0  0.14680402501E+02 -0.41095321772E+01  0.94208691887E+01  0.18008691723E+02  0.17770000000E+01 0. -1.
</event>
<event>
 6    1  0.1782050E-003  0.5000337E+03  0.7546771E-02  0.9399734E-01
        -11   -1    0    0    0    0  0.00000000000E+00  0.00000000000E+00  0.50000000000E+03  0.50000000000E+03  0.00000000000E+00 0. -1.
         11   -1    0    0    0    0 -0.00000000000E+00 -0.00000000000E+00 -0.50000000000E+03  0.50000000000E+03  0.00000000000E+00 0.  1.
        -11    1    1    2    0    0 -0.59806337588E+01  0.56042848605E+01  0.49989912443E+03  0.49996630946E+03  0.00000000000E+00 0. -1.
         11    1    1    2    0    0 -0.12833639326E-01 -0.14310678536E+01 -0.51253659123E+02  0.51273635461E+02  0.00000000000E+00 0.  1.
        -15    1    1    2    0    0  0.53329921130E+00  0.10394638169E+01 -0.61090863754E+02  0.61127868083E+02  0.17770000000E+01 0.  1.
         15    1    1    2    0    0  0.54601681868E+01 -0.52126808238E+01 -0.38755460156E+03  0.38763218699E+03  0.17770000000E+01 0.  1.
</event>
<event>
 6    1  0.1782050E-003  0.5071021E+03  0.7546771E-02  0.9384057E-01
        -11   -1    0    0    0    0  0.00000000000E+00  0.00000000000E+00  0.50000000000E+03  0.50000000000E+03  0.00000000000E+00 0.  1.
         11   -1    0    0    0    0 -0.00000000000E+00 -0.00000000000E+00 -0.50000000000E+03  0.50000000000E+03  0.00000000000E+00 0. -1.
        -11    1    1    2    0    0  0.88055804117E+01  0.90228129006E+01  0.27008300385E+03  0.27037710400E+03  0.00000000000E+00 0.  1.
         11    1    1    2    0    0  0.16472836799E+02  0.10353007256E+02 -0.49251377532E+03  0.49289791843E+03  0.00000000000E+00 0. -1.
        -15    1    1    2    0    0 -0.71669736400E+01  0.54169514715E+01  0.19588258303E+03  0.19609653984E+03  0.17770000000E+01 0.  1.
         15    1    1    2    0    0 -0.18111443571E+02 -0.24792771629E+02  0.26548188447E+02  0.40628437726E+02  0.17770000000E+01 0. -1.
</event>
<event>
 6    1  0.1782050E-003  0.5045304E+03  0.7546771E-02  0.9389729E-01
        -11   -1    0    0    0    0  0.00000000000E+00  0.00000000000E+00  0.50000000000E+03  0.50000000000E+03  0.00000000000E+00 0.  1.
         11   -1    0    0    0    0 -0.00000000000E+00 -0.00000000000E+00 -0.50000000000E+03  0.50000000000E+03  0.00000000000E+00 0.  1.
        -11    1    1    2    0    0 -0.97567694602E+01  0.68388883575E+01  0.22931461905E+03  0.22962395227E+03  0.00000000000E+00 0.  1.
         11    1    1    2    0    0  0.21215556403E+02  0.24329350633E+02 -0.49441695000E+03  0.49546961317E+03  0.00000000000E+00 0.  1.
        -15    1    1    2    0    0 -0.21733009956E+02 -0.13021975985E+02  0.31941642648E+02  0.40808355081E+02  0.17770000000E+01 0. -1.
         15    1    1    2    0    0  0.10274223013E+02 -0.18146263005E+02  0.23316068830E+03  0.23409807948E+03  0.17770000000E+01 0.  1.
</event>
<event>
 6    1  0.1782050E-003  0.2922275E+03  0.7546771E-02  0.1004255E+00
        -11   -1    0    0    0    0  0.00000000000E+00  0.00000000000E+00  0.50000000000E+03  0.50000000000E+03  0.00000000000E+00 0.  1.
         11   -1    0    0    0    0 -0.00000000000E+00 -0.00000000000E+00 -0.50000000000E+03  0.50000000000E+03  0.00000000000E+00 0. -1.
        -11    1    1    2    0    0 -0.46541712607E+02 -0.54066010411E+02  0.87026158551E+02  0.11252918184E+03  0.00000000000E+00 0.  1.
         11    1    1    2    0    0 -0.21186867255E+02 -0.14203208530E+01 -0.37693124849E+03  0.37752889525E+03  0.00000000000E+00 0. -1.
        -15    1    1    2    0    0 -0.16243817825E+03  0.10728962873E+02  0.20219331784E+03  0.25958922918E+03  0.17770000000E+01 0.  1.
         15    1    1    2    0    0  0.23016675811E+03  0.44757368391E+02  0.87711772104E+02  0.25035269373E+03  0.17770000000E+01 0. -1.
</event>
<event>
 6    1  0.1782050E-003  0.5028149E+03  0.7546771E-02  0.9393533E-01
        -11   -1    0    0    0    0  0.00000000000E+00  0.00000000000E+00  0.50000000000E+03  0.50000000000E+03  0.00000000000E+00 0. -1.
         11   -1    0    0    0    0 -0.00000000000E+00 -0.00000000000E+00 -0.50000000000E+03  0.50000000000E+03  0.00000000000E+00 0. -1.
        -11    1    1    2    0    0  0.89704105150E+00 -0.74773284986E+01  0.12096661172E+03  0.12120080971E+03  0.00000000000E+00 0. -1.
         11    1    1    2    0    0  0.76730089250E+01  0.13371355379E+02 -0.49694600048E+03  0.49718507178E+03  0.00000000000E+00 0. -1.
        -15    1    1    2    0    0 -0.45976428260E+01  0.16472928906E+02  0.32850297593E+03  0.32895266928E+03  0.17770000000E+01 0.  1.
         15    1    1    2    0    0 -0.39724071505E+01 -0.22366955786E+02  0.47476412832E+02  0.52661449222E+02  0.17770000000E+01 0. -1.
</event>
<event>
 6    1  0.1782050E-003  0.5006806E+03  0.7546771E-02  0.9398288E-01
        -11   -1    0    0    0    0  0.00000000000E+00  0.00000000000E+00  0.50000000000E+03  0.50000000000E+03  0.00000000000E+00 0.  1.
         11   -1    0    0    0    0 -0.00000000000E+00 -0.00000000000E+00 -0.50000000000E+03  0.50000000000E+03  0.00000000000E+00 0.  1.
        -11    1    1    2    0    0 -0.64858465397E+01  0.20215172423E+01  0.16299320106E+03  0.16313471835E+03  0.00000000000E+00 0.  1.
         11    1    1    2    0    0 -0.10710166635E+02 -0.55752699760E+01 -0.49917334396E+03  0.49931935534E+03  0.00000000000E+00 0.  1.
        -15    1    1    2    0    0 -0.31206969652E+00 -0.32203996619E+01  0.20339945630E+03  0.20343294943E+03  0.17770000000E+01 0.  1.
         15    1    1    2    0    0  0.17508082871E+02  0.67741523956E+01  0.13278068659E+03  0.13411297688E+03  0.17770000000E+01 0. -1.
</event>
<event>
 6    1  0.1782050E-003  0.5050769E+03  0.7546771E-02  0.9388521E-01
        -11   -1    0    0    0    0  0.00000000000E+00  0.00000000000E+00  0.50000000000E+03  0.50000000000E+03  0.00000000000E+00 0.  1.
         11   -1    0    0    0    0 -0.00000000000E+00 -0.00000000000E+00 -0.50000000000E+03  0.50000000000E+03  0.00000000000E+00 0.  1.
        -11    1    1    2    0    0  0.65095418606E+01  0.47887716739E+00  0.40902493621E+03  0.40907701219E+03  0.00000000000E+00 0.  1.
         11    1    1    2    0    0  0.71664958650E+01 -0.65453623983E+00 -0.49487073698E+03  0.49492305806E+03  0.00000000000E+00 0.  1.
        -15    1    1    2    0    0 -0.16649304314E+02 -0.64847671203E+01  0.11602854375E+02  0.21378388560E+02  0.17770000000E+01 0. -1.
         15    1    1    2    0    0  0.29732665888E+01  0.66604261928E+01  0.74242946392E+02  0.74621541188E+02  0.17770000000E+01 0.  1.
</event>
<event>
 6    1  0.1782050E-003  0.5003359E+03  0.7546771E-02  0.9399058E-01
        -11   -1    0    0    0    0  0.00000000000E+00  0.00000000000E+00  0.50000000000E+03  0.50000000000E+03  0.00000000000E+00 0. -1.
         11   -1    0    0    0    0 -0.00000000000E+00 -0.00000000000E+00 -0.50000000000E+03  0.50000000000E+03  0.00000000000E+00 0. -1.
        -11    1    1    2    0    0 -0.76510262343E+01 -0.95260285022E+01  0.49951465943E+03  0.49966406556E+03  0.00000000000E+00 0. -1.
         11    1    1    2    0    0  0.32217156822E+01 -0.25090011654E+01 -0.10501372869E+03  0.10509309088E+03  0.00000000000E+00 0. -1.
        -15    1    1    2    0    0  0.11248745024E+02  0.19043375044E+01 -0.15891570874E+03  0.15933461953E+03  0.17770000000E+01 0.  1.
         15    1    1    2    0    0 -0.68194344723E+01  0.10130692163E+02 -0.23558522200E+03  0.23590822403E+03  0.17770000000E+01 0. -1.
</event>
<event>
 6    1  0.1782050E-003  0.5061083E+03  0.7546771E-02  0.9386245E-01
        -11   -1    0    0    0    0  0.00000000000E+00  0.00000000000E+00  0.50000000000E+03  0.50000000000E+03  0.00000000000E+00 0.  1.
         11   -1    0    0    0    0 -0.00000000000E+00 -0.00000000000E+00 -0.50000000000E+03  0.50000000000E+03  0.00000000000E+00 0.  1.
        -11    1    1    2    0    0  0.11989933075E+02 -0.94808355737E+01  0.45433339608E+03  0.45459045253E+03  0.00000000000E+00 0.  1.
         11    1    1    2    0    0 -0.11542338688E+02 -0.62470348409E+01 -0.49371729632E+03  0.49389170848E+03  0.00000000000E+00 0.  1.
        -15    1    1    2    0    0  0.12075896884E+01  0.12864495418E+02  0.43812071661E+02  0.45712239799E+02  0.17770000000E+01 0. -1.
         15    1    1    2    0    0 -0.16551840754E+01  0.28633749967E+01 -0.44281714264E+01  0.58055991833E+01  0.17770000000E+01 0.  1.
</event>
<event>
 6    1  0.1782050E-003  0.5159917E+03  0.7546771E-02  0.9364721E-01
        -11   -1    0    0    0    0  0.00000000000E+00  0.00000000000E+00  0.50000000000E+03  0.50000000000E+03  0.00000000000E+00 0. -1.
         11   -1    0    0    0    0 -0.00000000000E+00 -0.00000000000E+00 -0.50000000000E+03  0.50000000000E+03  0.00000000000E+00 0. -1.
        -11    1    1    2    0    0 -0.27632981236E+01  0.57058453808E+01  0.40812203551E+03  0.40817127331E+03  0.00000000000E+00 0. -1.
         11    1    1    2    0    0 -0.15632002457E+02  0.13754888536E+01 -0.48375380387E+03  0.48400825843E+03  0.00000000000E+00 0. -1.
        -15    1    1    2    0    0 -0.80438744632E+00 -0.14033974473E+02  0.84360661301E+02  0.85542260800E+02  0.17770000000E+01 0. -1.
         15    1    1    2    0    0  0.19199688027E+02  0.69526402383E+01 -0.87288929371E+01  0.22278207458E+02  0.17770000000E+01 0.  1.
</event>
<event>
 6    1  0.1782050E-003  0.5032011E+03  0.7546771E-02  0.9392675E-01
        -11   -1    0    0    0    0  0.00000000000E+00  0.00000000000E+00  0.50000000000E+03  0.50000000000E+03  0.00000000000E+00 0.  1.
         11   -1    0    0    0    0 -0.00000000000E+00 -0.00000000000E+00 -0.50000000000E+03  0.50000000000E+03  0.00000000000E+00 0. -1.
        -11    1    1    2    0    0 -0.22536811006E+01 -0.83848468316E+01  0.49672298622E+03  0.49679886249E+03  0.00000000000E+00 0.  1.
         11    1    1    2    0    0  0.62571884458E+01  0.24616071905E+01 -0.48622709762E+03  0.48627358799E+03  0.00000000000E+00 0. -1.
        -15    1    1    2    0    0 -0.15234257036E+01  0.86920494808E+01 -0.59394509918E+01  0.10784588872E+02  0.17770000000E+01 0.  1.
         15    1    1    2    0    0 -0.24800816416E+01 -0.27688098398E+01 -0.45564376032E+01  0.61429606470E+01  0.17770000000E+01 0. -1.
</event>
<event>
 6    1  0.1782050E-003  0.4801355E+03  0.7546771E-02  0.9445389E-01
        -11   -1    0    0    0    0  0.00000000000E+00  0.00000000000E+00  0.50000000000E+03  0.50000000000E+03  0.00000000000E+00 0.  1.
         11   -1    0    0    0    0 -0.00000000000E+00 -0.00000000000E+00 -0.50000000000E+03  0.50000000000E+03  0.00000000000E+00 0. -1.
        -11    1    1    2    0    0 -0.18086888271E+02 -0.13133220421E+02  0.48798511558E+03  0.48849676563E+03  0.00000000000E+00 0.  1.
         11    1    1    2    0    0 -0.12321923299E+01 -0.74898425121E+01 -0.47225764380E+03  0.47231864050E+03  0.00000000000E+00 0. -1.
        -15    1    1    2    0    0  0.20690769996E+02  0.18558629206E+02 -0.53397732393E+01  0.28358448270E+02  0.17770000000E+01 0.  1.
         15    1    1    2    0    0 -0.13716893955E+01  0.20644337277E+01 -0.10387698542E+02  0.10826145594E+02  0.17770000000E+01 0. -1.
</event>
<event>
 6    1  0.1782050E-003  0.5120956E+03  0.7546771E-02  0.9373144E-01
        -11   -1    0    0    0    0  0.00000000000E+00  0.00000000000E+00  0.50000000000E+03  0.50000000000E+03  0.00000000000E+00 0. -1.
         11   -1    0    0    0    0 -0.00000000000E+00 -0.00000000000E+00 -0.50000000000E+03  0.50000000000E+03  0.00000000000E+00 0. -1.
        -11    1    1    2    0    0  0.53421653499E+01  0.43393530686E+00  0.30647151646E+03  0.30651838025E+03  0.00000000000E+00 0. -1.
         11    1    1    2    0    0  0.21367741184E+02  0.12691120020E+02 -0.48727102288E+03  0.48790439087E+03  0.00000000000E+00 0. -1.
        -15    1    1    2    0    0 -0.13984310603E+02 -0.37386404782E+02  0.17224936920E+03  0.17682281279E+03  0.17770000000E+01 0.  1.
         15    1    1    2    0    0 -0.12725595931E+02  0.24261349455E+02  0.85501372241E+01  0.28754416090E+02  0.17770000000E+01 0. -1.
</event>
<event>
 6    1  0.1782050E-003  0.5003081E+03  0.7546771E-02  0.9399120E-01
        -11   -1    0    0    0    0  0.00000000000E+00  0.00000000000E+00  0.50000000000E+03  0.50000000000E+03  0.00000000000E+00 0. -1.
         11   -1    0    0    0    0 -0.00000000000E+00 -0.00000000000E+00 -0.50000000000E+03  0.50000000000E+03  0.00000000000E+00 0. -1.
        -11    1    1    2    0    0 -0.34991923170E+01 -0.98735408122E+01  0.49958205053E+03  0.49969186141E+03  0.00000000000E+00 0. -1.
         11    1    1    2    0    0  0.53015081073E+00 -0.28726163012E+01 -0.16259926239E+03  0.16262549959E+03  0.00000000000E+00 0. -1.
        -15    1    1    2    0    0  0.49391700079E+01  0.47521498816E+01 -0.42989248199E+02  0.43568469317E+02  0.17770000000E+01 0.  1.
         15    1    1    2    0    0 -0.19701285017E+01  0.79940072318E+01 -0.29399353993E+03  0.29411416968E+03  0.17770000000E+01 0. -1.
</event>
<event>
 6    1  0.1782050E-003  0.5086868E+03  0.7546771E-02  0.9380579E-01
        -11   -1    0    0    0    0  0.00000000000E+00  0.00000000000E+00  0.50000000000E+03  0.50000000000E+03  0.00000000000E+00 0.  1.
         11   -1    0    0    0    0 -0.00000000000E+00 -0.00000000000E+00 -0.50000000000E+03  0.50000000000E+03  0.00000000000E+00 0. -1.
        -11    1    1    2    0    0 -0.77863712465E+01 -0.18199154659E+01  0.40446840221E+03  0.40454743610E+03  0.00000000000E+00 0.  1.
         11    1    1    2    0    0  0.72595962723E+00  0.15979229835E+02 -0.49105274676E+03  0.49131320245E+03  0.00000000000E+00 0. -1.
        -15    1    1    2    0    0  0.30472715079E+01 -0.34662131222E+02  0.66655331592E+02  0.75211968217E+02  0.17770000000E+01 0.  1.
         15    1    1    2    0    0  0.40131401114E+01  0.20502816853E+02  0.19929012963E+02  0.28927393231E+02  0.17770000000E+01 0. -1.
</event>
<event>
 6    1  0.1782050E-003  0.5036475E+03  0.7546771E-02  0.9391685E-01
        -11   -1    0    0    0    0  0.00000000000E+00  0.00000000000E+00  0.50000000000E+03  0.50000000000E+03  0.00000000000E+00 0.  1.
         11   -1    0    0    0    0 -0.00000000000E+00 -0.00000000000E+00 -0.50000000000E+03  0.50000000000E+03  0.00000000000E+00 0.  1.
        -11    1    1    2    0    0  0.18689580855E+01 -0.46508125521E+01  0.37012763355E+03  0.37016157037E+03  0.00000000000E+00 0.  1.
         11    1    1    2    0    0 -0.12357888179E+02  0.15096681826E+02 -0.49596892078E+03  0.49635249327E+03  0.00000000000E+00 0.  1.
        -15    1    1    2    0    0  0.42988021677E+01 -0.22019683707E+02  0.34515258338E+02  0.41204453130E+02  0.17770000000E+01 0.  1.
         15    1    1    2    0    0  0.61901279257E+01  0.11573814433E+02  0.91326028890E+02  0.92281483225E+02  0.17770000000E+01 0. -1.
</event>
<event>
 6    1  0.1782050E-003  0.4543748E+03  0.7546771E-02  0.9508118E-01
        -11   -1    0    0    0    0  0.00000000000E+00  0.00000000000E+00  0.50000000000E+03  0.50000000000E+03  0.00000000000E+00 0. -1.
         11   -1    0    0    0    0 -0.00000000000E+00 -0.00000000000E+00 -0.50000000000E+03  0.50000000000E+03  0.00000000000E+00 0.  1.
        -11    1    1    2    0    0 -0.17298550252E+03  0.24310820581E+02  0.19334921078E+03  0.26057420707E+03  0.00000000000E+00 0. -1.
         11    1    1    2    0    0 -0.15088571135E+02  0.14148785945E+02 -0.29471722686E+03  0.29544220574E+03  0.00000000000E+00 0.  1.
        -15    1    1    2    0    0 -0.77913011847E+02 -0.45688842762E+02 -0.81049996914E+02  0.12136790143E+03  0.17770000000E+01 0. -1.
         15    1    1    2    0    0  0.26598708550E+03  0.72292362357E+01  0.18241801299E+03  0.32261568577E+03  0.17770000000E+01 0.  1.
</event>
<event>
 6    1  0.1782050E-003  0.5605346E+03  0.7546771E-02  0.9273698E-01
        -11   -1    0    0    0    0  0.00000000000E+00  0.00000000000E+00  0.50000000000E+03  0.50000000000E+03  0.00000000000E+00 0. -1.
         11   -1    0    0    0    0 -0.00000000000E+00 -0.00000000000E+00 -0.50000000000E+03  0.50000000000E+03  0.00000000000E+00 0.  1.
        -11    1    1    2    0    0  0.28025190647E+01  0.58773890401E+01  0.43941713467E+03  0.43946537526E+03  0.00000000000E+00 0. -1.
         11    1    1    2    0    0 -0.60996676413E+02 -0.53573412667E+02 -0.21002594348E+03  0.22517016235E+03  0.00000000000E+00 0.  1.
        -15    1    1    2    0    0  0.58370882513E+02  0.54535571837E+02 -0.27645619960E+03  0.28777157008E+03  0.17770000000E+01 0.  1.
         15    1    1    2    0    0 -0.17672516462E+00 -0.68395482098E+01  0.47065008415E+02  0.47592892301E+02  0.17770000000E+01 0. -1.
</event>
<event>
 6    1  0.1782050E-003  0.2735883E+03  0.7546771E-02  0.1012765E+00
        -11   -1    0    0    0    0  0.00000000000E+00  0.00000000000E+00  0.50000000000E+03  0.50000000000E+03  0.00000000000E+00 0. -1.
         11   -1    0    0    0    0 -0.00000000000E+00 -0.00000000000E+00 -0.50000000000E+03  0.50000000000E+03  0.00000000000E+00 0.  1.
        -11    1    1    2    0    0  0.15782173599E+02 -0.21930385173E+02  0.21101481305E+03  0.21273756162E+03  0.00000000000E+00 0. -1.
         11    1    1    2    0    0 -0.66853310715E+01  0.14922578742E+01 -0.35878984444E+03  0.35885522562E+03  0.00000000000E+00 0.  1.
        -15    1    1    2    0    0 -0.57087259992E+02 -0.15724286159E+03  0.17528512977E+03  0.24230622613E+03  0.17770000000E+01 0. -1.
         15    1    1    2    0    0  0.47990417465E+02  0.17768098889E+03 -0.27510098380E+02  0.18610098663E+03  0.17770000000E+01 0.  1.
</event>
<event>
 6    1  0.1782050E-003  0.4891350E+03  0.7546771E-02  0.9424455E-01
        -11   -1    0    0    0    0  0.00000000000E+00  0.00000000000E+00  0.50000000000E+03  0.50000000000E+03  0.00000000000E+00 0.  1.
         11   -1    0    0    0    0 -0.00000000000E+00 -0.00000000000E+00 -0.50000000000E+03  0.50000000000E+03  0.00000000000E+00 0. -1.
        -11    1    1    2    0    0  0.84599260518E+01 -0.27318798773E+01  0.48735893697E+03  0.48744001370E+03  0.00000000000E+00 0.  1.
         11    1    1    2    0    0 -0.20064364966E+01 -0.90554740517E+01 -0.49084090918E+03  0.49092853403E+03  0.00000000000E+00 0. -1.
        -15    1    1    2    0    0 -0.41301880919E+01  0.98247065076E+01 -0.53982290523E+01  0.12078158698E+02  0.17770000000E+01 0.  1.
         15    1    1    2    0    0 -0.23233014633E+01  0.19626474214E+01  0.88802012623E+01  0.95532935708E+01  0.17770000000E+01 0. -1.
</event>
<event>
 6    1  0.1782050E-003  0.5002735E+03  0.7546771E-02  0.9399198E-01
        -11   -1    0    0    0    0  0.00000000000E+00  0.00000000000E+00  0.50000000000E+03  0.50000000000E+03  0.00000000000E+00 0. -1.
         11   -1    0    0    0    0 -0.00000000000E+00 -0.00000000000E+00 -0.50000000000E+03  0.50000000000E+03  0.00000000000E+00 0. -1.
        -11    1    1    2    0    0  0.60912035365E+01  0.14327693773E+01  0.24041044501E+03  0.24049186609E+03  0.00000000000E+00 0. -1.
         11    1    1    2    0    0  0.52795894297E+01 -0.42084024349E+01 -0.49968092241E+03  0.49972653416E+03  0.00000000000E+00 0. -1.
        -15    1    1    2    0    0 -0.39371617058E+01 -0.15631731474E+01  0.30658057652E+02  0.31000306137E+02  0.17770000000E+01 0.  1.
         15    1    1    2    0    0 -0.74336312603E+01  0.43388062051E+01  0.22861241975E+03  0.22878129361E+03  0.17770000000E+01 0. -1.
</event>
<event>
 6    1  0.1782050E-003  0.5020190E+03  0.7546771E-02  0.9395303E-01
        -11   -1    0    0    0    0  0.00000000000E+00  0.00000000000E+00  0.50000000000E+03  0.50000000000E+03  0.00000000000E+00 0. -1.
         11   -1    0    0    0    0 -0.00000000000E+00 -0.00000000000E+00 -0.50000000000E+03  0.50000000000E+03  0.00000000000E+00 0. -1.
        -11    1    1    2    0    0 -0.62466286966E+01 -0.13306901469E+00  0.43780297712E+03  0.43784755892E+03  0.00000000000E+00 0. -1.
         11    1    1    2    0    0  0.52390939350E+01  0.55637742096E+01 -0.49792240363E+03  0.49798104756E+03  0.00000000000E+00 0. -1.
        -15    1    1    2    0    0 -0.13904333193E+01  0.39369050700E+01  0.15689845248E+01  0.48012464824E+01  0.17770000000E+01 0. -1.
         15    1    1    2    0    0  0.23979680809E+01 -0.93676102649E+01  0.58550441986E+02  0.59370147033E+02  0.17770000000E+01 0.  1.
</event>
<event>
 6    1  0.1782050E-003  0.4909620E+03  0.7546771E-02  0.9420263E-01
        -11   -1    0    0    0    0  0.00000000000E+00  0.00000000000E+00  0.50000000000E+03  0.50000000000E+03  0.00000000000E+00 0. -1.
         11   -1    0    0    0    0 -0.00000000000E+00 -0.00000000000E+00 -0.50000000000E+03  0.50000000000E+03  0.00000000000E+00 0. -1.
        -11    1    1    2    0    0  0.70307484096E+01 -0.87454795039E+01  0.49108431832E+03  0.49121250242E+03  0.00000000000E+00 0. -1.
         11    1    1    2    0    0 -0.15169756953E+02  0.82731711310E+01 -0.49044118762E+03  0.49074547925E+03  0.00000000000E+00 0. -1.
        -15    1    1    2    0    0  0.90172081371E+01 -0.58850995788E+01 -0.23586091273E+01  0.11165357390E+02  0.17770000000E+01 0.  1.
         15    1    1    2    0    0 -0.87819959375E+00  0.63574079517E+01  0.17154784311E+01  0.68766609367E+01  0.17770000000E+01 0. -1.
</event>
<event>
 6    1  0.3095872E-003  0.5223456E+03  0.7546771E-02  0.9351153E-01
        -11   -1    0    0    0    0  0.00000000000E+00  0.00000000000E+00  0.50000000000E+03  0.50000000000E+03  0.00000000000E+00 0.  1.
         11   -1    0    0    0    0 -0.00000000000E+00 -0.00000000000E+00 -0.50000000000E+03  0.50000000000E+03  0.00000000000E+00 0. -1.
        -11    1    1    2    0    0  0.12179453829E+02 -0.82319787147E+01  0.38474017804E+03  0.38502092042E+03  0.00000000000E+00 0.  1.
         11    1    1    2    0    0  0.91165784837E+01 -0.17148422472E+01 -0.47756429074E+03  0.47765437764E+03  0.00000000000E+00 0. -1.
        -15    1    1    2    0    0 -0.18198470191E+02  0.97523354197E+01  0.11399019676E+03  0.11585859938E+03  0.17770000000E+01 0. -1.
         15    1    1    2    0    0 -0.30975621219E+01  0.19448554218E+00 -0.21166084055E+02  0.21466102556E+02  0.17770000000E+01 0.  1.
</event>
<event>
 6    1  0.1782050E-003  0.5014924E+03  0.7546771E-02  0.9396477E-01
        -11   -1    0    0    0    0  0.00000000000E+00  0.00000000000E+00  0.50000000000E+03  0.50000000000E+03  0.00000000000E+00 0.  1.
         11   -1    0    0    0    0 -0.00000000000E+00 -0.00000000000E+00 -0.50000000000E+03  0.50000000000E+03  0.00000000000E+00 0. -1.
        -11    1    1    2    0    0  0.54560066441E+01  0.69371299779E+01  0.49842951663E+03  0.49850764771E+03  0.00000000000E+00 0.  1.
         11    1    1    2    0    0  0.32365263084E+01  0.85503243376E+00 -0.15077161257E+03  0.15080877076E+03  0.00000000000E+00 0. -1.
        -15    1    1    2    0    0  0.11911790952E+02 -0.21445577228E+01 -0.31382958230E+02  0.33682899041E+02  0.17770000000E+01 0.  1.
         15    1    1    2    0    0 -0.20604323904E+02 -0.56476046889E+01 -0.31627494583E+03  0.31700068248E+03  0.17770000000E+01 0. -1.
</event>
<event>
 6    1  0.1782050E-003  0.5014479E+03  0.7546771E-02  0.9396576E-01
        -11   -1    0    0    0    0  0.00000000000E+00  0.00000000000E+00  0.50000000000E+03  0.50000000000E+03  0.00000000000E+00 0. -1.
         11   -1    0    0    0    0 -0.00000000000E+00 -0.00000000000E+00 -0.50000000000E+03  0.50000000000E+03  0.00000000000E+00 0. -1.
        -11    1    1    2    0    0 -0.16949233853E+01 -0.77143144264E+01  0.49848950429E+03  0.49855207281E+03  0.00000000000E+00 0. -1.
         11    1    1    2    0    0  0.82775747252E+01  0.13094729628E+01 -0.29600790785E+03  0.29612651768E+03  0.00000000000E+00 0. -1.
        -15    1    1    2    0    0  0.56333978608E+01  0.31845696935E+01 -0.80875499010E+01  0.10509179225E+02  0.17770000000E+01 0.  1.
         15    1    1    2    0    0 -0.12216049201E+02  0.32202717702E+01 -0.19439404654E+03  0.19481223029E+03  0.17770000000E+01 0. -1.
</event>
<event>
 6    1  0.1782050E-003  0.5021349E+03  0.7546771E-02  0.9395045E-01
        -11   -1    0    0    0    0  0.00000000000E+00  0.00000000000E+00  0.50000000000E+03  0.50000000000E+03  0.00000000000E+00 0. -1.
         11   -1    0    0    0    0 -0.00000000000E+00 -0.00000000000E+00 -0.50000000000E+03  0.50000000000E+03  0.00000000000E+00 0.  1.
        -11    1    1    2    0    0 -0.20805656289E+02  0.19420958597E+02  0.49705090837E+03  0.49786509666E+03  0.00000000000E+00 0. -1.
         11    1    1    2    0    0  0.26449854850E+00 -0.16380976107E+01 -0.50901873139E+02  0.50928911360E+02  0.00000000000E+00 0.  1.
        -15    1    1    2    0    0  0.38178081580E+02  0.43362263781E+00 -0.33575674224E+03  0.33792529002E+03  0.17770000000E+01 0.  1.
         15    1    1    2    0    0 -0.17636923840E+02 -0.18216483624E+02 -0.11039229298E+03  0.11328070196E+03  0.17770000000E+01 0. -1.
</event>
<event>
 6    1  0.1782050E-003  0.5050341E+03  0.7546771E-02  0.9388615E-01
        -11   -1    0    0    0    0  0.00000000000E+00  0.00000000000E+00  0.50000000000E+03  0.50000000000E+03  0.00000000000E+00 0.  1.
         11   -1    0    0    0    0 -0.00000000000E+00 -0.00000000000E+00 -0.50000000000E+03  0.50000000000E+03  0.00000000000E+00 0. -1.
        -11    1    1    2    0    0  0.75674822054E+01  0.50990017372E+01  0.47667649392E+03  0.47676382671E+03  0.00000000000E+00 0.  1.
         11    1    1    2    0    0 -0.39544398245E+01  0.91582058273E+01 -0.49486531925E+03  0.49496585188E+03  0.00000000000E+00 0. -1.
        -15    1    1    2    0    0 -0.67977420255E+00 -0.14760300033E+02  0.19529552172E+02  0.24553812068E+02  0.17770000000E+01 0.  1.
         15    1    1    2    0    0 -0.29332681783E+01  0.50309246810E+00 -0.13407268417E+01  0.37165093437E+01  0.17770000000E+01 0.  1.
</event>
<event>
 6    1  0.1782050E-003  0.4791050E+03  0.7546771E-02  0.9447817E-01
        -11   -1    0    0    0    0  0.00000000000E+00  0.00000000000E+00  0.50000000000E+03  0.50000000000E+03  0.00000000000E+00 0. -1.
         11   -1    0    0    0    0 -0.00000000000E+00 -0.00000000000E+00 -0.50000000000E+03  0.50000000000E+03  0.00000000000E+00 0. -1.
        -11    1    1    2    0    0 -0.13329572110E+02  0.26480336735E+01  0.47504283747E+03  0.47523719026E+03  0.00000000000E+00 0. -1.
         11    1    1    2    0    0 -0.88805220866E+01  0.58025676951E-01 -0.48318701444E+03  0.48326861884E+03  0.00000000000E+00 0. -1.
        -15    1    1    2    0    0  0.60416188924E+00 -0.47414448483E+01 -0.11239430627E+02  0.12342157050E+02  0.17770000000E+01 0.  1.
         15    1    1    2    0    0  0.21605932307E+02  0.20353854979E+01  0.19383607593E+02  0.29152033845E+02  0.17770000000E+01 0. -1.
</event>
<event>
 6    1  0.1782050E-003  0.5061922E+03  0.7546771E-02  0.9386060E-01
        -11   -1    0    0    0    0  0.00000000000E+00  0.00000000000E+00  0.50000000000E+03  0.50000000000E+03  0.00000000000E+00 0. -1.
         11   -1    0    0    0    0 -0.00000000000E+00 -0.00000000000E+00 -0.50000000000E+03  0.50000000000E+03  0.00000000000E+00 0. -1.
        -11    1    1    2    0    0  0.15839704725E+02 -0.35713671020E+01  0.49354074685E+03  0.49380777608E+03  0.00000000000E+00 0. -1.
         11    1    1    2    0    0  0.31466692413E+01 -0.63604667142E+01 -0.47082204164E+03  0.47087551641E+03  0.00000000000E+00 0. -1.
        -15    1    1    2    0    0 -0.15640165581E+02  0.35120331282E+00 -0.18204192107E+02  0.24068412130E+02  0.17770000000E+01 0.  1.
         15    1    1    2    0    0 -0.33462083852E+01  0.95806305034E+01 -0.45145131118E+01  0.11248295384E+02  0.17770000000E+01 0. -1.
</event>
<event>
 6    1  0.1782050E-003  0.5054327E+03  0.7546771E-02  0.9387735E-01
        -11   -1    0    0    0    0  0.00000000000E+00  0.00000000000E+00  0.50000000000E+03  0.50000000000E+03  0.00000000000E+00 0.  1.
         11   -1    0    0    0    0 -0.00000000000E+00 -0.00000000000E+00 -0.50000000000E+03  0.50000000000E+03  0.00000000000E+00 0.  1.
        -11    1    1    2    0    0 -0.23663943846E+01  0.16011975502E+02  0.49430236978E+03  0.49456730174E+03  0.00000000000E+00 0.  1.
         11    1    1    2    0    0 -0.49416206352E+01 -0.60063319505E+00 -0.28917661826E+03  0.28921946152E+03  0.00000000000E+00 0.  1.
        -15    1    1    2    0    0  0.83580874285E+01 -0.45570749006E+01 -0.20493411337E+03  0.20516279661E+03  0.17770000000E+01 0. -1.
         15    1    1    2    0    0 -0.10500724087E+01 -0.10854267407E+02 -0.19163815090E+00  0.11050440135E+02  0.17770000000E+01 0.  1.
</event>
<event>
 6    1  0.1782050E-003  0.5058475E+03  0.7546771E-02  0.9386820E-01
        -11   -1    0    0    0    0  0.00000000000E+00  0.00000000000E+00  0.50000000000E+03  0.50000000000E+03  0.00000000000E+00 0.  1.
         11   -1    0    0    0    0 -0.00000000000E+00 -0.00000000000E+00 -0.50000000000E+03  0.50000000000E+03  0.00000000000E+00 0. -1.
        -11    1    1    2    0    0 -0.14408736936E+01 -0.51032064492E+01  0.26193002323E+03  0.26198369397E+03  0.00000000000E+00 0.  1.
         11    1    1    2    0    0  0.16123353864E+02  0.10917277267E+02 -0.49376876018E+03  0.49415254529E+03  0.00000000000E+00 0. -1.
        -15    1    1    2    0    0  0.27946763589E+02  0.98640643854E+01  0.10543016062E+03  0.10953080781E+03  0.17770000000E+01 0. -1.
         15    1    1    2    0    0 -0.42629243759E+02 -0.15678135203E+02  0.12640857633E+03  0.13433295294E+03  0.17770000000E+01 0.  1.
</event>
<event>
 6    1  0.1782050E-003  0.5103701E+03  0.7546771E-02  0.9376900E-01
        -11   -1    0    0    0    0  0.00000000000E+00  0.00000000000E+00  0.50000000000E+03  0.50000000000E+03  0.00000000000E+00 0. -1.
         11   -1    0    0    0    0 -0.00000000000E+00 -0.00000000000E+00 -0.50000000000E+03  0.50000000000E+03  0.00000000000E+00 0. -1.
        -11    1    1    2    0    0 -0.16793471180E+02 -0.34085302064E+01  0.45108834240E+03  0.45141370316E+03  0.00000000000E+00 0. -1.
         11    1    1    2    0    0  0.60423656918E+01 -0.99768633497E+01 -0.48949093259E+03  0.48962988172E+03  0.00000000000E+00 0. -1.
        -15    1    1    2    0    0  0.15950556842E+02  0.68318010347E+01  0.44930455655E+02  0.48197482748E+02  0.17770000000E+01 0. -1.
         15    1    1    2    0    0 -0.51994513536E+01  0.65535925213E+01 -0.65278654633E+01  0.10758932374E+02  0.17770000000E+01 0.  1.
</event>
<event>
 6    1  0.1782050E-003  0.5112695E+03  0.7546771E-02  0.9374940E-01
        -11   -1    0    0    0    0  0.00000000000E+00  0.00000000000E+00  0.50000000000E+03  0.50000000000E+03  0.00000000000E+00 0. -1.
         11   -1    0    0    0    0 -0.00000000000E+00 -0.00000000000E+00 -0.50000000000E+03  0.50000000000E+03  0.00000000000E+00 0.  1.
        -11    1    1    2    0    0  0.75862170667E+01  0.21844511989E+01  0.48866669872E+03  0.48873046248E+03  0.00000000000E+00 0. -1.
         11    1    1    2    0    0 -0.10976860024E+02  0.11569661008E+02 -0.46195463560E+03  0.46222984960E+03  0.00000000000E+00 0.  1.
        -15    1    1    2    0    0  0.73844146582E+01 -0.77526672530E+01 -0.35739591662E+02  0.37351165585E+02  0.17770000000E+01 0. -1.
         15    1    1    2    0    0 -0.39937717013E+01 -0.60014449540E+01  0.90275285376E+01  0.11688522337E+02  0.17770000000E+01 0.  1.
</event>
<event>
 6    1  0.1782050E-003  0.5057132E+03  0.7546771E-02  0.9387116E-01
        -11   -1    0    0    0    0  0.00000000000E+00  0.00000000000E+00  0.50000000000E+03  0.50000000000E+03  0.00000000000E+00 0. -1.
         11   -1    0    0    0    0 -0.00000000000E+00 -0.00000000000E+00 -0.50000000000E+03  0.50000000000E+03  0.00000000000E+00 0. -1.
        -11    1    1    2    0    0  0.77306024925E+01  0.21242172964E+02  0.49376962943E+03  0.49428679841E+03  0.00000000000E+00 0. -1.
         11    1    1    2    0    0 -0.16445257248E+01 -0.68054525379E+01 -0.39226436616E+03  0.39232684284E+03  0.00000000000E+00 0. -1.
        -15    1    1    2    0    0 -0.28117512291E+01 -0.24350326351E+01 -0.10071030855E+03  0.10079463927E+03  0.17770000000E+01 0. -1.
         15    1    1    2    0    0 -0.32743255387E+01 -0.12001687791E+02 -0.79495472030E+00  0.12591719484E+02  0.17770000000E+01 0.  1.
</event>
<event>
 6    1  0.1782050E-003  0.4887341E+03  0.7546771E-02  0.9425377E-01
        -11   -1    0    0    0    0  0.00000000000E+00  0.00000000000E+00  0.50000000000E+03  0.50000000000E+03  0.00000000000E+00 0. -1.
         11   -1    0    0    0    0 -0.00000000000E+00 -0.00000000000E+00 -0.50000000000E+03  0.50000000000E+03  0.00000000000E+00 0. -1.
        -11    1    1    2    0    0  0.22738209888E+01 -0.72086137690E+01  0.48744865705E+03  0.48750725906E+03  0.00000000000E+00 0. -1.
         11    1    1    2    0    0 -0.39483035031E+01 -0.68477374430E+01 -0.49000306068E+03  0.49006681186E+03  0.00000000000E+00 0. -1.
        -15    1    1    2    0    0  0.71586973637E+01  0.11577887880E+02  0.63145799264E+01  0.15110462744E+02  0.17770000000E+01 0.  1.
         15    1    1    2    0    0 -0.54842148493E+01  0.24784633321E+01 -0.37601762922E+01  0.73154663386E+01  0.17770000000E+01 0. -1.
</event>
<event>
 6    1  0.1782050E-003  0.5035018E+03  0.7546771E-02  0.9392008E-01
        -11   -1    0    0    0    0  0.00000000000E+00  0.00000000000E+00  0.50000000000E+03  0.50000000000E+03  0.00000000000E+00 0. -1.
         11   -1    0    0    0    0 -0.00000000000E+00 -0.00000000000E+00 -0.50000000000E+03  0.50000000000E+03  0.00000000000E+00 0.  1.
        -11    1    1    2    0    0 -0.16246372596E+01 -0.15397646228E+02  0.34917734387E+03  0.34952044923E+03  0.00000000000E+00 0. -1.
         11    1    1    2    0    0  0.14195999463E+02 -0.97574873191E+00 -0.49629426604E+03  0.49649821449E+03  0.00000000000E+00 0.  1.
        -15    1    1    2    0    0 -0.19527231695E+01 -0.13422337779E+02  0.39763827270E+02  0.42051063808E+02  0.17770000000E+01 0.  1.
         15    1    1    2    0    0 -0.10618639034E+02  0.29795732740E+02  0.10735309489E+03  0.11193027248E+03  0.17770000000E+01 0. -1.
</event>
<event>
 6    1  0.1782050E-003  0.5212497E+03  0.7546771E-02  0.9353478E-01
        -11   -1    0    0    0    0  0.00000000000E+00  0.00000000000E+00  0.50000000000E+03  0.50000000000E+03  0.00000000000E+00 0.  1.
         11   -1    0    0    0    0 -0.00000000000E+00 -0.00000000000E+00 -0.50000000000E+03  0.50000000000E+03  0.00000000000E+00 0. -1.
        -11    1    1    2    0    0  0.28799939229E+01  0.49858362365E+01  0.39726480342E+03  0.39730652772E+03  0.00000000000E+00 0.  1.
         11    1    1    2    0    0  0.16048561060E+02 -0.11749737762E+02 -0.47833696907E+03  0.47875031972E+03  0.00000000000E+00 0. -1.
        -15    1    1    2    0    0  0.31362540678E+02 -0.12201396867E+02  0.54207730611E+02  0.63828824447E+02  0.17770000000E+01 0.  1.
         15    1    1    2    0    0 -0.50291095661E+02  0.18965298393E+02  0.26864435040E+02  0.60114328117E+02  0.17770000000E+01 0. -1.
</event>
<event>
 6    1  0.1782050E-003  0.5001869E+03  0.7546771E-02  0.9399392E-01
        -11   -1    0    0    0    0  0.00000000000E+00  0.00000000000E+00  0.50000000000E+03  0.50000000000E+03  0.00000000000E+00 0.  1.
         11   -1    0    0    0    0 -0.00000000000E+00 -0.00000000000E+00 -0.50000000000E+03  0.50000000000E+03  0.00000000000E+00 0. -1.
        -11    1    1    2    0    0 -0.24765694893E+01  0.16954819829E+01  0.11031068092E+03  0.11035150376E+03  0.00000000000E+00 0.  1.
         11    1    1    2    0    0 -0.10747165753E+02 -0.50084287098E+01 -0.49967243026E+03  0.49981308856E+03  0.00000000000E+00 0. -1.
        -15    1    1    2    0    0  0.84342080843E+01  0.83478825618E+01  0.23141924612E+03  0.23173011935E+03  0.17770000000E+01 0.  1.
         15    1    1    2    0    0  0.47895271576E+01 -0.50349358350E+01  0.15794250321E+03  0.15810528833E+03  0.17770000000E+01 0. -1.
</event>
<event>
 6    1  0.1782050E-003  0.5070967E+03  0.7546771E-02  0.9384069E-01
        -11   -1    0    0    0    0  0.00000000000E+00  0.00000000000E+00  0.50000000000E+03  0.50000000000E+03  0.00000000000E+00 0.  1.
         11   -1    0    0    0    0 -0.00000000000E+00 -0.00000000000E+00 -0.50000000000E+03  0.50000000000E+03  0.00000000000E+00 0. -1.
        -11    1    1    2    0    0 -0.81376447215E+01 -0.65768489500E+01  0.49279220040E+03  0.49290326533E+03  0.00000000000E+00 0.  1.
         11    1    1    2    0    0  0.81288439690E+01  0.36750763353E+01 -0.48184991312E+03  0.48193248807E+03  0.00000000000E+00 0. -1.
        -15    1    1    2    0    0  0.25380680258E+01  0.72174742470E+01  0.43487735089E+01  0.89779331609E+01  0.17770000000E+01 0. -1.
         15    1    1    2    0    0 -0.25292672734E+01 -0.43157016324E+01 -0.15291060789E+02  0.16186313433E+02  0.17770000000E+01 0.  1.
</event>
<event>
 6    1  0.1782050E-003  0.5036085E+03  0.7546771E-02  0.9391771E-01
        -11   -1    0    0    0    0  0.00000000000E+00  0.00000000000E+00  0.50000000000E+03  0.50000000000E+03  0.00000000000E+00 0.  1.
         11   -1    0    0    0    0 -0.00000000000E+00 -0.00000000000E+00 -0.50000000000E+03  0.50000000000E+03  0.00000000000E+00 0.  1.
        -11    1    1    2    0    0  0.86074828338E+01 -0.83494880823E+00  0.43729796074E+03  0.43738346147E+03  0.00000000000E+00 0.  1.
         11    1    1    2    0    0 -0.15728885784E+01 -0.15006404976E+02 -0.49616208670E+03  0.49639146090E+03  0.00000000000E+00 0.  1.
        -15    1    1    2    0    0 -0.51085408005E+01  0.20751202897E+02  0.56000741825E+02  0.59966244044E+02  0.17770000000E+01 0.  1.
         15    1    1    2    0    0 -0.19260534549E+01 -0.49098491126E+01  0.28633841419E+01  0.62588335945E+01  0.17770000000E+01 0. -1.
</event>
<event>
 6    1  0.1782050E-003  0.5046491E+03  0.7546771E-02  0.9389467E-01
        -11   -1    0    0    0    0  0.00000000000E+00  0.00000000000E+00  0.50000000000E+03  0.50000000000E+03  0.00000000000E+00 0.  1.
         11   -1    0    0    0    0 -0.00000000000E+00 -0.00000000000E+00 -0.50000000000E+03  0.50000000000E+03  0.00000000000E+00 0. -1.
        -11    1    1    2    0    0 -0.44753805739E+01  0.48071601741E+01  0.41993967149E+03  0.41999103027E+03  0.00000000000E+00 0.  1.
         11    1    1    2    0    0  0.25116195284E+02  0.84969162983E+01 -0.49464072511E+03  0.49535085322E+03  0.00000000000E+00 0. -1.
        -15    1    1    2    0    0 -0.25419055770E+02 -0.14182990011E+02  0.73870774886E+02  0.79418730241E+02  0.17770000000E+01 0.  1.
         15    1    1    2    0    0  0.47782410604E+01  0.87891353821E+00  0.83027873432E+00  0.52393862632E+01  0.17770000000E+01 0. -1.
</event>
<event>
 6    1  0.1782050E-003  0.5067024E+03  0.7546771E-02  0.9384936E-01
        -11   -1    0    0    0    0  0.00000000000E+00  0.00000000000E+00  0.50000000000E+03  0.50000000000E+03  0.00000000000E+00 0. -1.
         11   -1    0    0    0    0 -0.00000000000E+00 -0.00000000000E+00 -0.50000000000E+03  0.50000000000E+03  0.00000000000E+00 0.  1.
        -11    1    1    2    0    0 -0.72526020572E+00  0.14282069545E+02  0.49309026890E+03  0.49329759456E+03  0.00000000000E+00 0. -1.
         11    1    1    2    0    0  0.80113192045E+01 -0.20135628049E+02 -0.47227543015E+03  0.47277236243E+03  0.00000000000E+00 0.  1.
        -15    1    1    2    0    0 -0.67998114041E+01  0.12984214273E+02 -0.21975173046E+02  0.26474387902E+02  0.17770000000E+01 0. -1.
         15    1    1    2    0    0 -0.48624759475E+00 -0.71306557689E+01  0.11603342931E+01  0.74556551080E+01  0.17770000000E+01 0.  1.
</event>
<event>
 6    1  0.1782050E-003  0.5008631E+03  0.7546771E-02  0.9397881E-01
        -11   -1    0    0    0    0  0.00000000000E+00  0.00000000000E+00  0.50000000000E+03  0.50000000000E+03  0.00000000000E+00 0. -1.
         11   -1    0    0    0    0 -0.00000000000E+00 -0.00000000000E+00 -0.50000000000E+03  0.50000000000E+03  0.00000000000E+00 0.  1.
        -11    1    1    2    0    0 -0.40961266290E+01  0.58064034104E+01  0.49908636406E+03  0.49913694650E+03  0.00000000000E+00 0. -1.
         11    1    1    2    0    0  0.35858964720E+01 -0.66665034847E+01 -0.26415779715E+03  0.26426623454E+03  0.00000000000E+00 0.  1.
        -15    1    1    2    0    0 -0.32756985110E+01 -0.66528027429E+01 -0.21154592962E+03  0.21168332020E+03  0.17770000000E+01 0.  1.
         15    1    1    2    0    0  0.37859286680E+01  0.75129028172E+01 -0.23382637290E+02  0.24913498756E+02  0.17770000000E+01 0. -1.
</event>
<event>
 6    1  0.1782050E-003  0.5010459E+03  0.7546771E-02  0.9397472E-01
        -11   -1    0    0    0    0  0.00000000000E+00  0.00000000000E+00  0.50000000000E+03  0.50000000000E+03  0.00000000000E+00 0. -1.
         11   -1    0    0    0    0 -0.00000000000E+00 -0.00000000000E+00 -0.50000000000E+03  0.50000000000E+03  0.00000000000E+00 0.  1.
        -11    1    1    2    0    0 -0.84742257264E+01 -0.19665807817E+01  0.34981597671E+03  0.34992413107E+03  0.00000000000E+00 0. -1.
         11    1    1    2    0    0 -0.32968719540E+01  0.17689907070E+02 -0.49862946596E+03  0.49895405249E+03  0.00000000000E+00 0.  1.
        -15    1    1    2    0    0  0.18925667717E+01 -0.33899217011E+00  0.23722069610E+01  0.35329618654E+01  0.17770000000E+01 0. -1.
         15    1    1    2    0    0  0.98785309087E+01 -0.15384334118E+02  0.14644128228E+03  0.14758885457E+03  0.17770000000E+01 0. -1.
</event>
<event>
 6    1  0.1782050E-003  0.5036620E+03  0.7546771E-02  0.9391653E-01
        -11   -1    0    0    0    0  0.00000000000E+00  0.00000000000E+00  0.50000000000E+03  0.50000000000E+03  0.00000000000E+00 0.  1.
         11   -1    0    0    0    0 -0.00000000000E+00 -0.00000000000E+00 -0.50000000000E+03  0.50000000000E+03  0.00000000000E+00 0.  1.
        -11    1    1    2    0    0 -0.80230621531E+00 -0.23181099590E+02  0.49579572962E+03  0.49633800236E+03  0.00000000000E+00 0.  1.
         11    1    1    2    0    0 -0.33764567654E+01  0.59492574428E+01 -0.40673898747E+03  0.40679650694E+03  0.00000000000E+00 0.  1.
        -15    1    1    2    0    0  0.50593992267E+01  0.23973557316E+02 -0.37487452356E+02  0.44819591521E+02  0.17770000000E+01 0. -1.
         15    1    1    2    0    0 -0.88063624599E+00 -0.67417151690E+01 -0.51569289791E+02  0.52045899187E+02  0.17770000000E+01 0.  1.
</event>
<event>
 6    1  0.1782050E-003  0.5018046E+03  0.7546771E-02  0.9395781E-01
        -11   -1    0    0    0    0  0.00000000000E+00  0.00000000000E+00  0.50000000000E+03  0.50000000000E+03  0.00000000000E+00 0. -1.
         11   -1    0    0    0    0 -0.00000000000E+00 -0.00000000000E+00 -0.50000000000E+03  0.50000000000E+03  0.00000000000E+00 0.  1.
        -11    1    1    2    0    0 -0.69415592821E+01 -0.47561010270E+01  0.49812431386E+03  0.49819538115E+03  0.00000000000E+00 0. -1.
         11    1    1    2    0    0  0.59480121119E+01 -0.80604558330E+01 -0.39267910880E+03  0.39280686385E+03  0.00000000000E+00 0.  1.
        -15    1    1    2    0    0  0.22517942747E+01  0.31920969347E+01 -0.14418457271E+01  0.45273290577E+01  0.17770000000E+01 0. -1.
         15    1    1    2    0    0 -0.12582471044E+01  0.96244599253E+01 -0.10400335934E+03  0.10447042594E+03  0.17770000000E+01 0.  1.
</event>
<event>
 6    1  0.1782050E-003  0.5009419E+03  0.7546771E-02  0.9397705E-01
        -11   -1    0    0    0    0  0.00000000000E+00  0.00000000000E+00  0.50000000000E+03  0.50000000000E+03  0.00000000000E+00 0. -1.
         11   -1    0    0    0    0 -0.00000000000E+00 -0.00000000000E+00 -0.50000000000E+03  0.50000000000E+03  0.00000000000E+00 0. -1.
        -11    1    1    2    0    0  0.77367313829E+01 -0.73219422334E+01  0.21898887233E+03  0.21924779145E+03  0.00000000000E+00 0. -1.
         11    1    1    2    0    0  0.64407495964E+00 -0.81855533352E+01 -0.49899057036E+03  0.49905812028E+03  0.00000000000E+00 0. -1.
        -15    1    1    2    0    0 -0.95889053050E+01  0.10434240805E+02  0.26910490083E+03  0.26948362820E+03  0.17770000000E+01 0. -1.
         15    1    1    2    0    0  0.12080989625E+01  0.50732547634E+01  0.10896797188E+02  0.12210460063E+02  0.17770000000E+01 0.  1.
</event>
<event>
 6    1  0.1782050E-003  0.5026376E+03  0.7546771E-02  0.9393927E-01
        -11   -1    0    0    0    0  0.00000000000E+00  0.00000000000E+00  0.50000000000E+03  0.50000000000E+03  0.00000000000E+00 0. -1.
         11   -1    0    0    0    0 -0.00000000000E+00 -0.00000000000E+00 -0.50000000000E+03  0.50000000000E+03  0.00000000000E+00 0. -1.
        -11    1    1    2    0    0  0.91211202461E+01  0.25476489750E+01  0.45078008050E+03  0.45087954747E+03  0.00000000000E+00 0. -1.
         11    1    1    2    0    0 -0.83336604237E+01 -0.75994699841E+01 -0.49723450401E+03  0.49736239687E+03  0.00000000000E+00 0. -1.
        -15    1    1    2    0    0  0.62777895937E+01  0.52336531713E+01  0.51649102850E+01  0.98303507034E+01  0.17770000000E+01 0. -1.
         15    1    1    2    0    0 -0.70652494161E+01 -0.18183216223E+00  0.41289513222E+02  0.41927704962E+02  0.17770000000E+01 0.  1.
</event>
<event>
 6    1  0.1782050E-003  0.5018600E+03  0.7546771E-02  0.9395657E-01
        -11   -1    0    0    0    0  0.00000000000E+00  0.00000000000E+00  0.50000000000E+03  0.50000000000E+03  0.00000000000E+00 0. -1.
         11   -1    0    0    0    0 -0.00000000000E+00 -0.00000000000E+00 -0.50000000000E+03  0.50000000000E+03  0.00000000000E+00 0. -1.
        -11    1    1    2    0    0 -0.15482060141E+02  0.18913940563E+02  0.24692766749E+03  0.24813444805E+03  0.00000000000E+00 0. -1.
         11    1    1    2    0    0 -0.15971146762E+01 -0.10451694006E+02 -0.49802778805E+03  0.49814000678E+03  0.00000000000E+00 0. -1.
        -15    1    1    2    0    0  0.91875967518E+01 -0.10620943191E+01  0.22759011727E+03  0.22778489674E+03  0.17770000000E+01 0. -1.
         15    1    1    2    0    0  0.78915780658E+01 -0.74001522381E+01  0.23510003288E+02  0.25940648433E+02  0.17770000000E+01 0.  1.
</event>
<event>
 6    1  0.1782050E-003  0.5055987E+03  0.7546771E-02  0.9387369E-01
        -11   -1    0    0    0    0  0.00000000000E+00  0.00000000000E+00  0.50000000000E+03  0.50000000000E+03  0.00000000000E+00 0. -1.
         11   -1    0    0    0    0 -0.00000000000E+00 -0.00000000000E+00 -0.50000000000E+03  0.50000000000E+03  0.00000000000E+00 0. -1.
        -11    1    1    2    0    0  0.21534570243E+02  0.36874605579E+01  0.49391829512E+03  0.49440127157E+03  0.00000000000E+00 0. -1.
         11    1    1    2    0    0 -0.41448374725E+01  0.13463110362E+01 -0.31693225911E+03  0.31696222030E+03  0.00000000000E+00 0. -1.
        -15    1    1    2    0    0  0.19754276234E+01 -0.28769613882E+01 -0.16629360545E+03  0.16633971313E+03  0.17770000000E+01 0.  1.
         15    1    1    2    0    0 -0.19365160393E+02 -0.21568102058E+01 -0.10692430561E+02  0.22296795008E+02  0.17770000000E+01 0. -1.
</event>
<event>
 6    1  0.1782050E-003  0.5000987E+03  0.7546771E-02  0.9399589E-01
        -11   -1    0    0    0    0  0.00000000000E+00  0.00000000000E+00  0.50000000000E+03  0.50000000000E+03  0.00000000000E+00 0.  1.
         11   -1    0    0    0    0 -0.00000000000E+00 -0.00000000000E+00 -0.50000000000E+03  0.50000000000E+03  0.00000000000E+00 0.  1.
        -11    1    1    2    0    0 -0.29522158492E+01 -0.10394136242E+02  0.49978448848E+03  0.49990127883E+03  0.00000000000E+00 0.  1.
         11    1    1    2    0    0  0.12780162587E-01  0.21661828198E+01 -0.93773841678E+02  0.93798858705E+02  0.00000000000E+00 0.  1.
        -15    1    1    2    0    0 -0.29184000797E+01 -0.99049383908E+00 -0.55064080979E+02  0.55178880744E+02  0.17770000000E+01 0.  1.
         15    1    1    2    0    0  0.58578357663E+01  0.92184472616E+01 -0.35094656583E+03  0.35112098172E+03  0.17770000000E+01 0.  1.
</event>
<event>
 6    1  0.1782050E-003  0.5141784E+03  0.7546771E-02  0.9368632E-01
        -11   -1    0    0    0    0  0.00000000000E+00  0.00000000000E+00  0.50000000000E+03  0.50000000000E+03  0.00000000000E+00 0. -1.
         11   -1    0    0    0    0 -0.00000000000E+00 -0.00000000000E+00 -0.50000000000E+03  0.50000000000E+03  0.00000000000E+00 0.  1.
        -11    1    1    2    0    0  0.60135623379E+00 -0.96360343610E+01  0.48572567732E+03  0.48582162199E+03  0.00000000000E+00 0. -1.
         11    1    1    2    0    0  0.88526031977E+01  0.52724812793E+01 -0.47209154144E+03  0.47220397197E+03  0.00000000000E+00 0.  1.
        -15    1    1    2    0    0  0.51828992280E+01 -0.35200071242E+01 -0.22237249353E+02  0.23171229625E+02  0.17770000000E+01 0.  1.
         15    1    1    2    0    0 -0.14636858659E+02  0.78835602058E+01  0.86031134752E+01  0.18803176418E+02  0.17770000000E+01 0. -1.
</event>
<event>
 6    1  0.1782050E-003  0.5587951E+03  0.7546771E-02  0.9277082E-01
        -11   -1    0    0    0    0  0.00000000000E+00  0.00000000000E+00  0.50000000000E+03  0.50000000000E+03  0.00000000000E+00 0.  1.
         11   -1    0    0    0    0 -0.00000000000E+00 -0.00000000000E+00 -0.50000000000E+03  0.50000000000E+03  0.00000000000E+00 0. -1.
        -11    1    1    2    0    0  0.81760979088E+01  0.39207177205E+01  0.38297357908E+03  0.38308090905E+03  0.00000000000E+00 0.  1.
         11    1    1    2    0    0 -0.16498110470E+01  0.18967870026E+02 -0.44079389114E+03  0.44120489167E+03  0.00000000000E+00 0. -1.
        -15    1    1    2    0    0  0.83679022987E+01 -0.12662486725E+02  0.11485134634E+03  0.11586349659E+03  0.17770000000E+01 0.  1.
         15    1    1    2    0    0 -0.14894189160E+02 -0.10226101022E+02 -0.57031034276E+02  0.59850702690E+02  0.17770000000E+01 0. -1.
</event>
<event>
 6    1  0.1782050E-003  0.5025923E+03  0.7546771E-02  0.9394028E-01
        -11   -1    0    0    0    0  0.00000000000E+00  0.00000000000E+00  0.50000000000E+03  0.50000000000E+03  0.00000000000E+00 0.  1.
         11   -1    0    0    0    0 -0.00000000000E+00 -0.00000000000E+00 -0.50000000000E+03  0.50000000000E+03  0.00000000000E+00 0.  1.
        -11    1    1    2    0    0 -0.54519050406E+01 -0.93551121326E+01  0.46337857046E+03  0.46350506033E+03  0.00000000000E+00 0.  1.
         11    1    1    2    0    0 -0.69296873110E+00  0.85112262083E+01 -0.49733435088E+03  0.49740765750E+03  0.00000000000E+00 0.  1.
        -15    1    1    2    0    0  0.86487676189E+01 -0.16153215507E+00  0.54037525108E+01  0.10353045164E+02  0.17770000000E+01 0.  1.
         15    1    1    2    0    0 -0.25038938471E+01  0.10054180794E+01  0.28552027908E+02  0.28734237011E+02  0.17770000000E+01 0. -1.
</event>
<event>
 6    1  0.1782050E-003  0.5089240E+03  0.7546771E-02  0.9380060E-01
        -11   -1    0    0    0    0  0.00000000000E+00  0.00000000000E+00  0.50000000000E+03  0.50000000000E+03  0.00000000000E+00 0.  1.
         11   -1    0    0    0    0 -0.00000000000E+00 -0.00000000000E+00 -0.50000000000E+03  0.50000000000E+03  0.00000000000E+00 0. -1.
        -11    1    1    2    0    0  0.62734801200E+01  0.46471778421E+01  0.38234951273E+03  0.38242921266E+03  0.00000000000E+00 0.  1.
         11    1    1    2    0    0 -0.38567362781E+01  0.15529730849E+02 -0.49081525985E+03  0.49107602900E+03  0.00000000000E+00 0. -1.
        -15    1    1    2    0    0 -0.41563702597E+00 -0.36620544261E+02  0.33384965732E+02  0.49587807796E+02  0.17770000000E+01 0. -1.
         15    1    1    2    0    0 -0.20011068159E+01  0.16443635570E+02  0.75080781386E+02  0.76906950543E+02  0.17770000000E+01 0.  1.
</event>
<event>
 6    1  0.1782050E-003  0.5072968E+03  0.7546771E-02  0.9383629E-01
        -11   -1    0    0    0    0  0.00000000000E+00  0.00000000000E+00  0.50000000000E+03  0.50000000000E+03  0.00000000000E+00 0. -1.
         11   -1    0    0    0    0 -0.00000000000E+00 -0.00000000000E+00 -0.50000000000E+03  0.50000000000E+03  0.00000000000E+00 0. -1.
        -11    1    1    2    0    0  0.45034015296E+01  0.27021503930E+01  0.22763824616E+03  0.22769882160E+03  0.00000000000E+00 0. -1.
         11    1    1    2    0    0  0.78934129349E+01  0.90436615888E-01 -0.49263993101E+03  0.49270317207E+03  0.00000000000E+00 0. -1.
        -15    1    1    2    0    0 -0.13498538865E+01  0.11476006923E+01 -0.69492730629E+01  0.73884516623E+01  0.17770000000E+01 0.  1.
         15    1    1    2    0    0 -0.11046960578E+02 -0.39401877012E+01  0.27195095791E+03  0.27220955467E+03  0.17770000000E+01 0. -1.
</event>
<event>
 6    1  0.1782050E-003  0.5019670E+03  0.7546771E-02  0.9395419E-01
        -11   -1    0    0    0    0  0.00000000000E+00  0.00000000000E+00  0.50000000000E+03  0.50000000000E+03  0.00000000000E+00 0.  1.
         11   -1    0    0    0    0 -0.00000000000E+00 -0.00000000000E+00 -0.50000000000E+03  0.50000000000E+03  0.00000000000E+00 0. -1.
        -11    1    1    2    0    0  0.93995415412E+01  0.26672195135E+02  0.49722939641E+03  0.49803296078E+03  0.00000000000E+00 0.  1.
         11    1    1    2    0    0  0.36389571379E+01 -0.22518795247E+01 -0.22381373894E+03  0.22385464639E+03  0.00000000000E+00 0. -1.
        -15    1    1    2    0    0 -0.20095789785E+02 -0.92308171500E+01 -0.23647201230E+03  0.23751046100E+03  0.17770000000E+01 0. -1.
         15    1    1    2    0    0  0.70572911064E+01 -0.15189498460E+02 -0.36943645167E+02  0.40601931832E+02  0.17770000000E+01 0.  1.
</event>
<event>
 6    1  0.1782050E-003  0.4849183E+03  0.7546771E-02  0.9434203E-01
        -11   -1    0    0    0    0  0.00000000000E+00  0.00000000000E+00  0.50000000000E+03  0.50000000000E+03  0.00000000000E+00 0. -1.
         11   -1    0    0    0    0 -0.00000000000E+00 -0.00000000000E+00 -0.50000000000E+03  0.50000000000E+03  0.00000000000E+00 0. -1.
        -11    1    1    2    0    0  0.62706734406E+01 -0.28397394961E+01  0.48338752727E+03  0.48343653874E+03  0.00000000000E+00 0. -1.
         11    1    1    2    0    0  0.62873943001E+01 -0.54408634724E+01 -0.48645048630E+03  0.48652154109E+03  0.00000000000E+00 0. -1.
        -15    1    1    2    0    0  0.47471549042E+00  0.23466223283E+01  0.12466702037E+02  0.12818283030E+02  0.17770000000E+01 0. -1.
         15    1    1    2    0    0 -0.13032783231E+02  0.59339806403E+01 -0.94037430069E+01  0.17223637146E+02  0.17770000000E+01 0.  1.
</event>
<event>
 6    1  0.1782050E-003  0.5126343E+03  0.7546771E-02  0.9371975E-01
        -11   -1    0    0    0    0  0.00000000000E+00  0.00000000000E+00  0.50000000000E+03  0.50000000000E+03  0.00000000000E+00 0. -1.
         11   -1    0    0    0    0 -0.00000000000E+00 -0.00000000000E+00 -0.50000000000E+03  0.50000000000E+03  0.00000000000E+00 0. -1.
        -11    1    1    2    0    0  0.69602215753E+01 -0.30017265658E+01  0.48730677901E+03  0.48736572706E+03  0.00000000000E+00 0. -1.
         11    1    1    2    0    0  0.10851997643E+02 -0.29478662424E+01 -0.47264843704E+03  0.47278219172E+03  0.00000000000E+00 0. -1.
        -15    1    1    2    0    0 -0.17903082176E+02  0.12838723268E+02  0.15441179671E+01  0.22156154808E+02  0.17770000000E+01 0. -1.
         15    1    1    2    0    0  0.90862957483E-01 -0.68891304603E+01 -0.16202459932E+02  0.17695926408E+02  0.17770000000E+01 0.  1.
</event>
<event>
 6    1  0.1782050E-003  0.5001201E+03  0.7546771E-02  0.9399541E-01
        -11   -1    0    0    0    0  0.00000000000E+00  0.00000000000E+00  0.50000000000E+03  0.50000000000E+03  0.00000000000E+00 0.  1.
         11   -1    0    0    0    0 -0.00000000000E+00 -0.00000000000E+00 -0.50000000000E+03  0.50000000000E+03  0.00000000000E+00 0.  1.
        -11    1    1    2    0    0  0.68537068345E+01 -0.13237058127E+01  0.49983112706E+03  0.49987986664E+03  0.00000000000E+00 0.  1.
         11    1    1    2    0    0  0.15196098885E+01  0.25367240500E+01 -0.71001027336E+02  0.71062578520E+02  0.00000000000E+00 0.  1.
        -15    1    1    2    0    0 -0.82185869802E+01 -0.40443886061E+01 -0.37919400419E+03  0.37930878291E+03  0.17770000000E+01 0. -1.
         15    1    1    2    0    0 -0.15472974277E+00  0.28313703689E+01 -0.49636095531E+02  0.49748771925E+02  0.17770000000E+01 0.  1.
</event>
<event>
 6    1  0.1782050E-003  0.5062431E+03  0.7546771E-02  0.9385948E-01
        -11   -1    0    0    0    0  0.00000000000E+00  0.00000000000E+00  0.50000000000E+03  0.50000000000E+03  0.00000000000E+00 0.  1.
         11   -1    0    0    0    0 -0.00000000000E+00 -0.00000000000E+00 -0.50000000000E+03  0.50000000000E+03  0.00000000000E+00 0.  1.
        -11    1    1    2    0    0  0.55050797883E+01 -0.42928708211E+01  0.46558291600E+03  0.46563525030E+03  0.00000000000E+00 0.  1.
         11    1    1    2    0    0 -0.70765709085E+01  0.58032095041E+01 -0.49367206481E+03  0.49375688620E+03  0.00000000000E+00 0.  1.
        -15    1    1    2    0    0  0.10580971076E+02 -0.70730692665E+01  0.28259067755E+01  0.13157839331E+02  0.17770000000E+01 0.  1.
         15    1    1    2    0    0 -0.90094799559E+01  0.55627305835E+01  0.25263242026E+02  0.27450024177E+02  0.17770000000E+01 0. -1.
</event>
<event>
 6    1  0.1782050E-003  0.5127847E+03  0.7546771E-02  0.9371649E-01
        -11   -1    0    0    0    0  0.00000000000E+00  0.00000000000E+00  0.50000000000E+03  0.50000000000E+03  0.00000000000E+00 0. -1.
         11   -1    0    0    0    0 -0.00000000000E+00 -0.00000000000E+00 -0.50000000000E+03  0.50000000000E+03  0.00000000000E+00 0. -1.
        -11    1    1    2    0    0 -0.95843745345E+00 -0.68658262650E+01  0.48716599384E+03  0.48721531557E+03  0.00000000000E+00 0. -1.
         11    1    1    2    0    0 -0.42300707369E+01 -0.31298172566E+01 -0.34811783617E+03  0.34815760385E+03  0.00000000000E+00 0. -1.
        -15    1    1    2    0    0  0.16174770476E+01  0.17465452738E+02  0.65317792705E+01  0.18801067544E+02  0.17770000000E+01 0.  1.
         15    1    1    2    0    0  0.35710311427E+01 -0.74698092165E+01 -0.14557993694E+03  0.14582601304E+03  0.17770000000E+01 0. -1.
</event>
<event>
 6    1  0.1782050E-003  0.5036657E+03  0.7546771E-02  0.9391645E-01
        -11   -1    0    0    0    0  0.00000000000E+00  0.00000000000E+00  0.50000000000E+03  0.50000000000E+03  0.00000000000E+00 0.  1.
         11   -1    0    0    0    0 -0.00000000000E+00 -0.00000000000E+00 -0.50000000000E+03  0.50000000000E+03  0.00000000000E+00 0. -1.
        -11    1    1    2    0    0 -0.65791210073E+01 -0.50155868822E+01  0.49626531956E+03  0.49633427077E+03  0.00000000000E+00 0.  1.
         11    1    1    2    0    0 -0.15258255285E+02  0.24985022025E+01 -0.44471284408E+03  0.44498153957E+03  0.00000000000E+00 0. -1.
        -15    1    1    2    0    0 -0.38303503152E+00  0.41963981803E+01 -0.37541837977E+01  0.59167641925E+01  0.17770000000E+01 0. -1.
         15    1    1    2    0    0  0.22220411324E+02 -0.16793135006E+01 -0.47798291679E+02  0.52767425460E+02  0.17770000000E+01 0.  1.
</event>
<event>
 6    1  0.1782050E-003  0.5054932E+03  0.7546771E-02  0.9387601E-01
        -11   -1    0    0    0    0  0.00000000000E+00  0.00000000000E+00  0.50000000000E+03  0.50000000000E+03  0.00000000000E+00 0. -1.
         11   -1    0    0    0    0 -0.00000000000E+00 -0.00000000000E+00 -0.50000000000E+03  0.50000000000E+03  0.00000000000E+00 0. -1.
        -11    1    1    2    0    0  0.82820470306E+01  0.13308640581E+01  0.49443561331E+03  0.49450676357E+03  0.00000000000E+00 0. -1.
         11    1    1    2    0    0  0.97400130870E+01 -0.17365262995E+01 -0.40402436817E+03  0.40414548550E+03  0.00000000000E+00 0. -1.
        -15    1    1    2    0    0 -0.23027179816E+02  0.30201355124E+01 -0.20036444624E+02  0.30724405136E+02  0.17770000000E+01 0. -1.
         15    1    1    2    0    0  0.50051196980E+01 -0.26144732710E+01 -0.70374800521E+02  0.70623345793E+02  0.17770000000E+01 0.  1.
</event>
<event>
 6    1  0.1782050E-003  0.5020702E+03  0.7546771E-02  0.9395189E-01
        -11   -1    0    0    0    0  0.00000000000E+00  0.00000000000E+00  0.50000000000E+03  0.50000000000E+03  0.00000000000E+00 0. -1.
         11   -1    0    0    0    0 -0.00000000000E+00 -0.00000000000E+00 -0.50000000000E+03  0.50000000000E+03  0.00000000000E+00 0. -1.
        -11    1    1    2    0    0 -0.62227248092E+01  0.53833336329E+01  0.49786177977E+03  0.49792976848E+03  0.00000000000E+00 0. -1.
         11    1    1    2    0    0  0.62492838582E+01  0.76869450110E+01 -0.45431151380E+03  0.45441951349E+03  0.00000000000E+00 0. -1.
        -15    1    1    2    0    0 -0.17941480290E+01 -0.10370258136E+02 -0.42500221642E+02  0.43819947394E+02  0.17770000000E+01 0.  1.
         15    1    1    2    0    0  0.17675889800E+01 -0.27000205074E+01 -0.10500443270E+01  0.38307706315E+01  0.17770000000E+01 0. -1.
</event>
<event>
 6    1  0.1782050E-003  0.5004735E+03  0.7546771E-02  0.9398751E-01
        -11   -1    0    0    0    0  0.00000000000E+00  0.00000000000E+00  0.50000000000E+03  0.50000000000E+03  0.00000000000E+00 0.  1.
         11   -1    0    0    0    0 -0.00000000000E+00 -0.00000000000E+00 -0.50000000000E+03  0.50000000000E+03  0.00000000000E+00 0. -1.
        -11    1    1    2    0    0  0.19316944641E+00 -0.51620717333E+00  0.23036275561E+02  0.23042868224E+02  0.00000000000E+00 0.  1.
         11    1    1    2    0    0  0.87031040819E+01 -0.10665088493E+02 -0.49933678990E+03  0.49952649368E+03  0.00000000000E+00 0. -1.
        -15    1    1    2    0    0 -0.60654809416E+01  0.62143800254E+01  0.35512400335E+02  0.36601869961E+02  0.17770000000E+01 0. -1.
         15    1    1    2    0    0 -0.28307925868E+01  0.49669156405E+01  0.44078811401E+03  0.44082876814E+03  0.17770000000E+01 0.  1.
</event>
<event>
 6    1  0.1782050E-003  0.5063119E+03  0.7546771E-02  0.9385796E-01
        -11   -1    0    0    0    0  0.00000000000E+00  0.00000000000E+00  0.50000000000E+03  0.50000000000E+03  0.00000000000E+00 0.  1.
         11   -1    0    0    0    0 -0.00000000000E+00 -0.00000000000E+00 -0.50000000000E+03  0.50000000000E+03  0.00000000000E+00 0.  1.
        -11    1    1    2    0    0  0.92582716716E+01 -0.21856190766E+00  0.49360119465E+03  0.49368806216E+03  0.00000000000E+00 0.  1.
         11    1    1    2    0    0 -0.56137287088E+01 -0.21758268681E+01 -0.16828623549E+03  0.16839389903E+03  0.00000000000E+00 0.  1.
        -15    1    1    2    0    0 -0.20530957777E+02  0.32437886012E+02 -0.66447329117E+02  0.76760288899E+02  0.17770000000E+01 0. -1.
         15    1    1    2    0    0  0.16886414814E+02 -0.30043497237E+02 -0.25886763003E+03  0.26115774991E+03  0.17770000000E+01 0.  1.
</event>
<event>
 6    1  0.1782050E-003  0.5072243E+03  0.7546771E-02  0.9383788E-01
        -11   -1    0    0    0    0  0.00000000000E+00  0.00000000000E+00  0.50000000000E+03  0.50000000000E+03  0.00000000000E+00 0.  1.
         11   -1    0    0    0    0 -0.00000000000E+00 -0.00000000000E+00 -0.50000000000E+03  0.50000000000E+03  0.00000000000E+00 0. -1.
        -11    1    1    2    0    0  0.69892227905E+01  0.74372601768E+01  0.49266999758E+03  0.49277569805E+03  0.00000000000E+00 0.  1.
         11    1    1    2    0    0 -0.17601221271E+02 -0.32597718685E+01 -0.44635238886E+03  0.44671118650E+03  0.00000000000E+00 0. -1.
        -15    1    1    2    0    0  0.15392415887E+02 -0.63026313777E+01 -0.50746320471E+02  0.53432166337E+02  0.17770000000E+01 0.  1.
         15    1    1    2    0    0 -0.47804174069E+01  0.21251430694E+01  0.44287117448E+01  0.70809491149E+01  0.17770000000E+01 0. -1.
</event>
<event>
 6    1  0.1782050E-003  0.5199776E+03  0.7546771E-02  0.9356185E-01
        -11   -1    0    0    0    0  0.00000000000E+00  0.00000000000E+00  0.50000000000E+03  0.50000000000E+03  0.00000000000E+00 0. -1.
         11   -1    0    0    0    0 -0.00000000000E+00 -0.00000000000E+00 -0.50000000000E+03  0.50000000000E+03  0.00000000000E+00 0. -1.
        -11    1    1    2    0    0 -0.63470858509E+01 -0.15450325250E+01  0.40517616754E+03  0.40522882346E+03  0.00000000000E+00 0. -1.
         11    1    1    2    0    0 -0.26335499840E+02 -0.20439189103E+02 -0.47886339727E+03  0.48002236641E+03  0.00000000000E+00 0. -1.
        -15    1    1    2    0    0  0.48064736679E+02  0.29915905372E+01  0.13931738074E+02  0.50163927087E+02  0.17770000000E+01 0.  1.
         15    1    1    2    0    0 -0.15382150989E+02  0.18992631091E+02  0.59755491662E+02  0.64584883042E+02  0.17770000000E+01 0. -1.
</event>
<event>
 6    1  0.1782050E-003  0.5101978E+03  0.7546771E-02  0.9377276E-01
        -11   -1    0    0    0    0  0.00000000000E+00  0.00000000000E+00  0.50000000000E+03  0.50000000000E+03  0.00000000000E+00 0. -1.
         11   -1    0    0    0    0 -0.00000000000E+00 -0.00000000000E+00 -0.50000000000E+03  0.50000000000E+03  0.00000000000E+00 0. -1.
        -11    1    1    2    0    0  0.67780916788E+02 -0.11670786909E+02  0.48494920099E+03  0.48980219220E+03  0.00000000000E+00 0. -1.
         11    1    1    2    0    0 -0.87548767755E+01 -0.11055114014E+02 -0.10268990548E+03  0.10365365454E+03  0.00000000000E+00 0. -1.
        -15    1    1    2    0    0 -0.46664697046E+02  0.36622814893E+02 -0.62308980112E+02  0.86048772522E+02  0.17770000000E+01 0.  1.
         15    1    1    2    0    0 -0.12361342966E+02 -0.13896913970E+02 -0.31995031540E+03  0.32049538073E+03  0.17770000000E+01 0. -1.
</event>
<event>
 6    1  0.1782050E-003  0.5019458E+03  0.7546771E-02  0.9395466E-01
        -11   -1    0    0    0    0  0.00000000000E+00  0.00000000000E+00  0.50000000000E+03  0.50000000000E+03  0.00000000000E+00 0. -1.
         11   -1    0    0    0    0 -0.00000000000E+00 -0.00000000000E+00 -0.50000000000E+03  0.50000000000E+03  0.00000000000E+00 0.  1.
        -11    1    1    2    0    0 -0.51405640067E+01  0.12748784748E+02  0.49786443189E+03  0.49805416317E+03  0.00000000000E+00 0. -1.
         11    1    1    2    0    0 -0.58984126319E+01 -0.71069248239E+01 -0.44304581691E+03  0.44314207150E+03  0.00000000000E+00 0.  1.
        -15    1    1    2    0    0  0.80673737959E+01 -0.11101614043E+02 -0.28212262183E+02  0.31423205133E+02  0.17770000000E+01 0.  1.
         15    1    1    2    0    0  0.29716028427E+01  0.54597541196E+01 -0.26606352793E+02  0.27380560192E+02  0.17770000000E+01 0. -1.
</event>
<event>
 6    1  0.1782050E-003  0.5161154E+03  0.7546771E-02  0.9364455E-01
        -11   -1    0    0    0    0  0.00000000000E+00  0.00000000000E+00  0.50000000000E+03  0.50000000000E+03  0.00000000000E+00 0. -1.
         11   -1    0    0    0    0 -0.00000000000E+00 -0.00000000000E+00 -0.50000000000E+03  0.50000000000E+03  0.00000000000E+00 0.  1.
        -11    1    1    2    0    0 -0.50065281710E+01 -0.28816091023E+01  0.41413690625E+03  0.41417719168E+03  0.00000000000E+00 0. -1.
         11    1    1    2    0    0 -0.15352193677E+02  0.13001329867E+02 -0.48346620745E+03  0.48388459179E+03  0.00000000000E+00 0.  1.
        -15    1    1    2    0    0 -0.17216114859E+01  0.64027206995E+01  0.73648583500E+02  0.73967765675E+02  0.17770000000E+01 0. -1.
         15    1    1    2    0    0  0.22080333334E+02 -0.16522441464E+02 -0.43192822965E+01  0.27970450848E+02  0.17770000000E+01 0.  1.
</event>
<event>
 6    1  0.1782050E-003  0.5014480E+03  0.7546771E-02  0.9396576E-01
        -11   -1    0    0    0    0  0.00000000000E+00  0.00000000000E+00  0.50000000000E+03  0.50000000000E+03  0.00000000000E+00 0.  1.
         11   -1    0    0    0    0 -0.00000000000E+00 -0.00000000000E+00 -0.50000000000E+03  0.50000000000E+03  0.00000000000E+00 0. -1.
        -11    1    1    2    0    0  0.38631120139E+02 -0.18532769732E+02  0.49670746639E+03  0.49855203757E+03  0.00000000000E+00 0.  1.
         11    1    1    2    0    0  0.10580127581E+01  0.66257330008E+01 -0.15987520124E+03  0.16001593577E+03  0.00000000000E+00 0. -1.
        -15    1    1    2    0    0 -0.41253597090E+02  0.14143177770E+02 -0.20665142954E+03  0.21121046330E+03  0.17770000000E+01 0. -1.
         15    1    1    2    0    0  0.15644641936E+01 -0.22361410384E+01 -0.13018083561E+03  0.13022156336E+03  0.17770000000E+01 0.  1.
</event>
<event>
 6    1  0.1782050E-003  0.5001902E+03  0.7546771E-02  0.9399384E-01
        -11   -1    0    0    0    0  0.00000000000E+00  0.00000000000E+00  0.50000000000E+03  0.50000000000E+03  0.00000000000E+00 0. -1.
         11   -1    0    0    0    0 -0.00000000000E+00 -0.00000000000E+00 -0.50000000000E+03  0.50000000000E+03  0.00000000000E+00 0.  1.
        -11    1    1    2    0    0 -0.10190519197E-01  0.17355968077E+01  0.30174253131E+02  0.30224128642E+02  0.00000000000E+00 0. -1.
         11    1    1    2    0    0 -0.12284107931E+02 -0.88879233731E+01 -0.49957977317E+03  0.49980980808E+03  0.00000000000E+00 0.  1.
        -15    1    1    2    0    0  0.29505764240E+01 -0.47254845664E+01  0.61646254722E+02  0.61922972764E+02  0.17770000000E+01 0.  1.
         15    1    1    2    0    0  0.93437220267E+01  0.11877811132E+02  0.40775926532E+03  0.40804309052E+03  0.17770000000E+01 0. -1.
</event>
<event>
 6    1  0.1782050E-003  0.5075251E+03  0.7546771E-02  0.9383127E-01
        -11   -1    0    0    0    0  0.00000000000E+00  0.00000000000E+00  0.50000000000E+03  0.50000000000E+03  0.00000000000E+00 0. -1.
         11   -1    0    0    0    0 -0.00000000000E+00 -0.00000000000E+00 -0.50000000000E+03  0.50000000000E+03  0.00000000000E+00 0.  1.
        -11    1    1    2    0    0  0.12350332221E+00  0.93234859056E+01  0.46610989237E+03  0.46620314715E+03  0.00000000000E+00 0. -1.
         11    1    1    2    0    0 -0.14679755043E+02 -0.12467237786E+02 -0.49209816142E+03  0.49247490057E+03  0.00000000000E+00 0.  1.
        -15    1    1    2    0    0 -0.15242981963E+01 -0.27955514828E+01  0.23650481997E+02  0.23929931483E+02  0.17770000000E+01 0. -1.
         15    1    1    2    0    0  0.16080549917E+02  0.59393033633E+01  0.23377870443E+01  0.17392020795E+02  0.17770000000E+01 0. -1.
</event>
<event>
 6    1  0.1782050E-003  0.5285169E+03  0.7546771E-02  0.9338169E-01
        -11   -1    0    0    0    0  0.00000000000E+00  0.00000000000E+00  0.50000000000E+03  0.50000000000E+03  0.00000000000E+00 0. -1.
         11   -1    0    0    0    0 -0.00000000000E+00 -0.00000000000E+00 -0.50000000000E+03  0.50000000000E+03  0.00000000000E+00 0.  1.
        -11    1    1    2    0    0  0.26037365073E+01 -0.24481853618E+01  0.22394130965E+03  0.22396982659E+03  0.00000000000E+00 0. -1.
         11    1    1    2    0    0  0.94746499937E+01 -0.51286220455E+02 -0.46858962552E+03  0.47148306708E+03  0.00000000000E+00 0.  1.
        -15    1    1    2    0    0  0.20268819258E+02  0.65576110699E+02  0.25843596373E+03  0.26740111519E+03  0.17770000000E+01 0.  1.
         15    1    1    2    0    0 -0.32347205759E+02 -0.11841704882E+02 -0.13787647859E+02  0.37145991135E+02  0.17770000000E+01 0. -1.
</event>
<event>
 6    1  0.1782050E-003  0.4911664E+03  0.7546771E-02  0.9419795E-01
        -11   -1    0    0    0    0  0.00000000000E+00  0.00000000000E+00  0.50000000000E+03  0.50000000000E+03  0.00000000000E+00 0.  1.
         11   -1    0    0    0    0 -0.00000000000E+00 -0.00000000000E+00 -0.50000000000E+03  0.50000000000E+03  0.00000000000E+00 0.  1.
        -11    1    1    2    0    0  0.73788551096E+01 -0.56012082937E+00  0.49350305823E+03  0.49355853728E+03  0.00000000000E+00 0.  1.
         11    1    1    2    0    0  0.60336053914E+01  0.36036517613E+01 -0.48883105669E+03  0.48888157327E+03  0.00000000000E+00 0.  1.
        -15    1    1    2    0    0 -0.11740695282E+02 -0.17500931267E+01  0.14947674747E+00  0.12003617120E+02  0.17770000000E+01 0. -1.
         15    1    1    2    0    0 -0.16717652185E+01 -0.12934378052E+01 -0.48214782911E+01  0.55562723307E+01  0.17770000000E+01 0.  1.
</event>
<event>
 6    1  0.1782050E-003  0.5003979E+03  0.7546771E-02  0.9398920E-01
        -11   -1    0    0    0    0  0.00000000000E+00  0.00000000000E+00  0.50000000000E+03  0.50000000000E+03  0.00000000000E+00 0.  1.
         11   -1    0    0    0    0 -0.00000000000E+00 -0.00000000000E+00 -0.50000000000E+03  0.50000000000E+03  0.00000000000E+00 0. -1.
        -11    1    1    2    0    0 -0.82765222412E+01  0.45611179193E+01  0.49951266860E+03  0.49960205235E+03  0.00000000000E+00 0.  1.
         11    1    1    2    0    0  0.75882854766E+01 -0.72301938383E+01 -0.31925561236E+03  0.31942761903E+03  0.00000000000E+00 0. -1.
        -15    1    1    2    0    0  0.52858594647E+01 -0.12669065930E+00 -0.25208871412E+02  0.25818622885E+02  0.17770000000E+01 0.  1.
         15    1    1    2    0    0 -0.45976227000E+01  0.27957665783E+01 -0.15504818483E+03  0.15515170574E+03  0.17770000000E+01 0. -1.
</event>
<event>
 6    1  0.1782050E-003  0.5028982E+03  0.7546771E-02  0.9393348E-01
        -11   -1    0    0    0    0  0.00000000000E+00  0.00000000000E+00  0.50000000000E+03  0.50000000000E+03  0.00000000000E+00 0.  1.
         11   -1    0    0    0    0 -0.00000000000E+00 -0.00000000000E+00 -0.50000000000E+03  0.50000000000E+03  0.00000000000E+00 0.  1.
        -11    1    1    2    0    0  0.10456580382E+02 -0.34250721648E+01  0.49698004925E+03  0.49710184122E+03  0.00000000000E+00 0.  1.
         11    1    1    2    0    0 -0.18843664096E+00 -0.63662174433E+01 -0.46949336095E+03  0.46953655897E+03  0.00000000000E+00 0.  1.
        -15    1    1    2    0    0 -0.94560225819E+01  0.66045668343E+01 -0.96669159114E+01  0.15153998099E+02  0.17770000000E+01 0. -1.
         15    1    1    2    0    0 -0.81212115867E+00  0.31867227738E+01 -0.17819772390E+02  0.18207601705E+02  0.17770000000E+01 0. -1.
</event>
<event>
 6    1  0.1782050E-003  0.5254483E+03  0.7546771E-02  0.9344601E-01
        -11   -1    0    0    0    0  0.00000000000E+00  0.00000000000E+00  0.50000000000E+03  0.50000000000E+03  0.00000000000E+00 0.  1.
         11   -1    0    0    0    0 -0.00000000000E+00 -0.00000000000E+00 -0.50000000000E+03  0.50000000000E+03  0.00000000000E+00 0.  1.
        -11    1    1    2    0    0 -0.99706258939E+01  0.14846603749E+02  0.47421460241E+03  0.47455170863E+03  0.00000000000E+00 0.  1.
         11    1    1    2    0    0  0.54567937871E+02  0.30199119678E+01 -0.43113712606E+03  0.43458716178E+03  0.00000000000E+00 0.  1.
        -15    1    1    2    0    0 -0.33242843809E+02  0.14658893824E+02 -0.43056745715E+02  0.56364979493E+02  0.17770000000E+01 0.  1.
         15    1    1    2    0    0 -0.11354468169E+02 -0.32525409541E+02 -0.20730632544E-01  0.34496150103E+02  0.17770000000E+01 0. -1.
</event>
<event>
 6    1  0.1782050E-003  0.5594032E+03  0.7546771E-02  0.9275898E-01
        -11   -1    0    0    0    0  0.00000000000E+00  0.00000000000E+00  0.50000000000E+03  0.50000000000E+03  0.00000000000E+00 0.  1.
         11   -1    0    0    0    0 -0.00000000000E+00 -0.00000000000E+00 -0.50000000000E+03  0.50000000000E+03  0.00000000000E+00 0. -1.
        -11    1    1    2    0    0  0.22748369019E+01 -0.76713414541E+01  0.44052416378E+03  0.44059682618E+03  0.00000000000E+00 0.  1.
         11    1    1    2    0    0 -0.21988737996E+02  0.12033639370E+02 -0.41508597913E+03  0.41584213729E+03  0.00000000000E+00 0. -1.
        -15    1    1    2    0    0 -0.40089097998E+01  0.21742540051E+01  0.57153830416E+02  0.57363026406E+02  0.17770000000E+01 0.  1.
         15    1    1    2    0    0  0.23722810894E+02 -0.65365519214E+01 -0.82592015063E+02  0.86198010122E+02  0.17770000000E+01 0. -1.
</event>
<event>
 6    1  0.1782050E-003  0.5000533E+03  0.7546771E-02  0.9399690E-01
        -11   -1    0    0    0    0  0.00000000000E+00  0.00000000000E+00  0.50000000000E+03  0.50000000000E+03  0.00000000000E+00 0.  1.
         11   -1    0    0    0    0 -0.00000000000E+00 -0.00000000000E+00 -0.50000000000E+03  0.50000000000E+03  0.00000000000E+00 0.  1.
        -11    1    1    2    0    0  0.74104222142E-01 -0.16165284655E+01  0.10840899759E+03  0.10842107458E+03  0.00000000000E+00 0.  1.
         11    1    1    2    0    0  0.75247309987E+01  0.64874830111E+00 -0.49988960614E+03  0.49994665793E+03  0.00000000000E+00 0.  1.
        -15    1    1    2    0    0 -0.53355435124E+01  0.37543275202E+01  0.21540241211E+03  0.21550851461E+03  0.17770000000E+01 0. -1.
         15    1    1    2    0    0 -0.22632917085E+01 -0.27865473558E+01  0.17607819644E+03  0.17612375288E+03  0.17770000000E+01 0.  1.
</event>
<event>
 6    1  0.1782050E-003  0.5018731E+03  0.7546771E-02  0.9395628E-01
        -11   -1    0    0    0    0  0.00000000000E+00  0.00000000000E+00  0.50000000000E+03  0.50000000000E+03  0.00000000000E+00 0. -1.
         11   -1    0    0    0    0 -0.00000000000E+00 -0.00000000000E+00 -0.50000000000E+03  0.50000000000E+03  0.00000000000E+00 0.  1.
        -11    1    1    2    0    0  0.47628795070E+01 -0.92406162733E+01  0.43819825099E+03  0.43832154998E+03  0.00000000000E+00 0. -1.
         11    1    1    2    0    0 -0.73346879332E+01 -0.19171350235E+01 -0.49806924373E+03  0.49812693624E+03  0.00000000000E+00 0.  1.
        -15    1    1    2    0    0 -0.78245138859E+00  0.85489416450E+01  0.57869046459E+02  0.58529316590E+02  0.17770000000E+01 0.  1.
         15    1    1    2    0    0  0.33542598148E+01  0.26088096518E+01  0.20019462852E+01  0.50221971918E+01  0.17770000000E+01 0. -1.
</event>
<event>
 6    1  0.1782050E-003  0.5022930E+03  0.7546771E-02  0.9394693E-01
        -11   -1    0    0    0    0  0.00000000000E+00  0.00000000000E+00  0.50000000000E+03  0.50000000000E+03  0.00000000000E+00 0.  1.
         11   -1    0    0    0    0 -0.00000000000E+00 -0.00000000000E+00 -0.50000000000E+03  0.50000000000E+03  0.00000000000E+00 0.  1.
        -11    1    1    2    0    0  0.62485986238E+01 -0.12103397227E+02  0.37671422659E+03  0.37696040339E+03  0.00000000000E+00 0.  1.
         11    1    1    2    0    0 -0.21883734059E+02 -0.95891801365E+01 -0.49713314673E+03  0.49770695773E+03  0.00000000000E+00 0.  1.
        -15    1    1    2    0    0  0.11655486723E+02  0.11463601360E+02  0.10523997857E+03  0.10651701904E+03  0.17770000000E+01 0.  1.
         15    1    1    2    0    0  0.39796487116E+01  0.10228976003E+02  0.15178941574E+02  0.18815619848E+02  0.17770000000E+01 0. -1.
</event>
<event>
 6    1  0.1782050E-003  0.5006440E+03  0.7546771E-02  0.9398370E-01
        -11   -1    0    0    0    0  0.00000000000E+00  0.00000000000E+00  0.50000000000E+03  0.50000000000E+03  0.00000000000E+00 0.  1.
         11   -1    0    0    0    0 -0.00000000000E+00 -0.00000000000E+00 -0.50000000000E+03  0.50000000000E+03  0.00000000000E+00 0.  1.
        -11    1    1    2    0    0 -0.53770273854E+01  0.99249834028E+01  0.49922840878E+03  0.49935600713E+03  0.00000000000E+00 0.  1.
         11    1    1    2    0    0 -0.56650874694E+01 -0.23957014370E+00 -0.28687668349E+03  0.28693271361E+03  0.00000000000E+00 0.  1.
        -15    1    1    2    0    0 -0.20139821431E+01 -0.82066513341E+01 -0.13116735567E+03  0.13145127680E+03  0.17770000000E+01 0. -1.
         15    1    1    2    0    0  0.13056096998E+02 -0.14787619250E+01 -0.81184369621E+02  0.82260002464E+02  0.17770000000E+01 0.  1.
</event>
<event>
 6    1  0.1782050E-003  0.5078609E+03  0.7546771E-02  0.9382390E-01
        -11   -1    0    0    0    0  0.00000000000E+00  0.00000000000E+00  0.50000000000E+03  0.50000000000E+03  0.00000000000E+00 0. -1.
         11   -1    0    0    0    0 -0.00000000000E+00 -0.00000000000E+00 -0.50000000000E+03  0.50000000000E+03  0.00000000000E+00 0. -1.
        -11    1    1    2    0    0  0.10534051855E+02 -0.32787346454E+00  0.48246895268E+03  0.48258404869E+03  0.00000000000E+00 0. -1.
         11    1    1    2    0    0  0.83896366863E+00 -0.81329326739E+01 -0.49207114915E+03  0.49213907006E+03  0.00000000000E+00 0. -1.
        -15    1    1    2    0    0  0.24938122251E+00 -0.51055113473E+01  0.26478148956E+01  0.60247066180E+01  0.17770000000E+01 0.  1.
         15    1    1    2    0    0 -0.11622396746E+02  0.13566317486E+02  0.69543815719E+01  0.19252174638E+02  0.17770000000E+01 0. -1.
</event>
<event>
 6    1  0.1782050E-003  0.5112198E+03  0.7546771E-02  0.9375049E-01
        -11   -1    0    0    0    0  0.00000000000E+00  0.00000000000E+00  0.50000000000E+03  0.50000000000E+03  0.00000000000E+00 0.  1.
         11   -1    0    0    0    0 -0.00000000000E+00 -0.00000000000E+00 -0.50000000000E+03  0.50000000000E+03  0.00000000000E+00 0. -1.
        -11    1    1    2    0    0  0.72059828171E+01  0.16548622852E+02  0.48844678971E+03  0.48878016478E+03  0.00000000000E+00 0.  1.
         11    1    1    2    0    0 -0.43186962406E+02  0.13087575764E+02 -0.27103806689E+03  0.27476905223E+03  0.00000000000E+00 0. -1.
        -15    1    1    2    0    0 -0.50290098527E+01 -0.93896842095E+01  0.31055915118E+01  0.11236526923E+02  0.17770000000E+01 0.  1.
         15    1    1    2    0    0  0.41009989442E+02 -0.20246514407E+02 -0.22051431433E+03  0.22521425606E+03  0.17770000000E+01 0. -1.
</event>
<event>
 6    1  0.1782050E-003  0.5021939E+03  0.7546771E-02  0.9394914E-01
        -11   -1    0    0    0    0  0.00000000000E+00  0.00000000000E+00  0.50000000000E+03  0.50000000000E+03  0.00000000000E+00 0. -1.
         11   -1    0    0    0    0 -0.00000000000E+00 -0.00000000000E+00 -0.50000000000E+03  0.50000000000E+03  0.00000000000E+00 0. -1.
        -11    1    1    2    0    0  0.58704374986E+01 -0.60205761858E+01  0.42240433487E+03  0.42248802526E+03  0.00000000000E+00 0. -1.
         11    1    1    2    0    0  0.18022946340E+01 -0.14173627004E+02 -0.49760099717E+03  0.49780607907E+03  0.00000000000E+00 0. -1.
        -15    1    1    2    0    0 -0.72645931578E+01  0.15624248764E+02  0.33437549600E+02  0.37657919691E+02  0.17770000000E+01 0.  1.
         15    1    1    2    0    0 -0.40813897476E+00  0.45699544254E+01  0.41759112709E+02  0.42047975981E+02  0.17770000000E+01 0. -1.
</event>
<event>
 6    1  0.1782050E-003  0.5003766E+03  0.7546771E-02  0.9398967E-01
        -11   -1    0    0    0    0  0.00000000000E+00  0.00000000000E+00  0.50000000000E+03  0.50000000000E+03  0.00000000000E+00 0.  1.
         11   -1    0    0    0    0 -0.00000000000E+00 -0.00000000000E+00 -0.50000000000E+03  0.50000000000E+03  0.00000000000E+00 0. -1.
        -11    1    1    2    0    0 -0.59834642225E+00 -0.71658345785E+01  0.49957165418E+03  0.49962340304E+03  0.00000000000E+00 0.  1.
         11    1    1    2    0    0 -0.68327361330E+01 -0.24778144828E+01 -0.32839662436E+03  0.32847704447E+03  0.00000000000E+00 0. -1.
        -15    1    1    2    0    0  0.21749848465E+01  0.93372817658E+01 -0.12752958748E+03  0.12790179358E+03  0.17770000000E+01 0. -1.
         15    1    1    2    0    0  0.52560977088E+01  0.30636729546E+00 -0.43645442339E+02  0.43997758920E+02  0.17770000000E+01 0.  1.
</event>
<event>
 6    1  0.1782050E-003  0.5019930E+03  0.7546771E-02  0.9395361E-01
        -11   -1    0    0    0    0  0.00000000000E+00  0.00000000000E+00  0.50000000000E+03  0.50000000000E+03  0.00000000000E+00 0. -1.
         11   -1    0    0    0    0 -0.00000000000E+00 -0.00000000000E+00 -0.50000000000E+03  0.50000000000E+03  0.00000000000E+00 0. -1.
        -11    1    1    2    0    0  0.90325245633E+01 -0.63855201628E+01  0.49788409167E+03  0.49800695789E+03  0.00000000000E+00 0. -1.
         11    1    1    2    0    0  0.81369211215E+01  0.18776743894E+01 -0.41041647256E+03  0.41050142033E+03  0.00000000000E+00 0. -1.
        -15    1    1    2    0    0 -0.16250439567E+02  0.47154005656E+01 -0.87817200377E+02  0.89450154833E+02  0.17770000000E+01 0.  1.
         15    1    1    2    0    0 -0.91900611757E+00 -0.20755479221E+00  0.34958126695E+00  0.20414669476E+01  0.17770000000E+01 0. -1.
</event>
<event>
 6    1  0.1782050E-003  0.5018442E+03  0.7546771E-02  0.9395693E-01
        -11   -1    0    0    0    0  0.00000000000E+00  0.00000000000E+00  0.50000000000E+03  0.50000000000E+03  0.00000000000E+00 0. -1.
         11   -1    0    0    0    0 -0.00000000000E+00 -0.00000000000E+00 -0.50000000000E+03  0.50000000000E+03  0.00000000000E+00 0.  1.
        -11    1    1    2    0    0  0.13005339922E+01  0.22473083393E+02  0.49764693456E+03  0.49815580127E+03  0.00000000000E+00 0. -1.
         11    1    1    2    0    0  0.26165486201E+01 -0.39216272629E+01 -0.24583864378E+03  0.24588384303E+03  0.00000000000E+00 0.  1.
        -15    1    1    2    0    0 -0.13814228375E+02 -0.10464727057E+02 -0.22971618367E+03  0.23037583681E+03  0.17770000000E+01 0.  1.
         15    1    1    2    0    0  0.98971457629E+01 -0.80867290733E+01 -0.22092107104E+02  0.25584518886E+02  0.17770000000E+01 0. -1.
</event>
<event>
 6    1  0.2773833E-003  0.3836533E+03  0.7546771E-02  0.9705972E-01
        -11   -1    0    0    0    0  0.00000000000E+00  0.00000000000E+00  0.50000000000E+03  0.50000000000E+03  0.00000000000E+00 0.  1.
         11   -1    0    0    0    0 -0.00000000000E+00 -0.00000000000E+00 -0.50000000000E+03  0.50000000000E+03  0.00000000000E+00 0.  1.
        -11    1    1    2    0    0  0.17469140757E+02  0.24518646876E+01  0.35760016085E+03  0.35803499488E+03  0.00000000000E+00 0.  1.
         11    1    1    2    0    0  0.68287195780E+02 -0.45549266029E+02 -0.40878297943E+03  0.41694292297E+03  0.00000000000E+00 0.  1.
        -15    1    1    2    0    0 -0.70141494114E+02  0.69239702434E+02 -0.56145495380E+02  0.11344355411E+03  0.17770000000E+01 0. -1.
         15    1    1    2    0    0 -0.15614842423E+02 -0.26142301093E+02  0.10732831397E+03  0.11157852803E+03  0.17770000000E+01 0.  1.
</event>
<event>
 6    1  0.1782050E-003  0.5036158E+03  0.7546771E-02  0.9391755E-01
        -11   -1    0    0    0    0  0.00000000000E+00  0.00000000000E+00  0.50000000000E+03  0.50000000000E+03  0.00000000000E+00 0.  1.
         11   -1    0    0    0    0 -0.00000000000E+00 -0.00000000000E+00 -0.50000000000E+03  0.50000000000E+03  0.00000000000E+00 0. -1.
        -11    1    1    2    0    0 -0.10604560449E+02  0.13281154873E+02  0.49609320131E+03  0.49638423642E+03  0.00000000000E+00 0.  1.
         11    1    1    2    0    0 -0.46467981684E+01  0.95718944168E+01 -0.30758383611E+03  0.30776781854E+03  0.00000000000E+00 0. -1.
        -15    1    1    2    0    0  0.13321419450E+01 -0.34955554318E+01 -0.15290486004E+03  0.15296093443E+03  0.17770000000E+01 0.  1.
         15    1    1    2    0    0  0.13919216672E+02 -0.19357493858E+02 -0.35604505170E+02  0.42887010605E+02  0.17770000000E+01 0. -1.
</event>
<event>
 6    1  0.1782050E-003  0.5045205E+03  0.7546771E-02  0.9389751E-01
        -11   -1    0    0    0    0  0.00000000000E+00  0.00000000000E+00  0.50000000000E+03  0.50000000000E+03  0.00000000000E+00 0. -1.
         11   -1    0    0    0    0 -0.00000000000E+00 -0.00000000000E+00 -0.50000000000E+03  0.50000000000E+03  0.00000000000E+00 0.  1.
        -11    1    1    2    0    0  0.12310324153E+02  0.47551316288E+01  0.42505763919E+03  0.42526245072E+03  0.00000000000E+00 0. -1.
         11    1    1    2    0    0  0.40965689467E+01 -0.61921194776E+01 -0.49542387186E+03  0.49547950213E+03  0.00000000000E+00 0.  1.
        -15    1    1    2    0    0 -0.98038893244E+01  0.45555554063E+01  0.28439447792E+01  0.11318793304E+02  0.17770000000E+01 0.  1.
         15    1    1    2    0    0 -0.66030037756E+01 -0.31185675575E+01  0.67522287893E+02  0.67939253850E+02  0.17770000000E+01 0. -1.
</event>
<event>
 6    1  0.1782050E-003  0.5217737E+03  0.7546771E-02  0.9352366E-01
        -11   -1    0    0    0    0  0.00000000000E+00  0.00000000000E+00  0.50000000000E+03  0.50000000000E+03  0.00000000000E+00 0. -1.
         11   -1    0    0    0    0 -0.00000000000E+00 -0.00000000000E+00 -0.50000000000E+03  0.50000000000E+03  0.00000000000E+00 0.  1.
        -11    1    1    2    0    0 -0.51068947339E+01  0.19355437811E+02  0.47780715996E+03  0.47822630151E+03  0.00000000000E+00 0. -1.
         11    1    1    2    0    0  0.13228353918E+02 -0.32683633371E+01 -0.44770458759E+03  0.44791189903E+03  0.00000000000E+00 0.  1.
        -15    1    1    2    0    0 -0.29545821299E+02 -0.10090430760E+02 -0.38865576492E+02  0.49884497734E+02  0.17770000000E+01 0. -1.
         15    1    1    2    0    0  0.21424362114E+02 -0.59966437134E+01  0.87630041126E+01  0.23977301723E+02  0.17770000000E+01 0.  1.
</event>
<event>
 6    1  0.1782050E-003  0.5124475E+03  0.7546771E-02  0.9372380E-01
        -11   -1    0    0    0    0  0.00000000000E+00  0.00000000000E+00  0.50000000000E+03  0.50000000000E+03  0.00000000000E+00 0.  1.
         11   -1    0    0    0    0 -0.00000000000E+00 -0.00000000000E+00 -0.50000000000E+03  0.50000000000E+03  0.00000000000E+00 0.  1.
        -11    1    1    2    0    0 -0.10730544328E+02 -0.10455573897E+02  0.44791145881E+03  0.44816195570E+03  0.00000000000E+00 0.  1.
         11    1    1    2    0    0  0.10921178743E+02  0.15360408531E+02 -0.48718812991E+03  0.48755254919E+03  0.00000000000E+00 0.  1.
        -15    1    1    2    0    0  0.13613353208E+02  0.51451529262E+01  0.44083917815E+02  0.46457997407E+02  0.17770000000E+01 0.  1.
         15    1    1    2    0    0 -0.13803987623E+02 -0.10049987560E+02 -0.48072467138E+01  0.17827497699E+02  0.17770000000E+01 0.  1.
</event>
<event>
 6    1  0.1782050E-003  0.5495482E+03  0.7546771E-02  0.9295294E-01
        -11   -1    0    0    0    0  0.00000000000E+00  0.00000000000E+00  0.50000000000E+03  0.50000000000E+03  0.00000000000E+00 0. -1.
         11   -1    0    0    0    0 -0.00000000000E+00 -0.00000000000E+00 -0.50000000000E+03  0.50000000000E+03  0.00000000000E+00 0. -1.
        -11    1    1    2    0    0  0.12052967411E+02  0.16661376230E+02  0.44998214056E+03  0.45045177579E+03  0.00000000000E+00 0. -1.
         11    1    1    2    0    0  0.24164066432E+02 -0.35860183718E+02 -0.24826965207E+03  0.25200729161E+03  0.00000000000E+00 0. -1.
        -15    1    1    2    0    0 -0.10794854055E+02 -0.12029424265E+02  0.44849484984E+02  0.47706078801E+02  0.17770000000E+01 0.  1.
         15    1    1    2    0    0 -0.25422179788E+02  0.31228231753E+02 -0.24656197347E+03  0.24983485381E+03  0.17770000000E+01 0. -1.
</event>
<event>
 6    1  0.1782050E-003  0.5044994E+03  0.7546771E-02  0.9389798E-01
        -11   -1    0    0    0    0  0.00000000000E+00  0.00000000000E+00  0.50000000000E+03  0.50000000000E+03  0.00000000000E+00 0.  1.
         11   -1    0    0    0    0 -0.00000000000E+00 -0.00000000000E+00 -0.50000000000E+03  0.50000000000E+03  0.00000000000E+00 0. -1.
        -11    1    1    2    0    0  0.86507501400E+01 -0.70180354683E+01  0.49537540209E+03  0.49550063299E+03  0.00000000000E+00 0.  1.
         11    1    1    2    0    0  0.10021423043E+02 -0.79914825620E+01 -0.45901748846E+03  0.45919641486E+03  0.00000000000E+00 0. -1.
        -15    1    1    2    0    0 -0.47446069149E+01  0.15604498131E+01 -0.17235896036E+02  0.18032751858E+02  0.17770000000E+01 0.  1.
         15    1    1    2    0    0 -0.13927566268E+02  0.13449068217E+02 -0.19122017595E+02  0.27270200292E+02  0.17770000000E+01 0. -1.
</event>
<event>
 6    1  0.1782050E-003  0.5043134E+03  0.7546771E-02  0.9390209E-01
        -11   -1    0    0    0    0  0.00000000000E+00  0.00000000000E+00  0.50000000000E+03  0.50000000000E+03  0.00000000000E+00 0. -1.
         11   -1    0    0    0    0 -0.00000000000E+00 -0.00000000000E+00 -0.50000000000E+03  0.50000000000E+03  0.00000000000E+00 0. -1.
        -11    1    1    2    0    0  0.17587665275E+01  0.65689126283E+01  0.39487961647E+03  0.39493816653E+03  0.00000000000E+00 0. -1.
         11    1    1    2    0    0 -0.94379442756E+01  0.15150073489E+02 -0.49536508642E+03  0.49568656262E+03  0.00000000000E+00 0. -1.
        -15    1    1    2    0    0  0.10829835405E+02 -0.22723191794E+02  0.31840024363E+02  0.40627252684E+02  0.17770000000E+01 0. -1.
         15    1    1    2    0    0 -0.31506576568E+01  0.10042056766E+01  0.68645445587E+02  0.68748018164E+02  0.17770000000E+01 0.  1.
</event>
<event>
 6    1  0.1782050E-003  0.5023900E+03  0.7546771E-02  0.9394478E-01
        -11   -1    0    0    0    0  0.00000000000E+00  0.00000000000E+00  0.50000000000E+03  0.50000000000E+03  0.00000000000E+00 0. -1.
         11   -1    0    0    0    0 -0.00000000000E+00 -0.00000000000E+00 -0.50000000000E+03  0.50000000000E+03  0.00000000000E+00 0. -1.
        -11    1    1    2    0    0 -0.81058053636E+01  0.41829913129E+00  0.49754375780E+03  0.49760995768E+03  0.00000000000E+00 0. -1.
         11    1    1    2    0    0  0.12821217247E+01 -0.71517649782E+01 -0.43238207695E+03  0.43244312001E+03  0.00000000000E+00 0. -1.
        -15    1    1    2    0    0 -0.21367464069E-01  0.98169677197E+00  0.15880919053E+01  0.25775860840E+01  0.17770000000E+01 0. -1.
         15    1    1    2    0    0  0.68450511030E+01  0.57517690749E+01 -0.66749772757E+02  0.67369336231E+02  0.17770000000E+01 0.  1.
</event>
<event>
 6    1  0.1782050E-003  0.5129739E+03  0.7546771E-02  0.9371239E-01
        -11   -1    0    0    0    0  0.00000000000E+00  0.00000000000E+00  0.50000000000E+03  0.50000000000E+03  0.00000000000E+00 0. -1.
         11   -1    0    0    0    0 -0.00000000000E+00 -0.00000000000E+00 -0.50000000000E+03  0.50000000000E+03  0.00000000000E+00 0.  1.
        -11    1    1    2    0    0  0.12335054210E+02  0.60159502371E+00  0.47347844583E+03  0.47363947697E+03  0.00000000000E+00 0. -1.
         11    1    1    2    0    0 -0.69783366837E+00 -0.13592334647E+02 -0.48683587545E+03  0.48702608570E+03  0.00000000000E+00 0.  1.
        -15    1    1    2    0    0 -0.17205796894E+02  0.64965279730E+01  0.20825276216E+02  0.27840513302E+02  0.17770000000E+01 0. -1.
         15    1    1    2    0    0  0.55685763522E+01  0.64942116507E+01 -0.74678466035E+01  0.11493924023E+02  0.17770000000E+01 0.  1.
</event>
<event>
 6    1  0.1782050E-003  0.5001804E+03  0.7546771E-02  0.9399406E-01
        -11   -1    0    0    0    0  0.00000000000E+00  0.00000000000E+00  0.50000000000E+03  0.50000000000E+03  0.00000000000E+00 0.  1.
         11   -1    0    0    0    0 -0.00000000000E+00 -0.00000000000E+00 -0.50000000000E+03  0.50000000000E+03  0.00000000000E+00 0.  1.
        -11    1    1    2    0    0 -0.68770767251E+01 -0.38992540351E+00  0.39138670405E+03  0.39144731234E+03  0.00000000000E+00 0.  1.
         11    1    1    2    0    0  0.36647485937E+01  0.61238779811E+01 -0.49976867999E+03  0.49981963323E+03  0.00000000000E+00 0.  1.
        -15    1    1    2    0    0  0.33390777426E+01 -0.19805266869E+01  0.69151573408E+02  0.69283257429E+02  0.17770000000E+01 0. -1.
         15    1    1    2    0    0 -0.12674961115E+00 -0.37534258906E+01  0.39230402535E+02  0.39449797001E+02  0.17770000000E+01 0.  1.
</event>
<event>
 6    1  0.1782050E-003  0.5002593E+03  0.7546771E-02  0.9399230E-01
        -11   -1    0    0    0    0  0.00000000000E+00  0.00000000000E+00  0.50000000000E+03  0.50000000000E+03  0.00000000000E+00 0.  1.
         11   -1    0    0    0    0 -0.00000000000E+00 -0.00000000000E+00 -0.50000000000E+03  0.50000000000E+03  0.00000000000E+00 0.  1.
        -11    1    1    2    0    0  0.16310658386E+01  0.40288099018E+01  0.10757971620E+03  0.10766748359E+03  0.00000000000E+00 0.  1.
         11    1    1    2    0    0  0.39206113010E+01 -0.63927239565E+01 -0.49968438429E+03  0.49974065476E+03  0.00000000000E+00 0.  1.
        -15    1    1    2    0    0 -0.12681692222E+01  0.57977959709E+01  0.43449454749E+02  0.43888899943E+02  0.17770000000E+01 0. -1.
         15    1    1    2    0    0 -0.42835079174E+01 -0.34338819162E+01  0.34865521334E+03  0.34870296171E+03  0.17770000000E+01 0.  1.
</event>
<event>
 6    1  0.1782050E-003  0.5007242E+03  0.7546771E-02  0.9398191E-01
        -11   -1    0    0    0    0  0.00000000000E+00  0.00000000000E+00  0.50000000000E+03  0.50000000000E+03  0.00000000000E+00 0.  1.
         11   -1    0    0    0    0 -0.00000000000E+00 -0.00000000000E+00 -0.50000000000E+03  0.50000000000E+03  0.00000000000E+00 0. -1.
        -11    1    1    2    0    0  0.41137118183E+01  0.63756910483E+01  0.49921817607E+03  0.49927583497E+03  0.00000000000E+00 0.  1.
         11    1    1    2    0    0  0.61400183895E+01 -0.12475666301E+01 -0.38200074804E+03  0.38205212701E+03  0.00000000000E+00 0. -1.
        -15    1    1    2    0    0 -0.42189909369E+01 -0.22274739257E+01 -0.99767769192E+02  0.99897582669E+02  0.17770000000E+01 0. -1.
         15    1    1    2    0    0 -0.60347392710E+01 -0.29006504925E+01 -0.17449658838E+02  0.18774455356E+02  0.17770000000E+01 0.  1.
</event>
<event>
 6    1  0.1782050E-003  0.5070504E+03  0.7546771E-02  0.9384171E-01
        -11   -1    0    0    0    0  0.00000000000E+00  0.00000000000E+00  0.50000000000E+03  0.50000000000E+03  0.00000000000E+00 0. -1.
         11   -1    0    0    0    0 -0.00000000000E+00 -0.00000000000E+00 -0.50000000000E+03  0.50000000000E+03  0.00000000000E+00 0.  1.
        -11    1    1    2    0    0  0.90923102522E+01 -0.42438143105E+01  0.49284742942E+03  0.49294956005E+03  0.00000000000E+00 0. -1.
         11    1    1    2    0    0  0.52957675655E+01 -0.15507793856E+01 -0.85368864267E+02  0.85547022491E+02  0.00000000000E+00 0.  1.
        -15    1    1    2    0    0  0.11541184540E+02  0.27586980952E+02 -0.29626967020E+02  0.42132592639E+02  0.17770000000E+01 0. -1.
         15    1    1    2    0    0 -0.25929262357E+02 -0.21792387256E+02 -0.37785159813E+03  0.37937082482E+03  0.17770000000E+01 0.  1.
</event>
<event>
 6    1  0.1782050E-003  0.5028039E+03  0.7546771E-02  0.9393558E-01
        -11   -1    0    0    0    0  0.00000000000E+00  0.00000000000E+00  0.50000000000E+03  0.50000000000E+03  0.00000000000E+00 0. -1.
         11   -1    0    0    0    0 -0.00000000000E+00 -0.00000000000E+00 -0.50000000000E+03  0.50000000000E+03  0.00000000000E+00 0. -1.
        -11    1    1    2    0    0  0.84911659936E+01  0.35570505343E+01  0.49711086830E+03  0.49719610607E+03  0.00000000000E+00 0. -1.
         11    1    1    2    0    0  0.27069092208E+02 -0.81368845881E+01 -0.23658620788E+03  0.23826871050E+03  0.00000000000E+00 0. -1.
        -15    1    1    2    0    0 -0.84755430286E+01  0.11454787457E+02 -0.45954826857E+02  0.48146140300E+02  0.17770000000E+01 0.  1.
         15    1    1    2    0    0 -0.27084715173E+02 -0.68749534033E+01 -0.21456983356E+03  0.21638904313E+03  0.17770000000E+01 0. -1.
</event>
<event>
 6    1  0.1782050E-003  0.5068856E+03  0.7546771E-02  0.9384533E-01
        -11   -1    0    0    0    0  0.00000000000E+00  0.00000000000E+00  0.50000000000E+03  0.50000000000E+03  0.00000000000E+00 0. -1.
         11   -1    0    0    0    0 -0.00000000000E+00 -0.00000000000E+00 -0.50000000000E+03  0.50000000000E+03  0.00000000000E+00 0.  1.
        -11    1    1    2    0    0  0.54376667293E+01  0.45623106346E+01  0.49306335751E+03  0.49311444657E+03  0.00000000000E+00 0. -1.
         11    1    1    2    0    0 -0.19899054542E+02  0.90652818524E+01 -0.35084436707E+03  0.35152513653E+03  0.00000000000E+00 0.  1.
        -15    1    1    2    0    0  0.14111588749E+02 -0.22697548302E+01 -0.14310223115E+03  0.14382522385E+03  0.17770000000E+01 0.  1.
         15    1    1    2    0    0  0.34979906351E+00 -0.11357837657E+02  0.88324071308E+00  0.11535193053E+02  0.17770000000E+01 0. -1.
</event>
<event>
 6    1  0.1782050E-003  0.5023839E+03  0.7546771E-02  0.9394491E-01
        -11   -1    0    0    0    0  0.00000000000E+00  0.00000000000E+00  0.50000000000E+03  0.50000000000E+03  0.00000000000E+00 0. -1.
         11   -1    0    0    0    0 -0.00000000000E+00 -0.00000000000E+00 -0.50000000000E+03  0.50000000000E+03  0.00000000000E+00 0.  1.
        -11    1    1    2    0    0 -0.11123542744E+02  0.93210278391E+01  0.37835161014E+03  0.37862983990E+03  0.00000000000E+00 0. -1.
         11    1    1    2    0    0 -0.27756131830E+01  0.14904774308E+02 -0.49738504021E+03  0.49761605134E+03  0.00000000000E+00 0.  1.
        -15    1    1    2    0    0  0.10347428618E+02 -0.17068589871E+02  0.44883384553E+02  0.49153656803E+02  0.17770000000E+01 0.  1.
         15    1    1    2    0    0  0.35517273086E+01 -0.71572122757E+01  0.74150045511E+02  0.74600451960E+02  0.17770000000E+01 0. -1.
</event>
<event>
 6    1  0.1782050E-003  0.5049349E+03  0.7546771E-02  0.9388835E-01
        -11   -1    0    0    0    0  0.00000000000E+00  0.00000000000E+00  0.50000000000E+03  0.50000000000E+03  0.00000000000E+00 0.  1.
         11   -1    0    0    0    0 -0.00000000000E+00 -0.00000000000E+00 -0.50000000000E+03  0.50000000000E+03  0.00000000000E+00 0.  1.
        -11    1    1    2    0    0  0.69270607760E+01  0.13263940659E+00  0.41640269576E+03  0.41646033041E+03  0.00000000000E+00 0.  1.
         11    1    1    2    0    0 -0.71988795192E+01 -0.14144432364E+02 -0.49481064656E+03  0.49506511166E+03  0.00000000000E+00 0.  1.
        -15    1    1    2    0    0  0.15308306695E+02  0.89923644878E+01  0.15690604354E+02  0.23760464367E+02  0.17770000000E+01 0.  1.
         15    1    1    2    0    0 -0.15036487952E+02  0.50194284697E+01  0.62717346445E+02  0.64714093566E+02  0.17770000000E+01 0. -1.
</event>
<event>
 6    1  0.1782050E-003  0.5056474E+03  0.7546771E-02  0.9387261E-01
        -11   -1    0    0    0    0  0.00000000000E+00  0.00000000000E+00  0.50000000000E+03  0.50000000000E+03  0.00000000000E+00 0. -1.
         11   -1    0    0    0    0 -0.00000000000E+00 -0.00000000000E+00 -0.50000000000E+03  0.50000000000E+03  0.00000000000E+00 0.  1.
        -11    1    1    2    0    0  0.14616180956E+02  0.89655727953E+01  0.49405508882E+03  0.49435255136E+03  0.00000000000E+00 0. -1.
         11    1    1    2    0    0  0.73566713387E+01 -0.29168568857E+01 -0.43870550512E+03  0.43877687825E+03  0.00000000000E+00 0.  1.
        -15    1    1    2    0    0  0.28030574436E+01  0.26212645961E+01 -0.30132467662E+02  0.30427807931E+02  0.17770000000E+01 0.  1.
         15    1    1    2    0    0 -0.24775909739E+02 -0.86699805056E+01 -0.25217116039E+02  0.36442762460E+02  0.17770000000E+01 0. -1.
</event>
<event>
 6    1  0.1782050E-003  0.5009828E+03  0.7546771E-02  0.9397613E-01
        -11   -1    0    0    0    0  0.00000000000E+00  0.00000000000E+00  0.50000000000E+03  0.50000000000E+03  0.00000000000E+00 0.  1.
         11   -1    0    0    0    0 -0.00000000000E+00 -0.00000000000E+00 -0.50000000000E+03  0.50000000000E+03  0.00000000000E+00 0. -1.
        -11    1    1    2    0    0  0.13958935296E+02  0.34917095940E+01  0.19418038476E+03  0.19471277754E+03  0.00000000000E+00 0.  1.
         11    1    1    2    0    0 -0.14767687455E+02 -0.86823356694E+01 -0.49872307778E+03  0.49901720998E+03  0.00000000000E+00 0. -1.
        -15    1    1    2    0    0 -0.54152888874E+01 -0.46549372696E+01  0.26261743153E+03  0.26272051094E+03  0.17770000000E+01 0.  1.
         15    1    1    2    0    0  0.62240410466E+01  0.98455633449E+01  0.41925261489E+02  0.43549501541E+02  0.17770000000E+01 0. -1.
</event>
<event>
 6    1  0.1782050E-003  0.5024457E+03  0.7546771E-02  0.9394354E-01
        -11   -1    0    0    0    0  0.00000000000E+00  0.00000000000E+00  0.50000000000E+03  0.50000000000E+03  0.00000000000E+00 0. -1.
         11   -1    0    0    0    0 -0.00000000000E+00 -0.00000000000E+00 -0.50000000000E+03  0.50000000000E+03  0.00000000000E+00 0.  1.
        -11    1    1    2    0    0  0.16109043333E+02  0.48386394194E+01  0.44274598518E+03  0.44306536889E+03  0.00000000000E+00 0. -1.
         11    1    1    2    0    0 -0.12193291500E+02  0.24609494528E+01 -0.49739876023E+03  0.49755427775E+03  0.00000000000E+00 0.  1.
        -15    1    1    2    0    0  0.73978413453E+01 -0.85917567237E+01  0.23216778738E+02  0.25898318172E+02  0.17770000000E+01 0.  1.
         15    1    1    2    0    0 -0.11313593179E+02  0.12921678515E+01  0.31435996303E+02  0.33482035197E+02  0.17770000000E+01 0. -1.
</event>
<event>
 6    1  0.1782050E-003  0.5072086E+03  0.7546771E-02  0.9383823E-01
        -11   -1    0    0    0    0  0.00000000000E+00  0.00000000000E+00  0.50000000000E+03  0.50000000000E+03  0.00000000000E+00 0.  1.
         11   -1    0    0    0    0 -0.00000000000E+00 -0.00000000000E+00 -0.50000000000E+03  0.50000000000E+03  0.00000000000E+00 0. -1.
        -11    1    1    2    0    0 -0.17444559993E+02 -0.44548976172E+00  0.42953916388E+03  0.42989348034E+03  0.00000000000E+00 0.  1.
         11    1    1    2    0    0 -0.14857141179E+01  0.23073358882E+02 -0.49224867177E+03  0.49279137786E+03  0.00000000000E+00 0. -1.
        -15    1    1    2    0    0  0.23540441440E+02 -0.20906952113E+02  0.64491294362E+02  0.71788145312E+02  0.17770000000E+01 0.  1.
         15    1    1    2    0    0 -0.46101673294E+01 -0.17209170076E+01 -0.17817864670E+01  0.55269964869E+01  0.17770000000E+01 0. -1.
</event>
<event>
 6    1  0.1782050E-003  0.4909235E+03  0.7546771E-02  0.9420351E-01
        -11   -1    0    0    0    0  0.00000000000E+00  0.00000000000E+00  0.50000000000E+03  0.50000000000E+03  0.00000000000E+00 0. -1.
         11   -1    0    0    0    0 -0.00000000000E+00 -0.00000000000E+00 -0.50000000000E+03  0.50000000000E+03  0.00000000000E+00 0. -1.
        -11    1    1    2    0    0 -0.10944691664E+02 -0.21467838704E+01  0.49120516509E+03  0.49133177097E+03  0.00000000000E+00 0. -1.
         11    1    1    2    0    0  0.30365065648E+01  0.74910792047E+01 -0.49049531816E+03  0.49056191636E+03  0.00000000000E+00 0. -1.
        -15    1    1    2    0    0 -0.12756218058E+01 -0.80138787100E+01  0.39313635104E+00  0.83163542589E+01  0.17770000000E+01 0. -1.
         15    1    1    2    0    0  0.91838069050E+01  0.26695833756E+01 -0.11029832767E+01  0.97899584155E+01  0.17770000000E+01 0.  1.
</event>
<event>
 6    1  0.1977529E-003  0.4400653E+03  0.7546771E-02  0.9544908E-01
        -11   -1    0    0    0    0  0.00000000000E+00  0.00000000000E+00  0.50000000000E+03  0.50000000000E+03  0.00000000000E+00 0. -1.
         11   -1    0    0    0    0 -0.00000000000E+00 -0.00000000000E+00 -0.50000000000E+03  0.50000000000E+03  0.00000000000E+00 0. -1.
        -11    1    1    2    0    0  0.20976591492E+02 -0.12381240530E+02  0.43173124813E+03  0.43241783396E+03  0.00000000000E+00 0. -1.
         11    1    1    2    0    0 -0.44867552234E+01 -0.72669580244E+01 -0.44815841536E+03  0.44823978506E+03  0.00000000000E+00 0. -1.
        -15    1    1    2    0    0 -0.69541896238E+00  0.10260074991E+02 -0.49650121189E+02  0.50735047151E+02  0.17770000000E+01 0.  1.
         15    1    1    2    0    0 -0.15794417307E+02  0.93881235640E+01  0.66077288417E+02  0.68607333832E+02  0.17770000000E+01 0. -1.
</event>
<event>
 6    1  0.1782050E-003  0.5017528E+03  0.7546771E-02  0.9395896E-01
        -11   -1    0    0    0    0  0.00000000000E+00  0.00000000000E+00  0.50000000000E+03  0.50000000000E+03  0.00000000000E+00 0. -1.
         11   -1    0    0    0    0 -0.00000000000E+00 -0.00000000000E+00 -0.50000000000E+03  0.50000000000E+03  0.00000000000E+00 0. -1.
        -11    1    1    2    0    0  0.12261878187E+02  0.47250276359E+01  0.49807383566E+03  0.49824715284E+03  0.00000000000E+00 0. -1.
         11    1    1    2    0    0 -0.15423252998E+02 -0.31583255561E+01 -0.43034781231E+03  0.43063568282E+03  0.00000000000E+00 0. -1.
        -15    1    1    2    0    0  0.60854134212E+01  0.13894488332E+01 -0.65934925862E+02  0.66253565957E+02  0.17770000000E+01 0.  1.
         15    1    1    2    0    0 -0.29240386103E+01 -0.29561509130E+01 -0.17910974916E+01  0.48635983838E+01  0.17770000000E+01 0. -1.
</event>
<event>
 6    1  0.1782050E-003  0.5346243E+03  0.7546771E-02  0.9325503E-01
        -11   -1    0    0    0    0  0.00000000000E+00  0.00000000000E+00  0.50000000000E+03  0.50000000000E+03  0.00000000000E+00 0. -1.
         11   -1    0    0    0    0 -0.00000000000E+00 -0.00000000000E+00 -0.50000000000E+03  0.50000000000E+03  0.00000000000E+00 0.  1.
        -11    1    1    2    0    0  0.66730462370E+01  0.41615753267E+01  0.37865013181E+03  0.37873179240E+03  0.00000000000E+00 0. -1.
         11    1    1    2    0    0  0.60855492404E+01  0.19440806215E+02 -0.46492967888E+03  0.46537574621E+03  0.00000000000E+00 0.  1.
        -15    1    1    2    0    0 -0.76363308540E+01 -0.22311367780E+01  0.11743885586E+03  0.11772142589E+03  0.17770000000E+01 0. -1.
         15    1    1    2    0    0 -0.51222646234E+01 -0.21371244764E+02 -0.31159308791E+02  0.38171035497E+02  0.17770000000E+01 0.  1.
</event>
<event>
 6    1  0.1782050E-003  0.5032891E+03  0.7546771E-02  0.9392480E-01
        -11   -1    0    0    0    0  0.00000000000E+00  0.00000000000E+00  0.50000000000E+03  0.50000000000E+03  0.00000000000E+00 0.  1.
         11   -1    0    0    0    0 -0.00000000000E+00 -0.00000000000E+00 -0.50000000000E+03  0.50000000000E+03  0.00000000000E+00 0. -1.
        -11    1    1    2    0    0 -0.12532418322E+02  0.62495895942E+01  0.49651346652E+03  0.49671092329E+03  0.00000000000E+00 0.  1.
         11    1    1    2    0    0  0.20541046260E+01  0.61222031311E+01 -0.43742127393E+03  0.43746893787E+03  0.00000000000E+00 0. -1.
        -15    1    1    2    0    0 -0.31787635932E+01  0.40437062057E+00 -0.35375728787E+02  0.35564982353E+02  0.17770000000E+01 0. -1.
         15    1    1    2    0    0  0.13657077289E+02 -0.12776163346E+02 -0.23716463800E+02  0.30255156488E+02  0.17770000000E+01 0.  1.
</event>
<event>
 6    1  0.1782050E-003  0.4814043E+03  0.7546771E-02  0.9442408E-01
        -11   -1    0    0    0    0  0.00000000000E+00  0.00000000000E+00  0.50000000000E+03  0.50000000000E+03  0.00000000000E+00 0. -1.
         11   -1    0    0    0    0 -0.00000000000E+00 -0.00000000000E+00 -0.50000000000E+03  0.50000000000E+03  0.00000000000E+00 0. -1.
        -11    1    1    2    0    0 -0.47580564780E+01  0.11402120878E+02  0.47614165016E+03  0.47630191946E+03  0.00000000000E+00 0. -1.
         11    1    1    2    0    0 -0.86164813060E+01  0.14256485405E+01 -0.48666416482E+03  0.48674252490E+03  0.00000000000E+00 0. -1.
        -15    1    1    2    0    0 -0.49452484543E+01 -0.97842151056E+01  0.14111572685E+02  0.17957743738E+02  0.17770000000E+01 0. -1.
         15    1    1    2    0    0  0.18319786238E+02 -0.30435543133E+01 -0.35890580311E+01  0.18997811906E+02  0.17770000000E+01 0.  1.
</event>
<event>
 6    1  0.1782050E-003  0.5050674E+03  0.7546771E-02  0.9388542E-01
        -11   -1    0    0    0    0  0.00000000000E+00  0.00000000000E+00  0.50000000000E+03  0.50000000000E+03  0.00000000000E+00 0.  1.
         11   -1    0    0    0    0 -0.00000000000E+00 -0.00000000000E+00 -0.50000000000E+03  0.50000000000E+03  0.00000000000E+00 0.  1.
        -11    1    1    2    0    0  0.82465999196E+01 -0.59988536849E+00  0.49486352297E+03  0.49493259403E+03  0.00000000000E+00 0.  1.
         11    1    1    2    0    0 -0.63080938784E+01  0.25414701194E+01 -0.48167027446E+03  0.48171828325E+03  0.00000000000E+00 0.  1.
        -15    1    1    2    0    0 -0.67475898305E+01 -0.76887936649E+01 -0.11442309794E+02  0.15450944922E+02  0.17770000000E+01 0.  1.
         15    1    1    2    0    0  0.48090837893E+01  0.57472089140E+01 -0.17509387140E+01  0.78981778009E+01  0.17770000000E+01 0. -1.
</event>
<event>
 6    1  0.2170247E-003  0.5246163E+03  0.7546771E-02  0.9346353E-01
        -11   -1    0    0    0    0  0.00000000000E+00  0.00000000000E+00  0.50000000000E+03  0.50000000000E+03  0.00000000000E+00 0.  1.
         11   -1    0    0    0    0 -0.00000000000E+00 -0.00000000000E+00 -0.50000000000E+03  0.50000000000E+03  0.00000000000E+00 0. -1.
        -11    1    1    2    0    0  0.14836367311E+02  0.17174550629E+02  0.47484167025E+03  0.47538373425E+03  0.00000000000E+00 0.  1.
         11    1    1    2    0    0 -0.75034319801E+01 -0.19314192759E+02 -0.44282272077E+03  0.44330723158E+03  0.00000000000E+00 0. -1.
        -15    1    1    2    0    0  0.96832107412E+01  0.14062196797E+02 -0.50566580194E+02  0.53400811890E+02  0.17770000000E+01 0.  1.
         15    1    1    2    0    0 -0.17016146072E+02 -0.11922554667E+02  0.18547630722E+02  0.27908222289E+02  0.17770000000E+01 0. -1.
</event>
<event>
 6    1  0.1782050E-003  0.5010918E+03  0.7546771E-02  0.9397370E-01
        -11   -1    0    0    0    0  0.00000000000E+00  0.00000000000E+00  0.50000000000E+03  0.50000000000E+03  0.00000000000E+00 0.  1.
         11   -1    0    0    0    0 -0.00000000000E+00 -0.00000000000E+00 -0.50000000000E+03  0.50000000000E+03  0.00000000000E+00 0. -1.
        -11    1    1    2    0    0  0.49544036525E+01  0.95307442120E+01  0.49879258508E+03  0.49890823217E+03  0.00000000000E+00 0.  1.
         11    1    1    2    0    0 -0.10990234742E+01  0.93551893725E+01 -0.17489935433E+03  0.17515282346E+03  0.00000000000E+00 0. -1.
        -15    1    1    2    0    0 -0.15748974779E+02 -0.91986829735E+01 -0.11252337665E+03  0.11400576300E+03  0.17770000000E+01 0. -1.
         15    1    1    2    0    0  0.11893594601E+02 -0.96872506110E+01 -0.21136985409E+03  0.21193318137E+03  0.17770000000E+01 0.  1.
</event>
<event>
 6    1  0.1782050E-003  0.5048510E+03  0.7546771E-02  0.9389020E-01
        -11   -1    0    0    0    0  0.00000000000E+00  0.00000000000E+00  0.50000000000E+03  0.50000000000E+03  0.00000000000E+00 0.  1.
         11   -1    0    0    0    0 -0.00000000000E+00 -0.00000000000E+00 -0.50000000000E+03  0.50000000000E+03  0.00000000000E+00 0. -1.
        -11    1    1    2    0    0  0.49666057100E+01  0.21141918611E+01  0.39558316191E+03  0.39561998807E+03  0.00000000000E+00 0.  1.
         11    1    1    2    0    0 -0.18644204004E+02 -0.11737578508E+01 -0.49479648915E+03  0.49514901770E+03  0.00000000000E+00 0. -1.
        -15    1    1    2    0    0  0.22394245593E+01 -0.12916152313E+02  0.59729015319E+01  0.14514657923E+02  0.17770000000E+01 0. -1.
         15    1    1    2    0    0  0.11438173735E+02  0.11975718302E+02  0.93240425712E+02  0.94716336306E+02  0.17770000000E+01 0.  1.
</event>
<event>
 6    1  0.1782050E-003  0.5002973E+03  0.7546771E-02  0.9399145E-01
        -11   -1    0    0    0    0  0.00000000000E+00  0.00000000000E+00  0.50000000000E+03  0.50000000000E+03  0.00000000000E+00 0. -1.
         11   -1    0    0    0    0 -0.00000000000E+00 -0.00000000000E+00 -0.50000000000E+03  0.50000000000E+03  0.00000000000E+00 0. -1.
        -11    1    1    2    0    0  0.61094497240E+01  0.53750775281E+01  0.49963639673E+03  0.49970265736E+03  0.00000000000E+00 0. -1.
         11    1    1    2    0    0 -0.78612936466E+01  0.23338032945E+01 -0.36712532501E+03  0.36721689890E+03  0.00000000000E+00 0. -1.
        -15    1    1    2    0    0  0.35794431685E+01 -0.13488500736E+01 -0.81787549687E+02  0.81896232043E+02  0.17770000000E+01 0. -1.
         15    1    1    2    0    0 -0.18275992460E+01 -0.63600307489E+01 -0.50723522036E+02  0.51184211696E+02  0.17770000000E+01 0.  1.
</event>
<event>
 6    1  0.1782050E-003  0.5069408E+03  0.7546771E-02  0.9384412E-01
        -11   -1    0    0    0    0  0.00000000000E+00  0.00000000000E+00  0.50000000000E+03  0.50000000000E+03  0.00000000000E+00 0.  1.
         11   -1    0    0    0    0 -0.00000000000E+00 -0.00000000000E+00 -0.50000000000E+03  0.50000000000E+03  0.00000000000E+00 0. -1.
        -11    1    1    2    0    0 -0.15672566137E+02  0.71799112535E+01  0.32358002649E+03  0.32403890815E+03  0.00000000000E+00 0.  1.
         11    1    1    2    0    0 -0.34009191774E+01  0.89823332116E+01 -0.49296565215E+03  0.49305920817E+03  0.00000000000E+00 0. -1.
        -15    1    1    2    0    0  0.92913980750E+00 -0.38752334504E+01 -0.52848069567E+01  0.68532947292E+01  0.17770000000E+01 0. -1.
         15    1    1    2    0    0  0.18144345507E+02 -0.12287011015E+02  0.17467043261E+03  0.17604858895E+03  0.17770000000E+01 0.  1.
</event>
<event>
 6    1  0.1782050E-003  0.5146047E+03  0.7546771E-02  0.9367711E-01
        -11   -1    0    0    0    0  0.00000000000E+00  0.00000000000E+00  0.50000000000E+03  0.50000000000E+03  0.00000000000E+00 0. -1.
         11   -1    0    0    0    0 -0.00000000000E+00 -0.00000000000E+00 -0.50000000000E+03  0.50000000000E+03  0.00000000000E+00 0. -1.
        -11    1    1    2    0    0 -0.10858441302E+02 -0.10152147728E+01  0.43274391811E+03  0.43288131753E+03  0.00000000000E+00 0. -1.
         11    1    1    2    0    0  0.10438549040E+02  0.13565302650E+02 -0.48509341875E+03  0.48539530865E+03  0.00000000000E+00 0. -1.
        -15    1    1    2    0    0  0.94244489346E+01  0.13974629032E+01  0.61788155553E+02  0.62543641051E+02  0.17770000000E+01 0.  1.
         15    1    1    2    0    0 -0.90045566727E+01 -0.13947550780E+02 -0.94386549106E+01  0.19179732771E+02  0.17770000000E+01 0.  1.
</event>
<event>
 6    1  0.1782050E-003  0.5145185E+03  0.7546771E-02  0.9367897E-01
        -11   -1    0    0    0    0  0.00000000000E+00  0.00000000000E+00  0.50000000000E+03  0.50000000000E+03  0.00000000000E+00 0.  1.
         11   -1    0    0    0    0 -0.00000000000E+00 -0.00000000000E+00 -0.50000000000E+03  0.50000000000E+03  0.00000000000E+00 0.  1.
        -11    1    1    2    0    0  0.13343792514E+02 -0.23371755060E+02  0.44681848442E+03  0.44762825397E+03  0.00000000000E+00 0.  1.
         11    1    1    2    0    0 -0.24870096684E+02  0.38966456827E+02 -0.48327567617E+03  0.48548149877E+03  0.00000000000E+00 0.  1.
        -15    1    1    2    0    0 -0.79534496142E+01  0.12461165680E+02  0.27915532647E+02  0.31638152646E+02  0.17770000000E+01 0. -1.
         15    1    1    2    0    0  0.19479753785E+02 -0.28055867447E+02  0.85416591097E+01  0.35252094620E+02  0.17770000000E+01 0.  1.
</event>
<event>
 6    1  0.1782050E-003  0.5038077E+03  0.7546771E-02  0.9391330E-01
        -11   -1    0    0    0    0  0.00000000000E+00  0.00000000000E+00  0.50000000000E+03  0.50000000000E+03  0.00000000000E+00 0.  1.
         11   -1    0    0    0    0 -0.00000000000E+00 -0.00000000000E+00 -0.50000000000E+03  0.50000000000E+03  0.00000000000E+00 0. -1.
        -11    1    1    2    0    0  0.83785543389E+00 -0.29353218238E+01  0.83526633361E+02  0.83582394059E+02  0.00000000000E+00 0.  1.
         11    1    1    2    0    0  0.16227139319E+02 -0.45775538041E+01 -0.49590579039E+03  0.49619232863E+03  0.00000000000E+00 0. -1.
        -15    1    1    2    0    0  0.35102353167E+01  0.16034285677E+02  0.38280687113E+03  0.38316273094E+03  0.17770000000E+01 0.  1.
         15    1    1    2    0    0 -0.20575230070E+02 -0.85214100494E+01  0.29572285898E+02  0.37062546376E+02  0.17770000000E+01 0. -1.
</event>
<event>
 6    1  0.1782050E-003  0.5102751E+03  0.7546771E-02  0.9377107E-01
        -11   -1    0    0    0    0  0.00000000000E+00  0.00000000000E+00  0.50000000000E+03  0.50000000000E+03  0.00000000000E+00 0. -1.
         11   -1    0    0    0    0 -0.00000000000E+00 -0.00000000000E+00 -0.50000000000E+03  0.50000000000E+03  0.00000000000E+00 0. -1.
        -11    1    1    2    0    0 -0.13175736049E+02 -0.77345267923E-01  0.43872041132E+03  0.43891822167E+03  0.00000000000E+00 0. -1.
         11    1    1    2    0    0 -0.39904258197E+01 -0.22961363251E+02 -0.48917000687E+03  0.48972486492E+03  0.00000000000E+00 0. -1.
        -15    1    1    2    0    0  0.14583773615E+01 -0.94528327259E+01  0.54349628707E+00  0.97435121125E+01  0.17770000000E+01 0. -1.
         15    1    1    2    0    0  0.15707784507E+02  0.32491541245E+02  0.49906099265E+02  0.61613401297E+02  0.17770000000E+01 0.  1.
</event>
<event>
 6    1  0.1782050E-003  0.5011664E+03  0.7546771E-02  0.9397204E-01
        -11   -1    0    0    0    0  0.00000000000E+00  0.00000000000E+00  0.50000000000E+03  0.50000000000E+03  0.00000000000E+00 0. -1.
         11   -1    0    0    0    0 -0.00000000000E+00 -0.00000000000E+00 -0.50000000000E+03  0.50000000000E+03  0.00000000000E+00 0.  1.
        -11    1    1    2    0    0  0.60420618613E+00  0.18397311999E+01  0.11757516618E+03  0.11759111096E+03  0.00000000000E+00 0. -1.
         11    1    1    2    0    0 -0.10531018161E+02 -0.22863365745E+01 -0.49871718867E+03  0.49883360347E+03  0.00000000000E+00 0.  1.
        -15    1    1    2    0    0  0.23078737749E+02 -0.57987451387E+01  0.14259986710E+03  0.14458261793E+03  0.17770000000E+01 0.  1.
         15    1    1    2    0    0 -0.13151925774E+02  0.62453505132E+01  0.23854215540E+03  0.23899266764E+03  0.17770000000E+01 0. -1.
</event>
<event>
 6    1  0.1782050E-003  0.5048144E+03  0.7546771E-02  0.9389101E-01
        -11   -1    0    0    0    0  0.00000000000E+00  0.00000000000E+00  0.50000000000E+03  0.50000000000E+03  0.00000000000E+00 0.  1.
         11   -1    0    0    0    0 -0.00000000000E+00 -0.00000000000E+00 -0.50000000000E+03  0.50000000000E+03  0.00000000000E+00 0.  1.
        -11    1    1    2    0    0  0.57762831485E+01  0.27048448686E+02  0.49441260757E+03  0.49518563241E+03  0.00000000000E+00 0.  1.
         11    1    1    2    0    0 -0.59585112826E+00  0.11564041481E+00 -0.41273036477E+02  0.41277499335E+02  0.00000000000E+00 0.  1.
        -15    1    1    2    0    0 -0.17752377175E+02 -0.21929301666E+02 -0.34197166617E+02  0.44369416275E+02  0.17770000000E+01 0. -1.
         15    1    1    2    0    0  0.12571945154E+02 -0.52347874346E+01 -0.41894240447E+03  0.41916745198E+03  0.17770000000E+01 0.  1.
</event>
<event>
 6    1  0.1782050E-003  0.5984280E+03  0.7546771E-02  0.9203050E-01
        -11   -1    0    0    0    0  0.00000000000E+00  0.00000000000E+00  0.50000000000E+03  0.50000000000E+03  0.00000000000E+00 0.  1.
         11   -1    0    0    0    0 -0.00000000000E+00 -0.00000000000E+00 -0.50000000000E+03  0.50000000000E+03  0.00000000000E+00 0. -1.
        -11    1    1    2    0    0 -0.16275500792E+02 -0.66841062275E+02  0.39563553940E+03  0.40157203534E+03  0.00000000000E+00 0.  1.
         11    1    1    2    0    0 -0.12184846193E+02 -0.20297621250E+02 -0.29620037993E+03  0.29714496289E+03  0.00000000000E+00 0. -1.
        -15    1    1    2    0    0 -0.66352523227E+02  0.11785625400E+03  0.29367702337E+02  0.13841377683E+03  0.17770000000E+01 0.  1.
         15    1    1    2    0    0  0.94812870211E+02 -0.30717570474E+02 -0.12880286181E+03  0.16286922494E+03  0.17770000000E+01 0. -1.
</event>
<event>
 6    1  0.1782050E-003  0.5112877E+03  0.7546771E-02  0.9374901E-01
        -11   -1    0    0    0    0  0.00000000000E+00  0.00000000000E+00  0.50000000000E+03  0.50000000000E+03  0.00000000000E+00 0. -1.
         11   -1    0    0    0    0 -0.00000000000E+00 -0.00000000000E+00 -0.50000000000E+03  0.50000000000E+03  0.00000000000E+00 0.  1.
        -11    1    1    2    0    0  0.36801180688E+02 -0.95810237617E+01  0.48723048419E+03  0.48871225444E+03  0.00000000000E+00 0. -1.
         11    1    1    2    0    0  0.71224494901E+01 -0.14270224232E+02 -0.37977205153E+03  0.38010680040E+03  0.00000000000E+00 0.  1.
        -15    1    1    2    0    0 -0.29269771934E+02 -0.70262955357E+00 -0.12305788659E+02  0.31808857270E+02  0.17770000000E+01 0. -1.
         15    1    1    2    0    0 -0.14653858244E+02  0.24553877547E+02 -0.95152643996E+02  0.99372087894E+02  0.17770000000E+01 0.  1.
</event>
<event>
 6    1  0.1782050E-003  0.5003387E+03  0.7546771E-02  0.9399052E-01
        -11   -1    0    0    0    0  0.00000000000E+00  0.00000000000E+00  0.50000000000E+03  0.50000000000E+03  0.00000000000E+00 0.  1.
         11   -1    0    0    0    0 -0.00000000000E+00 -0.00000000000E+00 -0.50000000000E+03  0.50000000000E+03  0.00000000000E+00 0. -1.
        -11    1    1    2    0    0  0.19781636065E+00  0.11834881292E+02  0.49952111949E+03  0.49966133767E+03  0.00000000000E+00 0.  1.
         11    1    1    2    0    0 -0.12588074740E+01 -0.22328860584E+01 -0.15147740877E+03  0.15149909487E+03  0.00000000000E+00 0. -1.
        -15    1    1    2    0    0  0.48763320923E+01  0.49443906305E+01 -0.17072593610E+03  0.17087635471E+03  0.17770000000E+01 0.  1.
         15    1    1    2    0    0 -0.38153409789E+01 -0.14546385864E+02 -0.17731777461E+03  0.17796321275E+03  0.17770000000E+01 0. -1.
</event>
<event>
 6    1  0.1782050E-003  0.5112566E+03  0.7546771E-02  0.9374969E-01
        -11   -1    0    0    0    0  0.00000000000E+00  0.00000000000E+00  0.50000000000E+03  0.50000000000E+03  0.00000000000E+00 0.  1.
         11   -1    0    0    0    0 -0.00000000000E+00 -0.00000000000E+00 -0.50000000000E+03  0.50000000000E+03  0.00000000000E+00 0.  1.
        -11    1    1    2    0    0  0.21743734389E+02 -0.13399168926E+01  0.48825764596E+03  0.48874340323E+03  0.00000000000E+00 0.  1.
         11    1    1    2    0    0 -0.91739188166E+01 -0.43925999984E+01 -0.43989055653E+03  0.44000813339E+03  0.00000000000E+00 0.  1.
        -15    1    1    2    0    0  0.78669208896E+01 -0.88338146562E+01  0.44359978225E+01  0.12757763571E+02  0.17770000000E+01 0.  1.
         15    1    1    2    0    0 -0.20436736462E+02  0.14566331547E+02 -0.52803087251E+02  0.58490699809E+02  0.17770000000E+01 0. -1.
</event>
<event>
 6    1  0.1782050E-003  0.5011075E+03  0.7546771E-02  0.9397335E-01
        -11   -1    0    0    0    0  0.00000000000E+00  0.00000000000E+00  0.50000000000E+03  0.50000000000E+03  0.00000000000E+00 0.  1.
         11   -1    0    0    0    0 -0.00000000000E+00 -0.00000000000E+00 -0.50000000000E+03  0.50000000000E+03  0.00000000000E+00 0.  1.
        -11    1    1    2    0    0  0.21899968121E+01 -0.73993875132E+01  0.44110183334E+03  0.44116932622E+03  0.00000000000E+00 0.  1.
         11    1    1    2    0    0 -0.10795910981E+02  0.18743013088E-01 -0.49877564661E+03  0.49889247107E+03  0.00000000000E+00 0.  1.
        -15    1    1    2    0    0  0.55889286335E+01  0.47777876645E+01  0.12914903447E+02  0.14967158657E+02  0.17770000000E+01 0. -1.
         15    1    1    2    0    0  0.30169855356E+01  0.26028568356E+01  0.44758909820E+02  0.44971044048E+02  0.17770000000E+01 0.  1.
</event>
<event>
 6    1  0.1782050E-003  0.5059963E+03  0.7546771E-02  0.9386492E-01
        -11   -1    0    0    0    0  0.00000000000E+00  0.00000000000E+00  0.50000000000E+03  0.50000000000E+03  0.00000000000E+00 0. -1.
         11   -1    0    0    0    0 -0.00000000000E+00 -0.00000000000E+00 -0.50000000000E+03  0.50000000000E+03  0.00000000000E+00 0. -1.
        -11    1    1    2    0    0  0.22540334122E+02 -0.16343060951E+02  0.38785076464E+03  0.38884878544E+03  0.00000000000E+00 0. -1.
         11    1    1    2    0    0  0.16698267831E+01 -0.90673694181E+01 -0.49391766950E+03  0.49400371432E+03  0.00000000000E+00 0. -1.
        -15    1    1    2    0    0 -0.29261849610E+02  0.27029459699E+02  0.69264613653E+02  0.79922412175E+02  0.17770000000E+01 0.  1.
         15    1    1    2    0    0  0.50516887049E+01 -0.16190293296E+01  0.36802291210E+02  0.37225088073E+02  0.17770000000E+01 0. -1.
</event>
<event>
 6    1  0.1782050E-003  0.5036606E+03  0.7546771E-02  0.9391656E-01
        -11   -1    0    0    0    0  0.00000000000E+00  0.00000000000E+00  0.50000000000E+03  0.50000000000E+03  0.00000000000E+00 0.  1.
         11   -1    0    0    0    0 -0.00000000000E+00 -0.00000000000E+00 -0.50000000000E+03  0.50000000000E+03  0.00000000000E+00 0.  1.
        -11    1    1    2    0    0  0.53248460882E+01  0.59031690395E+01  0.49627575415E+03  0.49633942574E+03  0.00000000000E+00 0.  1.
         11    1    1    2    0    0  0.58715006757E+01  0.47725890672E+01 -0.41944840654E+03  0.41951664791E+03  0.00000000000E+00 0.  1.
        -15    1    1    2    0    0 -0.90437196663E+01 -0.61169697975E-01 -0.32814247173E+01  0.97835619439E+01  0.17770000000E+01 0. -1.
         15    1    1    2    0    0 -0.21526270977E+01 -0.10614588409E+02 -0.73545922893E+02  0.74360364400E+02  0.17770000000E+01 0.  1.
</event>
<event>
 6    1  0.1782050E-003  0.5046887E+03  0.7546771E-02  0.9389379E-01
        -11   -1    0    0    0    0  0.00000000000E+00  0.00000000000E+00  0.50000000000E+03  0.50000000000E+03  0.00000000000E+00 0.  1.
         11   -1    0    0    0    0 -0.00000000000E+00 -0.00000000000E+00 -0.50000000000E+03  0.50000000000E+03  0.00000000000E+00 0.  1.
        -11    1    1    2    0    0  0.29918115187E+01 -0.92953556729E+01  0.46777483972E+03  0.46787675220E+03  0.00000000000E+00 0.  1.
         11    1    1    2    0    0  0.99319218422E+01 -0.52005036694E+00 -0.49521139499E+03  0.49531125492E+03  0.00000000000E+00 0.  1.
        -15    1    1    2    0    0 -0.55030446395E+01  0.10248550938E+02  0.26645637116E+02  0.29128405431E+02  0.17770000000E+01 0.  1.
         15    1    1    2    0    0 -0.74206887214E+01 -0.43314489779E+00  0.79091815392E+00  0.76835874517E+01  0.17770000000E+01 0. -1.
</event>
<event>
 6    1  0.1782050E-003  0.5260648E+03  0.7546771E-02  0.9343305E-01
        -11   -1    0    0    0    0  0.00000000000E+00  0.00000000000E+00  0.50000000000E+03  0.50000000000E+03  0.00000000000E+00 0. -1.
         11   -1    0    0    0    0 -0.00000000000E+00 -0.00000000000E+00 -0.50000000000E+03  0.50000000000E+03  0.00000000000E+00 0.  1.
        -11    1    1    2    0    0  0.71184308093E+01 -0.15985662870E+02  0.47361203063E+03  0.47393519497E+03  0.00000000000E+00 0. -1.
         11    1    1    2    0    0  0.45938746156E+01 -0.11014561757E+02 -0.43208412768E+03  0.43224890705E+03  0.00000000000E+00 0.  1.
        -15    1    1    2    0    0 -0.17482223679E+02  0.12230085308E+02  0.20576556131E+02  0.29694368534E+02  0.17770000000E+01 0.  1.
         15    1    1    2    0    0  0.57699182545E+01  0.14770139319E+02 -0.62104459082E+02  0.64121529450E+02  0.17770000000E+01 0. -1.
</event>
<event>
 6    1  0.1782050E-003  0.5023842E+03  0.7546771E-02  0.9394491E-01
        -11   -1    0    0    0    0  0.00000000000E+00  0.00000000000E+00  0.50000000000E+03  0.50000000000E+03  0.00000000000E+00 0. -1.
         11   -1    0    0    0    0 -0.00000000000E+00 -0.00000000000E+00 -0.50000000000E+03  0.50000000000E+03  0.00000000000E+00 0.  1.
        -11    1    1    2    0    0  0.90421399362E+01  0.75524786918E+01  0.41760049927E+03  0.41776665403E+03  0.00000000000E+00 0. -1.
         11    1    1    2    0    0  0.76618272485E+01 -0.84207929148E+01 -0.49748557046E+03  0.49761582186E+03  0.00000000000E+00 0.  1.
        -15    1    1    2    0    0 -0.92416549601E+01  0.49795615215E+01  0.11465812426E+02  0.15646942287E+02  0.17770000000E+01 0.  1.
         15    1    1    2    0    0 -0.74623122246E+01 -0.41112472985E+01  0.68419258765E+02  0.68970581823E+02  0.17770000000E+01 0. -1.
</event>
<event>
 6    1  0.1782050E-003  0.5318295E+03  0.7546771E-02  0.9331276E-01
        -11   -1    0    0    0    0  0.00000000000E+00  0.00000000000E+00  0.50000000000E+03  0.50000000000E+03  0.00000000000E+00 0. -1.
         11   -1    0    0    0    0 -0.00000000000E+00 -0.00000000000E+00 -0.50000000000E+03  0.50000000000E+03  0.00000000000E+00 0.  1.
        -11    1    1    2    0    0 -0.12098885262E+02 -0.22551141250E+01  0.35443456797E+03  0.35464817994E+03  0.00000000000E+00 0. -1.
         11    1    1    2    0    0 -0.10643545704E+00 -0.19355969008E+02 -0.46777021366E+03  0.46817052198E+03  0.00000000000E+00 0.  1.
        -15    1    1    2    0    0  0.58825214511E+00  0.13653816982E+02 -0.30068598160E+02  0.33076443023E+02  0.17770000000E+01 0. -1.
         15    1    1    2    0    0  0.11617068574E+02  0.79572661505E+01  0.14340424385E+03  0.14410485505E+03  0.17770000000E+01 0.  1.
</event>
<event>
 6    1  0.1782050E-003  0.5031714E+03  0.7546771E-02  0.9392741E-01
        -11   -1    0    0    0    0  0.00000000000E+00  0.00000000000E+00  0.50000000000E+03  0.50000000000E+03  0.00000000000E+00 0. -1.
         11   -1    0    0    0    0 -0.00000000000E+00 -0.00000000000E+00 -0.50000000000E+03  0.50000000000E+03  0.00000000000E+00 0.  1.
        -11    1    1    2    0    0  0.66496232376E+01 -0.50027589757E+01  0.46771638465E+03  0.46779040345E+03  0.00000000000E+00 0. -1.
         11    1    1    2    0    0 -0.12070771245E+02  0.40245827863E+01 -0.49666560282E+03  0.49682856380E+03  0.00000000000E+00 0.  1.
        -15    1    1    2    0    0  0.22807984711E+01  0.44408219897E+01  0.29835261495E+02  0.30302202875E+02  0.17770000000E+01 0. -1.
         15    1    1    2    0    0  0.31403495364E+01 -0.34626458004E+01 -0.88604332962E+00  0.50788298782E+01  0.17770000000E+01 0.  1.
</event>
<event>
 6    1  0.1782050E-003  0.5027419E+03  0.7546771E-02  0.9393695E-01
        -11   -1    0    0    0    0  0.00000000000E+00  0.00000000000E+00  0.50000000000E+03  0.50000000000E+03  0.00000000000E+00 0. -1.
         11   -1    0    0    0    0 -0.00000000000E+00 -0.00000000000E+00 -0.50000000000E+03  0.50000000000E+03  0.00000000000E+00 0.  1.
        -11    1    1    2    0    0  0.33837474879E+01 -0.90805009858E+01  0.41642305314E+03  0.41653579010E+03  0.00000000000E+00 0. -1.
         11    1    1    2    0    0  0.82509302475E+01  0.19972460986E+01 -0.49718565834E+03  0.49725812783E+03  0.00000000000E+00 0.  1.
        -15    1    1    2    0    0 -0.27916016471E+01  0.81925978424E+01  0.74837613277E+02  0.75357400361E+02  0.17770000000E+01 0.  1.
         15    1    1    2    0    0 -0.88430760884E+01 -0.11093429552E+01  0.59249919160E+01  0.10848681703E+02  0.17770000000E+01 0. -1.
</event>
<event>
 6    1  0.1782050E-003  0.5051496E+03  0.7546771E-02  0.9388360E-01
        -11   -1    0    0    0    0  0.00000000000E+00  0.00000000000E+00  0.50000000000E+03  0.50000000000E+03  0.00000000000E+00 0. -1.
         11   -1    0    0    0    0 -0.00000000000E+00 -0.00000000000E+00 -0.50000000000E+03  0.50000000000E+03  0.00000000000E+00 0. -1.
        -11    1    1    2    0    0 -0.16113807011E+02 -0.75271623116E+01  0.49453071528E+03  0.49485042316E+03  0.00000000000E+00 0. -1.
         11    1    1    2    0    0 -0.22661193230E+01 -0.11975400418E+02 -0.44474977760E+03  0.44491674523E+03  0.00000000000E+00 0. -1.
        -15    1    1    2    0    0 -0.27892399944E+01 -0.96640119219E+00 -0.17466043202E+01  0.38629194480E+01  0.17770000000E+01 0. -1.
         15    1    1    2    0    0  0.21169166328E+02  0.20468963922E+02 -0.48034333358E+02  0.56369912163E+02  0.17770000000E+01 0. -1.
</event>
<event>
 6    1  0.1782050E-003  0.5017062E+03  0.7546771E-02  0.9396000E-01
        -11   -1    0    0    0    0  0.00000000000E+00  0.00000000000E+00  0.50000000000E+03  0.50000000000E+03  0.00000000000E+00 0.  1.
         11   -1    0    0    0    0 -0.00000000000E+00 -0.00000000000E+00 -0.50000000000E+03  0.50000000000E+03  0.00000000000E+00 0.  1.
        -11    1    1    2    0    0 -0.11393744206E+02  0.50172609093E+01  0.49813825487E+03  0.49829380016E+03  0.00000000000E+00 0.  1.
         11    1    1    2    0    0 -0.51712174182E+01  0.22596908777E+01 -0.32077422771E+03  0.32082386578E+03  0.00000000000E+00 0.  1.
        -15    1    1    2    0    0  0.21107154873E+02  0.28565373598E+00 -0.15928477327E+03  0.16068724377E+03  0.17770000000E+01 0.  1.
         15    1    1    2    0    0 -0.45421932488E+01 -0.75626055230E+01 -0.18079253886E+02  0.20195090292E+02  0.17770000000E+01 0. -1.
</event>
<event>
 6    1  0.1782050E-003  0.5002529E+03  0.7546771E-02  0.9399244E-01
        -11   -1    0    0    0    0  0.00000000000E+00  0.00000000000E+00  0.50000000000E+03  0.50000000000E+03  0.00000000000E+00 0.  1.
         11   -1    0    0    0    0 -0.00000000000E+00 -0.00000000000E+00 -0.50000000000E+03  0.50000000000E+03  0.00000000000E+00 0.  1.
        -11    1    1    2    0    0 -0.37915834056E+01 -0.26966981287E+01  0.30836899155E+03  0.30840409082E+03  0.00000000000E+00 0.  1.
         11    1    1    2    0    0  0.65787284609E+01  0.43304561592E+01 -0.49968499982E+03  0.49974706759E+03  0.00000000000E+00 0.  1.
        -15    1    1    2    0    0  0.43446158866E+01  0.23323107867E+01  0.46996383354E+02  0.47287769435E+02  0.17770000000E+01 0.  1.
         15    1    1    2    0    0 -0.71317609419E+01 -0.39660688172E+01  0.14431962492E+03  0.14456107215E+03  0.17770000000E+01 0. -1.
</event>
<event>
 6    1  0.1782050E-003  0.5013363E+03  0.7546771E-02  0.9396825E-01
        -11   -1    0    0    0    0  0.00000000000E+00  0.00000000000E+00  0.50000000000E+03  0.50000000000E+03  0.00000000000E+00 0. -1.
         11   -1    0    0    0    0 -0.00000000000E+00 -0.00000000000E+00 -0.50000000000E+03  0.50000000000E+03  0.00000000000E+00 0. -1.
        -11    1    1    2    0    0 -0.72419621360E+01 -0.14362737726E+01  0.49860901411E+03  0.49866367208E+03  0.00000000000E+00 0. -1.
         11    1    1    2    0    0  0.79059911215E+01 -0.55987759382E+01 -0.37573022681E+03  0.37585509751E+03  0.00000000000E+00 0. -1.
        -15    1    1    2    0    0 -0.78802769084E+01  0.41989725589E+01 -0.10977596455E+03  0.11015284951E+03  0.17770000000E+01 0. -1.
         15    1    1    2    0    0  0.72162479228E+01  0.28360771519E+01 -0.13102822761E+02  0.15328380899E+02  0.17770000000E+01 0.  1.
</event>
<event>
 6    1  0.1782050E-003  0.5148005E+03  0.7546771E-02  0.9367288E-01
        -11   -1    0    0    0    0  0.00000000000E+00  0.00000000000E+00  0.50000000000E+03  0.50000000000E+03  0.00000000000E+00 0. -1.
         11   -1    0    0    0    0 -0.00000000000E+00 -0.00000000000E+00 -0.50000000000E+03  0.50000000000E+03  0.00000000000E+00 0.  1.
        -11    1    1    2    0    0 -0.15388424696E+01  0.93148459838E+01  0.45413740839E+03  0.45423553372E+03  0.00000000000E+00 0. -1.
         11    1    1    2    0    0 -0.15974761149E+02  0.13128230925E+00 -0.48493646064E+03  0.48519952709E+03  0.00000000000E+00 0.  1.
        -15    1    1    2    0    0  0.47371091326E+01 -0.42465230782E+01  0.42118174061E+02  0.42632985779E+02  0.17770000000E+01 0. -1.
         15    1    1    2    0    0  0.12776494486E+02 -0.51996052148E+01 -0.11319121810E+02  0.17931953415E+02  0.17770000000E+01 0.  1.
</event>
<event>
 6    1  0.1782050E-003  0.5006430E+03  0.7546771E-02  0.9398372E-01
        -11   -1    0    0    0    0  0.00000000000E+00  0.00000000000E+00  0.50000000000E+03  0.50000000000E+03  0.00000000000E+00 0. -1.
         11   -1    0    0    0    0 -0.00000000000E+00 -0.00000000000E+00 -0.50000000000E+03  0.50000000000E+03  0.00000000000E+00 0.  1.
        -11    1    1    2    0    0  0.15814583266E+01 -0.23412777278E+01  0.14812696954E+03  0.14815391219E+03  0.00000000000E+00 0. -1.
         11    1    1    2    0    0  0.74451760309E+01  0.70509339499E+01 -0.49925175598E+03  0.49935704878E+03  0.00000000000E+00 0.  1.
        -15    1    1    2    0    0 -0.16258918926E+02 -0.20365484604E+01  0.10938412368E+03  0.11061891437E+03  0.17770000000E+01 0.  1.
         15    1    1    2    0    0  0.72322845686E+01 -0.26731077618E+01  0.24174066276E+03  0.24187012466E+03  0.17770000000E+01 0. -1.
</event>
<event>
 6    1  0.1782050E-003  0.5403500E+03  0.7546771E-02  0.9313791E-01
        -11   -1    0    0    0    0  0.00000000000E+00  0.00000000000E+00  0.50000000000E+03  0.50000000000E+03  0.00000000000E+00 0. -1.
         11   -1    0    0    0    0 -0.00000000000E+00 -0.00000000000E+00 -0.50000000000E+03  0.50000000000E+03  0.00000000000E+00 0. -1.
        -11    1    1    2    0    0  0.13559704345E+02  0.19944189663E+01  0.45944564631E+03  0.45965002469E+03  0.00000000000E+00 0. -1.
         11    1    1    2    0    0  0.50704694279E+01  0.28128754178E+02 -0.34936957444E+03  0.35053678268E+03  0.00000000000E+00 0. -1.
        -15    1    1    2    0    0 -0.30821829851E+02 -0.84491495140E+01  0.32180506227E+02  0.45388501109E+02  0.17770000000E+01 0.  1.
         15    1    1    2    0    0  0.12191656078E+02 -0.21674023631E+02 -0.14225657810E+03  0.14442469152E+03  0.17770000000E+01 0. -1.
</event>
<event>
 6    1  0.1782050E-003  0.5057444E+03  0.7546771E-02  0.9387047E-01
        -11   -1    0    0    0    0  0.00000000000E+00  0.00000000000E+00  0.50000000000E+03  0.50000000000E+03  0.00000000000E+00 0.  1.
         11   -1    0    0    0    0 -0.00000000000E+00 -0.00000000000E+00 -0.50000000000E+03  0.50000000000E+03  0.00000000000E+00 0. -1.
        -11    1    1    2    0    0  0.18174518639E+02  0.22895557472E+02  0.49339040927E+03  0.49425561771E+03  0.00000000000E+00 0.  1.
         11    1    1    2    0    0 -0.48170476193E+01  0.25145180969E+01 -0.23547495759E+03  0.23553764540E+03  0.00000000000E+00 0. -1.
        -15    1    1    2    0    0  0.10829233645E+01 -0.24967908304E+02 -0.20574098855E+02  0.32419445411E+02  0.17770000000E+01 0. -1.
         15    1    1    2    0    0 -0.14440394384E+02 -0.44216726515E+00 -0.23734135282E+03  0.23778729148E+03  0.17770000000E+01 0.  1.
</event>
<event>
 6    1  0.1782050E-003  0.5075488E+03  0.7546771E-02  0.9383075E-01
        -11   -1    0    0    0    0  0.00000000000E+00  0.00000000000E+00  0.50000000000E+03  0.50000000000E+03  0.00000000000E+00 0. -1.
         11   -1    0    0    0    0 -0.00000000000E+00 -0.00000000000E+00 -0.50000000000E+03  0.50000000000E+03  0.00000000000E+00 0.  1.
        -11    1    1    2    0    0 -0.10498406847E+02 -0.23134003040E+02  0.49179551113E+03  0.49245123963E+03  0.00000000000E+00 0. -1.
         11    1    1    2    0    0  0.26214511784E+01 -0.58912382814E+01 -0.46413521239E+03  0.46418000180E+03  0.00000000000E+00 0.  1.
        -15    1    1    2    0    0  0.45764493840E+01  0.18839407444E+01 -0.82791555592E+01  0.98079186103E+01  0.17770000000E+01 0.  1.
         15    1    1    2    0    0  0.33005062843E+01  0.27141300577E+02 -0.19381143182E+02  0.33560839960E+02  0.17770000000E+01 0. -1.
</event>
<event>
 6    1  0.1782050E-003  0.5142094E+03  0.7546771E-02  0.9368565E-01
        -11   -1    0    0    0    0  0.00000000000E+00  0.00000000000E+00  0.50000000000E+03  0.50000000000E+03  0.00000000000E+00 0.  1.
         11   -1    0    0    0    0 -0.00000000000E+00 -0.00000000000E+00 -0.50000000000E+03  0.50000000000E+03  0.00000000000E+00 0.  1.
        -11    1    1    2    0    0  0.19376075520E+01  0.10371354951E+02  0.48567600389E+03  0.48579059283E+03  0.00000000000E+00 0.  1.
         11    1    1    2    0    0 -0.57959889762E+01  0.18953946301E+01 -0.27390995853E+03  0.27397783011E+03  0.00000000000E+00 0.  1.
        -15    1    1    2    0    0 -0.22550976919E+02  0.14414263230E+02 -0.17509153252E+01  0.26880122358E+02  0.17770000000E+01 0. -1.
         15    1    1    2    0    0  0.26409358343E+02 -0.26681012811E+02 -0.21001513003E+03  0.21335145470E+03  0.17770000000E+01 0.  1.
</event>
<event>
 6    1  0.1782050E-003  0.4566015E+03  0.7546771E-02  0.9502523E-01
        -11   -1    0    0    0    0  0.00000000000E+00  0.00000000000E+00  0.50000000000E+03  0.50000000000E+03  0.00000000000E+00 0.  1.
         11   -1    0    0    0    0 -0.00000000000E+00 -0.00000000000E+00 -0.50000000000E+03  0.50000000000E+03  0.00000000000E+00 0.  1.
        -11    1    1    2    0    0 -0.48382691509E+00 -0.77579983967E+01  0.45135586903E+03  0.45142279643E+03  0.00000000000E+00 0.  1.
         11    1    1    2    0    0 -0.96331217590E+01 -0.20968486385E+02 -0.46177112804E+03  0.46234732523E+03  0.00000000000E+00 0.  1.
        -15    1    1    2    0    0  0.14810060968E+01  0.16019093746E+02 -0.34833876451E+02  0.38410433753E+02  0.17770000000E+01 0.  1.
         15    1    1    2    0    0  0.86359425772E+01  0.12707391036E+02  0.45249135464E+02  0.47819444584E+02  0.17770000000E+01 0. -1.
</event>
<event>
 6    1  0.1782050E-003  0.5034023E+03  0.7546771E-02  0.9392229E-01
        -11   -1    0    0    0    0  0.00000000000E+00  0.00000000000E+00  0.50000000000E+03  0.50000000000E+03  0.00000000000E+00 0.  1.
         11   -1    0    0    0    0 -0.00000000000E+00 -0.00000000000E+00 -0.50000000000E+03  0.50000000000E+03  0.00000000000E+00 0.  1.
        -11    1    1    2    0    0 -0.97665615962E+00  0.45451081406E+01  0.12939413696E+03  0.12947762179E+03  0.00000000000E+00 0.  1.
         11    1    1    2    0    0 -0.82120252455E+01  0.43755927080E+01 -0.49651055997E+03  0.49659774398E+03  0.00000000000E+00 0.  1.
        -15    1    1    2    0    0  0.47478969292E+01 -0.96162115098E+00  0.36413561883E+03  0.36417217613E+03  0.17770000000E+01 0.  1.
         15    1    1    2    0    0  0.44407844759E+01 -0.79590796976E+01  0.29808041859E+01  0.97524580998E+01  0.17770000000E+01 0. -1.
</event>
<event>
 6    1  0.1782050E-003  0.5314689E+03  0.7546771E-02  0.9332024E-01
        -11   -1    0    0    0    0  0.00000000000E+00  0.00000000000E+00  0.50000000000E+03  0.50000000000E+03  0.00000000000E+00 0. -1.
         11   -1    0    0    0    0 -0.00000000000E+00 -0.00000000000E+00 -0.50000000000E+03  0.50000000000E+03  0.00000000000E+00 0.  1.
        -11    1    1    2    0    0 -0.20984670014E+02  0.14428776728E+01  0.38971570175E+03  0.39028293130E+03  0.00000000000E+00 0. -1.
         11    1    1    2    0    0 -0.27140350667E+02 -0.90458985311E+02 -0.45891390185E+03  0.46853110459E+03  0.00000000000E+00 0.  1.
        -15    1    1    2    0    0  0.15997354157E+02  0.24568937579E+02  0.62233893925E+02  0.68816882491E+02  0.17770000000E+01 0. -1.
         15    1    1    2    0    0  0.32127666525E+02  0.64447170060E+02  0.69643061676E+01  0.72369081619E+02  0.17770000000E+01 0.  1.
</event>
<event>
 6    1  0.1782050E-003  0.5034364E+03  0.7546771E-02  0.9392153E-01
        -11   -1    0    0    0    0  0.00000000000E+00  0.00000000000E+00  0.50000000000E+03  0.50000000000E+03  0.00000000000E+00 0.  1.
         11   -1    0    0    0    0 -0.00000000000E+00 -0.00000000000E+00 -0.50000000000E+03  0.50000000000E+03  0.00000000000E+00 0.  1.
        -11    1    1    2    0    0 -0.99416719037E+01  0.65405353259E+01  0.49642094504E+03  0.49656356101E+03  0.00000000000E+00 0.  1.
         11    1    1    2    0    0  0.93458427802E+01  0.74113063515E+01 -0.30992970735E+03  0.31015914582E+03  0.00000000000E+00 0.  1.
        -15    1    1    2    0    0  0.11802583091E+02 -0.18098550689E+02 -0.17584048175E+03  0.17717192570E+03  0.17770000000E+01 0.  1.
         15    1    1    2    0    0 -0.11206753968E+02  0.41467090112E+01 -0.10650755941E+02  0.16105367466E+02  0.17770000000E+01 0. -1.
</event>
<event>
 6    1  0.1782050E-003  0.5116211E+03  0.7546771E-02  0.9374176E-01
        -11   -1    0    0    0    0  0.00000000000E+00  0.00000000000E+00  0.50000000000E+03  0.50000000000E+03  0.00000000000E+00 0.  1.
         11   -1    0    0    0    0 -0.00000000000E+00 -0.00000000000E+00 -0.50000000000E+03  0.50000000000E+03  0.00000000000E+00 0.  1.
        -11    1    1    2    0    0 -0.62470754969E+01  0.22055119329E+01  0.48833395184E+03  0.48837888852E+03  0.00000000000E+00 0.  1.
         11    1    1    2    0    0  0.99651659657E+01 -0.10446704451E+01 -0.42826532882E+03  0.42838252502E+03  0.00000000000E+00 0.  1.
        -15    1    1    2    0    0  0.12967898653E+02 -0.57070787575E+01 -0.63866507996E+02  0.65443301537E+02  0.17770000000E+01 0.  1.
         15    1    1    2    0    0 -0.16685989122E+02  0.45462372696E+01  0.37978849764E+01  0.17795284925E+02  0.17770000000E+01 0. -1.
</event>
<event>
 6    1  0.1782050E-003  0.4870344E+03  0.7546771E-02  0.9429298E-01
        -11   -1    0    0    0    0  0.00000000000E+00  0.00000000000E+00  0.50000000000E+03  0.50000000000E+03  0.00000000000E+00 0. -1.
         11   -1    0    0    0    0 -0.00000000000E+00 -0.00000000000E+00 -0.50000000000E+03  0.50000000000E+03  0.00000000000E+00 0.  1.
        -11    1    1    2    0    0 -0.61570638118E+01  0.64639839192E+01  0.48542755892E+03  0.48550963686E+03  0.00000000000E+00 0. -1.
         11    1    1    2    0    0  0.11624718964E+02  0.12658949869E+02 -0.48846463135E+03  0.48876689657E+03  0.00000000000E+00 0.  1.
        -15    1    1    2    0    0 -0.28461663412E+01 -0.10863622264E+01 -0.46726104488E+01  0.58542175510E+01  0.17770000000E+01 0.  1.
         15    1    1    2    0    0 -0.26214888108E+01 -0.18036571561E+02  0.77096828824E+01  0.19869249015E+02  0.17770000000E+01 0. -1.
</event>
<event>
 6    1  0.2102626E-003  0.5004408E+03  0.7546771E-02  0.9398824E-01
        -11   -1    0    0    0    0  0.00000000000E+00  0.00000000000E+00  0.50000000000E+03  0.50000000000E+03  0.00000000000E+00 0.  1.
         11   -1    0    0    0    0 -0.00000000000E+00 -0.00000000000E+00 -0.50000000000E+03  0.50000000000E+03  0.00000000000E+00 0.  1.
        -11    1    1    2    0    0  0.61173004043E+00  0.41017788074E+01  0.30336264402E+03  0.30339098964E+03  0.00000000000E+00 0.  1.
         11    1    1    2    0    0 -0.70099912934E+01 -0.13660974162E+01 -0.49950813615E+03  0.49955918996E+03  0.00000000000E+00 0.  1.
        -15    1    1    2    0    0  0.54265752519E+01 -0.11642076248E+01  0.18726464569E+02  0.19612274285E+02  0.17770000000E+01 0. -1.
         15    1    1    2    0    0  0.97168600115E+00 -0.15714737664E+01  0.17741902755E+03  0.17743754611E+03  0.17770000000E+01 0.  1.
</event>
<event>
 6    1  0.1782050E-003  0.5028181E+03  0.7546771E-02  0.9393526E-01
        -11   -1    0    0    0    0  0.00000000000E+00  0.00000000000E+00  0.50000000000E+03  0.50000000000E+03  0.00000000000E+00 0.  1.
         11   -1    0    0    0    0 -0.00000000000E+00 -0.00000000000E+00 -0.50000000000E+03  0.50000000000E+03  0.00000000000E+00 0. -1.
        -11    1    1    2    0    0  0.16348962748E+02  0.56678691690E+01  0.49688068234E+03  0.49718188403E+03  0.00000000000E+00 0.  1.
         11    1    1    2    0    0 -0.13161016312E+02  0.40266563038E+01 -0.40619968989E+03  0.40643279196E+03  0.00000000000E+00 0. -1.
        -15    1    1    2    0    0 -0.87416169006E+01 -0.11076007754E+01 -0.54234859888E+01  0.10498312950E+02  0.17770000000E+01 0.  1.
         15    1    1    2    0    0  0.55536704645E+01 -0.85869246974E+01 -0.85257506460E+02  0.85887011056E+02  0.17770000000E+01 0. -1.
</event>
<event>
 6    1  0.1782050E-003  0.5022793E+03  0.7546771E-02  0.9394724E-01
        -11   -1    0    0    0    0  0.00000000000E+00  0.00000000000E+00  0.50000000000E+03  0.50000000000E+03  0.00000000000E+00 0.  1.
         11   -1    0    0    0    0 -0.00000000000E+00 -0.00000000000E+00 -0.50000000000E+03  0.50000000000E+03  0.00000000000E+00 0. -1.
        -11    1    1    2    0    0 -0.59083033952E+01 -0.14660149125E+02  0.35833548728E+03  0.35868391303E+03  0.00000000000E+00 0.  1.
         11    1    1    2    0    0  0.83293148011E+01 -0.54151188500E+00 -0.49765069098E+03  0.49772068568E+03  0.00000000000E+00 0. -1.
        -15    1    1    2    0    0  0.92223396447E+00  0.16715227282E+02  0.13839528693E+03  0.13941543140E+03  0.17770000000E+01 0. -1.
         15    1    1    2    0    0 -0.33432453704E+01 -0.15135662720E+01  0.91991676574E+00  0.41799698949E+01  0.17770000000E+01 0.  1.
</event>
<event>
 6    1  0.1782050E-003  0.5010567E+03  0.7546771E-02  0.9397448E-01
        -11   -1    0    0    0    0  0.00000000000E+00  0.00000000000E+00  0.50000000000E+03  0.50000000000E+03  0.00000000000E+00 0.  1.
         11   -1    0    0    0    0 -0.00000000000E+00 -0.00000000000E+00 -0.50000000000E+03  0.50000000000E+03  0.00000000000E+00 0. -1.
        -11    1    1    2    0    0 -0.63111426710E+01  0.54264431251E+00  0.43533188326E+03  0.43537796633E+03  0.00000000000E+00 0.  1.
         11    1    1    2    0    0 -0.41330301095E+01 -0.80823283640E+01 -0.49886066696E+03  0.49894325430E+03  0.00000000000E+00 0. -1.
        -15    1    1    2    0    0  0.25146830922E+01  0.67281407022E+01  0.18671750470E+02  0.20084409451E+02  0.17770000000E+01 0.  1.
         15    1    1    2    0    0  0.79294896883E+01  0.81154334924E+00  0.44857033233E+02  0.45594369925E+02  0.17770000000E+01 0. -1.
</event>
<event>
 6    1  0.1782050E-003  0.5003299E+03  0.7546771E-02  0.9399072E-01
        -11   -1    0    0    0    0  0.00000000000E+00  0.00000000000E+00  0.50000000000E+03  0.50000000000E+03  0.00000000000E+00 0.  1.
         11   -1    0    0    0    0 -0.00000000000E+00 -0.00000000000E+00 -0.50000000000E+03  0.50000000000E+03  0.00000000000E+00 0.  1.
        -11    1    1    2    0    0  0.27223686633E+01 -0.72006155669E+01  0.23750496060E+03  0.23762968347E+03  0.00000000000E+00 0.  1.
         11    1    1    2    0    0 -0.11104655197E+01  0.15333220101E+02 -0.49943354357E+03  0.49967009638E+03  0.00000000000E+00 0.  1.
        -15    1    1    2    0    0 -0.95595033572E+01 -0.47111086274E+01  0.17193815792E+03  0.17227729544E+03  0.17770000000E+01 0.  1.
         15    1    1    2    0    0  0.79476002137E+01 -0.34214959069E+01  0.89990425054E+02  0.90422924714E+02  0.17770000000E+01 0. -1.
</event>
<event>
 6    1  0.1782050E-003  0.5292606E+03  0.7546771E-02  0.9336617E-01
        -11   -1    0    0    0    0  0.00000000000E+00  0.00000000000E+00  0.50000000000E+03  0.50000000000E+03  0.00000000000E+00 0. -1.
         11   -1    0    0    0    0 -0.00000000000E+00 -0.00000000000E+00 -0.50000000000E+03  0.50000000000E+03  0.00000000000E+00 0. -1.
        -11    1    1    2    0    0 -0.98650804360E+01 -0.83958878698E+01  0.39963850960E+03  0.39984840765E+03  0.00000000000E+00 0. -1.
         11    1    1    2    0    0  0.60298141693E+01 -0.14732918474E+02 -0.47047010969E+03  0.47073935640E+03  0.00000000000E+00 0. -1.
        -15    1    1    2    0    0 -0.42460113426E+00  0.27492510559E+02 -0.22678900421E+02  0.35686253324E+02  0.17770000000E+01 0.  1.
         15    1    1    2    0    0  0.42598674010E+01 -0.43637042152E+01  0.93510500512E+02  0.93725982629E+02  0.17770000000E+01 0. -1.
</event>
<event>
 6    1  0.1782050E-003  0.5022027E+03  0.7546771E-02  0.9394894E-01
        -11   -1    0    0    0    0  0.00000000000E+00  0.00000000000E+00  0.50000000000E+03  0.50000000000E+03  0.00000000000E+00 0. -1.
         11   -1    0    0    0    0 -0.00000000000E+00 -0.00000000000E+00 -0.50000000000E+03  0.50000000000E+03  0.00000000000E+00 0.  1.
        -11    1    1    2    0    0 -0.56553749719E+01  0.40298762684E+01  0.43472949238E+03  0.43478495226E+03  0.00000000000E+00 0. -1.
         11    1    1    2    0    0  0.13227789636E+02 -0.88993051732E+01 -0.49754193026E+03  0.49779729250E+03  0.00000000000E+00 0.  1.
        -15    1    1    2    0    0 -0.10888402026E+02  0.10169461589E+02  0.25856901062E+02  0.29895021479E+02  0.17770000000E+01 0.  1.
         15    1    1    2    0    0  0.33159873624E+01 -0.53000326847E+01  0.36955536820E+02  0.37522733766E+02  0.17770000000E+01 0. -1.
</event>
<event>
 6    1  0.1782050E-003  0.5012930E+03  0.7546771E-02  0.9396921E-01
        -11   -1    0    0    0    0  0.00000000000E+00  0.00000000000E+00  0.50000000000E+03  0.50000000000E+03  0.00000000000E+00 0.  1.
         11   -1    0    0    0    0 -0.00000000000E+00 -0.00000000000E+00 -0.50000000000E+03  0.50000000000E+03  0.00000000000E+00 0. -1.
        -11    1    1    2    0    0 -0.20926992782E+00 -0.18907673384E+01  0.25292981829E+02  0.25364418480E+02  0.00000000000E+00 0.  1.
         11    1    1    2    0    0  0.68501630417E+01  0.21470733448E+01 -0.49865527986E+03  0.49870695081E+03  0.00000000000E+00 0. -1.
        -15    1    1    2    0    0  0.29934332584E+01 -0.84534254723E+01  0.44159047631E+03  0.44168509998E+03  0.17770000000E+01 0.  1.
         15    1    1    2    0    0 -0.96343263722E+01  0.81971194659E+01  0.31771821722E+02  0.34243530728E+02  0.17770000000E+01 0. -1.
</event>
<event>
 6    1  0.1782050E-003  0.5390955E+03  0.7546771E-02  0.9316344E-01
        -11   -1    0    0    0    0  0.00000000000E+00  0.00000000000E+00  0.50000000000E+03  0.50000000000E+03  0.00000000000E+00 0. -1.
         11   -1    0    0    0    0 -0.00000000000E+00 -0.00000000000E+00 -0.50000000000E+03  0.50000000000E+03  0.00000000000E+00 0.  1.
        -11    1    1    2    0    0  0.24955806346E+02  0.88756519335E+01  0.46014279175E+03  0.46090450016E+03  0.00000000000E+00 0. -1.
         11    1    1    2    0    0  0.78757084621E+01  0.41048147011E+01 -0.40780025424E+03  0.40789695224E+03  0.00000000000E+00 0.  1.
        -15    1    1    2    0    0 -0.31106863682E+02 -0.48872613156E+01  0.32877733325E+02  0.45559031694E+02  0.17770000000E+01 0. -1.
         15    1    1    2    0    0 -0.17246511255E+01 -0.80932053190E+01 -0.85220270839E+02  0.85639515906E+02  0.17770000000E+01 0.  1.
</event>
<event>
 6    1  0.1782050E-003  0.5129872E+03  0.7546771E-02  0.9371210E-01
        -11   -1    0    0    0    0  0.00000000000E+00  0.00000000000E+00  0.50000000000E+03  0.50000000000E+03  0.00000000000E+00 0. -1.
         11   -1    0    0    0    0 -0.00000000000E+00 -0.00000000000E+00 -0.50000000000E+03  0.50000000000E+03  0.00000000000E+00 0.  1.
        -11    1    1    2    0    0  0.22892306903E+01  0.76417939283E+01  0.48694746161E+03  0.48701280061E+03  0.00000000000E+00 0. -1.
         11    1    1    2    0    0  0.24133598504E+01  0.71975037300E+01 -0.70964390405E+02  0.71369272599E+02  0.00000000000E+00 0.  1.
        -15    1    1    2    0    0 -0.21316307818E+02 -0.20290773276E+02 -0.45766714677E+01  0.29836288474E+02  0.17770000000E+01 0. -1.
         15    1    1    2    0    0  0.16613717278E+02  0.54514756182E+01 -0.41140639973E+03  0.41178163832E+03  0.17770000000E+01 0.  1.
</event>
<event>
 6    1  0.1782050E-003  0.4918156E+03  0.7546771E-02  0.9418311E-01
        -11   -1    0    0    0    0  0.00000000000E+00  0.00000000000E+00  0.50000000000E+03  0.50000000000E+03  0.00000000000E+00 0.  1.
         11   -1    0    0    0    0 -0.00000000000E+00 -0.00000000000E+00 -0.50000000000E+03  0.50000000000E+03  0.00000000000E+00 0. -1.
        -11    1    1    2    0    0 -0.36392552184E+01  0.17861317799E+01  0.24705353308E+02  0.25035752982E+02  0.00000000000E+00 0.  1.
         11    1    1    2    0    0  0.91270537636E+01 -0.11173823395E+02 -0.49505691416E+03  0.49526710541E+03  0.00000000000E+00 0. -1.
        -15    1    1    2    0    0 -0.18893582821E+02  0.28921709382E+02  0.43899877124E+03  0.44035952541E+03  0.17770000000E+01 0.  1.
         15    1    1    2    0    0  0.13405784276E+02 -0.19534017768E+02  0.31352789617E+02  0.39337616196E+02  0.17770000000E+01 0. -1.
</event>
<event>
 6    1  0.1782050E-003  0.5025369E+03  0.7546771E-02  0.9394151E-01
        -11   -1    0    0    0    0  0.00000000000E+00  0.00000000000E+00  0.50000000000E+03  0.50000000000E+03  0.00000000000E+00 0.  1.
         11   -1    0    0    0    0 -0.00000000000E+00 -0.00000000000E+00 -0.50000000000E+03  0.50000000000E+03  0.00000000000E+00 0.  1.
        -11    1    1    2    0    0 -0.45132642206E+00 -0.18351354014E+02  0.22189085393E+03  0.22264888714E+03  0.00000000000E+00 0.  1.
         11    1    1    2    0    0 -0.10318315599E+01 -0.12468812867E+02 -0.49730572386E+03  0.49746308301E+03  0.00000000000E+00 0.  1.
        -15    1    1    2    0    0  0.77561163189E+00  0.28697993193E+02  0.27553146109E+03  0.27702873527E+03  0.17770000000E+01 0. -1.
         15    1    1    2    0    0  0.70754635011E+00  0.21221736887E+01 -0.11659115290E+00  0.28592945807E+01  0.17770000000E+01 0.  1.
</event>
<event>
 6    1  0.1782050E-003  0.5014107E+03  0.7546771E-02  0.9396659E-01
        -11   -1    0    0    0    0  0.00000000000E+00  0.00000000000E+00  0.50000000000E+03  0.50000000000E+03  0.00000000000E+00 0. -1.
         11   -1    0    0    0    0 -0.00000000000E+00 -0.00000000000E+00 -0.50000000000E+03  0.50000000000E+03  0.00000000000E+00 0.  1.
        -11    1    1    2    0    0  0.24016912794E+01  0.52699986467E+01  0.37620443058E+03  0.37624900610E+03  0.00000000000E+00 0. -1.
         11    1    1    2    0    0  0.37630862271E+01  0.64123439533E+01 -0.49853391109E+03  0.49858934955E+03  0.00000000000E+00 0.  1.
        -15    1    1    2    0    0 -0.19018071251E+01 -0.35809898336E+01  0.27340252152E+01  0.52031703227E+01  0.17770000000E+01 0. -1.
         15    1    1    2    0    0 -0.42629703814E+01 -0.81013527665E+01  0.11959545530E+03  0.11995847403E+03  0.17770000000E+01 0.  1.
</event>
<event>
 6    1  0.1782050E-003  0.3353826E+03  0.7546771E-02  0.9869316E-01
        -11   -1    0    0    0    0  0.00000000000E+00  0.00000000000E+00  0.50000000000E+03  0.50000000000E+03  0.00000000000E+00 0.  1.
         11   -1    0    0    0    0 -0.00000000000E+00 -0.00000000000E+00 -0.50000000000E+03  0.50000000000E+03  0.00000000000E+00 0.  1.
        -11    1    1    2    0    0  0.97801289290E+01  0.30092071598E+00  0.40490444679E+03  0.40502265678E+03  0.00000000000E+00 0.  1.
         11    1    1    2    0    0 -0.92734715048E+00  0.72554251260E+01 -0.20104252313E+03  0.20117553845E+03  0.00000000000E+00 0.  1.
        -15    1    1    2    0    0 -0.53565941839E+02 -0.81801582005E+02 -0.26844324419E+03  0.28570219114E+03  0.17770000000E+01 0.  1.
         15    1    1    2    0    0  0.44713160060E+02  0.74245236163E+02  0.64581320526E+02  0.10809961362E+03  0.17770000000E+01 0. -1.
</event>
<event>
 6    1  0.1782050E-003  0.5000803E+03  0.7546771E-02  0.9399630E-01
        -11   -1    0    0    0    0  0.00000000000E+00  0.00000000000E+00  0.50000000000E+03  0.50000000000E+03  0.00000000000E+00 0. -1.
         11   -1    0    0    0    0 -0.00000000000E+00 -0.00000000000E+00 -0.50000000000E+03  0.50000000000E+03  0.00000000000E+00 0. -1.
        -11    1    1    2    0    0  0.46270563252E+01 -0.92116462928E+00  0.24319320175E+03  0.24323895982E+03  0.00000000000E+00 0. -1.
         11    1    1    2    0    0 -0.85471171478E+01 -0.41548709059E+01 -0.49982935462E+03  0.49991969346E+03  0.00000000000E+00 0. -1.
        -15    1    1    2    0    0  0.20549120946E+01  0.37400931907E+00  0.17867936294E+03  0.17870040575E+03  0.17770000000E+01 0.  1.
         15    1    1    2    0    0  0.18651487279E+01  0.47020262161E+01  0.77956789934E+02  0.78140940973E+02  0.17770000000E+01 0. -1.
</event>
<event>
 6    1  0.1782050E-003  0.4874596E+03  0.7546771E-02  0.9428315E-01
        -11   -1    0    0    0    0  0.00000000000E+00  0.00000000000E+00  0.50000000000E+03  0.50000000000E+03  0.00000000000E+00 0.  1.
         11   -1    0    0    0    0 -0.00000000000E+00 -0.00000000000E+00 -0.50000000000E+03  0.50000000000E+03  0.00000000000E+00 0.  1.
        -11    1    1    2    0    0  0.38968990875E+01  0.97823270078E+01  0.48986741058E+03  0.48998057073E+03  0.00000000000E+00 0.  1.
         11    1    1    2    0    0 -0.42759673405E+01  0.56885723218E+01 -0.48502122302E+03  0.48507342798E+03  0.00000000000E+00 0.  1.
        -15    1    1    2    0    0 -0.81945201356E+01 -0.12803808210E+02 -0.26436273303E+01  0.15531714631E+02  0.17770000000E+01 0. -1.
         15    1    1    2    0    0  0.85735883886E+01 -0.26670911196E+01 -0.22025602297E+01  0.94142866678E+01  0.17770000000E+01 0.  1.
</event>
<event>
 6    1  0.1782050E-003  0.5008298E+03  0.7546771E-02  0.9397955E-01
        -11   -1    0    0    0    0  0.00000000000E+00  0.00000000000E+00  0.50000000000E+03  0.50000000000E+03  0.00000000000E+00 0. -1.
         11   -1    0    0    0    0 -0.00000000000E+00 -0.00000000000E+00 -0.50000000000E+03  0.50000000000E+03  0.00000000000E+00 0. -1.
        -11    1    1    2    0    0 -0.51268453090E+01  0.12886219239E+02  0.49897750411E+03  0.49917020023E+03  0.00000000000E+00 0. -1.
         11    1    1    2    0    0  0.21941534805E+00  0.12965469624E+01 -0.49262943116E+02  0.49280490476E+02  0.00000000000E+00 0. -1.
        -15    1    1    2    0    0 -0.44434631935E+01  0.10424425774E+01 -0.36113508222E+03  0.36116829372E+03  0.17770000000E+01 0.  1.
         15    1    1    2    0    0  0.93508931545E+01 -0.15225208779E+02 -0.88579478781E+02  0.90381015569E+02  0.17770000000E+01 0. -1.
</event>
<event>
 6    1  0.1782050E-003  0.5143590E+03  0.7546771E-02  0.9368241E-01
        -11   -1    0    0    0    0  0.00000000000E+00  0.00000000000E+00  0.50000000000E+03  0.50000000000E+03  0.00000000000E+00 0.  1.
         11   -1    0    0    0    0 -0.00000000000E+00 -0.00000000000E+00 -0.50000000000E+03  0.50000000000E+03  0.00000000000E+00 0. -1.
        -11    1    1    2    0    0 -0.18766792640E+02  0.51887655867E+01  0.48525050221E+03  0.48564098436E+03  0.00000000000E+00 0.  1.
         11    1    1    2    0    0  0.52997865673E+01  0.24809812524E+01 -0.40727478637E+03  0.40731682339E+03  0.00000000000E+00 0. -1.
        -15    1    1    2    0    0  0.12871987197E+02 -0.38289677499E+01  0.11314319058E+02  0.17649945982E+02  0.17770000000E+01 0.  1.
         15    1    1    2    0    0  0.59501887625E+00 -0.38407790892E+01 -0.89290034899E+02  0.89392246267E+02  0.17770000000E+01 0. -1.
</event>
<event>
 6    1  0.1782050E-003  0.4124974E+03  0.7546771E-02  0.9620179E-01
        -11   -1    0    0    0    0  0.00000000000E+00  0.00000000000E+00  0.50000000000E+03  0.50000000000E+03  0.00000000000E+00 0.  1.
         11   -1    0    0    0    0 -0.00000000000E+00 -0.00000000000E+00 -0.50000000000E+03  0.50000000000E+03  0.00000000000E+00 0. -1.
        -11    1    1    2    0    0  0.88940849029E+01  0.33555535459E+02  0.40608936948E+03  0.40757042915E+03  0.00000000000E+00 0.  1.
         11    1    1    2    0    0  0.15069849851E+02  0.28959134050E+02 -0.41896683984E+03  0.42023677219E+03  0.00000000000E+00 0. -1.
        -15    1    1    2    0    0  0.48465458888E+00 -0.36396541019E+02  0.84549085968E+02  0.92068717572E+02  0.17770000000E+01 0.  1.
         15    1    1    2    0    0 -0.24448589343E+02 -0.26118128490E+02 -0.71671615617E+02  0.80124081092E+02  0.17770000000E+01 0. -1.
</event>
<event>
 6    1  0.1782050E-003  0.5018958E+03  0.7546771E-02  0.9395578E-01
        -11   -1    0    0    0    0  0.00000000000E+00  0.00000000000E+00  0.50000000000E+03  0.50000000000E+03  0.00000000000E+00 0.  1.
         11   -1    0    0    0    0 -0.00000000000E+00 -0.00000000000E+00 -0.50000000000E+03  0.50000000000E+03  0.00000000000E+00 0.  1.
        -11    1    1    2    0    0  0.62010603004E+01  0.40913183589E+01  0.49804881373E+03  0.49810421891E+03  0.00000000000E+00 0.  1.
         11    1    1    2    0    0 -0.31425118616E+00  0.37028532938E+01 -0.17833192949E+03  0.17837064487E+03  0.00000000000E+00 0.  1.
        -15    1    1    2    0    0  0.52875276799E+01 -0.20144632771E+01 -0.30006587753E+03  0.30012448184E+03  0.17770000000E+01 0.  1.
         15    1    1    2    0    0 -0.11174336794E+02 -0.57797083757E+01 -0.19651006708E+02  0.23400654378E+02  0.17770000000E+01 0. -1.
</event>
<event>
 6    1  0.1782050E-003  0.5003649E+03  0.7546771E-02  0.9398994E-01
        -11   -1    0    0    0    0  0.00000000000E+00  0.00000000000E+00  0.50000000000E+03  0.50000000000E+03  0.00000000000E+00 0.  1.
         11   -1    0    0    0    0 -0.00000000000E+00 -0.00000000000E+00 -0.50000000000E+03  0.50000000000E+03  0.00000000000E+00 0. -1.
        -11    1    1    2    0    0  0.36764418096E+01  0.44427446477E+00  0.18838733818E+02  0.19199257696E+02  0.00000000000E+00 0.  1.
         11    1    1    2    0    0  0.16073524261E+02 -0.46759310646E+00 -0.49937628174E+03  0.49963511444E+03  0.00000000000E+00 0. -1.
        -15    1    1    2    0    0 -0.66926461941E+01  0.64997696953E+01  0.14831075831E+03  0.14861452580E+03  0.17770000000E+01 0. -1.
         15    1    1    2    0    0 -0.13057319877E+02 -0.64764510536E+01  0.33222678960E+03  0.33255110206E+03  0.17770000000E+01 0.  1.
</event>
<event>
 6    1  0.1782050E-003  0.4780645E+03  0.7546771E-02  0.9450276E-01
        -11   -1    0    0    0    0  0.00000000000E+00  0.00000000000E+00  0.50000000000E+03  0.50000000000E+03  0.00000000000E+00 0. -1.
         11   -1    0    0    0    0 -0.00000000000E+00 -0.00000000000E+00 -0.50000000000E+03  0.50000000000E+03  0.00000000000E+00 0.  1.
        -11    1    1    2    0    0  0.86635547100E+01  0.37813226520E+01  0.47520196574E+03  0.47529597497E+03  0.00000000000E+00 0. -1.
         11    1    1    2    0    0  0.81738394584E+01  0.20198542116E+01 -0.48094242052E+03  0.48101611544E+03  0.00000000000E+00 0.  1.
        -15    1    1    2    0    0 -0.15255158551E+02 -0.21948588106E+02  0.55901478460E+01  0.27365450192E+02  0.17770000000E+01 0. -1.
         15    1    1    2    0    0 -0.15822356172E+01  0.16147411242E+02  0.15030693144E+00  0.16322459390E+02  0.17770000000E+01 0.  1.
</event>
<event>
 6    1  0.1782050E-003  0.5018365E+03  0.7546771E-02  0.9395710E-01
        -11   -1    0    0    0    0  0.00000000000E+00  0.00000000000E+00  0.50000000000E+03  0.50000000000E+03  0.00000000000E+00 0.  1.
         11   -1    0    0    0    0 -0.00000000000E+00 -0.00000000000E+00 -0.50000000000E+03  0.50000000000E+03  0.00000000000E+00 0. -1.
        -11    1    1    2    0    0 -0.10346244775E+02 -0.79901552445E+01  0.49799194974E+03  0.49816349662E+03  0.00000000000E+00 0.  1.
         11    1    1    2    0    0 -0.96343556606E+00 -0.57514704961E+01 -0.30960636997E+03  0.30966128584E+03  0.00000000000E+00 0. -1.
        -15    1    1    2    0    0  0.56618629576E+01  0.15353761523E+02 -0.35112764133E+02  0.38779616026E+02  0.17770000000E+01 0. -1.
         15    1    1    2    0    0  0.56478173838E+01 -0.16121357823E+01 -0.15327281563E+03  0.15339560151E+03  0.17770000000E+01 0.  1.
</event>
<event>
 6    1  0.1782050E-003  0.5009906E+03  0.7546771E-02  0.9397596E-01
        -11   -1    0    0    0    0  0.00000000000E+00  0.00000000000E+00  0.50000000000E+03  0.50000000000E+03  0.00000000000E+00 0.  1.
         11   -1    0    0    0    0 -0.00000000000E+00 -0.00000000000E+00 -0.50000000000E+03  0.50000000000E+03  0.00000000000E+00 0.  1.
        -11    1    1    2    0    0 -0.34207531807E+00  0.86953511857E+01  0.49893351730E+03  0.49900939955E+03  0.00000000000E+00 0.  1.
         11    1    1    2    0    0  0.29575232715E+01  0.42941561829E+01 -0.99206140262E+02  0.99343067130E+02  0.00000000000E+00 0.  1.
        -15    1    1    2    0    0  0.66700305862E+00 -0.15126065675E+02 -0.39485237568E+03  0.39514655391E+03  0.17770000000E+01 0.  1.
         15    1    1    2    0    0 -0.32824510121E+01  0.21365583061E+01 -0.48750013582E+01  0.65009794096E+01  0.17770000000E+01 0. -1.
</event>
<event>
 6    1  0.1782050E-003  0.5008262E+03  0.7546771E-02  0.9397963E-01
        -11   -1    0    0    0    0  0.00000000000E+00  0.00000000000E+00  0.50000000000E+03  0.50000000000E+03  0.00000000000E+00 0. -1.
         11   -1    0    0    0    0 -0.00000000000E+00 -0.00000000000E+00 -0.50000000000E+03  0.50000000000E+03  0.00000000000E+00 0.  1.
        -11    1    1    2    0    0 -0.90337049422E+01  0.79939122985E+01  0.30572061974E+03  0.30595850665E+03  0.00000000000E+00 0. -1.
         11    1    1    2    0    0  0.11076055152E+01 -0.11557575787E+02 -0.49903880128E+03  0.49917384700E+03  0.00000000000E+00 0.  1.
        -15    1    1    2    0    0 -0.19060958227E+01  0.84639416810E+01  0.33125579546E+02  0.34288967021E+02  0.17770000000E+01 0. -1.
         15    1    1    2    0    0  0.98321952497E+01 -0.49002781924E+01  0.16019260200E+03  0.16057867933E+03  0.17770000000E+01 0.  1.
</event>
<event>
 6    1  0.1782050E-003  0.5020019E+03  0.7546771E-02  0.9395341E-01
        -11   -1    0    0    0    0  0.00000000000E+00  0.00000000000E+00  0.50000000000E+03  0.50000000000E+03  0.00000000000E+00 0. -1.
         11   -1    0    0    0    0 -0.00000000000E+00 -0.00000000000E+00 -0.50000000000E+03  0.50000000000E+03  0.00000000000E+00 0.  1.
        -11    1    1    2    0    0  0.26284268163E+01  0.51425278504E+01  0.39552908658E+03  0.39557124839E+03  0.00000000000E+00 0. -1.
         11    1    1    2    0    0  0.71365572194E+01 -0.86571288937E+01 -0.49787172901E+03  0.49799812738E+03  0.00000000000E+00 0.  1.
        -15    1    1    2    0    0 -0.71819092668E+01 -0.46380599304E+01  0.93824706025E+02  0.94230168260E+02  0.17770000000E+01 0. -1.
         15    1    1    2    0    0 -0.25830747689E+01  0.81526609737E+01  0.85179364060E+01  0.12200455968E+02  0.17770000000E+01 0.  1.
</event>
<event>
 6    1  0.1782050E-003  0.5001509E+03  0.7546771E-02  0.9399472E-01
        -11   -1    0    0    0    0  0.00000000000E+00  0.00000000000E+00  0.50000000000E+03  0.50000000000E+03  0.00000000000E+00 0.  1.
         11   -1    0    0    0    0 -0.00000000000E+00 -0.00000000000E+00 -0.50000000000E+03  0.50000000000E+03  0.00000000000E+00 0. -1.
        -11    1    1    2    0    0 -0.35759173941E+01  0.71452663369E+01  0.19885635116E+03  0.19901680938E+03  0.00000000000E+00 0.  1.
         11    1    1    2    0    0  0.90006397502E+01 -0.18320481365E+01 -0.49976474079E+03  0.49984914129E+03  0.00000000000E+00 0. -1.
        -15    1    1    2    0    0 -0.89042201912E+00 -0.63589217695E+01  0.16527111743E+03  0.16540534672E+03  0.17770000000E+01 0.  1.
         15    1    1    2    0    0 -0.45343003370E+01  0.10457035691E+01  0.13563727219E+03  0.13572870261E+03  0.17770000000E+01 0. -1.
</event>
<event>
 6    1  0.1782050E-003  0.4838013E+03  0.7546771E-02  0.9436803E-01
        -11   -1    0    0    0    0  0.00000000000E+00  0.00000000000E+00  0.50000000000E+03  0.50000000000E+03  0.00000000000E+00 0.  1.
         11   -1    0    0    0    0 -0.00000000000E+00 -0.00000000000E+00 -0.50000000000E+03  0.50000000000E+03  0.00000000000E+00 0. -1.
        -11    1    1    2    0    0  0.16557205320E+02  0.62149959390E+01  0.48069546428E+03  0.48102068209E+03  0.00000000000E+00 0.  1.
         11    1    1    2    0    0  0.20847400231E+01 -0.73625674005E+01 -0.48672075450E+03  0.48678090184E+03  0.00000000000E+00 0. -1.
        -15    1    1    2    0    0 -0.11190796479E+02 -0.63961661287E+00  0.15924379036E+02  0.19554708179E+02  0.17770000000E+01 0.  1.
         15    1    1    2    0    0 -0.74511488637E+01  0.17871880744E+01 -0.98990888172E+01  0.12643707882E+02  0.17770000000E+01 0. -1.
</event>
<event>
 6    1  0.1782050E-003  0.5170205E+03  0.7546771E-02  0.9362510E-01
        -11   -1    0    0    0    0  0.00000000000E+00  0.00000000000E+00  0.50000000000E+03  0.50000000000E+03  0.00000000000E+00 0.  1.
         11   -1    0    0    0    0 -0.00000000000E+00 -0.00000000000E+00 -0.50000000000E+03  0.50000000000E+03  0.00000000000E+00 0. -1.
        -11    1    1    2    0    0  0.91918281196E+01 -0.48018689375E+01  0.48286810478E+03  0.48297945532E+03  0.00000000000E+00 0.  1.
         11    1    1    2    0    0 -0.89166554390E+00 -0.98403263788E+01 -0.45113244911E+03  0.45124063839E+03  0.00000000000E+00 0. -1.
        -15    1    1    2    0    0 -0.69698755746E+01  0.40167530097E+01  0.15370571000E+02  0.17439198724E+02  0.17770000000E+01 0.  1.
         15    1    1    2    0    0 -0.13302870011E+01  0.10625442307E+02 -0.47106226672E+02  0.48340707567E+02  0.17770000000E+01 0.  1.
</event>
<event>
 6    1  0.1782050E-003  0.5013404E+03  0.7546771E-02  0.9396815E-01
        -11   -1    0    0    0    0  0.00000000000E+00  0.00000000000E+00  0.50000000000E+03  0.50000000000E+03  0.00000000000E+00 0. -1.
         11   -1    0    0    0    0 -0.00000000000E+00 -0.00000000000E+00 -0.50000000000E+03  0.50000000000E+03  0.00000000000E+00 0.  1.
        -11    1    1    2    0    0  0.71986725054E+01  0.10131537884E+02  0.36467513924E+03  0.36488686757E+03  0.00000000000E+00 0. -1.
         11    1    1    2    0    0  0.53104894823E+01  0.54699314052E+01 -0.49860126988E+03  0.49865955097E+03  0.00000000000E+00 0.  1.
        -15    1    1    2    0    0  0.20594387609E+01 -0.39947780374E+01  0.98202737032E+01  0.10945092242E+02  0.17770000000E+01 0.  1.
         15    1    1    2    0    0 -0.14568600749E+02 -0.11606691252E+02  0.12410585693E+03  0.12550848921E+03  0.17770000000E+01 0. -1.
</event>
<event>
 6    1  0.1782050E-003  0.5033504E+03  0.7546771E-02  0.9392344E-01
        -11   -1    0    0    0    0  0.00000000000E+00  0.00000000000E+00  0.50000000000E+03  0.50000000000E+03  0.00000000000E+00 0.  1.
         11   -1    0    0    0    0 -0.00000000000E+00 -0.00000000000E+00 -0.50000000000E+03  0.50000000000E+03  0.00000000000E+00 0.  1.
        -11    1    1    2    0    0 -0.42394448112E+02  0.21561289966E+02  0.49436687200E+03  0.49664955712E+03  0.00000000000E+00 0.  1.
         11    1    1    2    0    0 -0.25538899498E+01 -0.54987011615E+01 -0.29443728112E+03  0.29449969539E+03  0.00000000000E+00 0.  1.
        -15    1    1    2    0    0  0.13750378965E+02 -0.34311986746E+01 -0.14391469778E+02  0.20276049354E+02  0.17770000000E+01 0. -1.
         15    1    1    2    0    0  0.31197959096E+02 -0.12631390130E+02 -0.18553812110E+03  0.18857469814E+03  0.17770000000E+01 0.  1.
</event>
<event>
 6    1  0.1782050E-003  0.5027872E+03  0.7546771E-02  0.9393595E-01
        -11   -1    0    0    0    0  0.00000000000E+00  0.00000000000E+00  0.50000000000E+03  0.50000000000E+03  0.00000000000E+00 0. -1.
         11   -1    0    0    0    0 -0.00000000000E+00 -0.00000000000E+00 -0.50000000000E+03  0.50000000000E+03  0.00000000000E+00 0.  1.
        -11    1    1    2    0    0  0.10041770698E+02 -0.16628636337E+01  0.46955124481E+03  0.46966155237E+03  0.00000000000E+00 0. -1.
         11    1    1    2    0    0 -0.12366466076E+02 -0.82245891868E+01 -0.49699097328E+03  0.49721283257E+03  0.00000000000E+00 0.  1.
        -15    1    1    2    0    0 -0.46427857218E+01 -0.10353028176E+00  0.31256220286E+01  0.58731098954E+01  0.17770000000E+01 0. -1.
         15    1    1    2    0    0  0.69674810995E+01  0.99909831023E+01  0.24314106443E+02  0.27252505157E+02  0.17770000000E+01 0.  1.
</event>
<event>
 6    1  0.1782050E-003  0.5014258E+03  0.7546771E-02  0.9396625E-01
        -11   -1    0    0    0    0  0.00000000000E+00  0.00000000000E+00  0.50000000000E+03  0.50000000000E+03  0.00000000000E+00 0.  1.
         11   -1    0    0    0    0 -0.00000000000E+00 -0.00000000000E+00 -0.50000000000E+03  0.50000000000E+03  0.00000000000E+00 0.  1.
        -11    1    1    2    0    0 -0.91163462326E+01 -0.58843124574E+01  0.37693348925E+03  0.37708962890E+03  0.00000000000E+00 0.  1.
         11    1    1    2    0    0  0.97791765390E+01 -0.10154963598E+02 -0.49837487115E+03  0.49857423497E+03  0.00000000000E+00 0.  1.
        -15    1    1    2    0    0  0.30593198456E+01 -0.34424725963E+01  0.10263268741E+02  0.11388699212E+02  0.17770000000E+01 0. -1.
         15    1    1    2    0    0 -0.37221501520E+01  0.19481748652E+02  0.11117811316E+03  0.11294743692E+03  0.17770000000E+01 0.  1.
</event>
<event>
 6    1  0.1782050E-003  0.5036877E+03  0.7546771E-02  0.9391596E-01
        -11   -1    0    0    0    0  0.00000000000E+00  0.00000000000E+00  0.50000000000E+03  0.50000000000E+03  0.00000000000E+00 0. -1.
         11   -1    0    0    0    0 -0.00000000000E+00 -0.00000000000E+00 -0.50000000000E+03  0.50000000000E+03  0.00000000000E+00 0. -1.
        -11    1    1    2    0    0 -0.75771955694E+01  0.46827770564E+01  0.49623231639E+03  0.49631225466E+03  0.00000000000E+00 0. -1.
         11    1    1    2    0    0 -0.81008397759E+01  0.27157975152E+01 -0.47087065177E+03  0.47094816048E+03  0.00000000000E+00 0. -1.
        -15    1    1    2    0    0  0.14259402191E+02 -0.84543051132E+01 -0.16220443269E+02  0.23260832630E+02  0.17770000000E+01 0.  1.
         15    1    1    2    0    0  0.14186331540E+01  0.10557305416E+01 -0.91412213495E+01  0.94787522261E+01  0.17770000000E+01 0. -1.
</event>
<event>
 6    1  0.1782050E-003  0.5344739E+03  0.7546771E-02  0.9325813E-01
        -11   -1    0    0    0    0  0.00000000000E+00  0.00000000000E+00  0.50000000000E+03  0.50000000000E+03  0.00000000000E+00 0. -1.
         11   -1    0    0    0    0 -0.00000000000E+00 -0.00000000000E+00 -0.50000000000E+03  0.50000000000E+03  0.00000000000E+00 0.  1.
        -11    1    1    2    0    0 -0.22426993969E+02 -0.82640521840E+00  0.46498486337E+03  0.46552612834E+03  0.00000000000E+00 0. -1.
         11    1    1    2    0    0  0.66211871451E+01 -0.94217414579E+01 -0.42479149155E+03  0.42494755044E+03  0.00000000000E+00 0.  1.
        -15    1    1    2    0    0  0.82056263433E+01  0.11013746228E+02  0.33065649405E+02  0.35848707219E+02  0.17770000000E+01 0.  1.
         15    1    1    2    0    0  0.76001804809E+01 -0.76559955214E+00 -0.73259021226E+02  0.73677614009E+02  0.17770000000E+01 0. -1.
</event>
<event>
 6    1  0.1782050E-003  0.5024049E+03  0.7546771E-02  0.9394445E-01
        -11   -1    0    0    0    0  0.00000000000E+00  0.00000000000E+00  0.50000000000E+03  0.50000000000E+03  0.00000000000E+00 0.  1.
         11   -1    0    0    0    0 -0.00000000000E+00 -0.00000000000E+00 -0.50000000000E+03  0.50000000000E+03  0.00000000000E+00 0.  1.
        -11    1    1    2    0    0  0.94577372661E+01  0.46281010208E+01  0.40506921183E+03  0.40520603954E+03  0.00000000000E+00 0.  1.
         11    1    1    2    0    0 -0.42479378994E+01 -0.89768982196E+01 -0.49749599116E+03  0.49759510739E+03  0.00000000000E+00 0.  1.
        -15    1    1    2    0    0  0.34276730812E+01  0.10271830398E+02  0.12771264575E+02  0.16838122530E+02  0.17770000000E+01 0.  1.
         15    1    1    2    0    0 -0.86374724480E+01 -0.59230331992E+01  0.79655514756E+02  0.80360730538E+02  0.17770000000E+01 0. -1.
</event>
<event>
 6    1  0.3816274E-003  0.5365049E+03  0.7546771E-02  0.9321639E-01
        -11   -1    0    0    0    0  0.00000000000E+00  0.00000000000E+00  0.50000000000E+03  0.50000000000E+03  0.00000000000E+00 0.  1.
         11   -1    0    0    0    0 -0.00000000000E+00 -0.00000000000E+00 -0.50000000000E+03  0.50000000000E+03  0.00000000000E+00 0. -1.
        -11    1    1    2    0    0  0.56360173378E+02 -0.29589683295E+02  0.17781226846E+03  0.18886296968E+03  0.00000000000E+00 0.  1.
         11    1    1    2    0    0  0.55245440287E+01  0.43588122002E+01 -0.46344167623E+03  0.46349509933E+03  0.00000000000E+00 0. -1.
        -15    1    1    2    0    0 -0.56328138861E+02  0.25193331961E+02  0.31332008032E+03  0.31934337892E+03  0.17770000000E+01 0.  1.
         15    1    1    2    0    0 -0.55565785462E+01  0.37539134243E-01 -0.27690672547E+02  0.28298552073E+02  0.17770000000E+01 0.  1.
</event>
<event>
 6    1  0.1782050E-003  0.5066953E+03  0.7546771E-02  0.9384952E-01
        -11   -1    0    0    0    0  0.00000000000E+00  0.00000000000E+00  0.50000000000E+03  0.50000000000E+03  0.00000000000E+00 0.  1.
         11   -1    0    0    0    0 -0.00000000000E+00 -0.00000000000E+00 -0.50000000000E+03  0.50000000000E+03  0.00000000000E+00 0. -1.
        -11    1    1    2    0    0 -0.45699524468E+00 -0.54304915647E+01  0.39625690533E+03  0.39629437809E+03  0.00000000000E+00 0.  1.
         11    1    1    2    0    0  0.24196945144E+00 -0.67297697200E+01 -0.49325870478E+03  0.49330467076E+03  0.00000000000E+00 0. -1.
        -15    1    1    2    0    0  0.76841542611E+01  0.30678127111E+01 -0.35285064247E+01  0.91687397241E+01  0.17770000000E+01 0.  1.
         15    1    1    2    0    0 -0.74691284679E+01  0.90924485736E+01  0.10053030588E+03  0.10123221143E+03  0.17770000000E+01 0. -1.
</event>
<event>
 6    1  0.1782050E-003  0.5007850E+03  0.7546771E-02  0.9398055E-01
        -11   -1    0    0    0    0  0.00000000000E+00  0.00000000000E+00  0.50000000000E+03  0.50000000000E+03  0.00000000000E+00 0.  1.
         11   -1    0    0    0    0 -0.00000000000E+00 -0.00000000000E+00 -0.50000000000E+03  0.50000000000E+03  0.00000000000E+00 0.  1.
        -11    1    1    2    0    0  0.67549181363E+01 -0.39770181325E+01  0.20425690294E+03  0.20440726012E+03  0.00000000000E+00 0.  1.
         11    1    1    2    0    0  0.76222346624E+01  0.27889231360E+01 -0.49914903459E+03  0.49921501909E+03  0.00000000000E+00 0.  1.
        -15    1    1    2    0    0 -0.63777523756E+01  0.13104400067E+01  0.27163625336E+03  0.27172008546E+03  0.17770000000E+01 0. -1.
         15    1    1    2    0    0 -0.79994004231E+01 -0.12234501010E+00  0.23255878296E+02  0.24657635324E+02  0.17770000000E+01 0.  1.
</event>
<event>
 6    1  0.1782050E-003  0.4712905E+03  0.7546771E-02  0.9466445E-01
        -11   -1    0    0    0    0  0.00000000000E+00  0.00000000000E+00  0.50000000000E+03  0.50000000000E+03  0.00000000000E+00 0. -1.
         11   -1    0    0    0    0 -0.00000000000E+00 -0.00000000000E+00 -0.50000000000E+03  0.50000000000E+03  0.00000000000E+00 0.  1.
        -11    1    1    2    0    0 -0.76749047666E+01 -0.38436431190E+01  0.46882967294E+03  0.46890824261E+03  0.00000000000E+00 0. -1.
         11    1    1    2    0    0  0.20248273517E+02  0.57790344969E+00 -0.47333974473E+03  0.47377298413E+03  0.00000000000E+00 0.  1.
        -15    1    1    2    0    0 -0.11630756176E+02  0.55407537296E+01  0.29450491166E+02  0.32194154749E+02  0.17770000000E+01 0. -1.
         15    1    1    2    0    0 -0.94261257411E+00 -0.22750140602E+01 -0.24940419383E+02  0.25124618513E+02  0.17770000000E+01 0.  1.
</event>
<event>
 6    1  0.1782050E-003  0.5024835E+03  0.7546771E-02  0.9394270E-01
        -11   -1    0    0    0    0  0.00000000000E+00  0.00000000000E+00  0.50000000000E+03  0.50000000000E+03  0.00000000000E+00 0.  1.
         11   -1    0    0    0    0 -0.00000000000E+00 -0.00000000000E+00 -0.50000000000E+03  0.50000000000E+03  0.00000000000E+00 0. -1.
        -11    1    1    2    0    0 -0.91654141384E+01  0.15206974261E+02  0.42534995722E+03  0.42572038122E+03  0.00000000000E+00 0.  1.
         11    1    1    2    0    0  0.58044189851E+01 -0.82431720952E+01 -0.49741430112E+03  0.49751646016E+03  0.00000000000E+00 0. -1.
        -15    1    1    2    0    0 -0.63844932363E+01 -0.87858911871E+01  0.60210206283E+02  0.61207681768E+02  0.17770000000E+01 0.  1.
         15    1    1    2    0    0  0.97454883896E+01  0.18220890216E+01  0.11854137624E+02  0.15555476854E+02  0.17770000000E+01 0. -1.
</event>
<event>
 6    1  0.1782050E-003  0.5053629E+03  0.7546771E-02  0.9387889E-01
        -11   -1    0    0    0    0  0.00000000000E+00  0.00000000000E+00  0.50000000000E+03  0.50000000000E+03  0.00000000000E+00 0.  1.
         11   -1    0    0    0    0 -0.00000000000E+00 -0.00000000000E+00 -0.50000000000E+03  0.50000000000E+03  0.00000000000E+00 0. -1.
        -11    1    1    2    0    0 -0.36150059380E+01 -0.58714889251E+01  0.48036760402E+03  0.48041708717E+03  0.00000000000E+00 0.  1.
         11    1    1    2    0    0 -0.92474457786E+00  0.13088590997E+02 -0.49446300371E+03  0.49463706735E+03  0.00000000000E+00 0. -1.
        -15    1    1    2    0    0  0.50353926863E+01  0.46859348147E+01  0.99117499895E+01  0.12194821911E+02  0.17770000000E+01 0.  1.
         15    1    1    2    0    0 -0.49564217040E+00 -0.11903036887E+02  0.41836496968E+01  0.12751023570E+02  0.17770000000E+01 0.  1.
</event>
<event>
 6    1  0.1782050E-003  0.5047878E+03  0.7546771E-02  0.9389160E-01
        -11   -1    0    0    0    0  0.00000000000E+00  0.00000000000E+00  0.50000000000E+03  0.50000000000E+03  0.00000000000E+00 0.  1.
         11   -1    0    0    0    0 -0.00000000000E+00 -0.00000000000E+00 -0.50000000000E+03  0.50000000000E+03  0.00000000000E+00 0.  1.
        -11    1    1    2    0    0  0.28870064476E+02 -0.18682108765E+02  0.49401681015E+03  0.49521218737E+03  0.00000000000E+00 0.  1.
         11    1    1    2    0    0 -0.45143788628E+01  0.11626389985E+02 -0.42503944871E+03  0.42522239537E+03  0.00000000000E+00 0.  1.
        -15    1    1    2    0    0 -0.20264541908E+02 -0.84338750269E+01 -0.50204860076E+02  0.54822145260E+02  0.17770000000E+01 0.  1.
         15    1    1    2    0    0 -0.40911437055E+01  0.15489593807E+02 -0.18772501360E+02  0.24743272004E+02  0.17770000000E+01 0. -1.
</event>
<event>
 6    1  0.1782050E-003  0.5120741E+03  0.7546771E-02  0.9373191E-01
        -11   -1    0    0    0    0  0.00000000000E+00  0.00000000000E+00  0.50000000000E+03  0.50000000000E+03  0.00000000000E+00 0.  1.
         11   -1    0    0    0    0 -0.00000000000E+00 -0.00000000000E+00 -0.50000000000E+03  0.50000000000E+03  0.00000000000E+00 0.  1.
        -11    1    1    2    0    0 -0.26276349856E+02 -0.26407846084E+02  0.48650170491E+03  0.48792594702E+03  0.00000000000E+00 0.  1.
         11    1    1    2    0    0 -0.39180194219E+01 -0.89817320254E+01 -0.32468395043E+03  0.32483178732E+03  0.00000000000E+00 0.  1.
        -15    1    1    2    0    0  0.28239297381E+02  0.28360768125E+02 -0.19196681416E+02  0.44423658017E+02  0.17770000000E+01 0.  1.
         15    1    1    2    0    0  0.19550718970E+01  0.70288099846E+01 -0.14262107307E+03  0.14281860764E+03  0.17770000000E+01 0.  1.
</event>
<event>
 6    1  0.1782050E-003  0.5492067E+03  0.7546771E-02  0.9295974E-01
        -11   -1    0    0    0    0  0.00000000000E+00  0.00000000000E+00  0.50000000000E+03  0.50000000000E+03  0.00000000000E+00 0.  1.
         11   -1    0    0    0    0 -0.00000000000E+00 -0.00000000000E+00 -0.50000000000E+03  0.50000000000E+03  0.00000000000E+00 0. -1.
        -11    1    1    2    0    0  0.85703368692E+01 -0.14213584011E+02  0.45048769612E+03  0.45079334623E+03  0.00000000000E+00 0.  1.
         11    1    1    2    0    0  0.12909315662E+02  0.43789036090E+02 -0.42177802961E+03  0.42424148356E+03  0.00000000000E+00 0. -1.
        -15    1    1    2    0    0 -0.57468439497E+02  0.19049370957E+02 -0.20202079623E+02  0.63849681457E+02  0.17770000000E+01 0.  1.
         15    1    1    2    0    0  0.35988786965E+02 -0.48624823037E+02 -0.85075868909E+01  0.61115488759E+02  0.17770000000E+01 0. -1.
</event>
<event>
 6    1  0.1782050E-003  0.5022901E+03  0.7546771E-02  0.9394700E-01
        -11   -1    0    0    0    0  0.00000000000E+00  0.00000000000E+00  0.50000000000E+03  0.50000000000E+03  0.00000000000E+00 0.  1.
         11   -1    0    0    0    0 -0.00000000000E+00 -0.00000000000E+00 -0.50000000000E+03  0.50000000000E+03  0.00000000000E+00 0. -1.
        -11    1    1    2    0    0  0.51219724666E+01 -0.97232270933E+01  0.49758851290E+03  0.49770985917E+03  0.00000000000E+00 0.  1.
         11    1    1    2    0    0 -0.17278576138E+02  0.12126594853E+02 -0.44017513280E+03  0.44068100825E+03  0.00000000000E+00 0. -1.
        -15    1    1    2    0    0  0.33098703682E-01  0.55758949869E+01 -0.70315391685E+01  0.91483316789E+01  0.17770000000E+01 0.  1.
         15    1    1    2    0    0  0.12123504968E+02 -0.79792627460E+01 -0.50381840932E+02  0.52460800903E+02  0.17770000000E+01 0. -1.
</event>
<event>
 6    1  0.1782050E-003  0.5057430E+03  0.7546771E-02  0.9387050E-01
        -11   -1    0    0    0    0  0.00000000000E+00  0.00000000000E+00  0.50000000000E+03  0.50000000000E+03  0.00000000000E+00 0.  1.
         11   -1    0    0    0    0 -0.00000000000E+00 -0.00000000000E+00 -0.50000000000E+03  0.50000000000E+03  0.00000000000E+00 0.  1.
        -11    1    1    2    0    0  0.86915453227E+01  0.18955438071E+01  0.49417695007E+03  0.49425701211E+03  0.00000000000E+00 0.  1.
         11    1    1    2    0    0 -0.27646213856E+01  0.26629954576E+01 -0.13160297929E+03  0.13165894894E+03  0.00000000000E+00 0.  1.
        -15    1    1    2    0    0 -0.39697970086E+02 -0.26741713937E+02 -0.24795306634E+03  0.25253698527E+03  0.17770000000E+01 0.  1.
         15    1    1    2    0    0  0.33771046149E+02  0.22183174672E+02 -0.11462090443E+03  0.12154705368E+03  0.17770000000E+01 0. -1.
</event>
<event>
 6    1  0.1782050E-003  0.5021977E+03  0.7546771E-02  0.9394906E-01
        -11   -1    0    0    0    0  0.00000000000E+00  0.00000000000E+00  0.50000000000E+03  0.50000000000E+03  0.00000000000E+00 0.  1.
         11   -1    0    0    0    0 -0.00000000000E+00 -0.00000000000E+00 -0.50000000000E+03  0.50000000000E+03  0.00000000000E+00 0. -1.
        -11    1    1    2    0    0  0.12633601334E+02 -0.64637060331E+01  0.44954831436E+03  0.44977224717E+03  0.00000000000E+00 0.  1.
         11    1    1    2    0    0 -0.10439025217E+01  0.87306114332E+01 -0.49772467133E+03  0.49780233202E+03  0.00000000000E+00 0. -1.
        -15    1    1    2    0    0 -0.81473748024E+01 -0.77666924410E+00  0.66551680257E+01  0.10697285718E+02  0.17770000000E+01 0. -1.
         15    1    1    2    0    0 -0.34423240102E+01 -0.14902361561E+01  0.41521188942E+02  0.41728135095E+02  0.17770000000E+01 0.  1.
</event>
<event>
 6    1  0.1782050E-003  0.4749446E+03  0.7546771E-02  0.9457687E-01
        -11   -1    0    0    0    0  0.00000000000E+00  0.00000000000E+00  0.50000000000E+03  0.50000000000E+03  0.00000000000E+00 0.  1.
         11   -1    0    0    0    0 -0.00000000000E+00 -0.00000000000E+00 -0.50000000000E+03  0.50000000000E+03  0.00000000000E+00 0.  1.
        -11    1    1    2    0    0 -0.91585048528E+01  0.76095032629E+00  0.46810789141E+03  0.46819809403E+03  0.00000000000E+00 0.  1.
         11    1    1    2    0    0 -0.20181985830E+02 -0.49583449811E+01 -0.48180402364E+03  0.48225202429E+03  0.00000000000E+00 0.  1.
        -15    1    1    2    0    0  0.75957051004E+01 -0.21771387498E+01  0.23455081377E+02  0.24813972687E+02  0.17770000000E+01 0.  1.
         15    1    1    2    0    0  0.21744785583E+02  0.63745334047E+01 -0.97589491498E+01  0.24735908992E+02  0.17770000000E+01 0. -1.
</event>
<event>
 6    1  0.1782050E-003  0.5762548E+03  0.7546771E-02  0.9243692E-01
        -11   -1    0    0    0    0  0.00000000000E+00  0.00000000000E+00  0.50000000000E+03  0.50000000000E+03  0.00000000000E+00 0. -1.
         11   -1    0    0    0    0 -0.00000000000E+00 -0.00000000000E+00 -0.50000000000E+03  0.50000000000E+03  0.00000000000E+00 0.  1.
        -11    1    1    2    0    0 -0.87020907765E+00 -0.48236324513E+02  0.42098989962E+03  0.42374520156E+03  0.00000000000E+00 0. -1.
         11    1    1    2    0    0  0.28518000906E+01  0.25796377247E+01 -0.16872962670E+03  0.16877344051E+03  0.00000000000E+00 0.  1.
        -15    1    1    2    0    0  0.64473646961E+01  0.11518134727E+02 -0.32573454729E+03  0.32600673148E+03  0.17770000000E+01 0.  1.
         15    1    1    2    0    0 -0.84289557091E+01  0.34138552061E+02  0.73474274379E+02  0.81474626453E+02  0.17770000000E+01 0. -1.
</event>
<event>
 6    1  0.1782050E-003  0.5171189E+03  0.7546771E-02  0.9362299E-01
        -11   -1    0    0    0    0  0.00000000000E+00  0.00000000000E+00  0.50000000000E+03  0.50000000000E+03  0.00000000000E+00 0.  1.
         11   -1    0    0    0    0 -0.00000000000E+00 -0.00000000000E+00 -0.50000000000E+03  0.50000000000E+03  0.00000000000E+00 0. -1.
        -11    1    1    2    0    0 -0.57766009041E+01  0.68798927954E+01  0.47261100756E+03  0.47269637878E+03  0.00000000000E+00 0.  1.
         11    1    1    2    0    0  0.86342331709E+01  0.25984595063E+01 -0.48279687116E+03  0.48288106277E+03  0.00000000000E+00 0. -1.
        -15    1    1    2    0    0  0.17906914712E+02  0.17629105213E+01  0.10167401042E+02  0.20743654956E+02  0.17770000000E+01 0. -1.
         15    1    1    2    0    0 -0.20764546978E+02 -0.11241262823E+02  0.18462558272E-01  0.23678903500E+02  0.17770000000E+01 0.  1.
</event>
<event>
 6    1  0.1782050E-003  0.5052628E+03  0.7546771E-02  0.9388110E-01
        -11   -1    0    0    0    0  0.00000000000E+00  0.00000000000E+00  0.50000000000E+03  0.50000000000E+03  0.00000000000E+00 0. -1.
         11   -1    0    0    0    0 -0.00000000000E+00 -0.00000000000E+00 -0.50000000000E+03  0.50000000000E+03  0.00000000000E+00 0. -1.
        -11    1    1    2    0    0  0.66647373172E+01 -0.55309851739E+01  0.46749108481E+03  0.46757130461E+03  0.00000000000E+00 0. -1.
         11    1    1    2    0    0 -0.53138259693E+01 -0.61032238130E+01 -0.49467104650E+03  0.49473723362E+03  0.00000000000E+00 0. -1.
        -15    1    1    2    0    0  0.54170070659E+01  0.16107709900E+02  0.13891669004E+02  0.22021318773E+02  0.17770000000E+01 0.  1.
         15    1    1    2    0    0 -0.67679184138E+01 -0.44735009127E+01  0.13288292683E+02  0.15670142996E+02  0.17770000000E+01 0. -1.
</event>
<event>
 6    1  0.1782050E-003  0.5005662E+03  0.7546771E-02  0.9398544E-01
        -11   -1    0    0    0    0  0.00000000000E+00  0.00000000000E+00  0.50000000000E+03  0.50000000000E+03  0.00000000000E+00 0.  1.
         11   -1    0    0    0    0 -0.00000000000E+00 -0.00000000000E+00 -0.50000000000E+03  0.50000000000E+03  0.00000000000E+00 0.  1.
        -11    1    1    2    0    0  0.79422665291E+01 -0.47695807859E+01  0.49934788273E+03  0.49943381592E+03  0.00000000000E+00 0.  1.
         11    1    1    2    0    0 -0.22831519039E+01  0.32963282643E+01 -0.21368460985E+03  0.21372222872E+03  0.00000000000E+00 0.  1.
        -15    1    1    2    0    0 -0.98916257852E+01  0.94944788870E+01 -0.23029853429E+03  0.23071315960E+03  0.17770000000E+01 0. -1.
         15    1    1    2    0    0  0.42325111600E+01 -0.80212263654E+01 -0.55364738593E+02  0.56130795751E+02  0.17770000000E+01 0. -1.
</event>
<event>
 6    1  0.1782050E-003  0.5050988E+03  0.7546771E-02  0.9388472E-01
        -11   -1    0    0    0    0  0.00000000000E+00  0.00000000000E+00  0.50000000000E+03  0.50000000000E+03  0.00000000000E+00 0.  1.
         11   -1    0    0    0    0 -0.00000000000E+00 -0.00000000000E+00 -0.50000000000E+03  0.50000000000E+03  0.00000000000E+00 0.  1.
        -11    1    1    2    0    0 -0.49868730037E+01 -0.87415824020E+01  0.49479882489E+03  0.49490116314E+03  0.00000000000E+00 0.  1.
         11    1    1    2    0    0  0.39453168968E+01 -0.60849506806E+01 -0.40945464515E+03  0.40951886231E+03  0.00000000000E+00 0.  1.
        -15    1    1    2    0    0 -0.11902735531E+00  0.82103493253E+01 -0.87807100921E+02  0.88208098861E+02  0.17770000000E+01 0.  1.
         15    1    1    2    0    0  0.11605834621E+01  0.66161837573E+01  0.24629211865E+01  0.73718756944E+01  0.17770000000E+01 0. -1.
</event>
<event>
 6    1  0.1782050E-003  0.5424328E+03  0.7546771E-02  0.9309568E-01
        -11   -1    0    0    0    0  0.00000000000E+00  0.00000000000E+00  0.50000000000E+03  0.50000000000E+03  0.00000000000E+00 0. -1.
         11   -1    0    0    0    0 -0.00000000000E+00 -0.00000000000E+00 -0.50000000000E+03  0.50000000000E+03  0.00000000000E+00 0. -1.
        -11    1    1    2    0    0 -0.30072055559E+02  0.17849632711E+02  0.45622885037E+03  0.45756715553E+03  0.00000000000E+00 0. -1.
         11    1    1    2    0    0  0.91720296369E+01 -0.24225688826E+02 -0.18665308994E+03  0.18844199667E+03  0.00000000000E+00 0. -1.
        -15    1    1    2    0    0 -0.15092040691E+02 -0.95106570731E+02 -0.20973235132E+03  0.23078961503E+03  0.17770000000E+01 0. -1.
         15    1    1    2    0    0  0.35992066612E+02  0.10148262685E+03 -0.59843409115E+02  0.12320123276E+03  0.17770000000E+01 0.  1.
</event>
<event>
 6    1  0.1782050E-003  0.5019783E+03  0.7546771E-02  0.9395394E-01
        -11   -1    0    0    0    0  0.00000000000E+00  0.00000000000E+00  0.50000000000E+03  0.50000000000E+03  0.00000000000E+00 0.  1.
         11   -1    0    0    0    0 -0.00000000000E+00 -0.00000000000E+00 -0.50000000000E+03  0.50000000000E+03  0.00000000000E+00 0. -1.
        -11    1    1    2    0    0 -0.68866384714E+01 -0.79830934783E-01  0.49797406427E+03  0.49802168713E+03  0.00000000000E+00 0.  1.
         11    1    1    2    0    0  0.85441149948E+01  0.95441208263E+00 -0.46274362229E+03  0.46282347907E+03  0.00000000000E+00 0. -1.
        -15    1    1    2    0    0  0.54414375533E+01 -0.36902049113E+01 -0.66516350319E+01  0.95199176746E+01  0.17770000000E+01 0.  1.
         15    1    1    2    0    0 -0.70989140767E+01  0.28156237635E+01 -0.28578806948E+02  0.29634916127E+02  0.17770000000E+01 0. -1.
</event>
<event>
 6    1  0.1782050E-003  0.5042830E+03  0.7546771E-02  0.9390277E-01
        -11   -1    0    0    0    0  0.00000000000E+00  0.00000000000E+00  0.50000000000E+03  0.50000000000E+03  0.00000000000E+00 0.  1.
         11   -1    0    0    0    0 -0.00000000000E+00 -0.00000000000E+00 -0.50000000000E+03  0.50000000000E+03  0.00000000000E+00 0. -1.
        -11    1    1    2    0    0  0.37736211515E+01  0.73179272975E+01  0.44984204507E+03  0.44991738996E+03  0.00000000000E+00 0.  1.
         11    1    1    2    0    0  0.76531908934E+01  0.49881994820E+01 -0.49563282676E+03  0.49571700841E+03  0.00000000000E+00 0. -1.
        -15    1    1    2    0    0 -0.24305351388E+01 -0.16544899168E+02  0.17254661539E+02  0.24094029621E+02  0.17770000000E+01 0. -1.
         15    1    1    2    0    0 -0.89962769060E+01  0.42387723889E+01  0.28536120147E+02  0.30271572004E+02  0.17770000000E+01 0.  1.
</event>
<event>
 6    1  0.1782050E-003  0.5059629E+03  0.7546771E-02  0.9386565E-01
        -11   -1    0    0    0    0  0.00000000000E+00  0.00000000000E+00  0.50000000000E+03  0.50000000000E+03  0.00000000000E+00 0.  1.
         11   -1    0    0    0    0 -0.00000000000E+00 -0.00000000000E+00 -0.50000000000E+03  0.50000000000E+03  0.00000000000E+00 0.  1.
        -11    1    1    2    0    0 -0.14203689647E+02 -0.31498543192E+01  0.49382287954E+03  0.49403714712E+03  0.00000000000E+00 0.  1.
         11    1    1    2    0    0 -0.80599482021E+00  0.71376945449E+01 -0.13401122105E+03  0.13420359041E+03  0.00000000000E+00 0.  1.
        -15    1    1    2    0    0  0.58448668670E+01  0.12087272822E+01 -0.36095967062E+03  0.36101338622E+03  0.17770000000E+01 0. -1.
         15    1    1    2    0    0  0.91648176005E+01 -0.51965675079E+01  0.11480121264E+01  0.10745876249E+02  0.17770000000E+01 0.  1.
</event>
<event>
 6    1  0.1782050E-003  0.5049654E+03  0.7546771E-02  0.9388767E-01
        -11   -1    0    0    0    0  0.00000000000E+00  0.00000000000E+00  0.50000000000E+03  0.50000000000E+03  0.00000000000E+00 0. -1.
         11   -1    0    0    0    0 -0.00000000000E+00 -0.00000000000E+00 -0.50000000000E+03  0.50000000000E+03  0.00000000000E+00 0. -1.
        -11    1    1    2    0    0  0.35817157821E+01  0.32760272926E+01  0.26749612165E+03  0.26754015800E+03  0.00000000000E+00 0. -1.
         11    1    1    2    0    0 -0.15094140479E+01 -0.28032081561E+02 -0.49423799216E+03  0.49503461376E+03  0.00000000000E+00 0. -1.
        -15    1    1    2    0    0  0.25240933318E+01 -0.41317259051E+01  0.19159321002E+03  0.19166261519E+03  0.17770000000E+01 0.  1.
         15    1    1    2    0    0 -0.45963950660E+01  0.28887780173E+02  0.35148660485E+02  0.45762613057E+02  0.17770000000E+01 0. -1.
</event>
<event>
 6    1  0.1782050E-003  0.5028789E+03  0.7546771E-02  0.9393391E-01
        -11   -1    0    0    0    0  0.00000000000E+00  0.00000000000E+00  0.50000000000E+03  0.50000000000E+03  0.00000000000E+00 0. -1.
         11   -1    0    0    0    0 -0.00000000000E+00 -0.00000000000E+00 -0.50000000000E+03  0.50000000000E+03  0.00000000000E+00 0. -1.
        -11    1    1    2    0    0 -0.14530705599E+02  0.62046364150E+01  0.40247213293E+03  0.40278214546E+03  0.00000000000E+00 0. -1.
         11    1    1    2    0    0 -0.33333922299E+01 -0.72271073521E+01 -0.49705733837E+03  0.49712105187E+03  0.00000000000E+00 0. -1.
        -15    1    1    2    0    0  0.19579137480E+02  0.38322122799E+01  0.34481608032E+02  0.39876904305E+02  0.17770000000E+01 0.  1.
         15    1    1    2    0    0 -0.17150396513E+01 -0.28097413428E+01  0.60103597410E+02  0.60219898357E+02  0.17770000000E+01 0. -1.
</event>
<event>
 6    1  0.1782050E-003  0.5016832E+03  0.7546771E-02  0.9396051E-01
        -11   -1    0    0    0    0  0.00000000000E+00  0.00000000000E+00  0.50000000000E+03  0.50000000000E+03  0.00000000000E+00 0. -1.
         11   -1    0    0    0    0 -0.00000000000E+00 -0.00000000000E+00 -0.50000000000E+03  0.50000000000E+03  0.00000000000E+00 0.  1.
        -11    1    1    2    0    0 -0.10387352432E+01 -0.88425416313E+01  0.45510804074E+03  0.45519512108E+03  0.00000000000E+00 0. -1.
         11    1    1    2    0    0  0.17065216762E+01  0.85089634703E+01 -0.49824121792E+03  0.49831679273E+03  0.00000000000E+00 0.  1.
        -15    1    1    2    0    0  0.18213082034E+01  0.76102750653E+01  0.30935204017E+02  0.31959005409E+02  0.17770000000E+01 0. -1.
         15    1    1    2    0    0 -0.24890946364E+01 -0.72766969042E+01  0.12197973170E+02  0.14529080783E+02  0.17770000000E+01 0.  1.
</event>
<event>
 6    1  0.1782050E-003  0.5006340E+03  0.7546771E-02  0.9398392E-01
        -11   -1    0    0    0    0  0.00000000000E+00  0.00000000000E+00  0.50000000000E+03  0.50000000000E+03  0.00000000000E+00 0. -1.
         11   -1    0    0    0    0 -0.00000000000E+00 -0.00000000000E+00 -0.50000000000E+03  0.50000000000E+03  0.00000000000E+00 0.  1.
        -11    1    1    2    0    0  0.13618167569E+01  0.84454311471E+00  0.41535534814E+02  0.41566434177E+02  0.00000000000E+00 0. -1.
         11    1    1    2    0    0 -0.86162336405E+01  0.35773560685E+01 -0.49927881333E+03  0.49936596841E+03  0.00000000000E+00 0.  1.
        -15    1    1    2    0    0  0.24521778338E+01 -0.74160882521E-02  0.29620446234E+01  0.42361147857E+01  0.17770000000E+01 0.  1.
         15    1    1    2    0    0  0.48022390499E+01 -0.44144830949E+01  0.45478123390E+03  0.45483148263E+03  0.17770000000E+01 0. -1.
</event>
<event>
 6    1  0.1782050E-003  0.5013205E+03  0.7546771E-02  0.9396860E-01
        -11   -1    0    0    0    0  0.00000000000E+00  0.00000000000E+00  0.50000000000E+03  0.50000000000E+03  0.00000000000E+00 0. -1.
         11   -1    0    0    0    0 -0.00000000000E+00 -0.00000000000E+00 -0.50000000000E+03  0.50000000000E+03  0.00000000000E+00 0. -1.
        -11    1    1    2    0    0 -0.82277992798E+01  0.12140227589E+02  0.17407439606E+03  0.17469109070E+03  0.00000000000E+00 0. -1.
         11    1    1    2    0    0  0.14290345379E+02  0.54715214904E+01 -0.49844464996E+03  0.49867947681E+03  0.00000000000E+00 0. -1.
        -15    1    1    2    0    0 -0.91529982762E+01 -0.12351025579E+02  0.31456208743E+03  0.31494251823E+03  0.17770000000E+01 0. -1.
         15    1    1    2    0    0  0.30904521766E+01 -0.52607235010E+01  0.98081664674E+01  0.11686914258E+02  0.17770000000E+01 0.  1.
</event>
<event>
 6    1  0.1782050E-003  0.5034799E+03  0.7546771E-02  0.9392057E-01
        -11   -1    0    0    0    0  0.00000000000E+00  0.00000000000E+00  0.50000000000E+03  0.50000000000E+03  0.00000000000E+00 0. -1.
         11   -1    0    0    0    0 -0.00000000000E+00 -0.00000000000E+00 -0.50000000000E+03  0.50000000000E+03  0.00000000000E+00 0.  1.
        -11    1    1    2    0    0 -0.52217568879E+01 -0.43070263181E+01  0.49647400618E+03  0.49652014666E+03  0.00000000000E+00 0. -1.
         11    1    1    2    0    0  0.11825187411E+02 -0.63110185607E+00 -0.27483199960E+03  0.27508700688E+03  0.00000000000E+00 0.  1.
        -15    1    1    2    0    0 -0.10875780738E+02  0.32733344172E+01 -0.22299614452E+03  0.22329226482E+03  0.17770000000E+01 0.  1.
         15    1    1    2    0    0  0.42723502152E+01  0.16647937570E+01  0.13541379421E+01  0.51005816512E+01  0.17770000000E+01 0. -1.
</event>
<event>
 6    1  0.1782050E-003  0.5009290E+03  0.7546771E-02  0.9397733E-01
        -11   -1    0    0    0    0  0.00000000000E+00  0.00000000000E+00  0.50000000000E+03  0.50000000000E+03  0.00000000000E+00 0. -1.
         11   -1    0    0    0    0 -0.00000000000E+00 -0.00000000000E+00 -0.50000000000E+03  0.50000000000E+03  0.00000000000E+00 0. -1.
        -11    1    1    2    0    0 -0.98402993324E+00  0.84024764525E+01  0.49899926759E+03  0.49907097590E+03  0.00000000000E+00 0. -1.
         11    1    1    2    0    0 -0.26973027700E+01  0.12256859652E+01 -0.84729711922E+02  0.84781494624E+02  0.00000000000E+00 0. -1.
        -15    1    1    2    0    0 -0.41407302250E+01 -0.17505251807E+02 -0.37103976691E+03  0.37147980543E+03  0.17770000000E+01 0. -1.
         15    1    1    2    0    0  0.78220629282E+01  0.78770893891E+01 -0.43229788764E+02  0.44667724044E+02  0.17770000000E+01 0.  1.
</event>
<event>
 6    1  0.1782050E-003  0.5040153E+03  0.7546771E-02  0.9390870E-01
        -11   -1    0    0    0    0  0.00000000000E+00  0.00000000000E+00  0.50000000000E+03  0.50000000000E+03  0.00000000000E+00 0.  1.
         11   -1    0    0    0    0 -0.00000000000E+00 -0.00000000000E+00 -0.50000000000E+03  0.50000000000E+03  0.00000000000E+00 0. -1.
        -11    1    1    2    0    0  0.43076592168E+01 -0.75672681096E+01  0.36125510247E+03  0.36136002620E+03  0.00000000000E+00 0.  1.
         11    1    1    2    0    0  0.83802416519E+01 -0.37754084984E+01 -0.49589956096E+03  0.49598473436E+03  0.00000000000E+00 0. -1.
        -15    1    1    2    0    0 -0.62367000872E+01  0.14512261335E+02  0.13430597747E+03  0.13524331950E+03  0.17770000000E+01 0.  1.
         15    1    1    2    0    0 -0.64512007814E+01 -0.31695847273E+01  0.33848102393E+00  0.74119199448E+01  0.17770000000E+01 0. -1.
</event>
<event>
 6    1  0.1782050E-003  0.5263605E+03  0.7546771E-02  0.9342684E-01
        -11   -1    0    0    0    0  0.00000000000E+00  0.00000000000E+00  0.50000000000E+03  0.50000000000E+03  0.00000000000E+00 0.  1.
         11   -1    0    0    0    0 -0.00000000000E+00 -0.00000000000E+00 -0.50000000000E+03  0.50000000000E+03  0.00000000000E+00 0. -1.
        -11    1    1    2    0    0 -0.15370567181E+02  0.13848344801E+02  0.39745621699E+03  0.39799431580E+03  0.00000000000E+00 0.  1.
         11    1    1    2    0    0 -0.51602799604E+01 -0.23244756896E+02 -0.47304058435E+03  0.47363946378E+03  0.00000000000E+00 0. -1.
        -15    1    1    2    0    0  0.19998897542E+02 -0.15172236878E+02 -0.18419965829E+02  0.31186624455E+02  0.17770000000E+01 0.  1.
         15    1    1    2    0    0  0.53194960024E+00  0.24568648972E+02  0.94004333193E+02  0.97179595959E+02  0.17770000000E+01 0. -1.
</event>
<event>
 6    1  0.1782050E-003  0.5017330E+03  0.7546771E-02  0.9395940E-01
        -11   -1    0    0    0    0  0.00000000000E+00  0.00000000000E+00  0.50000000000E+03  0.50000000000E+03  0.00000000000E+00 0. -1.
         11   -1    0    0    0    0 -0.00000000000E+00 -0.00000000000E+00 -0.50000000000E+03  0.50000000000E+03  0.00000000000E+00 0.  1.
        -11    1    1    2    0    0 -0.63812827498E+01  0.35753173995E+01  0.43678029920E+03  0.43684154271E+03  0.00000000000E+00 0. -1.
         11    1    1    2    0    0 -0.73098334508E+01 -0.23313265059E+01 -0.49820790587E+03  0.49826698287E+03  0.00000000000E+00 0.  1.
        -15    1    1    2    0    0  0.12720640697E+01  0.58888898859E+01  0.14691482472E+02  0.15977939708E+02  0.17770000000E+01 0.  1.
         15    1    1    2    0    0  0.12419052131E+02 -0.71328807794E+01  0.46736124194E+02  0.48913534709E+02  0.17770000000E+01 0. -1.
</event>
<event>
 6    1  0.1782050E-003  0.5155837E+03  0.7546771E-02  0.9365600E-01
        -11   -1    0    0    0    0  0.00000000000E+00  0.00000000000E+00  0.50000000000E+03  0.50000000000E+03  0.00000000000E+00 0.  1.
         11   -1    0    0    0    0 -0.00000000000E+00 -0.00000000000E+00 -0.50000000000E+03  0.50000000000E+03  0.00000000000E+00 0. -1.
        -11    1    1    2    0    0  0.11181551951E+02 -0.92914270804E+01  0.42957440998E+03  0.42982034785E+03  0.00000000000E+00 0.  1.
         11    1    1    2    0    0  0.44932370237E+00 -0.76408566596E+01 -0.48435577751E+03  0.48441625054E+03  0.00000000000E+00 0. -1.
        -15    1    1    2    0    0 -0.45590777162E+00 -0.15004373359E+01 -0.13722783439E+02  0.13925935459E+02  0.17770000000E+01 0. -1.
         15    1    1    2    0    0 -0.11174967881E+02  0.18432721076E+02  0.68504150968E+02  0.71837466146E+02  0.17770000000E+01 0.  1.
</event>
<event>
 6    1  0.1782050E-003  0.5043481E+03  0.7546771E-02  0.9390133E-01
        -11   -1    0    0    0    0  0.00000000000E+00  0.00000000000E+00  0.50000000000E+03  0.50000000000E+03  0.00000000000E+00 0. -1.
         11   -1    0    0    0    0 -0.00000000000E+00 -0.00000000000E+00 -0.50000000000E+03  0.50000000000E+03  0.00000000000E+00 0.  1.
        -11    1    1    2    0    0 -0.28537517814E+01  0.85176938621E+01  0.48147183961E+03  0.48155563266E+03  0.00000000000E+00 0. -1.
         11    1    1    2    0    0  0.74057095242E+01  0.58966388243E+01 -0.49556150287E+03  0.49565191214E+03  0.00000000000E+00 0.  1.
        -15    1    1    2    0    0 -0.41972186933E+01 -0.67730382574E+01  0.12259160698E+02  0.14728728459E+02  0.17770000000E+01 0.  1.
         15    1    1    2    0    0 -0.35473904940E+00 -0.76412944290E+01  0.18305025581E+01  0.80637267414E+01  0.17770000000E+01 0. -1.
</event>
<event>
 6    1  0.1782050E-003  0.5003774E+03  0.7546771E-02  0.9398966E-01
        -11   -1    0    0    0    0  0.00000000000E+00  0.00000000000E+00  0.50000000000E+03  0.50000000000E+03  0.00000000000E+00 0.  1.
         11   -1    0    0    0    0 -0.00000000000E+00 -0.00000000000E+00 -0.50000000000E+03  0.50000000000E+03  0.00000000000E+00 0.  1.
        -11    1    1    2    0    0 -0.10006036551E+02  0.68900671640E+01  0.49947484398E+03  0.49962257111E+03  0.00000000000E+00 0.  1.
         11    1    1    2    0    0  0.43758281549E+01 -0.12733137896E+00 -0.29321932715E+03  0.29325200409E+03  0.00000000000E+00 0.  1.
        -15    1    1    2    0    0  0.93295646541E+01 -0.76730186257E+01 -0.93791439019E+02  0.94582808976E+02  0.17770000000E+01 0.  1.
         15    1    1    2    0    0 -0.36993562578E+01  0.91028284072E+00 -0.11246407781E+03  0.11254261583E+03  0.17770000000E+01 0.  1.
</event>
<event>
 6    1  0.1782050E-003  0.4976231E+03  0.7546771E-02  0.9405144E-01
        -11   -1    0    0    0    0  0.00000000000E+00  0.00000000000E+00  0.50000000000E+03  0.50000000000E+03  0.00000000000E+00 0. -1.
         11   -1    0    0    0    0 -0.00000000000E+00 -0.00000000000E+00 -0.50000000000E+03  0.50000000000E+03  0.00000000000E+00 0.  1.
        -11    1    1    2    0    0 -0.21225257057E+00 -0.69043996171E+00  0.50194710933E+01  0.50711782212E+01  0.00000000000E+00 0. -1.
         11    1    1    2    0    0 -0.97023615980E+01  0.65532192933E+01 -0.49967250876E+03  0.49980966028E+03  0.00000000000E+00 0.  1.
        -15    1    1    2    0    0  0.60461582437E+01 -0.11091934598E+02  0.40984240160E+03  0.41004089909E+03  0.17770000000E+01 0. -1.
         15    1    1    2    0    0  0.38684559249E+01  0.52291552664E+01  0.84810636063E+02  0.85078262409E+02  0.17770000000E+01 0. -1.
</event>
<event>
 6    1  0.1782050E-003  0.5032489E+03  0.7546771E-02  0.9392569E-01
        -11   -1    0    0    0    0  0.00000000000E+00  0.00000000000E+00  0.50000000000E+03  0.50000000000E+03  0.00000000000E+00 0.  1.
         11   -1    0    0    0    0 -0.00000000000E+00 -0.00000000000E+00 -0.50000000000E+03  0.50000000000E+03  0.00000000000E+00 0.  1.
        -11    1    1    2    0    0  0.39506153661E+01  0.15439876613E+02  0.49649539830E+03  0.49675112248E+03  0.00000000000E+00 0.  1.
         11    1    1    2    0    0 -0.42275937984E+01  0.49654504578E+01 -0.46624907401E+03  0.46629467857E+03  0.00000000000E+00 0.  1.
        -15    1    1    2    0    0 -0.12424179995E+01 -0.55804437952E+01 -0.11258030608E+02  0.12750919089E+02  0.17770000000E+01 0. -1.
         15    1    1    2    0    0  0.15193964318E+01 -0.14824883276E+02 -0.18988293683E+02  0.24203279853E+02  0.17770000000E+01 0.  1.
</event>
<event>
 6    1  0.1782050E-003  0.5204093E+03  0.7546771E-02  0.9355266E-01
        -11   -1    0    0    0    0  0.00000000000E+00  0.00000000000E+00  0.50000000000E+03  0.50000000000E+03  0.00000000000E+00 0. -1.
         11   -1    0    0    0    0 -0.00000000000E+00 -0.00000000000E+00 -0.50000000000E+03  0.50000000000E+03  0.00000000000E+00 0. -1.
        -11    1    1    2    0    0 -0.10112364232E+02 -0.72859426932E+01  0.47942876412E+03  0.47959074714E+03  0.00000000000E+00 0. -1.
         11    1    1    2    0    0 -0.22199057747E+02 -0.20738357496E+02 -0.43836717689E+03  0.43941854696E+03  0.00000000000E+00 0. -1.
        -15    1    1    2    0    0 -0.83290157617E+01  0.79040665298E+01 -0.32884443473E+02  0.34876799205E+02  0.17770000000E+01 0.  1.
         15    1    1    2    0    0  0.40640437740E+02  0.20120233660E+02 -0.81771437596E+01  0.46113906702E+02  0.17770000000E+01 0. -1.
</event>
<event>
 6    1  0.1782050E-003  0.5076752E+03  0.7546771E-02  0.9382798E-01
        -11   -1    0    0    0    0  0.00000000000E+00  0.00000000000E+00  0.50000000000E+03  0.50000000000E+03  0.00000000000E+00 0.  1.
         11   -1    0    0    0    0 -0.00000000000E+00 -0.00000000000E+00 -0.50000000000E+03  0.50000000000E+03  0.00000000000E+00 0.  1.
        -11    1    1    2    0    0 -0.89952389704E+01  0.46146588048E+01  0.46953597658E+03  0.46964480483E+03  0.00000000000E+00 0.  1.
         11    1    1    2    0    0 -0.79790780775E+01  0.10450995305E+02 -0.49214917059E+03  0.49232478619E+03  0.00000000000E+00 0.  1.
        -15    1    1    2    0    0  0.52596581766E+01  0.48566776861E+01  0.60740945205E+01  0.95552956796E+01  0.17770000000E+01 0. -1.
         15    1    1    2    0    0  0.11714658871E+02 -0.19922331796E+02  0.16539099483E+02  0.28475113299E+02  0.17770000000E+01 0.  1.
</event>
<event>
 6    1  0.1782050E-003  0.5118427E+03  0.7546771E-02  0.9373694E-01
        -11   -1    0    0    0    0  0.00000000000E+00  0.00000000000E+00  0.50000000000E+03  0.50000000000E+03  0.00000000000E+00 0. -1.
         11   -1    0    0    0    0 -0.00000000000E+00 -0.00000000000E+00 -0.50000000000E+03  0.50000000000E+03  0.00000000000E+00 0. -1.
        -11    1    1    2    0    0  0.39278490255E+01  0.95102110731E+01  0.48804888113E+03  0.48815733374E+03  0.00000000000E+00 0. -1.
         11    1    1    2    0    0  0.14028208798E+02  0.97261978874E+01 -0.45262971138E+03  0.45295148216E+03  0.00000000000E+00 0. -1.
        -15    1    1    2    0    0  0.66235192886E+01 -0.19464453174E+01 -0.26575476220E+02  0.27514965427E+02  0.17770000000E+01 0.  1.
         15    1    1    2    0    0 -0.24579577112E+02 -0.17289963643E+02 -0.88436935347E+01  0.31376218671E+02  0.17770000000E+01 0. -1.
</event>
<event>
 6    1  0.1782050E-003  0.5044971E+03  0.7546771E-02  0.9389803E-01
        -11   -1    0    0    0    0  0.00000000000E+00  0.00000000000E+00  0.50000000000E+03  0.50000000000E+03  0.00000000000E+00 0.  1.
         11   -1    0    0    0    0 -0.00000000000E+00 -0.00000000000E+00 -0.50000000000E+03  0.50000000000E+03  0.00000000000E+00 0.  1.
        -11    1    1    2    0    0  0.21198686620E+02 -0.12409585266E+02  0.49489366519E+03  0.49550289804E+03  0.00000000000E+00 0.  1.
         11    1    1    2    0    0  0.58922689842E+01 -0.27159222527E+01 -0.38133777803E+03  0.38139296798E+03  0.00000000000E+00 0.  1.
        -15    1    1    2    0    0 -0.18507839147E+02  0.23427608863E+02 -0.10235593841E+03  0.10663624536E+03  0.17770000000E+01 0.  1.
         15    1    1    2    0    0 -0.85831164568E+01 -0.83021013438E+01 -0.11199948748E+02  0.16467888626E+02  0.17770000000E+01 0. -1.
</event>
<event>
 6    1  0.1782050E-003  0.5047187E+03  0.7546771E-02  0.9389313E-01
        -11   -1    0    0    0    0  0.00000000000E+00  0.00000000000E+00  0.50000000000E+03  0.50000000000E+03  0.00000000000E+00 0. -1.
         11   -1    0    0    0    0 -0.00000000000E+00 -0.00000000000E+00 -0.50000000000E+03  0.50000000000E+03  0.00000000000E+00 0. -1.
        -11    1    1    2    0    0  0.23141082667E+02 -0.19759274815E+02  0.49434567487E+03  0.49528131896E+03  0.00000000000E+00 0. -1.
         11    1    1    2    0    0 -0.20573173837E+01 -0.23432417684E+01 -0.21711175654E+03  0.21713414785E+03  0.00000000000E+00 0. -1.
        -15    1    1    2    0    0 -0.17170115523E+02 -0.10307216686E+02 -0.20271691125E+02  0.28550845398E+02  0.17770000000E+01 0.  1.
         15    1    1    2    0    0 -0.39136497600E+01  0.32409733269E+02 -0.25696222721E+03  0.25903368779E+03  0.17770000000E+01 0. -1.
</event>
<event>
 6    1  0.1782050E-003  0.5205782E+03  0.7546771E-02  0.9354906E-01
        -11   -1    0    0    0    0  0.00000000000E+00  0.00000000000E+00  0.50000000000E+03  0.50000000000E+03  0.00000000000E+00 0.  1.
         11   -1    0    0    0    0 -0.00000000000E+00 -0.00000000000E+00 -0.50000000000E+03  0.50000000000E+03  0.00000000000E+00 0. -1.
        -11    1    1    2    0    0  0.12460861997E+02 -0.76294668145E+01  0.45426615588E+03  0.45450106955E+03  0.00000000000E+00 0.  1.
         11    1    1    2    0    0 -0.14179925091E+02  0.14537187243E+02 -0.47899153943E+03  0.47942183402E+03  0.00000000000E+00 0. -1.
        -15    1    1    2    0    0 -0.21908521591E+02 -0.71687878018E+01  0.33589823022E+02  0.40777552360E+02  0.17770000000E+01 0. -1.
         15    1    1    2    0    0  0.23627584685E+02  0.26106737369E+00 -0.88644394719E+01  0.25299544074E+02  0.17770000000E+01 0.  1.
</event>
<event>
 6    1  0.1782050E-003  0.4855906E+03  0.7546771E-02  0.9432642E-01
        -11   -1    0    0    0    0  0.00000000000E+00  0.00000000000E+00  0.50000000000E+03  0.50000000000E+03  0.00000000000E+00 0. -1.
         11   -1    0    0    0    0 -0.00000000000E+00 -0.00000000000E+00 -0.50000000000E+03  0.50000000000E+03  0.00000000000E+00 0.  1.
        -11    1    1    2    0    0  0.18924623623E+01 -0.94915337946E+00  0.31182302859E+02  0.31254092812E+02  0.00000000000E+00 0. -1.
         11    1    1    2    0    0  0.51931796405E+01 -0.12166492583E+02 -0.49823961942E+03  0.49841519942E+03  0.00000000000E+00 0.  1.
        -15    1    1    2    0    0 -0.27205828226E+02 -0.44245766537E+01  0.19217537925E+03  0.19415011740E+03  0.17770000000E+01 0.  1.
         15    1    1    2    0    0  0.20120186223E+02  0.17540222616E+02  0.27488193732E+03  0.27618059037E+03  0.17770000000E+01 0. -1.
</event>
<event>
 6    1  0.1782050E-003  0.5018521E+03  0.7546771E-02  0.9395675E-01
        -11   -1    0    0    0    0  0.00000000000E+00  0.00000000000E+00  0.50000000000E+03  0.50000000000E+03  0.00000000000E+00 0. -1.
         11   -1    0    0    0    0 -0.00000000000E+00 -0.00000000000E+00 -0.50000000000E+03  0.50000000000E+03  0.00000000000E+00 0.  1.
        -11    1    1    2    0    0 -0.87129495584E+01  0.40517358994E+01  0.46892191776E+03  0.46902035884E+03  0.00000000000E+00 0. -1.
         11    1    1    2    0    0  0.78263067573E+01  0.15648877280E+01 -0.49808396765E+03  0.49814790854E+03  0.00000000000E+00 0.  1.
        -15    1    1    2    0    0  0.47038033518E+01 -0.85620046628E+01  0.18508083987E+02  0.21003347154E+02  0.17770000000E+01 0.  1.
         15    1    1    2    0    0 -0.38171605508E+01  0.29453810355E+01  0.10653965910E+02  0.11828385466E+02  0.17770000000E+01 0. -1.
</event>
<event>
 6    1  0.1782050E-003  0.3116516E+03  0.7546771E-02  0.9960848E-01
        -11   -1    0    0    0    0  0.00000000000E+00  0.00000000000E+00  0.50000000000E+03  0.50000000000E+03  0.00000000000E+00 0. -1.
         11   -1    0    0    0    0 -0.00000000000E+00 -0.00000000000E+00 -0.50000000000E+03  0.50000000000E+03  0.00000000000E+00 0.  1.
        -11    1    1    2    0    0 -0.79196286491E+02  0.44274593879E+02  0.26680582070E+03  0.28181135076E+03  0.00000000000E+00 0. -1.
         11    1    1    2    0    0  0.37334730426E+01  0.62084235806E+00 -0.71955436849E+02  0.72054903777E+02  0.00000000000E+00 0.  1.
        -15    1    1    2    0    0 -0.16597046198E+03  0.19072573339E+03  0.71254646531E+01  0.25293562343E+03  0.17770000000E+01 0. -1.
         15    1    1    2    0    0  0.24143327543E+03 -0.23562116962E+03 -0.20197584851E+03  0.39319812203E+03  0.17770000000E+01 0.  1.
</event>
<event>
 6    1  0.1782050E-003  0.5832557E+03  0.7546771E-02  0.9230653E-01
        -11   -1    0    0    0    0  0.00000000000E+00  0.00000000000E+00  0.50000000000E+03  0.50000000000E+03  0.00000000000E+00 0. -1.
         11   -1    0    0    0    0 -0.00000000000E+00 -0.00000000000E+00 -0.50000000000E+03  0.50000000000E+03  0.00000000000E+00 0. -1.
        -11    1    1    2    0    0  0.22106612096E+01 -0.39284178441E+01  0.20930468014E+03  0.20935321497E+03  0.00000000000E+00 0. -1.
         11    1    1    2    0    0 -0.35331169800E+02  0.17217177415E+02 -0.41488685541E+03  0.41674431675E+03  0.00000000000E+00 0. -1.
        -15    1    1    2    0    0  0.96354862814E+02 -0.42720636625E+02  0.26313006010E+03  0.28346057687E+03  0.17770000000E+01 0. -1.
         15    1    1    2    0    0 -0.63234354223E+02  0.29431877054E+02 -0.57547884843E+02  0.90441891399E+02  0.17770000000E+01 0.  1.
</event>
<event>
 6    1  0.1782050E-003  0.5000945E+03  0.7546771E-02  0.9399598E-01
        -11   -1    0    0    0    0  0.00000000000E+00  0.00000000000E+00  0.50000000000E+03  0.50000000000E+03  0.00000000000E+00 0.  1.
         11   -1    0    0    0    0 -0.00000000000E+00 -0.00000000000E+00 -0.50000000000E+03  0.50000000000E+03  0.00000000000E+00 0.  1.
        -11    1    1    2    0    0 -0.86187462078E+01 -0.15202565569E+01  0.49982890798E+03  0.49990552230E+03  0.00000000000E+00 0.  1.
         11    1    1    2    0    0  0.21387859240E+01  0.94951503830E+00 -0.35134893059E+02  0.35212734832E+02  0.00000000000E+00 0.  1.
        -15    1    1    2    0    0 -0.11634307206E+01 -0.24779278724E+01 -0.52255983292E+02  0.52357799957E+02  0.17770000000E+01 0.  1.
         15    1    1    2    0    0  0.76433910044E+01  0.30486693910E+01 -0.41243803163E+03  0.41252394291E+03  0.17770000000E+01 0.  1.
</event>
<event>
 6    1  0.1782050E-003  0.5251400E+03  0.7546771E-02  0.9345250E-01
        -11   -1    0    0    0    0  0.00000000000E+00  0.00000000000E+00  0.50000000000E+03  0.50000000000E+03  0.00000000000E+00 0. -1.
         11   -1    0    0    0    0 -0.00000000000E+00 -0.00000000000E+00 -0.50000000000E+03  0.50000000000E+03  0.00000000000E+00 0.  1.
        -11    1    1    2    0    0 -0.24003226091E+02 -0.21570192860E+02  0.47376215690E+03  0.47485998925E+03  0.00000000000E+00 0. -1.
         11    1    1    2    0    0 -0.27480398055E+00 -0.42694951242E+01 -0.31027725275E+03  0.31030674772E+03  0.00000000000E+00 0.  1.
        -15    1    1    2    0    0  0.40347965561E+02  0.86869069250E+00 -0.17743589218E+03  0.18197628008E+03  0.17770000000E+01 0. -1.
         15    1    1    2    0    0 -0.16069935489E+02  0.24970997292E+02  0.13950988033E+02  0.32856982948E+02  0.17770000000E+01 0.  1.
</event>
<event>
 6    1  0.1782050E-003  0.5155313E+03  0.7546771E-02  0.9365713E-01
        -11   -1    0    0    0    0  0.00000000000E+00  0.00000000000E+00  0.50000000000E+03  0.50000000000E+03  0.00000000000E+00 0. -1.
         11   -1    0    0    0    0 -0.00000000000E+00 -0.00000000000E+00 -0.50000000000E+03  0.50000000000E+03  0.00000000000E+00 0.  1.
        -11    1    1    2    0    0  0.13850683571E+02  0.16551008865E+02  0.48398776439E+03  0.48446871251E+03  0.00000000000E+00 0. -1.
         11    1    1    2    0    0  0.44439111346E+01 -0.33540067887E+01 -0.36130688338E+03  0.36134977749E+03  0.00000000000E+00 0.  1.
        -15    1    1    2    0    0 -0.51661146682E+01 -0.52005153934E+01 -0.13449900677E+03  0.13471033610E+03  0.17770000000E+01 0.  1.
         15    1    1    2    0    0 -0.13128480037E+02 -0.79964866832E+01  0.11818125770E+02  0.19471173901E+02  0.17770000000E+01 0. -1.
</event>
<event>
 6    1  0.1782050E-003  0.5002456E+03  0.7546771E-02  0.9399260E-01
        -11   -1    0    0    0    0  0.00000000000E+00  0.00000000000E+00  0.50000000000E+03  0.50000000000E+03  0.00000000000E+00 0.  1.
         11   -1    0    0    0    0 -0.00000000000E+00 -0.00000000000E+00 -0.50000000000E+03  0.50000000000E+03  0.00000000000E+00 0. -1.
        -11    1    1    2    0    0  0.53501356347E+01 -0.12355599325E+02  0.49957300472E+03  0.49975441151E+03  0.00000000000E+00 0.  1.
         11    1    1    2    0    0  0.75525334191E+00 -0.32709816594E+01 -0.22433832634E+03  0.22436344264E+03  0.00000000000E+00 0. -1.
        -15    1    1    2    0    0 -0.48982537893E+01  0.15801893116E+02 -0.25150250575E+03  0.25205229784E+03  0.17770000000E+01 0. -1.
         15    1    1    2    0    0 -0.12071351872E+01 -0.17531213117E+00 -0.23732172627E+02  0.23829848012E+02  0.17770000000E+01 0. -1.
</event>
<event>
 6    1  0.1782050E-003  0.5797235E+03  0.7546771E-02  0.9237207E-01
        -11   -1    0    0    0    0  0.00000000000E+00  0.00000000000E+00  0.50000000000E+03  0.50000000000E+03  0.00000000000E+00 0.  1.
         11   -1    0    0    0    0 -0.00000000000E+00 -0.00000000000E+00 -0.50000000000E+03  0.50000000000E+03  0.00000000000E+00 0.  1.
        -11    1    1    2    0    0  0.66442624338E+01  0.20879090555E+02  0.36975885435E+03  0.37040746890E+03  0.00000000000E+00 0.  1.
         11    1    1    2    0    0  0.15444164071E+01  0.21897070612E+02 -0.41970281054E+03  0.42027647579E+03  0.00000000000E+00 0.  1.
        -15    1    1    2    0    0 -0.40664305382E+00 -0.85319363586E+00 -0.76159987501E+02  0.76186578366E+02  0.17770000000E+01 0.  1.
         15    1    1    2    0    0 -0.77820357871E+01 -0.41922967532E+02  0.12610394369E+03  0.13312947694E+03  0.17770000000E+01 0. -1.
</event>
<event>
 6    1  0.1782050E-003  0.5061284E+03  0.7546771E-02  0.9386200E-01
        -11   -1    0    0    0    0  0.00000000000E+00  0.00000000000E+00  0.50000000000E+03  0.50000000000E+03  0.00000000000E+00 0.  1.
         11   -1    0    0    0    0 -0.00000000000E+00 -0.00000000000E+00 -0.50000000000E+03  0.50000000000E+03  0.00000000000E+00 0. -1.
        -11    1    1    2    0    0 -0.67107665592E+01  0.77598801272E+01  0.49376504744E+03  0.49387161510E+03  0.00000000000E+00 0.  1.
         11    1    1    2    0    0 -0.73600744296E+01 -0.51246481812E+01 -0.46475883018E+03  0.46484535379E+03  0.00000000000E+00 0. -1.
        -15    1    1    2    0    0  0.20166663541E+02  0.17340994440E+01 -0.26028167570E+02  0.33020064435E+02  0.17770000000E+01 0.  1.
         15    1    1    2    0    0 -0.60958225517E+01 -0.43693313900E+01 -0.29780496905E+01  0.82629666789E+01  0.17770000000E+01 0. -1.
</event>
<event>
 6    1  0.1782050E-003  0.5009842E+03  0.7546771E-02  0.9397610E-01
        -11   -1    0    0    0    0  0.00000000000E+00  0.00000000000E+00  0.50000000000E+03  0.50000000000E+03  0.00000000000E+00 0.  1.
         11   -1    0    0    0    0 -0.00000000000E+00 -0.00000000000E+00 -0.50000000000E+03  0.50000000000E+03  0.00000000000E+00 0.  1.
        -11    1    1    2    0    0 -0.53858031344E+01  0.70603700977E+01  0.49893676513E+03  0.49901578262E+03  0.00000000000E+00 0.  1.
         11    1    1    2    0    0 -0.89305082776E+01 -0.98633965212E+01 -0.41826032221E+03  0.41847190790E+03  0.00000000000E+00 0.  1.
        -15    1    1    2    0    0  0.13519917824E+02  0.45144763491E+01 -0.61143421350E+02  0.62807996131E+02  0.17770000000E+01 0.  1.
         15    1    1    2    0    0  0.79639358850E+00 -0.17114499256E+01 -0.19533021577E+02  0.19704313349E+02  0.17770000000E+01 0. -1.
</event>
<event>
 6    1  0.1782050E-003  0.5063252E+03  0.7546771E-02  0.9385767E-01
        -11   -1    0    0    0    0  0.00000000000E+00  0.00000000000E+00  0.50000000000E+03  0.50000000000E+03  0.00000000000E+00 0.  1.
         11   -1    0    0    0    0 -0.00000000000E+00 -0.00000000000E+00 -0.50000000000E+03  0.50000000000E+03  0.00000000000E+00 0.  1.
        -11    1    1    2    0    0 -0.25199714811E+01  0.87545961801E+01  0.49359076168E+03  0.49367482540E+03  0.00000000000E+00 0.  1.
         11    1    1    2    0    0 -0.92260709757E+01 -0.47725815750E+01 -0.48384945209E+03  0.48396093873E+03  0.00000000000E+00 0.  1.
        -15    1    1    2    0    0  0.88338422776E+01 -0.56856966943E+01 -0.13372845509E+02  0.17098381277E+02  0.17770000000E+01 0.  1.
         15    1    1    2    0    0  0.29122001791E+01  0.17036820892E+01  0.36315359190E+01  0.52658546007E+01  0.17770000000E+01 0. -1.
</event>
<event>
 6    1  0.1782050E-003  0.4660095E+03  0.7546771E-02  0.9479253E-01
        -11   -1    0    0    0    0  0.00000000000E+00  0.00000000000E+00  0.50000000000E+03  0.50000000000E+03  0.00000000000E+00 0. -1.
         11   -1    0    0    0    0 -0.00000000000E+00 -0.00000000000E+00 -0.50000000000E+03  0.50000000000E+03  0.00000000000E+00 0.  1.
        -11    1    1    2    0    0 -0.30912213051E+01 -0.31506080042E+02  0.46869667639E+03  0.46976458273E+03  0.00000000000E+00 0. -1.
         11    1    1    2    0    0  0.65547860158E+01 -0.41161089238E+01 -0.46289461703E+03  0.46295932224E+03  0.00000000000E+00 0.  1.
        -15    1    1    2    0    0  0.15982346594E+02  0.21587258911E+02 -0.24822002850E+02  0.36616044358E+02  0.17770000000E+01 0.  1.
         15    1    1    2    0    0 -0.19445911305E+02  0.14034930054E+02  0.19019943486E+02  0.30660050674E+02  0.17770000000E+01 0. -1.
</event>
<event>
 6    1  0.1782050E-003  0.5040709E+03  0.7546771E-02  0.9390747E-01
        -11   -1    0    0    0    0  0.00000000000E+00  0.00000000000E+00  0.50000000000E+03  0.50000000000E+03  0.00000000000E+00 0.  1.
         11   -1    0    0    0    0 -0.00000000000E+00 -0.00000000000E+00 -0.50000000000E+03  0.50000000000E+03  0.00000000000E+00 0. -1.
        -11    1    1    2    0    0  0.58259763791E+00 -0.76829299760E+01  0.49586923537E+03  0.49592909314E+03  0.00000000000E+00 0.  1.
         11    1    1    2    0    0  0.55668612713E+01 -0.38646213216E+01 -0.44501140261E+03  0.44506299969E+03  0.00000000000E+00 0. -1.
        -15    1    1    2    0    0  0.18976039647E+01 -0.29463467016E+01  0.13871667489E+01  0.41669917545E+01  0.17770000000E+01 0.  1.
         15    1    1    2    0    0 -0.80470628739E+01  0.14493897999E+02 -0.52244999514E+02  0.54840915413E+02  0.17770000000E+01 0. -1.
</event>
<event>
 6    1  0.1782050E-003  0.5615943E+03  0.7546771E-02  0.9271643E-01
        -11   -1    0    0    0    0  0.00000000000E+00  0.00000000000E+00  0.50000000000E+03  0.50000000000E+03  0.00000000000E+00 0.  1.
         11   -1    0    0    0    0 -0.00000000000E+00 -0.00000000000E+00 -0.50000000000E+03  0.50000000000E+03  0.00000000000E+00 0.  1.
        -11    1    1    2    0    0 -0.21879656625E+02 -0.12543620198E+02  0.19519610909E+03  0.19681865457E+03  0.00000000000E+00 0.  1.
         11    1    1    2    0    0 -0.57712906851E+02 -0.11144731907E+02 -0.43444746103E+03  0.43840572654E+03  0.00000000000E+00 0.  1.
        -15    1    1    2    0    0 -0.50324895104E+02  0.82064043140E+02  0.12630503521E+02  0.97107103714E+02  0.17770000000E+01 0. -1.
         15    1    1    2    0    0  0.12991745858E+03 -0.58375691035E+02  0.22662084842E+03  0.26766851518E+03  0.17770000000E+01 0.  1.
</event>
<event>
 6    1  0.1782050E-003  0.5085693E+03  0.7546771E-02  0.9380837E-01
        -11   -1    0    0    0    0  0.00000000000E+00  0.00000000000E+00  0.50000000000E+03  0.50000000000E+03  0.00000000000E+00 0. -1.
         11   -1    0    0    0    0 -0.00000000000E+00 -0.00000000000E+00 -0.50000000000E+03  0.50000000000E+03  0.00000000000E+00 0.  1.
        -11    1    1    2    0    0 -0.31686224528E+01  0.65530182080E+01  0.46806913040E+03  0.46812572355E+03  0.00000000000E+00 0. -1.
         11    1    1    2    0    0 -0.63715578633E+01 -0.46861958005E+01 -0.49136702508E+03  0.49143067722E+03  0.00000000000E+00 0.  1.
        -15    1    1    2    0    0  0.63335609014E+01 -0.65703216961E+01  0.30038050120E+02  0.31444002686E+02  0.17770000000E+01 0. -1.
         15    1    1    2    0    0  0.32066194146E+01  0.47034992885E+01 -0.67401554369E+01  0.89995965432E+01  0.17770000000E+01 0.  1.
</event>
<event>
 6    1  0.1782050E-003  0.5003507E+03  0.7546771E-02  0.9399025E-01
        -11   -1    0    0    0    0  0.00000000000E+00  0.00000000000E+00  0.50000000000E+03  0.50000000000E+03  0.00000000000E+00 0. -1.
         11   -1    0    0    0    0 -0.00000000000E+00 -0.00000000000E+00 -0.50000000000E+03  0.50000000000E+03  0.00000000000E+00 0. -1.
        -11    1    1    2    0    0  0.15817783872E-01 -0.17176714723E+01  0.93842292723E+02  0.93858012706E+02  0.00000000000E+00 0. -1.
         11    1    1    2    0    0 -0.10629331150E+02 -0.18288700365E+02 -0.49920128710E+03  0.49964926127E+03  0.00000000000E+00 0. -1.
        -15    1    1    2    0    0  0.36812208326E+01  0.11120200054E+02  0.33542068558E+03  0.33562986202E+03  0.17770000000E+01 0. -1.
         15    1    1    2    0    0  0.69322925335E+01  0.88861717833E+01  0.69938308797E+02  0.70862864006E+02  0.17770000000E+01 0.  1.
</event>
<event>
 6    1  0.1782050E-003  0.5150890E+03  0.7546771E-02  0.9366666E-01
        -11   -1    0    0    0    0  0.00000000000E+00  0.00000000000E+00  0.50000000000E+03  0.50000000000E+03  0.00000000000E+00 0.  1.
         11   -1    0    0    0    0 -0.00000000000E+00 -0.00000000000E+00 -0.50000000000E+03  0.50000000000E+03  0.00000000000E+00 0. -1.
        -11    1    1    2    0    0 -0.60517457044E+01 -0.30346383130E+01  0.48486369991E+03  0.48491096105E+03  0.00000000000E+00 0.  1.
         11    1    1    2    0    0  0.67163204152E+00  0.79521159077E+01 -0.46915736412E+03  0.46922523328E+03  0.00000000000E+00 0. -1.
        -15    1    1    2    0    0 -0.33006929337E-01 -0.88925000793E+01 -0.29260250577E+02  0.30633276676E+02  0.17770000000E+01 0.  1.
         15    1    1    2    0    0  0.54131205922E+01  0.39750224847E+01  0.13553914793E+02  0.15230528996E+02  0.17770000000E+01 0. -1.
</event>
<event>
 6    1  0.1782050E-003  0.5003954E+03  0.7546771E-02  0.9398925E-01
        -11   -1    0    0    0    0  0.00000000000E+00  0.00000000000E+00  0.50000000000E+03  0.50000000000E+03  0.00000000000E+00 0.  1.
         11   -1    0    0    0    0 -0.00000000000E+00 -0.00000000000E+00 -0.50000000000E+03  0.50000000000E+03  0.00000000000E+00 0.  1.
        -11    1    1    2    0    0  0.22692795187E+01 -0.13440254932E+02  0.49941862463E+03  0.49960459637E+03  0.00000000000E+00 0.  1.
         11    1    1    2    0    0 -0.30298167916E+01  0.14295168545E+01 -0.19279577514E+03  0.19282487967E+03  0.00000000000E+00 0.  1.
        -15    1    1    2    0    0  0.50176534298E+01  0.13549691844E+01 -0.23065637258E+03  0.23072176475E+03  0.17770000000E+01 0.  1.
         15    1    1    2    0    0 -0.42571161568E+01  0.10655768893E+02 -0.75966476913E+02  0.76848759211E+02  0.17770000000E+01 0. -1.
</event>
<event>
 6    1  0.1782050E-003  0.5028223E+03  0.7546771E-02  0.9393517E-01
        -11   -1    0    0    0    0  0.00000000000E+00  0.00000000000E+00  0.50000000000E+03  0.50000000000E+03  0.00000000000E+00 0. -1.
         11   -1    0    0    0    0 -0.00000000000E+00 -0.00000000000E+00 -0.50000000000E+03  0.50000000000E+03  0.00000000000E+00 0.  1.
        -11    1    1    2    0    0 -0.11324717878E+02  0.11694415362E+02  0.47265991993E+03  0.47294017433E+03  0.00000000000E+00 0. -1.
         11    1    1    2    0    0  0.14160615020E+02 -0.15352268065E+02 -0.49673877039E+03  0.49717765554E+03  0.00000000000E+00 0.  1.
        -15    1    1    2    0    0  0.32272144304E+01  0.31087006783E+01 -0.16427912710E+00  0.48232405620E+01  0.17770000000E+01 0. -1.
         15    1    1    2    0    0 -0.60631115717E+01  0.54915202466E+00  0.24243129594E+02  0.25058929574E+02  0.17770000000E+01 0.  1.
</event>
<event>
 6    1  0.1782050E-003  0.5595152E+03  0.7546771E-02  0.9275680E-01
        -11   -1    0    0    0    0  0.00000000000E+00  0.00000000000E+00  0.50000000000E+03  0.50000000000E+03  0.00000000000E+00 0.  1.
         11   -1    0    0    0    0 -0.00000000000E+00 -0.00000000000E+00 -0.50000000000E+03  0.50000000000E+03  0.00000000000E+00 0. -1.
        -11    1    1    2    0    0 -0.45654834918E+01 -0.30641826664E+01  0.35740656922E+03  0.35744886149E+03  0.00000000000E+00 0.  1.
         11    1    1    2    0    0 -0.67647933048E+02 -0.67985180622E+02 -0.42991703326E+03  0.44048482734E+03  0.00000000000E+00 0. -1.
        -15    1    1    2    0    0 -0.25621542787E+02  0.42369744844E+01  0.79224366766E+02  0.83391087210E+02  0.17770000000E+01 0.  1.
         15    1    1    2    0    0  0.97834959326E+02  0.66812388804E+02 -0.67139027254E+01  0.11867522396E+03  0.17770000000E+01 0. -1.
</event>
<event>
 6    1  0.1782050E-003  0.4928632E+03  0.7546771E-02  0.9415922E-01
        -11   -1    0    0    0    0  0.00000000000E+00  0.00000000000E+00  0.50000000000E+03  0.50000000000E+03  0.00000000000E+00 0.  1.
         11   -1    0    0    0    0 -0.00000000000E+00 -0.00000000000E+00 -0.50000000000E+03  0.50000000000E+03  0.00000000000E+00 0.  1.
        -11    1    1    2    0    0 -0.62588102215E+00  0.13888428167E+01  0.16036542928E+02  0.16108734293E+02  0.00000000000E+00 0.  1.
         11    1    1    2    0    0  0.22144411454E+01 -0.11703646404E+02 -0.49883672237E+03  0.49897891206E+03  0.00000000000E+00 0.  1.
        -15    1    1    2    0    0  0.49356743178E+01 -0.50257070402E+01  0.41522867913E+03  0.41529222521E+03  0.17770000000E+01 0. -1.
         15    1    1    2    0    0 -0.65242344410E+01  0.15340510628E+02  0.67571500311E+02  0.69620128445E+02  0.17770000000E+01 0.  1.
</event>
<event>
 6    1  0.1782050E-003  0.5109324E+03  0.7546771E-02  0.9375675E-01
        -11   -1    0    0    0    0  0.00000000000E+00  0.00000000000E+00  0.50000000000E+03  0.50000000000E+03  0.00000000000E+00 0.  1.
         11   -1    0    0    0    0 -0.00000000000E+00 -0.00000000000E+00 -0.50000000000E+03  0.50000000000E+03  0.00000000000E+00 0. -1.
        -11    1    1    2    0    0 -0.17715156408E+01 -0.70250020094E+01  0.46685265879E+03  0.46690887113E+03  0.00000000000E+00 0.  1.
         11    1    1    2    0    0 -0.65084654038E+01 -0.12530728476E+02 -0.48886376973E+03  0.48906764832E+03  0.00000000000E+00 0. -1.
        -15    1    1    2    0    0  0.77737924563E+01  0.15654668337E+02 -0.36987339201E+01  0.17953797690E+02  0.17770000000E+01 0.  1.
         15    1    1    2    0    0  0.50618858831E+00  0.39010621489E+01  0.25709844860E+02  0.26069682862E+02  0.17770000000E+01 0. -1.
</event>
<event>
 6    1  0.1782050E-003  0.5012746E+03  0.7546771E-02  0.9396962E-01
        -11   -1    0    0    0    0  0.00000000000E+00  0.00000000000E+00  0.50000000000E+03  0.50000000000E+03  0.00000000000E+00 0. -1.
         11   -1    0    0    0    0 -0.00000000000E+00 -0.00000000000E+00 -0.50000000000E+03  0.50000000000E+03  0.00000000000E+00 0.  1.
        -11    1    1    2    0    0  0.24222511820E+01 -0.65137562239E+01  0.86466550440E+02  0.86745378355E+02  0.00000000000E+00 0. -1.
         11    1    1    2    0    0 -0.95806844435E+01 -0.37966812298E+01 -0.49861888644E+03  0.49872537355E+03  0.00000000000E+00 0.  1.
        -15    1    1    2    0    0  0.15662695711E+02 -0.94815991931E+01  0.10357540748E+03  0.10519621440E+03  0.17770000000E+01 0.  1.
         15    1    1    2    0    0 -0.85042624499E+01  0.19792036647E+02  0.30857692852E+03  0.30933303370E+03  0.17770000000E+01 0. -1.
</event>
<event>
 6    1  0.1782050E-003  0.5059500E+03  0.7546771E-02  0.9386594E-01
        -11   -1    0    0    0    0  0.00000000000E+00  0.00000000000E+00  0.50000000000E+03  0.50000000000E+03  0.00000000000E+00 0.  1.
         11   -1    0    0    0    0 -0.00000000000E+00 -0.00000000000E+00 -0.50000000000E+03  0.50000000000E+03  0.00000000000E+00 0.  1.
        -11    1    1    2    0    0 -0.15155522426E+02 -0.42777381412E+01  0.49379896640E+03  0.49405000569E+03  0.00000000000E+00 0.  1.
         11    1    1    2    0    0  0.70488130020E+01  0.12839846543E+01 -0.36439176469E+03  0.36446219633E+03  0.00000000000E+00 0.  1.
        -15    1    1    2    0    0  0.81400029435E+01  0.25216986855E+02 -0.32113153567E+02  0.41672154192E+02  0.17770000000E+01 0. -1.
         15    1    1    2    0    0 -0.33293519305E-01 -0.22223233368E+02 -0.97294048145E+02  0.99815643780E+02  0.17770000000E+01 0.  1.
</event>
<event>
 6    1  0.1782050E-003  0.5025577E+03  0.7546771E-02  0.9394105E-01
        -11   -1    0    0    0    0  0.00000000000E+00  0.00000000000E+00  0.50000000000E+03  0.50000000000E+03  0.00000000000E+00 0.  1.
         11   -1    0    0    0    0 -0.00000000000E+00 -0.00000000000E+00 -0.50000000000E+03  0.50000000000E+03  0.00000000000E+00 0. -1.
        -11    1    1    2    0    0 -0.68912538430E+01 -0.42821383896E+01  0.36426504729E+03  0.36435539074E+03  0.00000000000E+00 0.  1.
         11    1    1    2    0    0  0.16071709991E+02 -0.10004652743E+02 -0.49708196059E+03  0.49744232679E+03  0.00000000000E+00 0. -1.
        -15    1    1    2    0    0 -0.13505098157E+02  0.64768802510E+01  0.20157712465E+02  0.25175955887E+02  0.17770000000E+01 0.  1.
         15    1    1    2    0    0  0.43246420088E+01  0.78099108821E+01  0.11265920084E+03  0.11302632658E+03  0.17770000000E+01 0. -1.
</event>
<event>
 6    1  0.1782050E-003  0.5012452E+03  0.7546771E-02  0.9397028E-01
        -11   -1    0    0    0    0  0.00000000000E+00  0.00000000000E+00  0.50000000000E+03  0.50000000000E+03  0.00000000000E+00 0.  1.
         11   -1    0    0    0    0 -0.00000000000E+00 -0.00000000000E+00 -0.50000000000E+03  0.50000000000E+03  0.00000000000E+00 0.  1.
        -11    1    1    2    0    0  0.56692839147E+01 -0.10240007404E+01  0.78667262472E+02  0.78877928107E+02  0.00000000000E+00 0.  1.
         11    1    1    2    0    0 -0.10870581290E+02 -0.20339367616E+02 -0.49822130888E+03  0.49875478146E+03  0.00000000000E+00 0.  1.
        -15    1    1    2    0    0  0.32345016839E+01  0.15991799960E+02  0.47324959828E+02  0.50090011168E+02  0.17770000000E+01 0. -1.
         15    1    1    2    0    0  0.19667956913E+01  0.53715683965E+01  0.37222908658E+03  0.37227727926E+03  0.17770000000E+01 0.  1.
</event>
<event>
 6    1  0.1782050E-003  0.5002785E+03  0.7546771E-02  0.9399187E-01
        -11   -1    0    0    0    0  0.00000000000E+00  0.00000000000E+00  0.50000000000E+03  0.50000000000E+03  0.00000000000E+00 0. -1.
         11   -1    0    0    0    0 -0.00000000000E+00 -0.00000000000E+00 -0.50000000000E+03  0.50000000000E+03  0.00000000000E+00 0.  1.
        -11    1    1    2    0    0  0.62241787716E+00  0.87873755420E+01  0.49964382120E+03  0.49972147586E+03  0.00000000000E+00 0. -1.
         11    1    1    2    0    0  0.10433509759E+01 -0.46031233945E+01 -0.71365954985E+02  0.71521862791E+02  0.00000000000E+00 0.  1.
        -15    1    1    2    0    0 -0.29735795005E+01  0.28633437068E+01 -0.24349410771E+02  0.24760703668E+02  0.17770000000E+01 0. -1.
         15    1    1    2    0    0  0.13078106474E+01 -0.70475958543E+01 -0.40392845544E+03  0.40399595768E+03  0.17770000000E+01 0.  1.
</event>
<event>
 6    1  0.1782050E-003  0.5016134E+03  0.7546771E-02  0.9396207E-01
        -11   -1    0    0    0    0  0.00000000000E+00  0.00000000000E+00  0.50000000000E+03  0.50000000000E+03  0.00000000000E+00 0.  1.
         11   -1    0    0    0    0 -0.00000000000E+00 -0.00000000000E+00 -0.50000000000E+03  0.50000000000E+03  0.00000000000E+00 0. -1.
        -11    1    1    2    0    0  0.17867535425E+01  0.60056883659E+01  0.14928286433E+03  0.14941430442E+03  0.00000000000E+00 0.  1.
         11    1    1    2    0    0  0.22203573092E+02 -0.50570149111E+01 -0.49786603079E+03  0.49838655346E+03  0.00000000000E+00 0. -1.
        -15    1    1    2    0    0 -0.17296670947E+02 -0.13094354895E+02  0.70943221168E+02  0.74207380460E+02  0.17770000000E+01 0. -1.
         15    1    1    2    0    0 -0.66936556873E+01  0.12145681440E+02  0.27763994529E+03  0.27799176166E+03  0.17770000000E+01 0.  1.
</event>
<event>
 6    1  0.1782050E-003  0.5387466E+03  0.7546771E-02  0.9317055E-01
        -11   -1    0    0    0    0  0.00000000000E+00  0.00000000000E+00  0.50000000000E+03  0.50000000000E+03  0.00000000000E+00 0. -1.
         11   -1    0    0    0    0 -0.00000000000E+00 -0.00000000000E+00 -0.50000000000E+03  0.50000000000E+03  0.00000000000E+00 0.  1.
        -11    1    1    2    0    0 -0.25553067095E+02 -0.11383666384E+02  0.46040435149E+03  0.46125341622E+03  0.00000000000E+00 0. -1.
         11    1    1    2    0    0 -0.15687132433E+02 -0.67983255957E+01 -0.42474226826E+03  0.42508622396E+03  0.00000000000E+00 0.  1.
        -15    1    1    2    0    0  0.46290874229E+02  0.21625333293E+02  0.21993770244E+02  0.55654143920E+02  0.17770000000E+01 0.  1.
         15    1    1    2    0    0 -0.50506747010E+01 -0.34433413129E+01 -0.57655853477E+02  0.58006215904E+02  0.17770000000E+01 0. -1.
</event>
<event>
 6    1  0.1782050E-003  0.5003086E+03  0.7546771E-02  0.9399119E-01
        -11   -1    0    0    0    0  0.00000000000E+00  0.00000000000E+00  0.50000000000E+03  0.50000000000E+03  0.00000000000E+00 0.  1.
         11   -1    0    0    0    0 -0.00000000000E+00 -0.00000000000E+00 -0.50000000000E+03  0.50000000000E+03  0.00000000000E+00 0.  1.
        -11    1    1    2    0    0 -0.50107552834E+00  0.32078936422E+01  0.70488147213E+02  0.70562883698E+02  0.00000000000E+00 0.  1.
         11    1    1    2    0    0 -0.74210286163E+01 -0.55296295227E+00 -0.49963595978E+03  0.49969137449E+03  0.00000000000E+00 0.  1.
        -15    1    1    2    0    0 -0.47341569901E+01  0.47534412881E+01  0.20126906569E+03  0.20138868384E+03  0.17770000000E+01 0.  1.
         15    1    1    2    0    0  0.12656261135E+02 -0.74083719781E+01  0.22787874688E+03  0.22835705798E+03  0.17770000000E+01 0. -1.
</event>
<event>
 6    1  0.1782050E-003  0.5037941E+03  0.7546771E-02  0.9391360E-01
        -11   -1    0    0    0    0  0.00000000000E+00  0.00000000000E+00  0.50000000000E+03  0.50000000000E+03  0.00000000000E+00 0. -1.
         11   -1    0    0    0    0 -0.00000000000E+00 -0.00000000000E+00 -0.50000000000E+03  0.50000000000E+03  0.00000000000E+00 0. -1.
        -11    1    1    2    0    0  0.45993019057E+01 -0.64675301792E+01  0.49614239678E+03  0.49620586494E+03  0.00000000000E+00 0. -1.
         11    1    1    2    0    0  0.18538611214E+00  0.68144571089E+01 -0.48149568368E+03  0.48154393838E+03  0.00000000000E+00 0. -1.
        -15    1    1    2    0    0 -0.12865656220E+01 -0.72637420898E+01 -0.30256992122E+01  0.81688300857E+01  0.17770000000E+01 0. -1.
         15    1    1    2    0    0 -0.34981223959E+01  0.69168151601E+01 -0.11621013887E+02  0.14081366589E+02  0.17770000000E+01 0.  1.
</event>
<event>
 6    1  0.1782050E-003  0.5110208E+03  0.7546771E-02  0.9375482E-01
        -11   -1    0    0    0    0  0.00000000000E+00  0.00000000000E+00  0.50000000000E+03  0.50000000000E+03  0.00000000000E+00 0. -1.
         11   -1    0    0    0    0 -0.00000000000E+00 -0.00000000000E+00 -0.50000000000E+03  0.50000000000E+03  0.00000000000E+00 0. -1.
        -11    1    1    2    0    0  0.15419035497E+01 -0.30559180454E+02  0.48802094248E+03  0.48897922376E+03  0.00000000000E+00 0. -1.
         11    1    1    2    0    0  0.92521162358E+01 -0.31148531267E+01 -0.34097046311E+03  0.34111018848E+03  0.00000000000E+00 0. -1.
        -15    1    1    2    0    0 -0.20717062691E+01  0.39385325805E+01 -0.13728894860E+03  0.13737254872E+03  0.17770000000E+01 0.  1.
         15    1    1    2    0    0 -0.87223135164E+01  0.29735501000E+02 -0.97615307664E+01  0.32538039042E+02  0.17770000000E+01 0. -1.
</event>
<event>
 6    1  0.1782050E-003  0.5003628E+03  0.7546771E-02  0.9398998E-01
        -11   -1    0    0    0    0  0.00000000000E+00  0.00000000000E+00  0.50000000000E+03  0.50000000000E+03  0.00000000000E+00 0.  1.
         11   -1    0    0    0    0 -0.00000000000E+00 -0.00000000000E+00 -0.50000000000E+03  0.50000000000E+03  0.00000000000E+00 0.  1.
        -11    1    1    2    0    0 -0.19748727302E+01  0.59858843214E+01  0.27384245206E+03  0.27391498587E+03  0.00000000000E+00 0.  1.
         11    1    1    2    0    0  0.42335845859E+01 -0.11516776630E+02 -0.49948650080E+03  0.49963719224E+03  0.00000000000E+00 0.  1.
        -15    1    1    2    0    0  0.30168080478E+01  0.75576390722E+01  0.48884403254E+02  0.49588926684E+02  0.17770000000E+01 0. -1.
         15    1    1    2    0    0 -0.52755199035E+01 -0.20267467637E+01  0.17675964549E+03  0.17685889521E+03  0.17770000000E+01 0.  1.
</event>
<event>
 6    1  0.1782050E-003  0.5005279E+03  0.7546771E-02  0.9398629E-01
        -11   -1    0    0    0    0  0.00000000000E+00  0.00000000000E+00  0.50000000000E+03  0.50000000000E+03  0.00000000000E+00 0.  1.
         11   -1    0    0    0    0 -0.00000000000E+00 -0.00000000000E+00 -0.50000000000E+03  0.50000000000E+03  0.00000000000E+00 0.  1.
        -11    1    1    2    0    0 -0.14611417955E+01  0.45362417536E+01  0.32013516810E+03  0.32017063931E+03  0.00000000000E+00 0.  1.
         11    1    1    2    0    0  0.47458566142E+01  0.54607936191E+01 -0.49941970005E+03  0.49947210155E+03  0.00000000000E+00 0.  1.
        -15    1    1    2    0    0  0.34757323342E+00  0.17249444180E+01  0.46223846642E+01  0.52555122854E+01  0.17770000000E+01 0. -1.
         15    1    1    2    0    0 -0.36322880522E+01 -0.11721979791E+02  0.17466214729E+03  0.17510174685E+03  0.17770000000E+01 0. -1.
</event>
<event>
 6    1  0.1782050E-003  0.5053604E+03  0.7546771E-02  0.9387895E-01
        -11   -1    0    0    0    0  0.00000000000E+00  0.00000000000E+00  0.50000000000E+03  0.50000000000E+03  0.00000000000E+00 0. -1.
         11   -1    0    0    0    0 -0.00000000000E+00 -0.00000000000E+00 -0.50000000000E+03  0.50000000000E+03  0.00000000000E+00 0.  1.
        -11    1    1    2    0    0  0.53318565009E+01  0.56389102522E+01  0.46034091674E+03  0.46040632666E+03  0.00000000000E+00 0. -1.
         11    1    1    2    0    0  0.84167599694E+01 -0.47516877998E+01 -0.49454518011E+03  0.49463962191E+03  0.00000000000E+00 0.  1.
        -15    1    1    2    0    0 -0.18300045233E+02 -0.20767603829E+01  0.11693329919E+02  0.21888268155E+02  0.17770000000E+01 0.  1.
         15    1    1    2    0    0  0.45514287631E+01  0.11895379305E+01  0.22510933453E+02  0.23065783277E+02  0.17770000000E+01 0. -1.
</event>
<event>
 6    1  0.1782050E-003  0.5037225E+03  0.7546771E-02  0.9391519E-01
        -11   -1    0    0    0    0  0.00000000000E+00  0.00000000000E+00  0.50000000000E+03  0.50000000000E+03  0.00000000000E+00 0. -1.
         11   -1    0    0    0    0 -0.00000000000E+00 -0.00000000000E+00 -0.50000000000E+03  0.50000000000E+03  0.00000000000E+00 0.  1.
        -11    1    1    2    0    0 -0.24613669387E+01  0.65030913726E+01  0.33905364046E+03  0.33912493219E+03  0.00000000000E+00 0. -1.
         11    1    1    2    0    0 -0.18894005368E+00  0.77710593127E+01 -0.49621659189E+03  0.49627747392E+03  0.00000000000E+00 0.  1.
        -15    1    1    2    0    0  0.47083680282E+01 -0.86161481622E+01  0.31598013083E+01  0.10466556834E+02  0.17770000000E+01 0.  1.
         15    1    1    2    0    0 -0.20580610358E+01 -0.56580025231E+01  0.15400315012E+03  0.15413103705E+03  0.17770000000E+01 0. -1.
</event>
<event>
 6    1  0.1782050E-003  0.5059220E+03  0.7546771E-02  0.9386655E-01
        -11   -1    0    0    0    0  0.00000000000E+00  0.00000000000E+00  0.50000000000E+03  0.50000000000E+03  0.00000000000E+00 0.  1.
         11   -1    0    0    0    0 -0.00000000000E+00 -0.00000000000E+00 -0.50000000000E+03  0.50000000000E+03  0.00000000000E+00 0.  1.
        -11    1    1    2    0    0  0.14436087841E+02  0.14233954898E+02  0.49366191086E+03  0.49407801847E+03  0.00000000000E+00 0.  1.
         11    1    1    2    0    0 -0.15807276445E+02  0.13525554476E+02 -0.33162322028E+03  0.33227514328E+03  0.00000000000E+00 0.  1.
        -15    1    1    2    0    0  0.10070251239E+02 -0.18528207714E+02 -0.15910597123E+03  0.16050723427E+03  0.17770000000E+01 0.  1.
         15    1    1    2    0    0 -0.86990626352E+01 -0.92313016601E+01 -0.29327193469E+01  0.13139603983E+02  0.17770000000E+01 0. -1.
</event>
<event>
 6    1  0.1782050E-003  0.5004060E+03  0.7546771E-02  0.9398902E-01
        -11   -1    0    0    0    0  0.00000000000E+00  0.00000000000E+00  0.50000000000E+03  0.50000000000E+03  0.00000000000E+00 0. -1.
         11   -1    0    0    0    0 -0.00000000000E+00 -0.00000000000E+00 -0.50000000000E+03  0.50000000000E+03  0.00000000000E+00 0. -1.
        -11    1    1    2    0    0 -0.77069017414E+01 -0.49506975235E+01  0.49950998054E+03  0.49959396153E+03  0.00000000000E+00 0. -1.
         11    1    1    2    0    0  0.54417722423E+01  0.23800105098E+01 -0.39094338823E+03  0.39098850384E+03  0.00000000000E+00 0. -1.
        -15    1    1    2    0    0  0.60055955819E+01  0.53769321782E+01 -0.54721320907E+02  0.55340394548E+02  0.17770000000E+01 0. -1.
         15    1    1    2    0    0 -0.37404660829E+01 -0.28062451645E+01 -0.53845271398E+02  0.54077140081E+02  0.17770000000E+01 0.  1.
</event>
<event>
 6    1  0.1782050E-003  0.5007584E+03  0.7546771E-02  0.9398114E-01
        -11   -1    0    0    0    0  0.00000000000E+00  0.00000000000E+00  0.50000000000E+03  0.50000000000E+03  0.00000000000E+00 0. -1.
         11   -1    0    0    0    0 -0.00000000000E+00 -0.00000000000E+00 -0.50000000000E+03  0.50000000000E+03  0.00000000000E+00 0. -1.
        -11    1    1    2    0    0  0.49653907942E+01 -0.79153608595E+01  0.49915417324E+03  0.49924162157E+03  0.00000000000E+00 0. -1.
         11    1    1    2    0    0  0.60649505097E+01 -0.15879138063E+01 -0.38932683788E+03  0.38937731289E+03  0.00000000000E+00 0. -1.
        -15    1    1    2    0    0 -0.85080807517E+01  0.11474249876E+02 -0.75576549025E+02  0.76935156722E+02  0.17770000000E+01 0. -1.
         15    1    1    2    0    0 -0.25222605522E+01 -0.19709752104E+01 -0.34250786329E+02  0.34445908824E+02  0.17770000000E+01 0.  1.
</event>
<event>
 6    1  0.1782050E-003  0.5004467E+03  0.7546771E-02  0.9398811E-01
        -11   -1    0    0    0    0  0.00000000000E+00  0.00000000000E+00  0.50000000000E+03  0.50000000000E+03  0.00000000000E+00 0.  1.
         11   -1    0    0    0    0 -0.00000000000E+00 -0.00000000000E+00 -0.50000000000E+03  0.50000000000E+03  0.00000000000E+00 0. -1.
        -11    1    1    2    0    0  0.51585701527E+01  0.10088742647E+02  0.49942482461E+03  0.49955334952E+03  0.00000000000E+00 0.  1.
         11    1    1    2    0    0 -0.21036963891E+01 -0.29379080584E+01 -0.26555411585E+03  0.26557869886E+03  0.00000000000E+00 0. -1.
        -15    1    1    2    0    0  0.31563156692E+01  0.20606864259E+01 -0.16739195975E+03  0.16744382543E+03  0.17770000000E+01 0. -1.
         15    1    1    2    0    0 -0.62111894328E+01 -0.92115210146E+01 -0.66478749010E+02  0.67424126190E+02  0.17770000000E+01 0.  1.
</event>
<event>
 6    1  0.1782050E-003  0.5030530E+03  0.7546771E-02  0.9393004E-01
        -11   -1    0    0    0    0  0.00000000000E+00  0.00000000000E+00  0.50000000000E+03  0.50000000000E+03  0.00000000000E+00 0. -1.
         11   -1    0    0    0    0 -0.00000000000E+00 -0.00000000000E+00 -0.50000000000E+03  0.50000000000E+03  0.00000000000E+00 0.  1.
        -11    1    1    2    0    0  0.71852314755E+01  0.45405897694E+00  0.45500052839E+03  0.45505748489E+03  0.00000000000E+00 0. -1.
         11    1    1    2    0    0 -0.59749202264E+01 -0.33681214858E+01 -0.49689969570E+03  0.49694703088E+03  0.00000000000E+00 0.  1.
        -15    1    1    2    0    0 -0.45327056865E+00  0.15645028821E+01 -0.25354243060E+01  0.34984609314E+01  0.17770000000E+01 0.  1.
         15    1    1    2    0    0 -0.75704068046E+00  0.13495596268E+01  0.44434591616E+02  0.44497023303E+02  0.17770000000E+01 0. -1.
</event>
<event>
 6    1  0.1782050E-003  0.5021807E+03  0.7546771E-02  0.9394943E-01
        -11   -1    0    0    0    0  0.00000000000E+00  0.00000000000E+00  0.50000000000E+03  0.50000000000E+03  0.00000000000E+00 0. -1.
         11   -1    0    0    0    0 -0.00000000000E+00 -0.00000000000E+00 -0.50000000000E+03  0.50000000000E+03  0.00000000000E+00 0. -1.
        -11    1    1    2    0    0  0.14181855427E+02 -0.69132315516E+01  0.38175613961E+03  0.38208201728E+03  0.00000000000E+00 0. -1.
         11    1    1    2    0    0 -0.23170172912E+02  0.26012987522E+01 -0.49727300022E+03  0.49781930498E+03  0.00000000000E+00 0. -1.
        -15    1    1    2    0    0  0.18153401635E+01  0.33070158817E+01  0.11159430833E+03  0.11167219526E+03  0.17770000000E+01 0. -1.
         15    1    1    2    0    0  0.71729773221E+01  0.10049169177E+01  0.39225522725E+01  0.84264824812E+01  0.17770000000E+01 0.  1.
</event>
<event>
 6    1  0.1782050E-003  0.5026085E+03  0.7546771E-02  0.9393992E-01
        -11   -1    0    0    0    0  0.00000000000E+00  0.00000000000E+00  0.50000000000E+03  0.50000000000E+03  0.00000000000E+00 0. -1.
         11   -1    0    0    0    0 -0.00000000000E+00 -0.00000000000E+00 -0.50000000000E+03  0.50000000000E+03  0.00000000000E+00 0. -1.
        -11    1    1    2    0    0 -0.68737292578E+01 -0.21127058116E-01  0.49734400479E+03  0.49739150344E+03  0.00000000000E+00 0. -1.
         11    1    1    2    0    0 -0.98493271043E+01 -0.16676259647E+02 -0.42272654715E+03  0.42316999012E+03  0.00000000000E+00 0. -1.
        -15    1    1    2    0    0  0.56027903319E+01  0.13136327285E+02 -0.51576899661E+02  0.53547069589E+02  0.17770000000E+01 0.  1.
         15    1    1    2    0    0  0.11120266030E+02  0.35610594203E+01 -0.23040557981E+02  0.25891436844E+02  0.17770000000E+01 0. -1.
</event>
<event>
 6    1  0.1782050E-003  0.5114709E+03  0.7546771E-02  0.9374502E-01
        -11   -1    0    0    0    0  0.00000000000E+00  0.00000000000E+00  0.50000000000E+03  0.50000000000E+03  0.00000000000E+00 0.  1.
         11   -1    0    0    0    0 -0.00000000000E+00 -0.00000000000E+00 -0.50000000000E+03  0.50000000000E+03  0.00000000000E+00 0.  1.
        -11    1    1    2    0    0 -0.63670688844E+01  0.47973716201E+01  0.21521550198E+03  0.21536310416E+03  0.00000000000E+00 0.  1.
         11    1    1    2    0    0 -0.23167580239E+02 -0.66339166888E+01 -0.48793436063E+03  0.48852910447E+03  0.00000000000E+00 0.  1.
        -15    1    1    2    0    0  0.18554190491E+01  0.58254130114E+01  0.26753501216E+03  0.26761075927E+03  0.17770000000E+01 0.  1.
         15    1    1    2    0    0  0.27679230074E+02 -0.39888679427E+01  0.51838464856E+01  0.28497032097E+02  0.17770000000E+01 0. -1.
</event>
<event>
 6    1  0.1782050E-003  0.5059281E+03  0.7546771E-02  0.9386642E-01
        -11   -1    0    0    0    0  0.00000000000E+00  0.00000000000E+00  0.50000000000E+03  0.50000000000E+03  0.00000000000E+00 0. -1.
         11   -1    0    0    0    0 -0.00000000000E+00 -0.00000000000E+00 -0.50000000000E+03  0.50000000000E+03  0.00000000000E+00 0. -1.
        -11    1    1    2    0    0 -0.47606500459E+01  0.12599859913E+02  0.49388827293E+03  0.49407190408E+03  0.00000000000E+00 0. -1.
         11    1    1    2    0    0 -0.24121021063E+01  0.65591210445E+01 -0.27274152087E+03  0.27283104206E+03  0.00000000000E+00 0. -1.
        -15    1    1    2    0    0  0.82455165302E+01 -0.61434067951E+01 -0.21957591504E+03  0.21982372526E+03  0.17770000000E+01 0. -1.
         15    1    1    2    0    0 -0.10727643780E+01 -0.13015574162E+02 -0.15708370190E+01  0.13273328600E+02  0.17770000000E+01 0.  1.
</event>
<event>
 6    1  0.1782050E-003  0.5062994E+03  0.7546771E-02  0.9385824E-01
        -11   -1    0    0    0    0  0.00000000000E+00  0.00000000000E+00  0.50000000000E+03  0.50000000000E+03  0.00000000000E+00 0.  1.
         11   -1    0    0    0    0 -0.00000000000E+00 -0.00000000000E+00 -0.50000000000E+03  0.50000000000E+03  0.00000000000E+00 0.  1.
        -11    1    1    2    0    0 -0.34082270108E+01  0.15193069214E+02  0.49345496779E+03  0.49370056775E+03  0.00000000000E+00 0.  1.
         11    1    1    2    0    0 -0.32025106819E+01 -0.48214820480E+01 -0.42310126904E+03  0.42314085908E+03  0.00000000000E+00 0.  1.
        -15    1    1    2    0    0 -0.77030383447E+01 -0.13390823902E+02 -0.65978938246E+02  0.67786643121E+02  0.17770000000E+01 0. -1.
         15    1    1    2    0    0  0.14313776037E+02  0.30192367361E+01 -0.43747605021E+01  0.15371930047E+02  0.17770000000E+01 0.  1.
</event>
<event>
 6    1  0.1782050E-003  0.4827877E+03  0.7546771E-02  0.9439169E-01
        -11   -1    0    0    0    0  0.00000000000E+00  0.00000000000E+00  0.50000000000E+03  0.50000000000E+03  0.00000000000E+00 0.  1.
         11   -1    0    0    0    0 -0.00000000000E+00 -0.00000000000E+00 -0.50000000000E+03  0.50000000000E+03  0.00000000000E+00 0. -1.
        -11    1    1    2    0    0 -0.16309777397E+01 -0.14471293998E+02  0.48034468914E+03  0.48056539495E+03  0.00000000000E+00 0.  1.
         11    1    1    2    0    0  0.12557650967E+00 -0.70810871900E+01 -0.48521234643E+03  0.48526402988E+03  0.00000000000E+00 0. -1.
        -15    1    1    2    0    0 -0.84184455197E+01  0.20654332409E+02 -0.11338466979E+01  0.22403459768E+02  0.17770000000E+01 0.  1.
         15    1    1    2    0    0  0.99238467497E+01  0.89804877869E+00  0.60015039880E+01  0.11767115409E+02  0.17770000000E+01 0. -1.
</event>
<event>
 6    1  0.1782050E-003  0.5087431E+03  0.7546771E-02  0.9380456E-01
        -11   -1    0    0    0    0  0.00000000000E+00  0.00000000000E+00  0.50000000000E+03  0.50000000000E+03  0.00000000000E+00 0. -1.
         11   -1    0    0    0    0 -0.00000000000E+00 -0.00000000000E+00 -0.50000000000E+03  0.50000000000E+03  0.00000000000E+00 0. -1.
        -11    1    1    2    0    0  0.34839377628E+01  0.82115275400E+01  0.49117595262E+03  0.49125694239E+03  0.00000000000E+00 0. -1.
         11    1    1    2    0    0  0.77849434265E+00  0.93083486600E+01 -0.47813262067E+03  0.47822385382E+03  0.00000000000E+00 0. -1.
        -15    1    1    2    0    0 -0.20968004015E+01 -0.11706848369E+02 -0.18502512468E+02  0.22066888482E+02  0.17770000000E+01 0.  1.
         15    1    1    2    0    0 -0.21656317040E+01 -0.58130278314E+01  0.54591805185E+01  0.84523153147E+01  0.17770000000E+01 0.  1.
</event>
<event>
 6    1  0.1782050E-003  0.5116307E+03  0.7546771E-02  0.9374155E-01
        -11   -1    0    0    0    0  0.00000000000E+00  0.00000000000E+00  0.50000000000E+03  0.50000000000E+03  0.00000000000E+00 0. -1.
         11   -1    0    0    0    0 -0.00000000000E+00 -0.00000000000E+00 -0.50000000000E+03  0.50000000000E+03  0.00000000000E+00 0. -1.
        -11    1    1    2    0    0 -0.25814327050E+01  0.63772446394E+01  0.48832079102E+03  0.48836925373E+03  0.00000000000E+00 0. -1.
         11    1    1    2    0    0 -0.11066056449E+02 -0.89802438362E+00 -0.47072631399E+03  0.47085722543E+03  0.00000000000E+00 0. -1.
        -15    1    1    2    0    0  0.16501501088E+01 -0.20454497193E+01 -0.25629696722E+02  0.25825296571E+02  0.17770000000E+01 0.  1.
         15    1    1    2    0    0  0.11997339046E+02 -0.34337705364E+01  0.80352196959E+01  0.14948224270E+02  0.17770000000E+01 0. -1.
</event>
<event>
 6    1  0.1782050E-003  0.5001810E+03  0.7546771E-02  0.9399405E-01
        -11   -1    0    0    0    0  0.00000000000E+00  0.00000000000E+00  0.50000000000E+03  0.50000000000E+03  0.00000000000E+00 0.  1.
         11   -1    0    0    0    0 -0.00000000000E+00 -0.00000000000E+00 -0.50000000000E+03  0.50000000000E+03  0.00000000000E+00 0.  1.
        -11    1    1    2    0    0 -0.21168725329E+01 -0.12035127492E+01  0.37379618682E+02  0.37458850557E+02  0.00000000000E+00 0.  1.
         11    1    1    2    0    0 -0.11207812458E+02  0.17988456266E+00 -0.49969332265E+03  0.49981903137E+03  0.00000000000E+00 0.  1.
        -15    1    1    2    0    0  0.15583998741E+02  0.20132619673E+01  0.33610742634E+03  0.33647923266E+03  0.17770000000E+01 0.  1.
         15    1    1    2    0    0 -0.22593137503E+01 -0.98963378081E+00  0.12620627763E+03  0.12624288541E+03  0.17770000000E+01 0. -1.
</event>
<event>
 6    1  0.1782050E-003  0.5058495E+03  0.7546771E-02  0.9386815E-01
        -11   -1    0    0    0    0  0.00000000000E+00  0.00000000000E+00  0.50000000000E+03  0.50000000000E+03  0.00000000000E+00 0. -1.
         11   -1    0    0    0    0 -0.00000000000E+00 -0.00000000000E+00 -0.50000000000E+03  0.50000000000E+03  0.00000000000E+00 0.  1.
        -11    1    1    2    0    0 -0.78602591706E+01  0.62476935987E+01  0.49404847925E+03  0.49415050055E+03  0.00000000000E+00 0. -1.
         11    1    1    2    0    0  0.20603193870E+01 -0.58465569785E+01 -0.45430270457E+03  0.45434499505E+03  0.00000000000E+00 0.  1.
        -15    1    1    2    0    0  0.31957692998E+01  0.48544734897E-01  0.52489478758E+01  0.63972244616E+01  0.17770000000E+01 0.  1.
         15    1    1    2    0    0  0.26041704837E+01 -0.44968135510E+00 -0.44994722551E+02  0.45107279941E+02  0.17770000000E+01 0. -1.
</event>
<event>
 6    1  0.1782050E-003  0.5000662E+03  0.7546771E-02  0.9399662E-01
        -11   -1    0    0    0    0  0.00000000000E+00  0.00000000000E+00  0.50000000000E+03  0.50000000000E+03  0.00000000000E+00 0. -1.
         11   -1    0    0    0    0 -0.00000000000E+00 -0.00000000000E+00 -0.50000000000E+03  0.50000000000E+03  0.00000000000E+00 0.  1.
        -11    1    1    2    0    0  0.13687068397E+01 -0.17515731469E+01  0.10171616267E+03  0.10174044975E+03  0.00000000000E+00 0. -1.
         11    1    1    2    0    0 -0.45765307241E+01 -0.58253824079E+01 -0.49987893588E+03  0.49993382587E+03  0.00000000000E+00 0.  1.
        -15    1    1    2    0    0 -0.82672055180E+00  0.35131631937E+01  0.26214376764E+03  0.26217463344E+03  0.17770000000E+01 0.  1.
         15    1    1    2    0    0  0.40345444362E+01  0.40637923610E+01  0.13601900557E+03  0.13615109093E+03  0.17770000000E+01 0. -1.
</event>
<event>
 6    1  0.1782050E-003  0.5001694E+03  0.7546771E-02  0.9399431E-01
        -11   -1    0    0    0    0  0.00000000000E+00  0.00000000000E+00  0.50000000000E+03  0.50000000000E+03  0.00000000000E+00 0.  1.
         11   -1    0    0    0    0 -0.00000000000E+00 -0.00000000000E+00 -0.50000000000E+03  0.50000000000E+03  0.00000000000E+00 0. -1.
        -11    1    1    2    0    0 -0.64353773463E+01 -0.28579339671E+01  0.79725724843E+02  0.80036073554E+02  0.00000000000E+00 0.  1.
         11    1    1    2    0    0  0.40844582627E+01  0.79184061196E+01 -0.49975114789E+03  0.49983056507E+03  0.00000000000E+00 0. -1.
        -15    1    1    2    0    0  0.46424235012E+01 -0.41250805278E+01  0.29664765654E+03  0.29671797763E+03  0.17770000000E+01 0.  1.
         15    1    1    2    0    0 -0.22915044177E+01 -0.93539162477E+00  0.12337776651E+03  0.12341538375E+03  0.17770000000E+01 0. -1.
</event>
<event>
 6    1  0.1782050E-003  0.5066777E+03  0.7546771E-02  0.9384991E-01
        -11   -1    0    0    0    0  0.00000000000E+00  0.00000000000E+00  0.50000000000E+03  0.50000000000E+03  0.00000000000E+00 0.  1.
         11   -1    0    0    0    0 -0.00000000000E+00 -0.00000000000E+00 -0.50000000000E+03  0.50000000000E+03  0.00000000000E+00 0. -1.
        -11    1    1    2    0    0 -0.10994544105E+02  0.80210006606E+01  0.49313454727E+03  0.49332230657E+03  0.00000000000E+00 0.  1.
         11    1    1    2    0    0 -0.76058217728E+01 -0.38648441624E+01 -0.47456619038E+03  0.47464287058E+03  0.00000000000E+00 0. -1.
        -15    1    1    2    0    0  0.18115032292E+02 -0.72776232405E+01 -0.85600397959E+01  0.21390423214E+02  0.17770000000E+01 0.  1.
         15    1    1    2    0    0  0.48533358638E+00  0.31214667424E+01 -0.10008317096E+02  0.10644399626E+02  0.17770000000E+01 0. -1.
</event>
<event>
 6    1  0.1782050E-003  0.5017042E+03  0.7546771E-02  0.9396004E-01
        -11   -1    0    0    0    0  0.00000000000E+00  0.00000000000E+00  0.50000000000E+03  0.50000000000E+03  0.00000000000E+00 0. -1.
         11   -1    0    0    0    0 -0.00000000000E+00 -0.00000000000E+00 -0.50000000000E+03  0.50000000000E+03  0.00000000000E+00 0. -1.
        -11    1    1    2    0    0  0.66396772369E+01  0.25413395433E+01  0.45893010212E+03  0.45898516572E+03  0.00000000000E+00 0. -1.
         11    1    1    2    0    0  0.41867541796E+01 -0.80841272531E+01 -0.49821258908E+03  0.49829576151E+03  0.00000000000E+00 0. -1.
        -15    1    1    2    0    0 -0.58160296316E+01  0.83936902405E+01  0.20173937065E+02  0.22680954614E+02  0.17770000000E+01 0. -1.
         15    1    1    2    0    0 -0.50104017848E+01 -0.28509025307E+01  0.19108549889E+02  0.20038118154E+02  0.17770000000E+01 0.  1.
</event>
<event>
 6    1  0.1782050E-003  0.5022763E+03  0.7546771E-02  0.9394731E-01
        -11   -1    0    0    0    0  0.00000000000E+00  0.00000000000E+00  0.50000000000E+03  0.50000000000E+03  0.00000000000E+00 0. -1.
         11   -1    0    0    0    0 -0.00000000000E+00 -0.00000000000E+00 -0.50000000000E+03  0.50000000000E+03  0.00000000000E+00 0.  1.
        -11    1    1    2    0    0 -0.16477351564E+02  0.49564638448E+01  0.49742617133E+03  0.49772368396E+03  0.00000000000E+00 0. -1.
         11    1    1    2    0    0 -0.87552002579E+01 -0.12555518239E+02 -0.31945617465E+03  0.31982267289E+03  0.00000000000E+00 0.  1.
        -15    1    1    2    0    0  0.15761012736E+02 -0.33768770186E+01 -0.33200660335E+02  0.36949349068E+02  0.17770000000E+01 0. -1.
         15    1    1    2    0    0  0.94715390850E+01  0.10975931413E+02 -0.14476933634E+03  0.14550429409E+03  0.17770000000E+01 0.  1.
</event>
<event>
 6    1  0.1782050E-003  0.5505714E+03  0.7546771E-02  0.9293260E-01
        -11   -1    0    0    0    0  0.00000000000E+00  0.00000000000E+00  0.50000000000E+03  0.50000000000E+03  0.00000000000E+00 0.  1.
         11   -1    0    0    0    0 -0.00000000000E+00 -0.00000000000E+00 -0.50000000000E+03  0.50000000000E+03  0.00000000000E+00 0. -1.
        -11    1    1    2    0    0 -0.33659958312E+02  0.57823937160E+02  0.40865600144E+03  0.41409700314E+03  0.00000000000E+00 0.  1.
         11    1    1    2    0    0  0.29125575150E+02 -0.88044449777E+01 -0.44839737713E+03  0.44942855405E+03  0.00000000000E+00 0. -1.
        -15    1    1    2    0    0 -0.31200166171E+02 -0.52219205357E+02 -0.22276092887E+02  0.64804921268E+02  0.17770000000E+01 0. -1.
         15    1    1    2    0    0  0.35734549333E+02  0.31997131742E+01  0.62017468577E+02  0.71669521542E+02  0.17770000000E+01 0.  1.
</event>
<event>
 6    1  0.1782050E-003  0.4886014E+03  0.7546771E-02  0.9425682E-01
        -11   -1    0    0    0    0  0.00000000000E+00  0.00000000000E+00  0.50000000000E+03  0.50000000000E+03  0.00000000000E+00 0. -1.
         11   -1    0    0    0    0 -0.00000000000E+00 -0.00000000000E+00 -0.50000000000E+03  0.50000000000E+03  0.00000000000E+00 0. -1.
        -11    1    1    2    0    0  0.20365925824E+01  0.78589060382E+01  0.49114083614E+03  0.49120793055E+03  0.00000000000E+00 0. -1.
         11    1    1    2    0    0 -0.10722637444E+02 -0.11185170530E+01 -0.48595095095E+03  0.48607052242E+03  0.00000000000E+00 0. -1.
        -15    1    1    2    0    0  0.16477601796E+01 -0.20439215374E+01 -0.11557124576E+02  0.11984055504E+02  0.17770000000E+01 0. -1.
         15    1    1    2    0    0  0.70382846818E+01 -0.46964674478E+01  0.63672393939E+01  0.10737491525E+02  0.17770000000E+01 0.  1.
</event>
<event>
 6    1  0.1782050E-003  0.4620077E+03  0.7546771E-02  0.9489079E-01
        -11   -1    0    0    0    0  0.00000000000E+00  0.00000000000E+00  0.50000000000E+03  0.50000000000E+03  0.00000000000E+00 0. -1.
         11   -1    0    0    0    0 -0.00000000000E+00 -0.00000000000E+00 -0.50000000000E+03  0.50000000000E+03  0.00000000000E+00 0. -1.
        -11    1    1    2    0    0 -0.74773452313E+00  0.86214280428E+01  0.45913837078E+03  0.45921991643E+03  0.00000000000E+00 0. -1.
         11    1    1    2    0    0  0.14266808269E+02 -0.80749023626E+01 -0.46462159100E+03  0.46491071045E+03  0.00000000000E+00 0. -1.
        -15    1    1    2    0    0  0.17557613217E+02 -0.82939626422E+01  0.29803111580E+02  0.35615204436E+02  0.17770000000E+01 0. -1.
         15    1    1    2    0    0 -0.31076686962E+02  0.77474369621E+01 -0.24319891357E+02  0.40254168687E+02  0.17770000000E+01 0.  1.
</event>
<event>
 6    1  0.1782050E-003  0.5029769E+03  0.7546771E-02  0.9393173E-01
        -11   -1    0    0    0    0  0.00000000000E+00  0.00000000000E+00  0.50000000000E+03  0.50000000000E+03  0.00000000000E+00 0.  1.
         11   -1    0    0    0    0 -0.00000000000E+00 -0.00000000000E+00 -0.50000000000E+03  0.50000000000E+03  0.00000000000E+00 0. -1.
        -11    1    1    2    0    0  0.10334731246E+02  0.93054705393E+01  0.25318701336E+03  0.25356865380E+03  0.00000000000E+00 0.  1.
         11    1    1    2    0    0  0.48638455344E+00  0.10227475235E+02 -0.49691757395E+03  0.49702305089E+03  0.00000000000E+00 0. -1.
        -15    1    1    2    0    0 -0.13276988764E+02 -0.11041538771E+02  0.23819838136E+03  0.23883010828E+03  0.17770000000E+01 0.  1.
         15    1    1    2    0    0  0.24558729644E+01 -0.84914070029E+01  0.55321792287E+01  0.10578187034E+02  0.17770000000E+01 0. -1.
</event>
<event>
 6    1  0.1782050E-003  0.5023485E+03  0.7546771E-02  0.9394570E-01
        -11   -1    0    0    0    0  0.00000000000E+00  0.00000000000E+00  0.50000000000E+03  0.50000000000E+03  0.00000000000E+00 0.  1.
         11   -1    0    0    0    0 -0.00000000000E+00 -0.00000000000E+00 -0.50000000000E+03  0.50000000000E+03  0.00000000000E+00 0. -1.
        -11    1    1    2    0    0  0.42792859191E+01 -0.12153086551E+01  0.87890180757E+02  0.88002688235E+02  0.00000000000E+00 0.  1.
         11    1    1    2    0    0  0.82696924133E+01  0.23887972243E+01 -0.49757702664E+03  0.49765147604E+03  0.00000000000E+00 0. -1.
        -15    1    1    2    0    0  0.52705762391E+01 -0.12688535658E+02  0.21509381747E+02  0.25584939773E+02  0.17770000000E+01 0. -1.
         15    1    1    2    0    0 -0.17819554572E+02  0.11515047088E+02  0.38817746413E+03  0.38876089596E+03  0.17770000000E+01 0.  1.
</event>
<event>
 6    1  0.1782050E-003  0.5024403E+03  0.7546771E-02  0.9394366E-01
        -11   -1    0    0    0    0  0.00000000000E+00  0.00000000000E+00  0.50000000000E+03  0.50000000000E+03  0.00000000000E+00 0. -1.
         11   -1    0    0    0    0 -0.00000000000E+00 -0.00000000000E+00 -0.50000000000E+03  0.50000000000E+03  0.00000000000E+00 0.  1.
        -11    1    1    2    0    0 -0.62150334150E+01  0.26939793383E+00  0.44187978024E+03  0.44192356737E+03  0.00000000000E+00 0. -1.
         11    1    1    2    0    0 -0.27927598786E+01 -0.10434475983E+02 -0.49744247895E+03  0.49755974280E+03  0.00000000000E+00 0.  1.
        -15    1    1    2    0    0  0.82149639878E+00  0.66433697433E+01  0.36772449800E+01  0.78414971480E+01  0.17770000000E+01 0. -1.
         15    1    1    2    0    0  0.81862968948E+01  0.35217083061E+01  0.51885453727E+02  0.52675192678E+02  0.17770000000E+01 0.  1.
</event>
<event>
 6    1  0.1782050E-003  0.5029923E+03  0.7546771E-02  0.9393139E-01
        -11   -1    0    0    0    0  0.00000000000E+00  0.00000000000E+00  0.50000000000E+03  0.50000000000E+03  0.00000000000E+00 0. -1.
         11   -1    0    0    0    0 -0.00000000000E+00 -0.00000000000E+00 -0.50000000000E+03  0.50000000000E+03  0.00000000000E+00 0. -1.
        -11    1    1    2    0    0  0.63394699829E+01  0.26144730941E+01  0.47654878146E+03  0.47659811735E+03  0.00000000000E+00 0. -1.
         11    1    1    2    0    0  0.29512984983E+01  0.66909338764E+01 -0.49695392268E+03  0.49700772632E+03  0.00000000000E+00 0. -1.
        -15    1    1    2    0    0 -0.49238444874E+01 -0.10174787110E+02  0.11179176564E+02  0.15996945174E+02  0.17770000000E+01 0. -1.
         15    1    1    2    0    0 -0.43669239937E+01  0.86938013917E+00  0.92259646549E+01  0.10397211155E+02  0.17770000000E+01 0.  1.
</event>
<event>
 6    1  0.1782050E-003  0.5077853E+03  0.7546771E-02  0.9382556E-01
        -11   -1    0    0    0    0  0.00000000000E+00  0.00000000000E+00  0.50000000000E+03  0.50000000000E+03  0.00000000000E+00 0. -1.
         11   -1    0    0    0    0 -0.00000000000E+00 -0.00000000000E+00 -0.50000000000E+03  0.50000000000E+03  0.00000000000E+00 0. -1.
        -11    1    1    2    0    0  0.50937758027E+01 -0.67715169688E+01  0.44339582052E+03  0.44347677915E+03  0.00000000000E+00 0. -1.
         11    1    1    2    0    0 -0.10261130523E+02  0.10297594075E-01 -0.49210775960E+03  0.49221472749E+03  0.00000000000E+00 0. -1.
        -15    1    1    2    0    0  0.87149188375E+01 -0.93722976859E+01  0.84460924335E-01  0.12921092713E+02  0.17770000000E+01 0.  1.
         15    1    1    2    0    0 -0.35475641169E+01  0.16133517061E+02  0.48627478153E+02  0.51387400639E+02  0.17770000000E+01 0. -1.
</event>
<event>
 6    1  0.1782050E-003  0.5106546E+03  0.7546771E-02  0.9376280E-01
        -11   -1    0    0    0    0  0.00000000000E+00  0.00000000000E+00  0.50000000000E+03  0.50000000000E+03  0.00000000000E+00 0.  1.
         11   -1    0    0    0    0 -0.00000000000E+00 -0.00000000000E+00 -0.50000000000E+03  0.50000000000E+03  0.00000000000E+00 0. -1.
        -11    1    1    2    0    0  0.74728283694E+01 -0.32465792730E+01  0.47261244363E+03  0.47268266873E+03  0.00000000000E+00 0.  1.
         11    1    1    2    0    0  0.99296773469E+01 -0.35734272344E+01 -0.48923159523E+03  0.48934540117E+03  0.00000000000E+00 0. -1.
        -15    1    1    2    0    0 -0.19422634662E+02 -0.63680983379E+01  0.11843710319E+02  0.23690137542E+02  0.17770000000E+01 0. -1.
         15    1    1    2    0    0  0.20201289460E+01  0.13188104845E+02  0.47754412760E+01  0.14281792561E+02  0.17770000000E+01 0.  1.
</event>
<event>
 6    1  0.1782050E-003  0.5044744E+03  0.7546771E-02  0.9389853E-01
        -11   -1    0    0    0    0  0.00000000000E+00  0.00000000000E+00  0.50000000000E+03  0.50000000000E+03  0.00000000000E+00 0.  1.
         11   -1    0    0    0    0 -0.00000000000E+00 -0.00000000000E+00 -0.50000000000E+03  0.50000000000E+03  0.00000000000E+00 0. -1.
        -11    1    1    2    0    0  0.32408141340E+01  0.78471992447E+01  0.49545284790E+03  0.49552558552E+03  0.00000000000E+00 0.  1.
         11    1    1    2    0    0  0.10936708049E+02 -0.42351738020E+01 -0.44373794991E+03  0.44389291104E+03  0.00000000000E+00 0. -1.
        -15    1    1    2    0    0 -0.16903393559E+02 -0.17333235360E+01 -0.12456192208E+02  0.21143405062E+02  0.17770000000E+01 0.  1.
         15    1    1    2    0    0  0.27258713764E+01 -0.18787019068E+01 -0.39258705781E+02  0.39438098385E+02  0.17770000000E+01 0. -1.
</event>
<event>
 6    1  0.1782050E-003  0.5576822E+03  0.7546771E-02  0.9279254E-01
        -11   -1    0    0    0    0  0.00000000000E+00  0.00000000000E+00  0.50000000000E+03  0.50000000000E+03  0.00000000000E+00 0. -1.
         11   -1    0    0    0    0 -0.00000000000E+00 -0.00000000000E+00 -0.50000000000E+03  0.50000000000E+03  0.00000000000E+00 0.  1.
        -11    1    1    2    0    0  0.11848538425E+02 -0.99968019828E+00  0.17272227570E+03  0.17313108256E+03  0.00000000000E+00 0. -1.
         11    1    1    2    0    0 -0.45197097864E+01 -0.14294792399E+02 -0.44206368523E+03  0.44231783896E+03  0.00000000000E+00 0.  1.
        -15    1    1    2    0    0 -0.78650455799E+01  0.37924100598E+02 -0.50632662928E+02  0.63772412784E+02  0.17770000000E+01 0.  1.
         15    1    1    2    0    0  0.53621694092E+00 -0.22629628001E+02  0.31997407246E+03  0.32077866570E+03  0.17770000000E+01 0. -1.
</event>
<event>
 6    1  0.1782050E-003  0.5008657E+03  0.7546771E-02  0.9397875E-01
        -11   -1    0    0    0    0  0.00000000000E+00  0.00000000000E+00  0.50000000000E+03  0.50000000000E+03  0.00000000000E+00 0. -1.
         11   -1    0    0    0    0 -0.00000000000E+00 -0.00000000000E+00 -0.50000000000E+03  0.50000000000E+03  0.00000000000E+00 0.  1.
        -11    1    1    2    0    0  0.31969335935E+01 -0.90771716352E+01  0.49904148078E+03  0.49913426547E+03  0.00000000000E+00 0. -1.
         11    1    1    2    0    0  0.77897783274E+01  0.84868196820E+01 -0.35447369059E+03  0.35466082964E+03  0.00000000000E+00 0.  1.
        -15    1    1    2    0    0  0.16461004001E+01 -0.36275850129E+01 -0.86209958214E+02  0.86320238900E+02  0.17770000000E+01 0.  1.
         15    1    1    2    0    0 -0.12632812321E+02  0.42179369661E+01 -0.58357831973E+02  0.59884665992E+02  0.17770000000E+01 0. -1.
</event>
<event>
 6    1  0.1782050E-003  0.4727049E+03  0.7546771E-02  0.9463045E-01
        -11   -1    0    0    0    0  0.00000000000E+00  0.00000000000E+00  0.50000000000E+03  0.50000000000E+03  0.00000000000E+00 0. -1.
         11   -1    0    0    0    0 -0.00000000000E+00 -0.00000000000E+00 -0.50000000000E+03  0.50000000000E+03  0.00000000000E+00 0.  1.
        -11    1    1    2    0    0 -0.11706373123E+02  0.85165998319E+01  0.48112698274E+03  0.48134472591E+03  0.00000000000E+00 0. -1.
         11    1    1    2    0    0  0.39782449592E+01  0.18004539346E+02 -0.46425307910E+03  0.46461910348E+03  0.00000000000E+00 0.  1.
        -15    1    1    2    0    0 -0.13588926834E+02 -0.31740958693E+01  0.56689113994E+01  0.15166677373E+02  0.17770000000E+01 0.  1.
         15    1    1    2    0    0  0.21317054998E+02 -0.23347043308E+02 -0.22542815044E+02  0.38869493232E+02  0.17770000000E+01 0. -1.
</event>
<event>
 6    1  0.1782050E-003  0.5005240E+03  0.7546771E-02  0.9398638E-01
        -11   -1    0    0    0    0  0.00000000000E+00  0.00000000000E+00  0.50000000000E+03  0.50000000000E+03  0.00000000000E+00 0.  1.
         11   -1    0    0    0    0 -0.00000000000E+00 -0.00000000000E+00 -0.50000000000E+03  0.50000000000E+03  0.00000000000E+00 0.  1.
        -11    1    1    2    0    0 -0.69161344511E+01 -0.26130045677E+01  0.39168469341E+03  0.39175446361E+03  0.00000000000E+00 0.  1.
         11    1    1    2    0    0 -0.18687757842E+01  0.68243396584E+01 -0.49942583736E+03  0.49947595633E+03  0.00000000000E+00 0.  1.
        -15    1    1    2    0    0  0.10160217185E+02 -0.53061782373E+01  0.70791297199E+02  0.71735284406E+02  0.17770000000E+01 0. -1.
         15    1    1    2    0    0 -0.13753069497E+01  0.10948431467E+01  0.36949846748E+02  0.37034295652E+02  0.17770000000E+01 0.  1.
</event>
<event>
 6    1  0.1782050E-003  0.5010645E+03  0.7546771E-02  0.9397431E-01
        -11   -1    0    0    0    0  0.00000000000E+00  0.00000000000E+00  0.50000000000E+03  0.50000000000E+03  0.00000000000E+00 0.  1.
         11   -1    0    0    0    0 -0.00000000000E+00 -0.00000000000E+00 -0.50000000000E+03  0.50000000000E+03  0.00000000000E+00 0.  1.
        -11    1    1    2    0    0  0.24885514516E+01  0.45017971686E+01  0.35503321270E+03  0.35507047355E+03  0.00000000000E+00 0.  1.
         11    1    1    2    0    0  0.70348630461E+01  0.12772731513E+00 -0.49888589208E+03  0.49893550578E+03  0.00000000000E+00 0.  1.
        -15    1    1    2    0    0 -0.37359159016E+00  0.72379393765E+01  0.22464415593E+02  0.23671396960E+02  0.17770000000E+01 0.  1.
         15    1    1    2    0    0 -0.91498229075E+01 -0.11867463860E+02  0.12138826378E+03  0.12232262371E+03  0.17770000000E+01 0. -1.
</event>
<event>
 6    1  0.1782050E-003  0.5033219E+03  0.7546771E-02  0.9392407E-01
        -11   -1    0    0    0    0  0.00000000000E+00  0.00000000000E+00  0.50000000000E+03  0.50000000000E+03  0.00000000000E+00 0. -1.
         11   -1    0    0    0    0 -0.00000000000E+00 -0.00000000000E+00 -0.50000000000E+03  0.50000000000E+03  0.00000000000E+00 0.  1.
        -11    1    1    2    0    0 -0.11589097930E+02  0.14833655914E+02  0.49632130305E+03  0.49667814568E+03  0.00000000000E+00 0. -1.
         11    1    1    2    0    0 -0.80321599533E+01 -0.19899549911E+01 -0.42280963869E+03  0.42289060770E+03  0.00000000000E+00 0.  1.
        -15    1    1    2    0    0 -0.12105850612E-01 -0.13209757031E+01 -0.38918480273E+02  0.38981418126E+02  0.17770000000E+01 0.  1.
         15    1    1    2    0    0  0.19633363734E+02 -0.11522725220E+02 -0.34593184082E+02  0.41449828491E+02  0.17770000000E+01 0. -1.
</event>
<event>
 6    1  0.1782050E-003  0.5032477E+03  0.7546771E-02  0.9392572E-01
        -11   -1    0    0    0    0  0.00000000000E+00  0.00000000000E+00  0.50000000000E+03  0.50000000000E+03  0.00000000000E+00 0.  1.
         11   -1    0    0    0    0 -0.00000000000E+00 -0.00000000000E+00 -0.50000000000E+03  0.50000000000E+03  0.00000000000E+00 0. -1.
        -11    1    1    2    0    0 -0.48979262760E+01 -0.72754593391E+01  0.49667482196E+03  0.49675225290E+03  0.00000000000E+00 0.  1.
         11    1    1    2    0    0 -0.18617369465E+01  0.81789970635E+01 -0.48305207260E+03  0.48312489783E+03  0.00000000000E+00 0. -1.
        -15    1    1    2    0    0  0.65313843411E+01  0.36871127305E+01 -0.27470031634E+01  0.81827585250E+01  0.17770000000E+01 0. -1.
         15    1    1    2    0    0  0.22827888137E+00 -0.45906504549E+01 -0.10875746193E+02  0.11940090749E+02  0.17770000000E+01 0.  1.
</event>
<event>
 6    1  0.1782050E-003  0.5120002E+03  0.7546771E-02  0.9373352E-01
        -11   -1    0    0    0    0  0.00000000000E+00  0.00000000000E+00  0.50000000000E+03  0.50000000000E+03  0.00000000000E+00 0.  1.
         11   -1    0    0    0    0 -0.00000000000E+00 -0.00000000000E+00 -0.50000000000E+03  0.50000000000E+03  0.00000000000E+00 0.  1.
        -11    1    1    2    0    0 -0.64859030765E+01  0.18946341419E+01  0.48011611818E+03  0.48016366326E+03  0.00000000000E+00 0.  1.
         11    1    1    2    0    0  0.14086747632E+02  0.68533953194E+01 -0.48774827555E+03  0.48799978052E+03  0.00000000000E+00 0.  1.
        -15    1    1    2    0    0 -0.33541303738E+01 -0.33721884045E+01 -0.10886065755E+02  0.12011910832E+02  0.17770000000E+01 0.  1.
         15    1    1    2    0    0 -0.42467141812E+01 -0.53758410568E+01  0.18518223124E+02  0.19824645396E+02  0.17770000000E+01 0. -1.
</event>
<event>
 6    1  0.1782050E-003  0.4705491E+03  0.7546771E-02  0.9468232E-01
        -11   -1    0    0    0    0  0.00000000000E+00  0.00000000000E+00  0.50000000000E+03  0.50000000000E+03  0.00000000000E+00 0. -1.
         11   -1    0    0    0    0 -0.00000000000E+00 -0.00000000000E+00 -0.50000000000E+03  0.50000000000E+03  0.00000000000E+00 0. -1.
        -11    1    1    2    0    0  0.75316231089E+01  0.52512502120E+01  0.46525992520E+03  0.46535051195E+03  0.00000000000E+00 0. -1.
         11    1    1    2    0    0 -0.64213262028E+01  0.16779432247E+02 -0.47572528394E+03  0.47606441639E+03  0.00000000000E+00 0. -1.
        -15    1    1    2    0    0 -0.39221760519E+01 -0.19205845320E+02 -0.19851874561E+02  0.27955368215E+02  0.17770000000E+01 0.  1.
         15    1    1    2    0    0  0.28118791458E+01 -0.28248371394E+01  0.30317233301E+02  0.30629703446E+02  0.17770000000E+01 0. -1.
</event>
<event>
 6    1  0.1782050E-003  0.5055764E+03  0.7546771E-02  0.9387418E-01
        -11   -1    0    0    0    0  0.00000000000E+00  0.00000000000E+00  0.50000000000E+03  0.50000000000E+03  0.00000000000E+00 0. -1.
         11   -1    0    0    0    0 -0.00000000000E+00 -0.00000000000E+00 -0.50000000000E+03  0.50000000000E+03  0.00000000000E+00 0.  1.
        -11    1    1    2    0    0 -0.73701134146E+01  0.57975979051E+01  0.49433465760E+03  0.49442358805E+03  0.00000000000E+00 0. -1.
         11    1    1    2    0    0 -0.90246414273E+01  0.10132281915E+02 -0.44493338745E+03  0.44514023247E+03  0.00000000000E+00 0.  1.
        -15    1    1    2    0    0  0.13888416098E+02 -0.10027271337E+02 -0.50797038346E+02  0.53637031106E+02  0.17770000000E+01 0. -1.
         15    1    1    2    0    0  0.25063387439E+01 -0.59026084829E+01  0.13957681947E+01  0.67991483772E+01  0.17770000000E+01 0.  1.
</event>
<event>
 6    1  0.1782050E-003  0.5036057E+03  0.7546771E-02  0.9391778E-01
        -11   -1    0    0    0    0  0.00000000000E+00  0.00000000000E+00  0.50000000000E+03  0.50000000000E+03  0.00000000000E+00 0. -1.
         11   -1    0    0    0    0 -0.00000000000E+00 -0.00000000000E+00 -0.50000000000E+03  0.50000000000E+03  0.00000000000E+00 0. -1.
        -11    1    1    2    0    0 -0.13564318497E+02  0.16231879127E+02  0.34918613810E+03  0.34982627643E+03  0.00000000000E+00 0. -1.
         11    1    1    2    0    0  0.25898016774E+02 -0.35860965193E+01 -0.49570530989E+03  0.49639432070E+03  0.00000000000E+00 0. -1.
        -15    1    1    2    0    0 -0.18513691454E+02 -0.17299258072E+02  0.14275032790E+03  0.14499253410E+03  0.17770000000E+01 0.  1.
         15    1    1    2    0    0  0.61799931770E+01  0.46534754640E+01  0.37688438911E+01  0.87868687732E+01  0.17770000000E+01 0. -1.
</event>
<event>
 6    1  0.1782050E-003  0.5044794E+03  0.7546771E-02  0.9389842E-01
        -11   -1    0    0    0    0  0.00000000000E+00  0.00000000000E+00  0.50000000000E+03  0.50000000000E+03  0.00000000000E+00 0. -1.
         11   -1    0    0    0    0 -0.00000000000E+00 -0.00000000000E+00 -0.50000000000E+03  0.50000000000E+03  0.00000000000E+00 0.  1.
        -11    1    1    2    0    0  0.63373207355E+01 -0.39643397520E+01  0.49546416787E+03  0.49552055383E+03  0.00000000000E+00 0. -1.
         11    1    1    2    0    0 -0.31501980959E+01 -0.65516217155E+01 -0.21063788894E+03  0.21076329792E+03  0.00000000000E+00 0.  1.
        -15    1    1    2    0    0  0.49157753284E+01  0.11237980276E+02 -0.28511505478E+03  0.28538431849E+03  0.17770000000E+01 0.  1.
         15    1    1    2    0    0 -0.81028979680E+01 -0.72201880872E+00  0.28877585041E+00  0.83318297590E+01  0.17770000000E+01 0. -1.
</event>
<event>
 6    1  0.1782050E-003  0.4641768E+03  0.7546771E-02  0.9483739E-01
        -11   -1    0    0    0    0  0.00000000000E+00  0.00000000000E+00  0.50000000000E+03  0.50000000000E+03  0.00000000000E+00 0.  1.
         11   -1    0    0    0    0 -0.00000000000E+00 -0.00000000000E+00 -0.50000000000E+03  0.50000000000E+03  0.00000000000E+00 0.  1.
        -11    1    1    2    0    0  0.15581074613E+01 -0.16270284022E+01  0.87574658567E+02  0.87603628597E+02  0.00000000000E+00 0.  1.
         11    1    1    2    0    0 -0.33814128024E+02  0.43934628687E+01 -0.48763217986E+03  0.48882291334E+03  0.00000000000E+00 0.  1.
        -15    1    1    2    0    0 -0.30125359691E+02 -0.34835440158E+02  0.28579825058E+03  0.28949066125E+03  0.17770000000E+01 0.  1.
         15    1    1    2    0    0  0.62381380254E+02  0.32069005692E+02  0.11425927071E+03  0.13408279681E+03  0.17770000000E+01 0. -1.
</event>
<event>
 6    1  0.1782050E-003  0.5002413E+03  0.7546771E-02  0.9399270E-01
        -11   -1    0    0    0    0  0.00000000000E+00  0.00000000000E+00  0.50000000000E+03  0.50000000000E+03  0.00000000000E+00 0. -1.
         11   -1    0    0    0    0 -0.00000000000E+00 -0.00000000000E+00 -0.50000000000E+03  0.50000000000E+03  0.00000000000E+00 0. -1.
        -11    1    1    2    0    0 -0.30537767898E+01  0.15607114004E+01  0.23147400625E+03  0.23149941024E+03  0.00000000000E+00 0. -1.
         11    1    1    2    0    0  0.77290658067E+01 -0.67132478543E+01 -0.49965383522E+03  0.49975870298E+03  0.00000000000E+00 0. -1.
        -15    1    1    2    0    0  0.76039578423E+00  0.97568369749E+01  0.16710458574E+03  0.16740034161E+03  0.17770000000E+01 0. -1.
         15    1    1    2    0    0 -0.54356848012E+01 -0.46043005209E+01  0.10107524323E+03  0.10134154517E+03  0.17770000000E+01 0.  1.
</event>
<event>
 6    1  0.1782050E-003  0.5027459E+03  0.7546771E-02  0.9393687E-01
        -11   -1    0    0    0    0  0.00000000000E+00  0.00000000000E+00  0.50000000000E+03  0.50000000000E+03  0.00000000000E+00 0.  1.
         11   -1    0    0    0    0 -0.00000000000E+00 -0.00000000000E+00 -0.50000000000E+03  0.50000000000E+03  0.00000000000E+00 0.  1.
        -11    1    1    2    0    0 -0.82298322161E+01  0.80744429618E+01  0.49712047049E+03  0.49725414925E+03  0.00000000000E+00 0.  1.
         11    1    1    2    0    0  0.73609237451E+01 -0.54552504296E+01 -0.42094913654E+03  0.42104883150E+03  0.00000000000E+00 0.  1.
        -15    1    1    2    0    0  0.38854805036E+01 -0.37133451991E+01 -0.22815078853E+00  0.56653043249E+01  0.17770000000E+01 0.  1.
         15    1    1    2    0    0 -0.30165720326E+01  0.10941526668E+01 -0.75943183160E+02  0.76031714924E+02  0.17770000000E+01 0. -1.
</event>
<event>
 6    1  0.1782050E-003  0.5037215E+03  0.7546771E-02  0.9391521E-01
        -11   -1    0    0    0    0  0.00000000000E+00  0.00000000000E+00  0.50000000000E+03  0.50000000000E+03  0.00000000000E+00 0.  1.
         11   -1    0    0    0    0 -0.00000000000E+00 -0.00000000000E+00 -0.50000000000E+03  0.50000000000E+03  0.00000000000E+00 0.  1.
        -11    1    1    2    0    0 -0.63289728469E+01  0.37050031336E+01  0.49622432506E+03  0.49627851427E+03  0.00000000000E+00 0.  1.
         11    1    1    2    0    0  0.11567293605E+02  0.14520377721E+02 -0.34866011653E+03  0.34915400686E+03  0.00000000000E+00 0.  1.
        -15    1    1    2    0    0 -0.10460065431E+01  0.25511718257E+01  0.17691769408E+01  0.37269724201E+01  0.17770000000E+01 0. -1.
         15    1    1    2    0    0 -0.41923142145E+01 -0.20776552680E+02 -0.14933338547E+03  0.15084050645E+03  0.17770000000E+01 0.  1.
</event>
<event>
 6    1  0.1782050E-003  0.5038157E+03  0.7546771E-02  0.9391312E-01
        -11   -1    0    0    0    0  0.00000000000E+00  0.00000000000E+00  0.50000000000E+03  0.50000000000E+03  0.00000000000E+00 0. -1.
         11   -1    0    0    0    0 -0.00000000000E+00 -0.00000000000E+00 -0.50000000000E+03  0.50000000000E+03  0.00000000000E+00 0. -1.
        -11    1    1    2    0    0 -0.32977684816E+01 -0.49102038062E+01  0.25216958681E+03  0.25223894602E+03  0.00000000000E+00 0. -1.
         11    1    1    2    0    0  0.30599462528E+01 -0.65774841161E+01 -0.49613125610E+03  0.49618429021E+03  0.00000000000E+00 0. -1.
        -15    1    1    2    0    0  0.62139768962E+01  0.15769957721E+02  0.15645528213E+02  0.23135370269E+02  0.17770000000E+01 0.  1.
         15    1    1    2    0    0 -0.59761546674E+01 -0.42822697992E+01  0.22831614108E+03  0.22844139350E+03  0.17770000000E+01 0. -1.
</event>
<event>
 6    1  0.1782050E-003  0.5035858E+03  0.7546771E-02  0.9391822E-01
        -11   -1    0    0    0    0  0.00000000000E+00  0.00000000000E+00  0.50000000000E+03  0.50000000000E+03  0.00000000000E+00 0. -1.
         11   -1    0    0    0    0 -0.00000000000E+00 -0.00000000000E+00 -0.50000000000E+03  0.50000000000E+03  0.00000000000E+00 0. -1.
        -11    1    1    2    0    0  0.47004766523E+01 -0.92668525511E+01  0.49630541400E+03  0.49641417486E+03  0.00000000000E+00 0. -1.
         11    1    1    2    0    0  0.77813046297E+01 -0.24198532810E+00 -0.33698458424E+03  0.33707449811E+03  0.00000000000E+00 0. -1.
        -15    1    1    2    0    0  0.10743802338E+02  0.89738232561E+01 -0.16103891306E+02  0.21411488428E+02  0.17770000000E+01 0.  1.
         15    1    1    2    0    0 -0.23225583620E+02  0.53501462316E+00 -0.14321693845E+03  0.14509983860E+03  0.17770000000E+01 0. -1.
</event>
<event>
 6    1  0.1782050E-003  0.5064884E+03  0.7546771E-02  0.9385407E-01
        -11   -1    0    0    0    0  0.00000000000E+00  0.00000000000E+00  0.50000000000E+03  0.50000000000E+03  0.00000000000E+00 0. -1.
         11   -1    0    0    0    0 -0.00000000000E+00 -0.00000000000E+00 -0.50000000000E+03  0.50000000000E+03  0.00000000000E+00 0.  1.
        -11    1    1    2    0    0  0.95100260626E+01  0.82753944782E+01  0.47156082551E+03  0.47172930257E+03  0.00000000000E+00 0. -1.
         11    1    1    2    0    0  0.63423172768E+01  0.21398742017E+01 -0.49346618864E+03  0.49351158383E+03  0.00000000000E+00 0.  1.
        -15    1    1    2    0    0 -0.16600149598E+02 -0.13970927088E+02  0.21656285498E+02  0.30706745203E+02  0.17770000000E+01 0. -1.
         15    1    1    2    0    0  0.74780625874E+00  0.35556584078E+01  0.24907762464E+00  0.40523683911E+01  0.17770000000E+01 0.  1.
</event>
<event>
 6    1  0.1782050E-003  0.5018563E+03  0.7546771E-02  0.9395666E-01
        -11   -1    0    0    0    0  0.00000000000E+00  0.00000000000E+00  0.50000000000E+03  0.50000000000E+03  0.00000000000E+00 0.  1.
         11   -1    0    0    0    0 -0.00000000000E+00 -0.00000000000E+00 -0.50000000000E+03  0.50000000000E+03  0.00000000000E+00 0.  1.
        -11    1    1    2    0    0  0.42181082532E+01 -0.62355774023E+01  0.49808682227E+03  0.49814371158E+03  0.00000000000E+00 0.  1.
         11    1    1    2    0    0  0.64113008990E+01  0.11301690145E+02 -0.46098154388E+03  0.46116463089E+03  0.00000000000E+00 0.  1.
        -15    1    1    2    0    0  0.37938167498E+00  0.20898081376E+01 -0.11877434914E+02  0.12196000067E+02  0.17770000000E+01 0. -1.
         15    1    1    2    0    0 -0.11008790827E+02 -0.71559208802E+01 -0.25227843477E+02  0.28495657470E+02  0.17770000000E+01 0.  1.
</event>
<event>
 6    1  0.1782050E-003  0.5004365E+03  0.7546771E-02  0.9398834E-01
        -11   -1    0    0    0    0  0.00000000000E+00  0.00000000000E+00  0.50000000000E+03  0.50000000000E+03  0.00000000000E+00 0. -1.
         11   -1    0    0    0    0 -0.00000000000E+00 -0.00000000000E+00 -0.50000000000E+03  0.50000000000E+03  0.00000000000E+00 0.  1.
        -11    1    1    2    0    0  0.33721103570E+01 -0.28595839841E+01  0.97780960974E+02  0.97880869826E+02  0.00000000000E+00 0. -1.
         11    1    1    2    0    0 -0.72779664598E+01 -0.99582276034E+01 -0.49941120079E+03  0.49956349202E+03  0.00000000000E+00 0.  1.
        -15    1    1    2    0    0  0.53265475493E+01  0.69130873595E+01  0.45192151858E+02  0.46061385175E+02  0.17770000000E+01 0.  1.
         15    1    1    2    0    0 -0.14206914465E+01  0.59047242280E+01  0.35643808795E+03  0.35649425298E+03  0.17770000000E+01 0. -1.
</event>
<event>
 6    1  0.1782050E-003  0.5018748E+03  0.7546771E-02  0.9395625E-01
        -11   -1    0    0    0    0  0.00000000000E+00  0.00000000000E+00  0.50000000000E+03  0.50000000000E+03  0.00000000000E+00 0. -1.
         11   -1    0    0    0    0 -0.00000000000E+00 -0.00000000000E+00 -0.50000000000E+03  0.50000000000E+03  0.00000000000E+00 0. -1.
        -11    1    1    2    0    0  0.48925497838E+01  0.70307220774E+01  0.40044157579E+03  0.40053317430E+03  0.00000000000E+00 0. -1.
         11    1    1    2    0    0  0.46881149134E+01 -0.61326446603E+01 -0.49806543271E+03  0.49812524832E+03  0.00000000000E+00 0. -1.
        -15    1    1    2    0    0 -0.14597240841E+02 -0.68649225693E+01  0.40016154520E+02  0.43181673817E+02  0.17770000000E+01 0. -1.
         15    1    1    2    0    0  0.50165761434E+01  0.59668451521E+01  0.57607702400E+02  0.58159903560E+02  0.17770000000E+01 0.  1.
</event>
<event>
 6    1  0.1782050E-003  0.5068191E+03  0.7546771E-02  0.9384679E-01
        -11   -1    0    0    0    0  0.00000000000E+00  0.00000000000E+00  0.50000000000E+03  0.50000000000E+03  0.00000000000E+00 0. -1.
         11   -1    0    0    0    0 -0.00000000000E+00 -0.00000000000E+00 -0.50000000000E+03  0.50000000000E+03  0.00000000000E+00 0. -1.
        -11    1    1    2    0    0  0.97960248958E+01 -0.12732858120E+01  0.49308196180E+03  0.49318090435E+03  0.00000000000E+00 0. -1.
         11    1    1    2    0    0  0.80363274301E+01 -0.16958629648E+02 -0.46378699691E+03  0.46416651773E+03  0.00000000000E+00 0. -1.
        -15    1    1    2    0    0 -0.12284943914E+02  0.10701855062E+02 -0.59411391497E+01  0.17432854388E+02  0.17770000000E+01 0. -1.
         15    1    1    2    0    0 -0.55474084123E+01  0.75300603985E+01 -0.23353825739E+02  0.25219723538E+02  0.17770000000E+01 0.  1.
</event>
<event>
 6    1  0.1782050E-003  0.5106668E+03  0.7546771E-02  0.9376253E-01
        -11   -1    0    0    0    0  0.00000000000E+00  0.00000000000E+00  0.50000000000E+03  0.50000000000E+03  0.00000000000E+00 0.  1.
         11   -1    0    0    0    0 -0.00000000000E+00 -0.00000000000E+00 -0.50000000000E+03  0.50000000000E+03  0.00000000000E+00 0. -1.
        -11    1    1    2    0    0 -0.27381954189E+01 -0.73980021577E+01  0.43311462963E+03  0.43318646164E+03  0.00000000000E+00 0.  1.
         11    1    1    2    0    0  0.81085185192E+01 -0.12957402319E+02 -0.48909440572E+03  0.48933319942E+03  0.00000000000E+00 0. -1.
        -15    1    1    2    0    0 -0.37003433921E+00  0.19724137224E+02 -0.13956341343E+01  0.19856586773E+02  0.17770000000E+01 0. -1.
         15    1    1    2    0    0 -0.50002887610E+01  0.63126725313E+00  0.57375410230E+02  0.57623752170E+02  0.17770000000E+01 0.  1.
</event>
<event>
 6    1  0.1782050E-003  0.5003199E+03  0.7546771E-02  0.9399094E-01
        -11   -1    0    0    0    0  0.00000000000E+00  0.00000000000E+00  0.50000000000E+03  0.50000000000E+03  0.00000000000E+00 0.  1.
         11   -1    0    0    0    0 -0.00000000000E+00 -0.00000000000E+00 -0.50000000000E+03  0.50000000000E+03  0.00000000000E+00 0. -1.
        -11    1    1    2    0    0 -0.98223964718E+00  0.61817366830E+01  0.16167787511E+03  0.16179899246E+03  0.00000000000E+00 0.  1.
         11    1    1    2    0    0  0.66418090959E+01  0.11509855167E+02 -0.49950337328E+03  0.49968010798E+03  0.00000000000E+00 0. -1.
        -15    1    1    2    0    0 -0.86005281624E+01 -0.14275957881E+02  0.27360343728E+03  0.27411634515E+03  0.17770000000E+01 0.  1.
         15    1    1    2    0    0  0.29409587137E+01 -0.34156339682E+01  0.64222060897E+02  0.64404554407E+02  0.17770000000E+01 0. -1.
</event>
<event>
 6    1  0.1782050E-003  0.5059141E+03  0.7546771E-02  0.9386673E-01
        -11   -1    0    0    0    0  0.00000000000E+00  0.00000000000E+00  0.50000000000E+03  0.50000000000E+03  0.00000000000E+00 0. -1.
         11   -1    0    0    0    0 -0.00000000000E+00 -0.00000000000E+00 -0.50000000000E+03  0.50000000000E+03  0.00000000000E+00 0. -1.
        -11    1    1    2    0    0 -0.66000768826E+01 -0.58814350383E+01  0.49400677203E+03  0.49408586612E+03  0.00000000000E+00 0. -1.
         11    1    1    2    0    0  0.69455416786E+01 -0.38740229273E+01 -0.44725572358E+03  0.44732642541E+03  0.00000000000E+00 0. -1.
        -15    1    1    2    0    0 -0.13253902044E+02 -0.34585617922E+01 -0.88984884056E+01  0.16430714956E+02  0.17770000000E+01 0. -1.
         15    1    1    2    0    0  0.12908437248E+02  0.13214019758E+02 -0.37852560047E+02  0.42156993506E+02  0.17770000000E+01 0.  1.
</event>
<event>
 6    1  0.1782050E-003  0.5002802E+03  0.7546771E-02  0.9399183E-01
        -11   -1    0    0    0    0  0.00000000000E+00  0.00000000000E+00  0.50000000000E+03  0.50000000000E+03  0.00000000000E+00 0. -1.
         11   -1    0    0    0    0 -0.00000000000E+00 -0.00000000000E+00 -0.50000000000E+03  0.50000000000E+03  0.00000000000E+00 0.  1.
        -11    1    1    2    0    0 -0.97102267889E+00 -0.36430312559E+01  0.10590768538E+03  0.10597477240E+03  0.00000000000E+00 0. -1.
         11    1    1    2    0    0  0.38063560580E+00 -0.17617903811E+02 -0.49940902082E+03  0.49971982700E+03  0.00000000000E+00 0.  1.
        -15    1    1    2    0    0 -0.10802548254E+01  0.94430290270E+01  0.81626674033E+02  0.82197380678E+02  0.17770000000E+01 0.  1.
         15    1    1    2    0    0  0.16706418984E+01  0.11817906040E+02  0.31187466140E+03  0.31210801992E+03  0.17770000000E+01 0. -1.
</event>
<event>
 6    1  0.1782050E-003  0.5046731E+03  0.7546771E-02  0.9389414E-01
        -11   -1    0    0    0    0  0.00000000000E+00  0.00000000000E+00  0.50000000000E+03  0.50000000000E+03  0.00000000000E+00 0. -1.
         11   -1    0    0    0    0 -0.00000000000E+00 -0.00000000000E+00 -0.50000000000E+03  0.50000000000E+03  0.00000000000E+00 0.  1.
        -11    1    1    2    0    0 -0.76465154280E+01 -0.79150114096E+01  0.41713440622E+03  0.41727955792E+03  0.00000000000E+00 0. -1.
         11    1    1    2    0    0  0.10316508776E+02 -0.90559395238E+01 -0.49513661028E+03  0.49532686504E+03  0.00000000000E+00 0.  1.
        -15    1    1    2    0    0  0.75121643533E+01 -0.27327628533E+01  0.54184541506E+02  0.54799843734E+02  0.17770000000E+01 0. -1.
         15    1    1    2    0    0 -0.10182157701E+02  0.19703713787E+02  0.23817662547E+02  0.32593733304E+02  0.17770000000E+01 0.  1.
</event>
<event>
 6    1  0.1782050E-003  0.5032520E+03  0.7546771E-02  0.9392562E-01
        -11   -1    0    0    0    0  0.00000000000E+00  0.00000000000E+00  0.50000000000E+03  0.50000000000E+03  0.00000000000E+00 0.  1.
         11   -1    0    0    0    0 -0.00000000000E+00 -0.00000000000E+00 -0.50000000000E+03  0.50000000000E+03  0.00000000000E+00 0.  1.
        -11    1    1    2    0    0  0.81098881890E+01 -0.16631269677E+01  0.34071506572E+03  0.34081562799E+03  0.00000000000E+00 0.  1.
         11    1    1    2    0    0 -0.20194168251E+02  0.33807179781E+00 -0.49633724932E+03  0.49674800834E+03  0.00000000000E+00 0.  1.
        -15    1    1    2    0    0  0.14645247124E+02  0.46145964316E+00  0.12682846598E+02  0.19460435123E+02  0.17770000000E+01 0.  1.
         15    1    1    2    0    0 -0.25609670625E+01  0.86359552677E+00  0.14293933701E+03  0.14297592854E+03  0.17770000000E+01 0. -1.
</event>
<event>
 6    1  0.1782050E-003  0.5088777E+03  0.7546771E-02  0.9380161E-01
        -11   -1    0    0    0    0  0.00000000000E+00  0.00000000000E+00  0.50000000000E+03  0.50000000000E+03  0.00000000000E+00 0.  1.
         11   -1    0    0    0    0 -0.00000000000E+00 -0.00000000000E+00 -0.50000000000E+03  0.50000000000E+03  0.00000000000E+00 0.  1.
        -11    1    1    2    0    0  0.18573421241E+01 -0.89521983060E+01  0.49103721866E+03  0.49112232864E+03  0.00000000000E+00 0.  1.
         11    1    1    2    0    0 -0.80386371475E+01 -0.10672137915E+02 -0.47177494493E+03  0.47196410126E+03  0.00000000000E+00 0.  1.
        -15    1    1    2    0    0 -0.16697570103E+01 -0.15221360242E+01  0.36940156408E+01  0.46806481500E+01  0.17770000000E+01 0. -1.
         15    1    1    2    0    0  0.78510520337E+01  0.21146472245E+02 -0.22956289371E+02  0.32232921946E+02  0.17770000000E+01 0.  1.
</event>
<event>
 6    1  0.1782050E-003  0.5083958E+03  0.7546771E-02  0.9381217E-01
        -11   -1    0    0    0    0  0.00000000000E+00  0.00000000000E+00  0.50000000000E+03  0.50000000000E+03  0.00000000000E+00 0. -1.
         11   -1    0    0    0    0 -0.00000000000E+00 -0.00000000000E+00 -0.50000000000E+03  0.50000000000E+03  0.00000000000E+00 0.  1.
        -11    1    1    2    0    0 -0.14679349154E+02 -0.23521266628E+01  0.49137932905E+03  0.49160417086E+03  0.00000000000E+00 0. -1.
         11    1    1    2    0    0 -0.25037592008E+02 -0.25535831798E+02 -0.33734677238E+03  0.33923709195E+03  0.00000000000E+00 0.  1.
        -15    1    1    2    0    0  0.63433313196E+01  0.86830008307E+00  0.22962071478E+01  0.70300848878E+01  0.17770000000E+01 0. -1.
         15    1    1    2    0    0  0.33373609843E+02  0.27019658377E+02 -0.15632876381E+03  0.16212865230E+03  0.17770000000E+01 0.  1.
</event>
<event>
 6    1  0.1782050E-003  0.5028384E+03  0.7546771E-02  0.9393481E-01
        -11   -1    0    0    0    0  0.00000000000E+00  0.00000000000E+00  0.50000000000E+03  0.50000000000E+03  0.00000000000E+00 0.  1.
         11   -1    0    0    0    0 -0.00000000000E+00 -0.00000000000E+00 -0.50000000000E+03  0.50000000000E+03  0.00000000000E+00 0. -1.
        -11    1    1    2    0    0 -0.41846622768E+01  0.66659516396E+01  0.45835663403E+03  0.45842420341E+03  0.00000000000E+00 0.  1.
         11    1    1    2    0    0  0.67370505980E+01  0.24208248815E+01 -0.49711009007E+03  0.49716163357E+03  0.00000000000E+00 0. -1.
        -15    1    1    2    0    0 -0.48171008601E+01 -0.68630093922E+01  0.39784039491E+01  0.94493801699E+01  0.17770000000E+01 0. -1.
         15    1    1    2    0    0  0.22647125389E+01 -0.22237671290E+01  0.34775052089E+02  0.34964782853E+02  0.17770000000E+01 0. -1.
</event>
<event>
 6    1  0.1782050E-003  0.5282664E+03  0.7546771E-02  0.9338692E-01
        -11   -1    0    0    0    0  0.00000000000E+00  0.00000000000E+00  0.50000000000E+03  0.50000000000E+03  0.00000000000E+00 0. -1.
         11   -1    0    0    0    0 -0.00000000000E+00 -0.00000000000E+00 -0.50000000000E+03  0.50000000000E+03  0.00000000000E+00 0. -1.
        -11    1    1    2    0    0  0.17659843659E+02 -0.29318275196E+01  0.47139380482E+03  0.47173359528E+03  0.00000000000E+00 0. -1.
         11    1    1    2    0    0 -0.63893101718E+00 -0.89595083293E+01 -0.45658107442E+03  0.45666941932E+03  0.00000000000E+00 0. -1.
        -15    1    1    2    0    0 -0.69719374720E+01  0.15916120705E+02 -0.40260121418E+02  0.43885828191E+02  0.17770000000E+01 0. -1.
         15    1    1    2    0    0 -0.10048975170E+02 -0.40247848566E+01  0.25447391023E+02  0.27711157211E+02  0.17770000000E+01 0.  1.
</event>
<event>
 6    1  0.1782050E-003  0.5002046E+03  0.7546771E-02  0.9399352E-01
        -11   -1    0    0    0    0  0.00000000000E+00  0.00000000000E+00  0.50000000000E+03  0.50000000000E+03  0.00000000000E+00 0. -1.
         11   -1    0    0    0    0 -0.00000000000E+00 -0.00000000000E+00 -0.50000000000E+03  0.50000000000E+03  0.00000000000E+00 0. -1.
        -11    1    1    2    0    0 -0.36737614378E+01  0.15276868331E+01  0.27380767844E+03  0.27383658471E+03  0.00000000000E+00 0. -1.
         11    1    1    2    0    0 -0.75248593526E+01 -0.24554258498E+01 -0.49973268277E+03  0.49979536497E+03  0.00000000000E+00 0. -1.
        -15    1    1    2    0    0  0.11648786475E+02  0.14837481716E+01  0.20851911557E+03  0.20885706840E+03  0.17770000000E+01 0. -1.
         15    1    1    2    0    0 -0.45016568448E+00 -0.55600915488E+00  0.17405888752E+02  0.17510981913E+02  0.17770000000E+01 0. -1.
</event>
<event>
 6    1  0.1782050E-003  0.5122488E+03  0.7546771E-02  0.9372812E-01
        -11   -1    0    0    0    0  0.00000000000E+00  0.00000000000E+00  0.50000000000E+03  0.50000000000E+03  0.00000000000E+00 0.  1.
         11   -1    0    0    0    0 -0.00000000000E+00 -0.00000000000E+00 -0.50000000000E+03  0.50000000000E+03  0.00000000000E+00 0. -1.
        -11    1    1    2    0    0 -0.12808121686E+02 -0.19463673265E+02  0.42404553171E+03  0.42468517224E+03  0.00000000000E+00 0.  1.
         11    1    1    2    0    0  0.50635033433E+01 -0.43579318316E+01 -0.48770540225E+03  0.48775115584E+03  0.00000000000E+00 0. -1.
        -15    1    1    2    0    0  0.10413155801E+02  0.14745272321E+02  0.72353806331E+02  0.74592813925E+02  0.17770000000E+01 0.  1.
         15    1    1    2    0    0 -0.26685374589E+01  0.90763327750E+01 -0.86939357828E+01  0.12970857998E+02  0.17770000000E+01 0. -1.
</event>
<event>
 6    1  0.1782050E-003  0.5003538E+03  0.7546771E-02  0.9399018E-01
        -11   -1    0    0    0    0  0.00000000000E+00  0.00000000000E+00  0.50000000000E+03  0.50000000000E+03  0.00000000000E+00 0. -1.
         11   -1    0    0    0    0 -0.00000000000E+00 -0.00000000000E+00 -0.50000000000E+03  0.50000000000E+03  0.00000000000E+00 0.  1.
        -11    1    1    2    0    0 -0.41874360852E+01 -0.71558557242E+01  0.49957743578E+03  0.49964623008E+03  0.00000000000E+00 0. -1.
         11    1    1    2    0    0 -0.21230895090E+01  0.51732700896E+01 -0.20369066828E+03  0.20376741294E+03  0.00000000000E+00 0.  1.
        -15    1    1    2    0    0  0.30109958833E+01  0.95331357729E+00 -0.94168607787E+01  0.10090089143E+02  0.17770000000E+01 0. -1.
         15    1    1    2    0    0  0.32995297108E+01  0.10292720574E+01 -0.28646990673E+03  0.28649626784E+03  0.17770000000E+01 0.  1.
</event>
<event>
 6    1  0.1782050E-003  0.5045338E+03  0.7546771E-02  0.9389722E-01
        -11   -1    0    0    0    0  0.00000000000E+00  0.00000000000E+00  0.50000000000E+03  0.50000000000E+03  0.00000000000E+00 0. -1.
         11   -1    0    0    0    0 -0.00000000000E+00 -0.00000000000E+00 -0.50000000000E+03  0.50000000000E+03  0.00000000000E+00 0.  1.
        -11    1    1    2    0    0  0.87685239692E+00 -0.13354016890E+02  0.49528540627E+03  0.49546617675E+03  0.00000000000E+00 0. -1.
         11    1    1    2    0    0 -0.14196782743E+01 -0.69146923918E+01 -0.46939287293E+03  0.46944594749E+03  0.00000000000E+00 0.  1.
        -15    1    1    2    0    0  0.17225700399E+01  0.49542882134E+01 -0.15494766726E+02  0.16454717990E+02  0.17770000000E+01 0. -1.
         15    1    1    2    0    0 -0.11797441625E+01  0.15314421068E+02 -0.10397766613E+02  0.18633157770E+02  0.17770000000E+01 0.  1.
</event>
<event>
 6    1  0.1782050E-003  0.4472527E+03  0.7546771E-02  0.9526246E-01
        -11   -1    0    0    0    0  0.00000000000E+00  0.00000000000E+00  0.50000000000E+03  0.50000000000E+03  0.00000000000E+00 0. -1.
         11   -1    0    0    0    0 -0.00000000000E+00 -0.00000000000E+00 -0.50000000000E+03  0.50000000000E+03  0.00000000000E+00 0. -1.
        -11    1    1    2    0    0  0.14168806227E+02 -0.46250347695E+02  0.42185471509E+03  0.42461894726E+03  0.00000000000E+00 0. -1.
         11    1    1    2    0    0 -0.97189373026E-01 -0.69859282280E+00 -0.18213076904E+02  0.18226728944E+02  0.00000000000E+00 0. -1.
        -15    1    1    2    0    0 -0.67941774451E+01 -0.14280152858E+01 -0.47256267220E+03  0.47261700875E+03  0.17770000000E+01 0. -1.
         15    1    1    2    0    0 -0.72774394092E+01  0.48376955803E+02  0.68921034011E+02  0.84537315047E+02  0.17770000000E+01 0.  1.
</event>
<event>
 6    1  0.1782050E-003  0.5094368E+03  0.7546771E-02  0.9378938E-01
        -11   -1    0    0    0    0  0.00000000000E+00  0.00000000000E+00  0.50000000000E+03  0.50000000000E+03  0.00000000000E+00 0. -1.
         11   -1    0    0    0    0 -0.00000000000E+00 -0.00000000000E+00 -0.50000000000E+03  0.50000000000E+03  0.00000000000E+00 0. -1.
        -11    1    1    2    0    0  0.34674797467E+02  0.60962555197E+01  0.48929823097E+03  0.49056321177E+03  0.00000000000E+00 0. -1.
         11    1    1    2    0    0 -0.35285448440E+02 -0.51186827995E+00 -0.40137033235E+03  0.40291868729E+03  0.00000000000E+00 0. -1.
        -15    1    1    2    0    0 -0.14627076402E+01 -0.24045728923E+02 -0.95928202121E+01  0.25990700678E+02  0.17770000000E+01 0. -1.
         15    1    1    2    0    0  0.20733586123E+01  0.18461341683E+02 -0.78335078413E+02  0.80527400254E+02  0.17770000000E+01 0.  1.
</event>
<event>
 6    1  0.1782050E-003  0.5078822E+03  0.7546771E-02  0.9382343E-01
        -11   -1    0    0    0    0  0.00000000000E+00  0.00000000000E+00  0.50000000000E+03  0.50000000000E+03  0.00000000000E+00 0. -1.
         11   -1    0    0    0    0 -0.00000000000E+00 -0.00000000000E+00 -0.50000000000E+03  0.50000000000E+03  0.00000000000E+00 0. -1.
        -11    1    1    2    0    0 -0.60714028198E+01 -0.82631192266E+01  0.49201092074E+03  0.49211775745E+03  0.00000000000E+00 0. -1.
         11    1    1    2    0    0  0.25363914235E+01 -0.25716277972E+02 -0.42764461319E+03  0.42842464381E+03  0.00000000000E+00 0. -1.
        -15    1    1    2    0    0 -0.56635651771E+01  0.24014595613E+02 -0.16647452660E+02  0.29817313461E+02  0.17770000000E+01 0.  1.
         15    1    1    2    0    0  0.91985765733E+01  0.99648015861E+01 -0.47718854885E+02  0.49640285275E+02  0.17770000000E+01 0. -1.
</event>
<event>
 6    1  0.1782050E-003  0.5047817E+03  0.7546771E-02  0.9389173E-01
        -11   -1    0    0    0    0  0.00000000000E+00  0.00000000000E+00  0.50000000000E+03  0.50000000000E+03  0.00000000000E+00 0. -1.
         11   -1    0    0    0    0 -0.00000000000E+00 -0.00000000000E+00 -0.50000000000E+03  0.50000000000E+03  0.00000000000E+00 0. -1.
        -11    1    1    2    0    0 -0.79955844060E+01 -0.26460162188E+01  0.49514665418E+03  0.49521827503E+03  0.00000000000E+00 0. -1.
         11    1    1    2    0    0 -0.90051148592E+01  0.98731297521E+01 -0.47758701076E+03  0.47777392523E+03  0.00000000000E+00 0. -1.
        -15    1    1    2    0    0  0.14446679778E+02 -0.27602124466E+01 -0.14650354070E+02  0.20835448945E+02  0.17770000000E+01 0. -1.
         15    1    1    2    0    0  0.25540194869E+01 -0.44669010867E+01 -0.29092893555E+01  0.61723508011E+01  0.17770000000E+01 0.  1.
</event>
<event>
 6    1  0.1782050E-003  0.5294595E+03  0.7546771E-02  0.9336202E-01
        -11   -1    0    0    0    0  0.00000000000E+00  0.00000000000E+00  0.50000000000E+03  0.50000000000E+03  0.00000000000E+00 0.  1.
         11   -1    0    0    0    0 -0.00000000000E+00 -0.00000000000E+00 -0.50000000000E+03  0.50000000000E+03  0.00000000000E+00 0.  1.
        -11    1    1    2    0    0  0.71343637484E+01  0.77030780258E+01  0.45577546861E+03  0.45589638554E+03  0.00000000000E+00 0.  1.
         11    1    1    2    0    0 -0.61131567625E+01  0.18929253801E+01 -0.47049695184E+03  0.47054047174E+03  0.00000000000E+00 0.  1.
        -15    1    1    2    0    0  0.11447771200E+02 -0.10295766554E+02 -0.26365404704E+02  0.30583436180E+02  0.17770000000E+01 0. -1.
         15    1    1    2    0    0 -0.12468978186E+02  0.69976314844E+00  0.41086887933E+02  0.42979706542E+02  0.17770000000E+01 0.  1.
</event>
<event>
 6    1  0.1782050E-003  0.5021094E+03  0.7546771E-02  0.9395102E-01
        -11   -1    0    0    0    0  0.00000000000E+00  0.00000000000E+00  0.50000000000E+03  0.50000000000E+03  0.00000000000E+00 0.  1.
         11   -1    0    0    0    0 -0.00000000000E+00 -0.00000000000E+00 -0.50000000000E+03  0.50000000000E+03  0.00000000000E+00 0.  1.
        -11    1    1    2    0    0 -0.44760563423E+00 -0.21859117892E+01  0.13576742639E+03  0.13578576004E+03  0.00000000000E+00 0.  1.
         11    1    1    2    0    0 -0.15010047884E+02  0.23048067728E+02 -0.49713024987E+03  0.49789055052E+03  0.00000000000E+00 0.  1.
        -15    1    1    2    0    0  0.17450617555E+00 -0.73463400368E+01  0.32075391805E+03  0.32084300341E+03  0.17770000000E+01 0.  1.
         15    1    1    2    0    0  0.15283147343E+02 -0.13515815902E+02  0.40608905430E+02  0.45480686026E+02  0.17770000000E+01 0. -1.
</event>
<event>
 6    1  0.1782050E-003  0.5001321E+03  0.7546771E-02  0.9399514E-01
        -11   -1    0    0    0    0  0.00000000000E+00  0.00000000000E+00  0.50000000000E+03  0.50000000000E+03  0.00000000000E+00 0. -1.
         11   -1    0    0    0    0 -0.00000000000E+00 -0.00000000000E+00 -0.50000000000E+03  0.50000000000E+03  0.00000000000E+00 0.  1.
        -11    1    1    2    0    0  0.64324676709E+01 -0.13714681604E+01  0.15088459838E+03  0.15102787687E+03  0.00000000000E+00 0. -1.
         11    1    1    2    0    0 -0.66824136241E+01 -0.52020191335E+01 -0.49979616294E+03  0.49986790270E+03  0.00000000000E+00 0.  1.
        -15    1    1    2    0    0  0.13616917697E+01 -0.18569231887E+01  0.85866896378E+02  0.85916145111E+02  0.17770000000E+01 0.  1.
         15    1    1    2    0    0 -0.11117458165E+01  0.84304104827E+01  0.26304466819E+03  0.26318807532E+03  0.17770000000E+01 0. -1.
</event>
<event>
 6    1  0.1782050E-003  0.5035255E+03  0.7546771E-02  0.9391955E-01
        -11   -1    0    0    0    0  0.00000000000E+00  0.00000000000E+00  0.50000000000E+03  0.50000000000E+03  0.00000000000E+00 0. -1.
         11   -1    0    0    0    0 -0.00000000000E+00 -0.00000000000E+00 -0.50000000000E+03  0.50000000000E+03  0.00000000000E+00 0.  1.
        -11    1    1    2    0    0 -0.97802535323E+00  0.16231362428E+02  0.49620812831E+03  0.49647449105E+03  0.00000000000E+00 0. -1.
         11    1    1    2    0    0 -0.34762580165E+01  0.50191679430E+00 -0.24927525920E+03  0.24930000229E+03  0.00000000000E+00 0.  1.
        -15    1    1    2    0    0  0.83936401282E+01 -0.25522381530E+02 -0.47879374303E+02  0.54931205759E+02  0.17770000000E+01 0. -1.
         15    1    1    2    0    0 -0.39393567585E+01  0.87891023078E+01 -0.19905349480E+03  0.19929430091E+03  0.17770000000E+01 0.  1.
</event>
<event>
 6    1  0.1782050E-003  0.5188480E+03  0.7546771E-02  0.9358596E-01
        -11   -1    0    0    0    0  0.00000000000E+00  0.00000000000E+00  0.50000000000E+03  0.50000000000E+03  0.00000000000E+00 0.  1.
         11   -1    0    0    0    0 -0.00000000000E+00 -0.00000000000E+00 -0.50000000000E+03  0.50000000000E+03  0.00000000000E+00 0.  1.
        -11    1    1    2    0    0 -0.10060466779E+02  0.47135080044E+01  0.45099748636E+03  0.45113430689E+03  0.00000000000E+00 0.  1.
         11    1    1    2    0    0 -0.21345599906E+02 -0.35167040143E+01 -0.48066546665E+03  0.48115204735E+03  0.00000000000E+00 0.  1.
        -15    1    1    2    0    0  0.21087602349E+02 -0.82583447002E+01 -0.10920916444E+02  0.25205383850E+02  0.17770000000E+01 0.  1.
         15    1    1    2    0    0  0.10318464336E+02  0.70615407101E+01  0.40588896733E+02  0.42508261908E+02  0.17770000000E+01 0. -1.
</event>
<event>
 6    1  0.1782050E-003  0.5020320E+03  0.7546771E-02  0.9395274E-01
        -11   -1    0    0    0    0  0.00000000000E+00  0.00000000000E+00  0.50000000000E+03  0.50000000000E+03  0.00000000000E+00 0.  1.
         11   -1    0    0    0    0 -0.00000000000E+00 -0.00000000000E+00 -0.50000000000E+03  0.50000000000E+03  0.00000000000E+00 0. -1.
        -11    1    1    2    0    0  0.13839864738E+01  0.79970872555E+01  0.49790181641E+03  0.49796795841E+03  0.00000000000E+00 0.  1.
         11    1    1    2    0    0 -0.92658420061E+01 -0.33661109725E+00 -0.41858237742E+03  0.41868505565E+03  0.00000000000E+00 0. -1.
        -15    1    1    2    0    0  0.35069984399E+00  0.23065790299E+01  0.97014141297E-01  0.29343547749E+01  0.17770000000E+01 0.  1.
         15    1    1    2    0    0  0.75311556883E+01 -0.99670551881E+01 -0.79416453128E+02  0.80412631169E+02  0.17770000000E+01 0. -1.
</event>
<event>
 6    1  0.1782050E-003  0.4180060E+03  0.7546771E-02  0.9604646E-01
        -11   -1    0    0    0    0  0.00000000000E+00  0.00000000000E+00  0.50000000000E+03  0.50000000000E+03  0.00000000000E+00 0. -1.
         11   -1    0    0    0    0 -0.00000000000E+00 -0.00000000000E+00 -0.50000000000E+03  0.50000000000E+03  0.00000000000E+00 0. -1.
        -11    1    1    2    0    0 -0.50526474557E+01  0.71241787351E+01  0.40525135243E+03  0.40534545984E+03  0.00000000000E+00 0. -1.
         11    1    1    2    0    0  0.89462029314E+02  0.68087459114E+02 -0.42382308784E+03  0.43848074823E+03  0.00000000000E+00 0. -1.
        -15    1    1    2    0    0 -0.28940758571E+02 -0.65133275465E+01  0.53503043069E+02  0.61202322579E+02  0.17770000000E+01 0.  1.
         15    1    1    2    0    0 -0.55468623287E+02 -0.68698310303E+02 -0.34931307652E+02  0.94971469353E+02  0.17770000000E+01 0. -1.
</event>
<event>
 6    1  0.1782050E-003  0.5001329E+03  0.7546771E-02  0.9399512E-01
        -11   -1    0    0    0    0  0.00000000000E+00  0.00000000000E+00  0.50000000000E+03  0.50000000000E+03  0.00000000000E+00 0. -1.
         11   -1    0    0    0    0 -0.00000000000E+00 -0.00000000000E+00 -0.50000000000E+03  0.50000000000E+03  0.00000000000E+00 0. -1.
        -11    1    1    2    0    0 -0.32903618727E+01 -0.69501904791E+01  0.49980796747E+03  0.49986711832E+03  0.00000000000E+00 0. -1.
         11    1    1    2    0    0  0.13903875584E+01  0.93118450168E+00 -0.47343493707E+02  0.47373058573E+02  0.00000000000E+00 0. -1.
        -15    1    1    2    0    0 -0.43160881595E+01  0.37132891271E+01 -0.35662347313E+03  0.35667334698E+03  0.17770000000E+01 0. -1.
         15    1    1    2    0    0  0.62160624738E+01  0.23057168503E+01 -0.95841000634E+02  0.96086476127E+02  0.17770000000E+01 0.  1.
</event>
<event>
 6    1  0.1782050E-003  0.5039765E+03  0.7546771E-02  0.9390956E-01
        -11   -1    0    0    0    0  0.00000000000E+00  0.00000000000E+00  0.50000000000E+03  0.50000000000E+03  0.00000000000E+00 0. -1.
         11   -1    0    0    0    0 -0.00000000000E+00 -0.00000000000E+00 -0.50000000000E+03  0.50000000000E+03  0.00000000000E+00 0. -1.
        -11    1    1    2    0    0 -0.37126473975E+01  0.60760706294E+01  0.43148548225E+03  0.43154423154E+03  0.00000000000E+00 0. -1.
         11    1    1    2    0    0 -0.13612365105E+02  0.11559733568E+02 -0.49570188949E+03  0.49602347441E+03  0.00000000000E+00 0. -1.
        -15    1    1    2    0    0  0.16701923440E+02 -0.17509050579E+02  0.65696619640E+02  0.70033739440E+02  0.17770000000E+01 0.  1.
         15    1    1    2    0    0  0.62308906217E+00 -0.12675361755E+00 -0.14802124034E+01  0.23985546102E+01  0.17770000000E+01 0. -1.
</event>
<event>
 6    1  0.1782050E-003  0.5008263E+03  0.7546771E-02  0.9397963E-01
        -11   -1    0    0    0    0  0.00000000000E+00  0.00000000000E+00  0.50000000000E+03  0.50000000000E+03  0.00000000000E+00 0.  1.
         11   -1    0    0    0    0 -0.00000000000E+00 -0.00000000000E+00 -0.50000000000E+03  0.50000000000E+03  0.00000000000E+00 0.  1.
        -11    1    1    2    0    0  0.56938636819E+01  0.36835026711E+01  0.49912761183E+03  0.49917367836E+03  0.00000000000E+00 0.  1.
         11    1    1    2    0    0  0.66130299783E+01 -0.31475324482E+01 -0.41380528180E+03  0.41387008877E+03  0.00000000000E+00 0.  1.
        -15    1    1    2    0    0 -0.93246589107E+01 -0.13740819576E+01 -0.79835177061E+02  0.80409269307E+02  0.17770000000E+01 0.  1.
         15    1    1    2    0    0 -0.29822347496E+01  0.83811173477E+00 -0.54871529610E+01  0.65469635709E+01  0.17770000000E+01 0.  1.
</event>
<event>
 6    1  0.1782050E-003  0.5098075E+03  0.7546771E-02  0.9378128E-01
        -11   -1    0    0    0    0  0.00000000000E+00  0.00000000000E+00  0.50000000000E+03  0.50000000000E+03  0.00000000000E+00 0.  1.
         11   -1    0    0    0    0 -0.00000000000E+00 -0.00000000000E+00 -0.50000000000E+03  0.50000000000E+03  0.00000000000E+00 0. -1.
        -11    1    1    2    0    0 -0.84674204313E+01 -0.76126951783E+01  0.49006020783E+03  0.49019246999E+03  0.00000000000E+00 0.  1.
         11    1    1    2    0    0 -0.21198986567E+01  0.91029920195E+01 -0.47088437711E+03  0.47097712794E+03  0.00000000000E+00 0. -1.
        -15    1    1    2    0    0  0.17325803986E+02 -0.45635106254E+01  0.20596495365E+00  0.18005811938E+02  0.17770000000E+01 0.  1.
         15    1    1    2    0    0 -0.67384848982E+01  0.30732137842E+01 -0.19381795675E+02  0.20824590134E+02  0.17770000000E+01 0. -1.
</event>
<event>
 6    1  0.1782050E-003  0.5023275E+03  0.7546771E-02  0.9394617E-01
        -11   -1    0    0    0    0  0.00000000000E+00  0.00000000000E+00  0.50000000000E+03  0.50000000000E+03  0.00000000000E+00 0.  1.
         11   -1    0    0    0    0 -0.00000000000E+00 -0.00000000000E+00 -0.50000000000E+03  0.50000000000E+03  0.00000000000E+00 0.  1.
        -11    1    1    2    0    0  0.23644529498E+01  0.14949247860E+02  0.45012185135E+03  0.45037623352E+03  0.00000000000E+00 0.  1.
         11    1    1    2    0    0  0.54343793655E+01 -0.84053724488E+01 -0.49757188487E+03  0.49767254633E+03  0.00000000000E+00 0.  1.
        -15    1    1    2    0    0 -0.17796739399E+01 -0.89535327910E+01  0.42746528375E+02  0.43746501642E+02  0.17770000000E+01 0.  1.
         15    1    1    2    0    0 -0.60191583755E+01  0.24096573798E+01  0.47035051372E+01  0.82047185091E+01  0.17770000000E+01 0. -1.
</event>
<event>
 6    1  0.1782050E-003  0.5231937E+03  0.7546771E-02  0.9349357E-01
        -11   -1    0    0    0    0  0.00000000000E+00  0.00000000000E+00  0.50000000000E+03  0.50000000000E+03  0.00000000000E+00 0. -1.
         11   -1    0    0    0    0 -0.00000000000E+00 -0.00000000000E+00 -0.50000000000E+03  0.50000000000E+03  0.00000000000E+00 0.  1.
        -11    1    1    2    0    0 -0.29535751870E+02 -0.45999039179E+02  0.25098262582E+03  0.25686679565E+03  0.00000000000E+00 0. -1.
         11    1    1    2    0    0 -0.23299365040E+02 -0.37922177607E+02 -0.47472448158E+03  0.47680633949E+03  0.00000000000E+00 0.  1.
        -15    1    1    2    0    0  0.33072964608E+02  0.69608969438E+01  0.16251261385E+03  0.16599934477E+03  0.17770000000E+01 0.  1.
         15    1    1    2    0    0  0.19762152302E+02  0.76960319843E+02  0.61229241919E+02  0.10032752010E+03  0.17770000000E+01 0. -1.
</event>
<event>
 6    1  0.1782050E-003  0.5055592E+03  0.7546771E-02  0.9387456E-01
        -11   -1    0    0    0    0  0.00000000000E+00  0.00000000000E+00  0.50000000000E+03  0.50000000000E+03  0.00000000000E+00 0.  1.
         11   -1    0    0    0    0 -0.00000000000E+00 -0.00000000000E+00 -0.50000000000E+03  0.50000000000E+03  0.00000000000E+00 0. -1.
        -11    1    1    2    0    0  0.12698886238E+01 -0.10738910098E+02  0.42666846227E+03  0.42680547502E+03  0.00000000000E+00 0.  1.
         11    1    1    2    0    0 -0.87263124603E+01  0.76783961431E+01 -0.49430415869E+03  0.49444080292E+03  0.00000000000E+00 0. -1.
        -15    1    1    2    0    0  0.72919495145E+01  0.97214500617E+01  0.70297265202E+02  0.71362051140E+02  0.17770000000E+01 0.  1.
         15    1    1    2    0    0  0.16447432201E+00 -0.66609361067E+01 -0.26615687879E+01  0.73916709229E+01  0.17770000000E+01 0. -1.
</event>
<event>
 6    1  0.2121065E-003  0.5001255E+03  0.7546771E-02  0.9399529E-01
        -11   -1    0    0    0    0  0.00000000000E+00  0.00000000000E+00  0.50000000000E+03  0.50000000000E+03  0.00000000000E+00 0.  1.
         11   -1    0    0    0    0 -0.00000000000E+00 -0.00000000000E+00 -0.50000000000E+03  0.50000000000E+03  0.00000000000E+00 0.  1.
        -11    1    1    2    0    0 -0.76733424009E+01 -0.85386252000E+01  0.49974267761E+03  0.49987451638E+03  0.00000000000E+00 0.  1.
         11    1    1    2    0    0  0.60816753106E+00  0.62201675079E+00 -0.56726935477E+02  0.56733605395E+02  0.00000000000E+00 0.  1.
        -15    1    1    2    0    0  0.80568093940E+01  0.11173219796E+02 -0.29559505900E+03  0.29592118824E+03  0.17770000000E+01 0.  1.
         15    1    1    2    0    0 -0.99163452413E+00 -0.32566113465E+01 -0.14742068314E+03  0.14747068998E+03  0.17770000000E+01 0. -1.
</event>
<event>
 6    1  0.1782050E-003  0.5007690E+03  0.7546771E-02  0.9398091E-01
        -11   -1    0    0    0    0  0.00000000000E+00  0.00000000000E+00  0.50000000000E+03  0.50000000000E+03  0.00000000000E+00 0. -1.
         11   -1    0    0    0    0 -0.00000000000E+00 -0.00000000000E+00 -0.50000000000E+03  0.50000000000E+03  0.00000000000E+00 0.  1.
        -11    1    1    2    0    0 -0.12219125114E+01 -0.54634712882E+01  0.39568586015E+03  0.39572546356E+03  0.00000000000E+00 0. -1.
         11    1    1    2    0    0 -0.46578834980E+01  0.68850843511E+01 -0.49916179979E+03  0.49923101129E+03  0.00000000000E+00 0.  1.
        -15    1    1    2    0    0 -0.42117069117E+01  0.43575967836E+01  0.36141952860E+02  0.36689584495E+02  0.17770000000E+01 0. -1.
         15    1    1    2    0    0  0.10091502921E+02 -0.57792098466E+01  0.67333986780E+02  0.68353940650E+02  0.17770000000E+01 0.  1.
</event>
<event>
 6    1  0.1782050E-003  0.5063333E+03  0.7546771E-02  0.9385749E-01
        -11   -1    0    0    0    0  0.00000000000E+00  0.00000000000E+00  0.50000000000E+03  0.50000000000E+03  0.00000000000E+00 0. -1.
         11   -1    0    0    0    0 -0.00000000000E+00 -0.00000000000E+00 -0.50000000000E+03  0.50000000000E+03  0.00000000000E+00 0.  1.
        -11    1    1    2    0    0  0.12329460231E+02 -0.16270229062E+01  0.47988068737E+03  0.48004180745E+03  0.00000000000E+00 0. -1.
         11    1    1    2    0    0  0.45742446025E+01  0.97606053982E+01 -0.49354897996E+03  0.49366667778E+03  0.00000000000E+00 0.  1.
        -15    1    1    2    0    0 -0.72615979347E+01 -0.53430544078E+01 -0.63975011286E-01  0.91891706248E+01  0.17770000000E+01 0.  1.
         15    1    1    2    0    0 -0.96421068983E+01 -0.27905280842E+01  0.13732267609E+02  0.17102344141E+02  0.17770000000E+01 0. -1.
</event>
<event>
 6    1  0.1782050E-003  0.5068722E+03  0.7546771E-02  0.9384563E-01
        -11   -1    0    0    0    0  0.00000000000E+00  0.00000000000E+00  0.50000000000E+03  0.50000000000E+03  0.00000000000E+00 0.  1.
         11   -1    0    0    0    0 -0.00000000000E+00 -0.00000000000E+00 -0.50000000000E+03  0.50000000000E+03  0.00000000000E+00 0.  1.
        -11    1    1    2    0    0 -0.74529132672E+01  0.68480414697E+01  0.47136170847E+03  0.47147036153E+03  0.00000000000E+00 0.  1.
         11    1    1    2    0    0  0.11256959529E+02  0.48896785471E+01 -0.49297509485E+03  0.49312784573E+03  0.00000000000E+00 0.  1.
        -15    1    1    2    0    0  0.51743263716E+01 -0.16716488374E+02  0.12772046831E+02  0.21737008676E+02  0.17770000000E+01 0.  1.
         15    1    1    2    0    0 -0.89783726337E+01  0.49787683569E+01  0.88413395427E+01  0.13664784060E+02  0.17770000000E+01 0. -1.
</event>
<event>
 6    1  0.1782050E-003  0.5039805E+03  0.7546771E-02  0.9390947E-01
        -11   -1    0    0    0    0  0.00000000000E+00  0.00000000000E+00  0.50000000000E+03  0.50000000000E+03  0.00000000000E+00 0. -1.
         11   -1    0    0    0    0 -0.00000000000E+00 -0.00000000000E+00 -0.50000000000E+03  0.50000000000E+03  0.00000000000E+00 0. -1.
        -11    1    1    2    0    0  0.11904025662E+02  0.37830633530E+01  0.30990442385E+03  0.31015604028E+03  0.00000000000E+00 0. -1.
         11    1    1    2    0    0 -0.46038555108E+01  0.12159898755E+02 -0.49584901052E+03  0.49601945512E+03  0.00000000000E+00 0. -1.
        -15    1    1    2    0    0  0.93540044184E+01 -0.90879564423E+01  0.89726899537E+01  0.15929696951E+02  0.17770000000E+01 0. -1.
         15    1    1    2    0    0 -0.16654174570E+02 -0.68550056655E+01  0.17697189672E+03  0.17789480765E+03  0.17770000000E+01 0.  1.
</event>
<event>
 6    1  0.1782050E-003  0.5021972E+03  0.7546771E-02  0.9394907E-01
        -11   -1    0    0    0    0  0.00000000000E+00  0.00000000000E+00  0.50000000000E+03  0.50000000000E+03  0.00000000000E+00 0.  1.
         11   -1    0    0    0    0 -0.00000000000E+00 -0.00000000000E+00 -0.50000000000E+03  0.50000000000E+03  0.00000000000E+00 0.  1.
        -11    1    1    2    0    0 -0.43476767615E+00  0.50118125778E+01  0.33389572656E+03  0.33393362141E+03  0.00000000000E+00 0.  1.
         11    1    1    2    0    0  0.53013477004E+01  0.13875153212E+02 -0.49758114665E+03  0.49780279395E+03  0.00000000000E+00 0.  1.
        -15    1    1    2    0    0 -0.23158938852E+01 -0.11452599552E+01  0.13022854027E+03  0.13026628657E+03  0.17770000000E+01 0.  1.
         15    1    1    2    0    0 -0.25506861391E+01 -0.17741705835E+02  0.33456879808E+02  0.37997298078E+02  0.17770000000E+01 0. -1.
</event>
<event>
 6    1  0.1782050E-003  0.5051807E+03  0.7546771E-02  0.9388292E-01
        -11   -1    0    0    0    0  0.00000000000E+00  0.00000000000E+00  0.50000000000E+03  0.50000000000E+03  0.00000000000E+00 0. -1.
         11   -1    0    0    0    0 -0.00000000000E+00 -0.00000000000E+00 -0.50000000000E+03  0.50000000000E+03  0.00000000000E+00 0.  1.
        -11    1    1    2    0    0  0.30259853220E+01 -0.52041500511E+01  0.37495984139E+03  0.37500816314E+03  0.00000000000E+00 0. -1.
         11    1    1    2    0    0  0.16291869094E+02 -0.38161293508E+01 -0.49453634138E+03  0.49481934156E+03  0.00000000000E+00 0.  1.
        -15    1    1    2    0    0  0.11769822006E+02  0.15322892301E+02  0.39029776982E+02  0.43586706216E+02  0.17770000000E+01 0.  1.
         15    1    1    2    0    0 -0.31087676422E+02 -0.63026128996E+01  0.80546723008E+02  0.86585789082E+02  0.17770000000E+01 0. -1.
</event>
<event>
 6    1  0.1782050E-003  0.5005486E+03  0.7546771E-02  0.9398583E-01
        -11   -1    0    0    0    0  0.00000000000E+00  0.00000000000E+00  0.50000000000E+03  0.50000000000E+03  0.00000000000E+00 0. -1.
         11   -1    0    0    0    0 -0.00000000000E+00 -0.00000000000E+00 -0.50000000000E+03  0.50000000000E+03  0.00000000000E+00 0.  1.
        -11    1    1    2    0    0 -0.12914590741E+02 -0.46748972625E+01  0.49926250731E+03  0.49945139155E+03  0.00000000000E+00 0. -1.
         11    1    1    2    0    0  0.35300504417E+01  0.25592608253E+00 -0.14175379629E+03  0.14179797430E+03  0.00000000000E+00 0.  1.
        -15    1    1    2    0    0  0.13399867679E+02  0.12909957693E+00 -0.77189264838E+02  0.78363980602E+02  0.17770000000E+01 0.  1.
         15    1    1    2    0    0 -0.40153273794E+01  0.42898716030E+01 -0.28031944618E+03  0.28038665355E+03  0.17770000000E+01 0.  1.
</event>
<event>
 6    1  0.1782050E-003  0.5003925E+03  0.7546771E-02  0.9398932E-01
        -11   -1    0    0    0    0  0.00000000000E+00  0.00000000000E+00  0.50000000000E+03  0.50000000000E+03  0.00000000000E+00 0. -1.
         11   -1    0    0    0    0 -0.00000000000E+00 -0.00000000000E+00 -0.50000000000E+03  0.50000000000E+03  0.00000000000E+00 0. -1.
        -11    1    1    2    0    0  0.63465253915E+01  0.33303965184E+01  0.21109161759E+03  0.21121325939E+03  0.00000000000E+00 0. -1.
         11    1    1    2    0    0 -0.19852163038E+01 -0.82542509697E+01 -0.49953535414E+03  0.49960748972E+03  0.00000000000E+00 0. -1.
        -15    1    1    2    0    0 -0.47960877401E+01 -0.64475378054E+01  0.16308505151E+03  0.16329257471E+03  0.17770000000E+01 0.  1.
         15    1    1    2    0    0  0.43477865239E+00  0.11371392257E+02  0.12535868505E+03  0.12588667618E+03  0.17770000000E+01 0. -1.
</event>
<event>
 6    1  0.1782050E-003  0.5113895E+03  0.7546771E-02  0.9374679E-01
        -11   -1    0    0    0    0  0.00000000000E+00  0.00000000000E+00  0.50000000000E+03  0.50000000000E+03  0.00000000000E+00 0. -1.
         11   -1    0    0    0    0 -0.00000000000E+00 -0.00000000000E+00 -0.50000000000E+03  0.50000000000E+03  0.00000000000E+00 0. -1.
        -11    1    1    2    0    0  0.87751938215E+01 -0.15017193230E+02  0.48830083779E+03  0.48861050777E+03  0.00000000000E+00 0. -1.
         11    1    1    2    0    0  0.57809158357E+01  0.23183009955E+02 -0.45310722793E+03  0.45373674189E+03  0.00000000000E+00 0. -1.
        -15    1    1    2    0    0 -0.68231025152E+01 -0.21081635865E+02 -0.36178848569E+02  0.42462417635E+02  0.17770000000E+01 0.  1.
         15    1    1    2    0    0 -0.77330071420E+01  0.12915819140E+02  0.98523870617E+00  0.15190332709E+02  0.17770000000E+01 0. -1.
</event>
<event>
 6    1  0.1782050E-003  0.5110626E+03  0.7546771E-02  0.9375391E-01
        -11   -1    0    0    0    0  0.00000000000E+00  0.00000000000E+00  0.50000000000E+03  0.50000000000E+03  0.00000000000E+00 0. -1.
         11   -1    0    0    0    0 -0.00000000000E+00 -0.00000000000E+00 -0.50000000000E+03  0.50000000000E+03  0.00000000000E+00 0.  1.
        -11    1    1    2    0    0 -0.12453486754E+02  0.49951598966E+00  0.45699498632E+03  0.45716491157E+03  0.00000000000E+00 0. -1.
         11    1    1    2    0    0  0.45326716866E+00 -0.12331465863E+02 -0.48878161548E+03  0.48893735605E+03  0.00000000000E+00 0.  1.
        -15    1    1    2    0    0  0.21101738868E+01 -0.19096606197E+01 -0.90515647616E+01  0.96534030864E+01  0.17770000000E+01 0.  1.
         15    1    1    2    0    0  0.98900456985E+01  0.13741610493E+02  0.40838193929E+02  0.44244329300E+02  0.17770000000E+01 0. -1.
</event>
<event>
 6    1  0.1782050E-003  0.5055949E+03  0.7546771E-02  0.9387377E-01
        -11   -1    0    0    0    0  0.00000000000E+00  0.00000000000E+00  0.50000000000E+03  0.50000000000E+03  0.00000000000E+00 0.  1.
         11   -1    0    0    0    0 -0.00000000000E+00 -0.00000000000E+00 -0.50000000000E+03  0.50000000000E+03  0.00000000000E+00 0.  1.
        -11    1    1    2    0    0  0.21678636726E+01  0.98060344070E+01  0.49430304613E+03  0.49440505596E+03  0.00000000000E+00 0.  1.
         11    1    1    2    0    0  0.29062705732E+01  0.57060119197E+01 -0.46447574473E+03  0.46451988378E+03  0.00000000000E+00 0.  1.
        -15    1    1    2    0    0  0.23855433465E+01 -0.61175026379E+01  0.19384799429E+01  0.70731951106E+01  0.17770000000E+01 0.  1.
         15    1    1    2    0    0 -0.74596775923E+01 -0.93945436888E+01 -0.31765781341E+02  0.34001865156E+02  0.17770000000E+01 0. -1.
</event>
<event>
 6    1  0.1782050E-003  0.5117369E+03  0.7546771E-02  0.9373924E-01
        -11   -1    0    0    0    0  0.00000000000E+00  0.00000000000E+00  0.50000000000E+03  0.50000000000E+03  0.00000000000E+00 0. -1.
         11   -1    0    0    0    0 -0.00000000000E+00 -0.00000000000E+00 -0.50000000000E+03  0.50000000000E+03  0.00000000000E+00 0. -1.
        -11    1    1    2    0    0  0.10127422703E+02  0.18410934480E+01  0.47209762091E+03  0.47220982411E+03  0.00000000000E+00 0. -1.
         11    1    1    2    0    0 -0.80763004293E+01 -0.20153779898E+01 -0.48819217989E+03  0.48826313898E+03  0.00000000000E+00 0. -1.
        -15    1    1    2    0    0 -0.74993117371E+01 -0.11382992015E+01  0.26474961672E+02  0.27597404337E+02  0.17770000000E+01 0. -1.
         15    1    1    2    0    0  0.54481894632E+01  0.13125837434E+01 -0.10380402687E+02  0.11929632578E+02  0.17770000000E+01 0.  1.
</event>
<event>
 6    1  0.1782050E-003  0.5033014E+03  0.7546771E-02  0.9392453E-01
        -11   -1    0    0    0    0  0.00000000000E+00  0.00000000000E+00  0.50000000000E+03  0.50000000000E+03  0.00000000000E+00 0.  1.
         11   -1    0    0    0    0 -0.00000000000E+00 -0.00000000000E+00 -0.50000000000E+03  0.50000000000E+03  0.00000000000E+00 0.  1.
        -11    1    1    2    0    0  0.91492236931E+01 -0.61466611585E+01  0.43990945251E+03  0.44004751579E+03  0.00000000000E+00 0.  1.
         11    1    1    2    0    0 -0.56193132406E+01 -0.52301563304E+01 -0.49663923282E+03  0.49669855928E+03  0.00000000000E+00 0.  1.
        -15    1    1    2    0    0  0.39376847451E+01  0.45556772405E+01  0.73024661275E+00  0.63206443807E+01  0.17770000000E+01 0.  1.
         15    1    1    2    0    0 -0.74675951976E+01  0.68211402484E+01  0.55999533689E+02  0.56933280555E+02  0.17770000000E+01 0. -1.
</event>
<event>
 6    1  0.1782050E-003  0.5051181E+03  0.7546771E-02  0.9388430E-01
        -11   -1    0    0    0    0  0.00000000000E+00  0.00000000000E+00  0.50000000000E+03  0.50000000000E+03  0.00000000000E+00 0. -1.
         11   -1    0    0    0    0 -0.00000000000E+00 -0.00000000000E+00 -0.50000000000E+03  0.50000000000E+03  0.00000000000E+00 0. -1.
        -11    1    1    2    0    0  0.37062264112E+00 -0.78524155231E+01  0.48431362460E+03  0.48437741975E+03  0.00000000000E+00 0. -1.
         11    1    1    2    0    0 -0.63009502414E+01 -0.55256924324E+01 -0.49481090735E+03  0.49488187408E+03  0.00000000000E+00 0. -1.
        -15    1    1    2    0    0 -0.13329733150E+01  0.75908516565E+01  0.23272178414E+01  0.82444841325E+01  0.17770000000E+01 0.  1.
         15    1    1    2    0    0  0.72633009153E+01  0.57872562991E+01  0.81700649166E+01  0.12496222045E+02  0.17770000000E+01 0. -1.
</event>
<event>
 6    1  0.1782050E-003  0.5372900E+03  0.7546771E-02  0.9320031E-01
        -11   -1    0    0    0    0  0.00000000000E+00  0.00000000000E+00  0.50000000000E+03  0.50000000000E+03  0.00000000000E+00 0. -1.
         11   -1    0    0    0    0 -0.00000000000E+00 -0.00000000000E+00 -0.50000000000E+03  0.50000000000E+03  0.00000000000E+00 0. -1.
        -11    1    1    2    0    0  0.12671312499E+02 -0.72656785242E+00  0.41387703473E+03  0.41407160001E+03  0.00000000000E+00 0. -1.
         11    1    1    2    0    0  0.77528270126E+01 -0.86262770516E+01 -0.46256464828E+03  0.46271003104E+03  0.00000000000E+00 0. -1.
        -15    1    1    2    0    0  0.14250467617E+02  0.22603215592E+02  0.73705300446E+02  0.78419450554E+02  0.17770000000E+01 0. -1.
         15    1    1    2    0    0 -0.34674607129E+02 -0.13250370688E+02 -0.25017686895E+02  0.44798918396E+02  0.17770000000E+01 0.  1.
</event>
<event>
 6    1  0.1782050E-003  0.5021597E+03  0.7546771E-02  0.9394990E-01
        -11   -1    0    0    0    0  0.00000000000E+00  0.00000000000E+00  0.50000000000E+03  0.50000000000E+03  0.00000000000E+00 0.  1.
         11   -1    0    0    0    0 -0.00000000000E+00 -0.00000000000E+00 -0.50000000000E+03  0.50000000000E+03  0.00000000000E+00 0.  1.
        -11    1    1    2    0    0  0.81643074804E+01  0.28588892724E+01  0.49776514800E+03  0.49784030745E+03  0.00000000000E+00 0.  1.
         11    1    1    2    0    0  0.72367676960E+01 -0.44739499462E+01 -0.33682022341E+03  0.33692766276E+03  0.00000000000E+00 0.  1.
        -15    1    1    2    0    0 -0.40175711611E+01  0.54633974983E+01 -0.14508767066E+03  0.14525694303E+03  0.17770000000E+01 0.  1.
         15    1    1    2    0    0 -0.11383504015E+02 -0.38483368245E+01 -0.15857253920E+02  0.19975086755E+02  0.17770000000E+01 0. -1.
</event>
<event>
 6    1  0.1782050E-003  0.5020236E+03  0.7546771E-02  0.9395293E-01
        -11   -1    0    0    0    0  0.00000000000E+00  0.00000000000E+00  0.50000000000E+03  0.50000000000E+03  0.00000000000E+00 0.  1.
         11   -1    0    0    0    0 -0.00000000000E+00 -0.00000000000E+00 -0.50000000000E+03  0.50000000000E+03  0.00000000000E+00 0.  1.
        -11    1    1    2    0    0 -0.10047407632E+02  0.47333891845E+01  0.87856937965E+02  0.88556179467E+02  0.00000000000E+00 0.  1.
         11    1    1    2    0    0  0.17629613030E+02 -0.27645124731E+01 -0.49765660401E+03  0.49797644653E+03  0.00000000000E+00 0.  1.
        -15    1    1    2    0    0 -0.99258965727E+01 -0.35733323513E+01  0.40997297840E+03  0.41011253684E+03  0.17770000000E+01 0.  1.
         15    1    1    2    0    0  0.23436911746E+01  0.16044556399E+01 -0.17331235509E+00  0.33548371636E+01  0.17770000000E+01 0. -1.
</event>
<event>
 6    1  0.1782050E-003  0.5105806E+03  0.7546771E-02  0.9376441E-01
        -11   -1    0    0    0    0  0.00000000000E+00  0.00000000000E+00  0.50000000000E+03  0.50000000000E+03  0.00000000000E+00 0. -1.
         11   -1    0    0    0    0 -0.00000000000E+00 -0.00000000000E+00 -0.50000000000E+03  0.50000000000E+03  0.00000000000E+00 0. -1.
        -11    1    1    2    0    0 -0.33114920178E+01 -0.87074579330E+01  0.47107995008E+03  0.47117205474E+03  0.00000000000E+00 0. -1.
         11    1    1    2    0    0  0.66708865399E+01 -0.10107956597E+02 -0.48926955853E+03  0.48941942383E+03  0.00000000000E+00 0. -1.
        -15    1    1    2    0    0 -0.67819051248E+01  0.16717703140E+02 -0.24627240773E+01  0.18294769041E+02  0.17770000000E+01 0. -1.
         15    1    1    2    0    0  0.34225106027E+01  0.20977113905E+01  0.20652332534E+02  0.21113752391E+02  0.17770000000E+01 0.  1.
</event>
<event>
 6    1  0.1782050E-003  0.5010177E+03  0.7546771E-02  0.9397535E-01
        -11   -1    0    0    0    0  0.00000000000E+00  0.00000000000E+00  0.50000000000E+03  0.50000000000E+03  0.00000000000E+00 0.  1.
         11   -1    0    0    0    0 -0.00000000000E+00 -0.00000000000E+00 -0.50000000000E+03  0.50000000000E+03  0.00000000000E+00 0.  1.
        -11    1    1    2    0    0  0.26491719039E+01 -0.11140742689E+02  0.49885087066E+03  0.49898228969E+03  0.00000000000E+00 0.  1.
         11    1    1    2    0    0  0.56287498928E+00  0.26813691780E+01 -0.17249024225E+03  0.17251200028E+03  0.00000000000E+00 0.  1.
        -15    1    1    2    0    0 -0.29351201623E+01 -0.30620190924E+01 -0.45008694370E+01  0.64347840662E+01  0.17770000000E+01 0. -1.
         15    1    1    2    0    0 -0.27692673079E+00  0.11521392603E+02 -0.32185975898E+03  0.32207092597E+03  0.17770000000E+01 0.  1.
</event>
<event>
 6    1  0.1782050E-003  0.5047034E+03  0.7546771E-02  0.9389347E-01
        -11   -1    0    0    0    0  0.00000000000E+00  0.00000000000E+00  0.50000000000E+03  0.50000000000E+03  0.00000000000E+00 0. -1.
         11   -1    0    0    0    0 -0.00000000000E+00 -0.00000000000E+00 -0.50000000000E+03  0.50000000000E+03  0.00000000000E+00 0.  1.
        -11    1    1    2    0    0  0.17633031709E+02  0.13582420404E+02  0.49479624890E+03  0.49529661202E+03  0.00000000000E+00 0. -1.
         11    1    1    2    0    0 -0.17182085840E+02  0.16879967393E+01 -0.38009024938E+03  0.38048215606E+03  0.00000000000E+00 0.  1.
        -15    1    1    2    0    0 -0.10671721561E+02 -0.18602527155E+02 -0.21636774842E+02  0.30516346639E+02  0.17770000000E+01 0.  1.
         15    1    1    2    0    0  0.10220775693E+02  0.33321100113E+01 -0.93069224681E+02  0.93704885276E+02  0.17770000000E+01 0. -1.
</event>
<event>
 6    1  0.1782050E-003  0.5004932E+03  0.7546771E-02  0.9398707E-01
        -11   -1    0    0    0    0  0.00000000000E+00  0.00000000000E+00  0.50000000000E+03  0.50000000000E+03  0.00000000000E+00 0.  1.
         11   -1    0    0    0    0 -0.00000000000E+00 -0.00000000000E+00 -0.50000000000E+03  0.50000000000E+03  0.00000000000E+00 0. -1.
        -11    1    1    2    0    0  0.49860779547E+00  0.45942124279E+01  0.11119000763E+03  0.11128599730E+03  0.00000000000E+00 0.  1.
         11    1    1    2    0    0  0.15521456414E+02  0.44317628922E+01 -0.49924591482E+03  0.49950679635E+03  0.00000000000E+00 0. -1.
        -15    1    1    2    0    0  0.27249128632E+01  0.23737248233E+00  0.90332843899E+01  0.96041372167E+01  0.17770000000E+01 0.  1.
         15    1    1    2    0    0 -0.18744977073E+02 -0.92633478025E+01  0.37902262280E+03  0.37960306914E+03  0.17770000000E+01 0.  1.
</event>
<event>
 6    1  0.1782050E-003  0.5055278E+03  0.7546771E-02  0.9387525E-01
        -11   -1    0    0    0    0  0.00000000000E+00  0.00000000000E+00  0.50000000000E+03  0.50000000000E+03  0.00000000000E+00 0. -1.
         11   -1    0    0    0    0 -0.00000000000E+00 -0.00000000000E+00 -0.50000000000E+03  0.50000000000E+03  0.00000000000E+00 0.  1.
        -11    1    1    2    0    0  0.11096623831E+02  0.44917574612E+01  0.45113448526E+03  0.45129329126E+03  0.00000000000E+00 0. -1.
         11    1    1    2    0    0  0.14610264189E+02 -0.89497647671E+01 -0.49417531970E+03  0.49447224867E+03  0.00000000000E+00 0.  1.
        -15    1    1    2    0    0 -0.18565434373E+02 -0.23395244526E+01  0.13781129324E+02  0.23307208812E+02  0.17770000000E+01 0.  1.
         15    1    1    2    0    0 -0.71414536460E+01  0.67975317586E+01  0.29259705112E+02  0.30927251259E+02  0.17770000000E+01 0. -1.
</event>
<event>
 6    1  0.1782050E-003  0.5044158E+03  0.7546771E-02  0.9389983E-01
        -11   -1    0    0    0    0  0.00000000000E+00  0.00000000000E+00  0.50000000000E+03  0.50000000000E+03  0.00000000000E+00 0. -1.
         11   -1    0    0    0    0 -0.00000000000E+00 -0.00000000000E+00 -0.50000000000E+03  0.50000000000E+03  0.00000000000E+00 0.  1.
        -11    1    1    2    0    0  0.92084978087E+01 -0.72206951824E+01  0.46684942320E+03  0.46699605867E+03  0.00000000000E+00 0. -1.
         11    1    1    2    0    0  0.45414116043E+01 -0.71324691510E+01 -0.49551205183E+03  0.49558419067E+03  0.00000000000E+00 0.  1.
        -15    1    1    2    0    0 -0.49625086045E+01  0.52273747445E+01  0.21527791117E+02  0.22771812790E+02  0.17770000000E+01 0.  1.
         15    1    1    2    0    0 -0.87874008085E+01  0.91257895889E+01  0.71348375071E+01  0.14647937870E+02  0.17770000000E+01 0.  1.
</event>
<event>
 6    1  0.1782050E-003  0.5044341E+03  0.7546771E-02  0.9389942E-01
        -11   -1    0    0    0    0  0.00000000000E+00  0.00000000000E+00  0.50000000000E+03  0.50000000000E+03  0.00000000000E+00 0. -1.
         11   -1    0    0    0    0 -0.00000000000E+00 -0.00000000000E+00 -0.50000000000E+03  0.50000000000E+03  0.00000000000E+00 0.  1.
        -11    1    1    2    0    0  0.15670803029E+02  0.12899558773E+02  0.49515005985E+03  0.49556589315E+03  0.00000000000E+00 0. -1.
         11    1    1    2    0    0 -0.13303166192E+02 -0.12629796398E+02 -0.44550196245E+03  0.44587945068E+03  0.00000000000E+00 0.  1.
        -15    1    1    2    0    0 -0.16488219436E+02 -0.40798217465E+00 -0.23206451379E+02  0.28525864478E+02  0.17770000000E+01 0.  1.
         15    1    1    2    0    0  0.14120582599E+02  0.13821980035E+00 -0.26441646016E+02  0.30028791695E+02  0.17770000000E+01 0. -1.
</event>
<event>
 6    1  0.1782050E-003  0.5082915E+03  0.7546771E-02  0.9381446E-01
        -11   -1    0    0    0    0  0.00000000000E+00  0.00000000000E+00  0.50000000000E+03  0.50000000000E+03  0.00000000000E+00 0. -1.
         11   -1    0    0    0    0 -0.00000000000E+00 -0.00000000000E+00 -0.50000000000E+03  0.50000000000E+03  0.00000000000E+00 0.  1.
        -11    1    1    2    0    0  0.15054903523E+02  0.55633291584E+00  0.49147769132E+03  0.49170853225E+03  0.00000000000E+00 0. -1.
         11    1    1    2    0    0  0.83190204972E+01  0.24457877273E+01 -0.38001909215E+03  0.38011800586E+03  0.00000000000E+00 0.  1.
        -15    1    1    2    0    0 -0.69923995429E+01 -0.75663767367E+00 -0.11130670655E+03  0.11154284740E+03  0.17770000000E+01 0. -1.
         15    1    1    2    0    0 -0.16381524478E+02 -0.22454829695E+01 -0.15189261395E+00  0.16630614491E+02  0.17770000000E+01 0.  1.
</event>
<event>
 6    1  0.1782050E-003  0.5002645E+03  0.7546771E-02  0.9399218E-01
        -11   -1    0    0    0    0  0.00000000000E+00  0.00000000000E+00  0.50000000000E+03  0.50000000000E+03  0.00000000000E+00 0.  1.
         11   -1    0    0    0    0 -0.00000000000E+00 -0.00000000000E+00 -0.50000000000E+03  0.50000000000E+03  0.00000000000E+00 0. -1.
        -11    1    1    2    0    0 -0.10551312551E+00 -0.22563531142E+01  0.47751821089E+02  0.47805216030E+02  0.00000000000E+00 0.  1.
         11    1    1    2    0    0  0.11480439589E+02 -0.10058936798E+02 -0.49950238656E+03  0.49973554695E+03  0.00000000000E+00 0. -1.
        -15    1    1    2    0    0 -0.33741750561E+01 -0.32427861279E+01  0.21428848572E+03  0.21434694670E+03  0.17770000000E+01 0.  1.
         15    1    1    2    0    0 -0.80007514072E+01  0.15558076040E+02  0.23746207975E+03  0.23811229032E+03  0.17770000000E+01 0. -1.
</event>
<event>
 6    1  0.1782050E-003  0.5062890E+03  0.7546771E-02  0.9385847E-01
        -11   -1    0    0    0    0  0.00000000000E+00  0.00000000000E+00  0.50000000000E+03  0.50000000000E+03  0.00000000000E+00 0. -1.
         11   -1    0    0    0    0 -0.00000000000E+00 -0.00000000000E+00 -0.50000000000E+03  0.50000000000E+03  0.00000000000E+00 0. -1.
        -11    1    1    2    0    0  0.54702740291E+01 -0.10656707308E+02  0.49356566739E+03  0.49371100588E+03  0.00000000000E+00 0. -1.
         11    1    1    2    0    0  0.29691323946E+01  0.30381586015E+02 -0.45775190217E+03  0.45876863500E+03  0.00000000000E+00 0. -1.
        -15    1    1    2    0    0 -0.10288309083E+02 -0.20278899845E+02 -0.16804146413E+02  0.28330551501E+02  0.17770000000E+01 0. -1.
         15    1    1    2    0    0  0.18489026596E+01  0.55402113786E+00 -0.19009618802E+02  0.19189807619E+02  0.17770000000E+01 0.  1.
</event>
<event>
 6    1  0.1782050E-003  0.5028859E+03  0.7546771E-02  0.9393375E-01
        -11   -1    0    0    0    0  0.00000000000E+00  0.00000000000E+00  0.50000000000E+03  0.50000000000E+03  0.00000000000E+00 0. -1.
         11   -1    0    0    0    0 -0.00000000000E+00 -0.00000000000E+00 -0.50000000000E+03  0.50000000000E+03  0.00000000000E+00 0. -1.
        -11    1    1    2    0    0 -0.10941698280E+01 -0.67787463122E+01  0.48391382186E+03  0.48396253532E+03  0.00000000000E+00 0. -1.
         11    1    1    2    0    0  0.89201132878E+00  0.74001524144E+01 -0.49705822852E+03  0.49711411213E+03  0.00000000000E+00 0. -1.
        -15    1    1    2    0    0  0.58133022275E+00 -0.49844890182E+01  0.40908521219E+00  0.53393028863E+01  0.17770000000E+01 0. -1.
         15    1    1    2    0    0 -0.37917172350E+00  0.43630829161E+01  0.12735321449E+02  0.13584049659E+02  0.17770000000E+01 0. -1.
</event>
<event>
 6    1  0.1782050E-003  0.5056755E+03  0.7546771E-02  0.9387199E-01
        -11   -1    0    0    0    0  0.00000000000E+00  0.00000000000E+00  0.50000000000E+03  0.50000000000E+03  0.00000000000E+00 0. -1.
         11   -1    0    0    0    0 -0.00000000000E+00 -0.00000000000E+00 -0.50000000000E+03  0.50000000000E+03  0.00000000000E+00 0. -1.
        -11    1    1    2    0    0  0.50856046603E+01 -0.20208122656E+02  0.43258674067E+03  0.43308835103E+03  0.00000000000E+00 0. -1.
         11    1    1    2    0    0 -0.78471314729E+01 -0.23896046435E+01 -0.49425643366E+03  0.49432449858E+03  0.00000000000E+00 0. -1.
        -15    1    1    2    0    0  0.32421609675E+01 -0.59723847009E+00 -0.23831379666E+01  0.44390739009E+01  0.17770000000E+01 0.  1.
         15    1    1    2    0    0 -0.48063415488E+00  0.23194965770E+02  0.64052830956E+02  0.68148076485E+02  0.17770000000E+01 0. -1.
</event>
<event>
 6    1  0.1782050E-003  0.5037451E+03  0.7546771E-02  0.9391469E-01
        -11   -1    0    0    0    0  0.00000000000E+00  0.00000000000E+00  0.50000000000E+03  0.50000000000E+03  0.00000000000E+00 0. -1.
         11   -1    0    0    0    0 -0.00000000000E+00 -0.00000000000E+00 -0.50000000000E+03  0.50000000000E+03  0.00000000000E+00 0. -1.
        -11    1    1    2    0    0  0.19419623773E+01 -0.90672149615E+01  0.47379360980E+03  0.47388434274E+03  0.00000000000E+00 0. -1.
         11    1    1    2    0    0  0.37953873711E+01 -0.72967995456E+01 -0.49618674463E+03  0.49625490808E+03  0.00000000000E+00 0. -1.
        -15    1    1    2    0    0  0.21054915603E+01  0.57021365926E+01  0.83731390411E+01  0.10498316190E+02  0.17770000000E+01 0.  1.
         15    1    1    2    0    0 -0.78428413087E+01  0.10661877914E+02  0.14019995788E+02  0.19362432991E+02  0.17770000000E+01 0. -1.
</event>
<event>
 6    1  0.1782050E-003  0.5018887E+03  0.7546771E-02  0.9395593E-01
        -11   -1    0    0    0    0  0.00000000000E+00  0.00000000000E+00  0.50000000000E+03  0.50000000000E+03  0.00000000000E+00 0. -1.
         11   -1    0    0    0    0 -0.00000000000E+00 -0.00000000000E+00 -0.50000000000E+03  0.50000000000E+03  0.00000000000E+00 0. -1.
        -11    1    1    2    0    0 -0.84922824102E+01 -0.41107819105E+01  0.10167264615E+03  0.10210947245E+03  0.00000000000E+00 0. -1.
         11    1    1    2    0    0  0.92143466061E+01 -0.13143334772E+02 -0.49785258099E+03  0.49811127655E+03  0.00000000000E+00 0. -1.
        -15    1    1    2    0    0  0.65915856086E+01  0.10282092928E+02  0.38240205090E+03  0.38260117184E+03  0.17770000000E+01 0. -1.
         15    1    1    2    0    0 -0.73136498045E+01  0.69720237546E+01  0.13777883933E+02  0.17178079153E+02  0.17770000000E+01 0.  1.
</event>
<event>
 6    1  0.1782050E-003  0.5093552E+03  0.7546771E-02  0.9379117E-01
        -11   -1    0    0    0    0  0.00000000000E+00  0.00000000000E+00  0.50000000000E+03  0.50000000000E+03  0.00000000000E+00 0.  1.
         11   -1    0    0    0    0 -0.00000000000E+00 -0.00000000000E+00 -0.50000000000E+03  0.50000000000E+03  0.00000000000E+00 0. -1.
        -11    1    1    2    0    0  0.21521403536E+02 -0.27791421296E+02  0.48938411796E+03  0.49064482961E+03  0.00000000000E+00 0.  1.
         11    1    1    2    0    0  0.73971517218E+01  0.33934195763E+01 -0.42411063765E+03  0.42418871522E+03  0.00000000000E+00 0. -1.
        -15    1    1    2    0    0 -0.73806198345E+01  0.30153394414E+02 -0.46650111230E+02  0.56063279877E+02  0.17770000000E+01 0. -1.
         15    1    1    2    0    0 -0.21537935423E+02 -0.57553926944E+01 -0.18623369081E+02  0.29103175296E+02  0.17770000000E+01 0.  1.
</event>
<event>
 6    1  0.1782050E-003  0.5004166E+03  0.7546771E-02  0.9398878E-01
        -11   -1    0    0    0    0  0.00000000000E+00  0.00000000000E+00  0.50000000000E+03  0.50000000000E+03  0.00000000000E+00 0. -1.
         11   -1    0    0    0    0 -0.00000000000E+00 -0.00000000000E+00 -0.50000000000E+03  0.50000000000E+03  0.00000000000E+00 0. -1.
        -11    1    1    2    0    0  0.84657458015E-01 -0.15181832421E+01  0.25777425677E+02  0.25822233090E+02  0.00000000000E+00 0. -1.
         11    1    1    2    0    0 -0.14544644570E+02 -0.83710459351E+01 -0.49930150807E+03  0.49958344354E+03  0.00000000000E+00 0. -1.
        -15    1    1    2    0    0 -0.59148471259E+01  0.39883297478E+01  0.50210171006E+02  0.50745553423E+02  0.17770000000E+01 0.  1.
         15    1    1    2    0    0  0.20374834238E+02  0.59008994295E+01  0.42331391139E+03  0.42384876995E+03  0.17770000000E+01 0. -1.
</event>
<event>
 6    1  0.1782050E-003  0.5004250E+03  0.7546771E-02  0.9398859E-01
        -11   -1    0    0    0    0  0.00000000000E+00  0.00000000000E+00  0.50000000000E+03  0.50000000000E+03  0.00000000000E+00 0.  1.
         11   -1    0    0    0    0 -0.00000000000E+00 -0.00000000000E+00 -0.50000000000E+03  0.50000000000E+03  0.00000000000E+00 0.  1.
        -11    1    1    2    0    0  0.70101699683E+01 -0.28122935153E+01  0.33822476079E+03  0.33830908987E+03  0.00000000000E+00 0.  1.
         11    1    1    2    0    0 -0.22124194488E+01 -0.64180684438E+01 -0.49952892045E+03  0.49957504818E+03  0.00000000000E+00 0.  1.
        -15    1    1    2    0    0  0.10892999783E+01  0.84200842180E+01  0.60212057052E+02  0.60833657922E+02  0.17770000000E+01 0. -1.
         15    1    1    2    0    0 -0.58870504978E+01  0.81027774109E+00  0.10109210261E+03  0.10128220403E+03  0.17770000000E+01 0.  1.
</event>
<event>
 6    1  0.1782050E-003  0.5005385E+03  0.7546771E-02  0.9398606E-01
        -11   -1    0    0    0    0  0.00000000000E+00  0.00000000000E+00  0.50000000000E+03  0.50000000000E+03  0.00000000000E+00 0.  1.
         11   -1    0    0    0    0 -0.00000000000E+00 -0.00000000000E+00 -0.50000000000E+03  0.50000000000E+03  0.00000000000E+00 0.  1.
        -11    1    1    2    0    0  0.18760032062E+01 -0.61880775719E+01  0.34290435021E+03  0.34296531178E+03  0.00000000000E+00 0.  1.
         11    1    1    2    0    0  0.93259130282E+01 -0.38763485057E+01 -0.49935935922E+03  0.49946147837E+03  0.00000000000E+00 0.  1.
        -15    1    1    2    0    0 -0.18521057511E+01  0.34696262303E+01  0.90977464172E+02  0.91079774473E+02  0.17770000000E+01 0. -1.
         15    1    1    2    0    0 -0.93498104834E+01  0.65947998473E+01  0.65477544843E+02  0.66493435381E+02  0.17770000000E+01 0.  1.
</event>
<event>
 6    1  0.1782050E-003  0.5125432E+03  0.7546771E-02  0.9372173E-01
        -11   -1    0    0    0    0  0.00000000000E+00  0.00000000000E+00  0.50000000000E+03  0.50000000000E+03  0.00000000000E+00 0.  1.
         11   -1    0    0    0    0 -0.00000000000E+00 -0.00000000000E+00 -0.50000000000E+03  0.50000000000E+03  0.00000000000E+00 0.  1.
        -11    1    1    2    0    0 -0.27397564051E+02 -0.72912971966E+01  0.15829221038E+03  0.16081111093E+03  0.00000000000E+00 0.  1.
         11    1    1    2    0    0  0.27059691626E+02  0.35244102698E+02 -0.48542736805E+03  0.48745677074E+03  0.00000000000E+00 0.  1.
        -15    1    1    2    0    0  0.64909442459E+01  0.34709143449E+02  0.25504076996E+02  0.43594410978E+02  0.17770000000E+01 0. -1.
         15    1    1    2    0    0 -0.61530718209E+01 -0.62661948950E+02  0.30163108067E+03  0.30813770735E+03  0.17770000000E+01 0.  1.
</event>
<event>
 6    1  0.1782050E-003  0.5144980E+03  0.7546771E-02  0.9367941E-01
        -11   -1    0    0    0    0  0.00000000000E+00  0.00000000000E+00  0.50000000000E+03  0.50000000000E+03  0.00000000000E+00 0. -1.
         11   -1    0    0    0    0 -0.00000000000E+00 -0.00000000000E+00 -0.50000000000E+03  0.50000000000E+03  0.00000000000E+00 0.  1.
        -11    1    1    2    0    0 -0.25777468269E+01  0.75018413531E+01  0.33844592276E+03  0.33853886783E+03  0.00000000000E+00 0. -1.
         11    1    1    2    0    0 -0.25581415571E+02  0.29200349255E+02 -0.48394739554E+03  0.48550195763E+03  0.00000000000E+00 0.  1.
        -15    1    1    2    0    0  0.64922081907E+01 -0.12525180222E+02  0.14261000377E+03  0.14331713021E+03  0.17770000000E+01 0. -1.
         15    1    1    2    0    0  0.21666954207E+02 -0.24177010386E+02  0.28914690122E+01  0.32642044327E+02  0.17770000000E+01 0. -1.
</event>
<event>
 6    1  0.1782050E-003  0.5370369E+03  0.7546771E-02  0.9320549E-01
        -11   -1    0    0    0    0  0.00000000000E+00  0.00000000000E+00  0.50000000000E+03  0.50000000000E+03  0.00000000000E+00 0. -1.
         11   -1    0    0    0    0 -0.00000000000E+00 -0.00000000000E+00 -0.50000000000E+03  0.50000000000E+03  0.00000000000E+00 0.  1.
        -11    1    1    2    0    0  0.11443059294E+02  0.13845960640E+02  0.42116342851E+03  0.42154630557E+03  0.00000000000E+00 0. -1.
         11    1    1    2    0    0  0.63797833878E+01 -0.35227042256E+02 -0.46157685739E+03  0.46296311021E+03  0.00000000000E+00 0.  1.
        -15    1    1    2    0    0 -0.18988290874E+01  0.29116263033E+02 -0.30578368342E+02  0.42303151944E+02  0.17770000000E+01 0.  1.
         15    1    1    2    0    0 -0.15924013595E+02 -0.77351814167E+01  0.70991797223E+02  0.73187432272E+02  0.17770000000E+01 0. -1.
</event>
<event>
 6    1  0.1782050E-003  0.5167479E+03  0.7546771E-02  0.9363096E-01
        -11   -1    0    0    0    0  0.00000000000E+00  0.00000000000E+00  0.50000000000E+03  0.50000000000E+03  0.00000000000E+00 0.  1.
         11   -1    0    0    0    0 -0.00000000000E+00 -0.00000000000E+00 -0.50000000000E+03  0.50000000000E+03  0.00000000000E+00 0. -1.
        -11    1    1    2    0    0  0.61484864759E+01 -0.12568450482E+02  0.42114126384E+03  0.42137362748E+03  0.00000000000E+00 0.  1.
         11    1    1    2    0    0  0.69604843032E+01  0.21354361944E+00 -0.48320192703E+03  0.48325210422E+03  0.00000000000E+00 0. -1.
        -15    1    1    2    0    0  0.21959566996E+02  0.94623064444E+01 -0.37499997662E-01  0.23977426075E+02  0.17770000000E+01 0.  1.
         15    1    1    2    0    0 -0.35068537776E+02  0.28926004182E+01  0.62098163192E+02  0.71396842225E+02  0.17770000000E+01 0. -1.
</event>
<event>
 6    1  0.1782050E-003  0.5091162E+03  0.7546771E-02  0.9379639E-01
        -11   -1    0    0    0    0  0.00000000000E+00  0.00000000000E+00  0.50000000000E+03  0.50000000000E+03  0.00000000000E+00 0.  1.
         11   -1    0    0    0    0 -0.00000000000E+00 -0.00000000000E+00 -0.50000000000E+03  0.50000000000E+03  0.00000000000E+00 0.  1.
        -11    1    1    2    0    0 -0.27016082946E+02  0.14128296928E+02  0.44343341220E+03  0.44448022292E+03  0.00000000000E+00 0.  1.
         11    1    1    2    0    0  0.14750395677E+02 -0.60044644254E+01 -0.49062537334E+03  0.49088377925E+03  0.00000000000E+00 0.  1.
        -15    1    1    2    0    0 -0.38093761098E+01  0.74058911406E+01  0.40283908495E+02  0.41174137302E+02  0.17770000000E+01 0.  1.
         15    1    1    2    0    0  0.16075063378E+02 -0.15529723643E+02  0.69080526482E+01  0.23461860528E+02  0.17770000000E+01 0. -1.
</event>
<event>
 6    1  0.1782050E-003  0.5076319E+03  0.7546771E-02  0.9382893E-01
        -11   -1    0    0    0    0  0.00000000000E+00  0.00000000000E+00  0.50000000000E+03  0.50000000000E+03  0.00000000000E+00 0.  1.
         11   -1    0    0    0    0 -0.00000000000E+00 -0.00000000000E+00 -0.50000000000E+03  0.50000000000E+03  0.00000000000E+00 0. -1.
        -11    1    1    2    0    0 -0.24347337402E+01  0.83875513100E+01  0.46402295564E+03  0.46410514143E+03  0.00000000000E+00 0.  1.
         11    1    1    2    0    0  0.58090541506E+01 -0.12689359330E+02 -0.49217030505E+03  0.49236812866E+03  0.00000000000E+00 0. -1.
        -15    1    1    2    0    0  0.50256141838E+00  0.39992792124E+01 -0.69181501287E+01  0.82015445131E+01  0.17770000000E+01 0.  1.
         15    1    1    2    0    0 -0.38768818288E+01  0.30252880711E+00  0.35065499539E+02  0.35325185397E+02  0.17770000000E+01 0. -1.
</event>
<event>
 6    1  0.1782050E-003  0.5005284E+03  0.7546771E-02  0.9398628E-01
        -11   -1    0    0    0    0  0.00000000000E+00  0.00000000000E+00  0.50000000000E+03  0.50000000000E+03  0.00000000000E+00 0. -1.
         11   -1    0    0    0    0 -0.00000000000E+00 -0.00000000000E+00 -0.50000000000E+03  0.50000000000E+03  0.00000000000E+00 0.  1.
        -11    1    1    2    0    0  0.48001688040E+01  0.60949677922E+01  0.49941139178E+03  0.49947164934E+03  0.00000000000E+00 0. -1.
         11    1    1    2    0    0 -0.12211102121E+01  0.48039092536E+01 -0.29523431007E+03  0.29527591588E+03  0.00000000000E+00 0.  1.
        -15    1    1    2    0    0 -0.10452625942E+02 -0.73097772355E+01 -0.11398319854E+03  0.11470840210E+03  0.17770000000E+01 0. -1.
         15    1    1    2    0    0  0.68735673501E+01 -0.35890998104E+01 -0.90193883167E+02  0.90544032688E+02  0.17770000000E+01 0.  1.
</event>
<event>
 6    1  0.1782050E-003  0.5191375E+03  0.7546771E-02  0.9357978E-01
        -11   -1    0    0    0    0  0.00000000000E+00  0.00000000000E+00  0.50000000000E+03  0.50000000000E+03  0.00000000000E+00 0. -1.
         11   -1    0    0    0    0 -0.00000000000E+00 -0.00000000000E+00 -0.50000000000E+03  0.50000000000E+03  0.00000000000E+00 0.  1.
        -11    1    1    2    0    0 -0.52479003857E+01 -0.17873806648E+02  0.44268821909E+03  0.44307998458E+03  0.00000000000E+00 0. -1.
         11    1    1    2    0    0 -0.10360900172E+02 -0.52981358153E+01 -0.48072164276E+03  0.48086247131E+03  0.00000000000E+00 0.  1.
        -15    1    1    2    0    0 -0.45210348103E+01  0.10226927496E+02  0.48552149743E+02  0.49854776857E+02  0.17770000000E+01 0. -1.
         15    1    1    2    0    0  0.20129835368E+02  0.12945014967E+02 -0.10518726068E+02  0.26202767250E+02  0.17770000000E+01 0.  1.
</event>
<event>
 6    1  0.1782050E-003  0.5010736E+03  0.7546771E-02  0.9397411E-01
        -11   -1    0    0    0    0  0.00000000000E+00  0.00000000000E+00  0.50000000000E+03  0.50000000000E+03  0.00000000000E+00 0. -1.
         11   -1    0    0    0    0 -0.00000000000E+00 -0.00000000000E+00 -0.50000000000E+03  0.50000000000E+03  0.00000000000E+00 0. -1.
        -11    1    1    2    0    0  0.58780699314E+01 -0.14912294863E+01  0.28818039894E+03  0.28824419821E+03  0.00000000000E+00 0. -1.
         11    1    1    2    0    0  0.16225098081E+01 -0.70940659921E+01 -0.49887328637E+03  0.49892636146E+03  0.00000000000E+00 0. -1.
        -15    1    1    2    0    0 -0.54383979645E+01  0.90185501729E+00  0.75145861057E+01  0.94876892989E+01  0.17770000000E+01 0.  1.
         15    1    1    2    0    0 -0.20621817750E+01  0.76834404611E+01  0.20317830133E+03  0.20334175102E+03  0.17770000000E+01 0. -1.
</event>
<event>
 6    1  0.1782050E-003  0.5013133E+03  0.7546771E-02  0.9396876E-01
        -11   -1    0    0    0    0  0.00000000000E+00  0.00000000000E+00  0.50000000000E+03  0.50000000000E+03  0.00000000000E+00 0. -1.
         11   -1    0    0    0    0 -0.00000000000E+00 -0.00000000000E+00 -0.50000000000E+03  0.50000000000E+03  0.00000000000E+00 0.  1.
        -11    1    1    2    0    0 -0.60849645477E+01 -0.37279309837E+01  0.49863568452E+03  0.49868674551E+03  0.00000000000E+00 0. -1.
         11    1    1    2    0    0 -0.38083091789E+01 -0.48789886213E+01 -0.45698565973E+03  0.45702757132E+03  0.00000000000E+00 0.  1.
        -15    1    1    2    0    0  0.16491347199E+01 -0.46594669842E+00 -0.99429460840E+01  0.10244835649E+02  0.17770000000E+01 0. -1.
         15    1    1    2    0    0  0.82441390067E+01  0.90728663035E+01 -0.31707078711E+02  0.34040847526E+02  0.17770000000E+01 0.  1.
</event>
<event>
 6    1  0.1782050E-003  0.4808908E+03  0.7546771E-02  0.9443613E-01
        -11   -1    0    0    0    0  0.00000000000E+00  0.00000000000E+00  0.50000000000E+03  0.50000000000E+03  0.00000000000E+00 0. -1.
         11   -1    0    0    0    0 -0.00000000000E+00 -0.00000000000E+00 -0.50000000000E+03  0.50000000000E+03  0.00000000000E+00 0.  1.
        -11    1    1    2    0    0  0.13366539548E+02  0.72594501126E+01  0.47623814765E+03  0.47648099361E+03  0.00000000000E+00 0. -1.
         11    1    1    2    0    0  0.27477023039E+01  0.68278738391E+01 -0.48552776537E+03  0.48558354654E+03  0.00000000000E+00 0.  1.
        -15    1    1    2    0    0 -0.24034404896E+02 -0.51201607956E+01  0.53233402991E+01  0.25206434620E+02  0.17770000000E+01 0.  1.
         15    1    1    2    0    0  0.79201630448E+01 -0.89671631561E+01  0.39662774225E+01  0.12729025230E+02  0.17770000000E+01 0. -1.
</event>
<event>
 6    1  0.1782050E-003  0.5058395E+03  0.7546771E-02  0.9386837E-01
        -11   -1    0    0    0    0  0.00000000000E+00  0.00000000000E+00  0.50000000000E+03  0.50000000000E+03  0.00000000000E+00 0. -1.
         11   -1    0    0    0    0 -0.00000000000E+00 -0.00000000000E+00 -0.50000000000E+03  0.50000000000E+03  0.00000000000E+00 0. -1.
        -11    1    1    2    0    0  0.45308786418E+01 -0.54966894210E+01  0.41503236587E+03  0.41509349209E+03  0.00000000000E+00 0. -1.
         11    1    1    2    0    0  0.84185937411E+01  0.34798669793E+01 -0.49407657467E+03  0.49416054459E+03  0.00000000000E+00 0. -1.
        -15    1    1    2    0    0  0.28843089945E+01 -0.34423937618E+01 -0.38384532861E+01  0.61693407927E+01  0.17770000000E+01 0. -1.
         15    1    1    2    0    0 -0.15833781377E+02  0.54592162034E+01  0.82882662088E+02  0.84576622527E+02  0.17770000000E+01 0.  1.
</event>
<event>
 6    1  0.1782050E-003  0.5081174E+03  0.7546771E-02  0.9381827E-01
        -11   -1    0    0    0    0  0.00000000000E+00  0.00000000000E+00  0.50000000000E+03  0.50000000000E+03  0.00000000000E+00 0. -1.
         11   -1    0    0    0    0 -0.00000000000E+00 -0.00000000000E+00 -0.50000000000E+03  0.50000000000E+03  0.00000000000E+00 0. -1.
        -11    1    1    2    0    0  0.66332160558E+01 -0.13983114349E+01  0.45412619807E+03  0.45417679224E+03  0.00000000000E+00 0. -1.
         11    1    1    2    0    0  0.67307815058E+01  0.63714187065E+01 -0.49179530384E+03  0.49188262754E+03  0.00000000000E+00 0. -1.
        -15    1    1    2    0    0 -0.21092249783E+01  0.37778126041E+00 -0.69991753500E+01  0.75324453711E+01  0.17770000000E+01 0.  1.
         15    1    1    2    0    0 -0.11254772583E+02 -0.53508885320E+01  0.44668281116E+02  0.46408134856E+02  0.17770000000E+01 0. -1.
</event>
<event>
 6    1  0.1782050E-003  0.5050381E+03  0.7546771E-02  0.9388607E-01
        -11   -1    0    0    0    0  0.00000000000E+00  0.00000000000E+00  0.50000000000E+03  0.50000000000E+03  0.00000000000E+00 0. -1.
         11   -1    0    0    0    0 -0.00000000000E+00 -0.00000000000E+00 -0.50000000000E+03  0.50000000000E+03  0.00000000000E+00 0.  1.
        -11    1    1    2    0    0 -0.10093910323E+02 -0.53350022405E+01  0.40984947865E+03  0.41000846873E+03  0.00000000000E+00 0. -1.
         11    1    1    2    0    0 -0.86159582599E+01 -0.39748069768E+01 -0.49487097009E+03  0.49496192871E+03  0.00000000000E+00 0.  1.
        -15    1    1    2    0    0  0.18749382221E+02  0.10666386602E+02  0.88381738633E+02  0.90993409594E+02  0.17770000000E+01 0.  1.
         15    1    1    2    0    0 -0.39513638215E-01 -0.13565773851E+01 -0.33602471933E+01  0.40361929747E+01  0.17770000000E+01 0. -1.
</event>
<event>
 6    1  0.1782050E-003  0.5041280E+03  0.7546771E-02  0.9390620E-01
        -11   -1    0    0    0    0  0.00000000000E+00  0.00000000000E+00  0.50000000000E+03  0.50000000000E+03  0.00000000000E+00 0. -1.
         11   -1    0    0    0    0 -0.00000000000E+00 -0.00000000000E+00 -0.50000000000E+03  0.50000000000E+03  0.00000000000E+00 0. -1.
        -11    1    1    2    0    0 -0.69685099830E+01  0.13959342836E+01  0.42206422491E+03  0.42212405607E+03  0.00000000000E+00 0. -1.
         11    1    1    2    0    0  0.12763624322E+02 -0.57612018117E+01 -0.49567421944E+03  0.49587199293E+03  0.00000000000E+00 0. -1.
        -15    1    1    2    0    0 -0.47437665215E+01  0.12955896450E+02  0.85108927214E+01  0.16308022491E+02  0.17770000000E+01 0.  1.
         15    1    1    2    0    0 -0.10513478171E+01 -0.85906289221E+01  0.65099101812E+02  0.65695928513E+02  0.17770000000E+01 0. -1.
</event>
<event>
 6    1  0.1782050E-003  0.5049025E+03  0.7546771E-02  0.9388906E-01
        -11   -1    0    0    0    0  0.00000000000E+00  0.00000000000E+00  0.50000000000E+03  0.50000000000E+03  0.00000000000E+00 0. -1.
         11   -1    0    0    0    0 -0.00000000000E+00 -0.00000000000E+00 -0.50000000000E+03  0.50000000000E+03  0.00000000000E+00 0.  1.
        -11    1    1    2    0    0 -0.22358267644E+02  0.14467738463E+02  0.25692270522E+03  0.25829921418E+03  0.00000000000E+00 0. -1.
         11    1    1    2    0    0 -0.89262247311E+01 -0.95189053232E+01 -0.49492554432E+03  0.49509754742E+03  0.00000000000E+00 0.  1.
        -15    1    1    2    0    0  0.30392762914E+02 -0.10988635841E+02  0.23805408334E+03  0.24024440571E+03  0.17770000000E+01 0. -1.
         15    1    1    2    0    0  0.89172946141E+00  0.60398027016E+01 -0.51244243701E-01  0.63588326821E+01  0.17770000000E+01 0.  1.
</event>
<event>
 6    1  0.1782050E-003  0.5048243E+03  0.7546771E-02  0.9389079E-01
        -11   -1    0    0    0    0  0.00000000000E+00  0.00000000000E+00  0.50000000000E+03  0.50000000000E+03  0.00000000000E+00 0.  1.
         11   -1    0    0    0    0 -0.00000000000E+00 -0.00000000000E+00 -0.50000000000E+03  0.50000000000E+03  0.00000000000E+00 0.  1.
        -11    1    1    2    0    0  0.80940400466E+01  0.32239737948E+01  0.48246853194E+03  0.48254719127E+03  0.00000000000E+00 0.  1.
         11    1    1    2    0    0  0.25594360024E+00  0.75672248484E+01 -0.49511782152E+03  0.49517571183E+03  0.00000000000E+00 0.  1.
        -15    1    1    2    0    0 -0.10378089698E+02 -0.80998453598E+01  0.12822882572E+02  0.18463376915E+02  0.17770000000E+01 0.  1.
         15    1    1    2    0    0  0.20281060515E+01 -0.26913532833E+01 -0.17359299150E+00  0.38137199922E+01  0.17770000000E+01 0. -1.
</event>
<event>
 6    1  0.1782050E-003  0.5051191E+03  0.7546771E-02  0.9388428E-01
        -11   -1    0    0    0    0  0.00000000000E+00  0.00000000000E+00  0.50000000000E+03  0.50000000000E+03  0.00000000000E+00 0. -1.
         11   -1    0    0    0    0 -0.00000000000E+00 -0.00000000000E+00 -0.50000000000E+03  0.50000000000E+03  0.00000000000E+00 0.  1.
        -11    1    1    2    0    0 -0.65809783964E+01  0.18033842495E+01  0.49483388278E+03  0.49488092812E+03  0.00000000000E+00 0. -1.
         11    1    1    2    0    0  0.33483814701E+00  0.17275819534E+02 -0.41662678295E+03  0.41698494257E+03  0.00000000000E+00 0.  1.
        -15    1    1    2    0    0  0.65806079319E+01 -0.36715852455E+01  0.64629938531E+00  0.77691937075E+01  0.17770000000E+01 0. -1.
         15    1    1    2    0    0 -0.33446768260E+00 -0.15407618539E+02 -0.78853399214E+02  0.80364935602E+02  0.17770000000E+01 0.  1.
</event>
<event>
 6    1  0.1782050E-003  0.5035687E+03  0.7546771E-02  0.9391860E-01
        -11   -1    0    0    0    0  0.00000000000E+00  0.00000000000E+00  0.50000000000E+03  0.50000000000E+03  0.00000000000E+00 0.  1.
         11   -1    0    0    0    0 -0.00000000000E+00 -0.00000000000E+00 -0.50000000000E+03  0.50000000000E+03  0.00000000000E+00 0.  1.
        -11    1    1    2    0    0  0.61748234046E+01  0.14183249830E+01  0.40779196128E+03  0.40784117469E+03  0.00000000000E+00 0.  1.
         11    1    1    2    0    0 -0.21248202112E+01  0.17765063975E+02 -0.49610880638E+03  0.49643132469E+03  0.00000000000E+00 0.  1.
        -15    1    1    2    0    0  0.23501676681E+01 -0.17141368673E+02  0.17863046780E+02  0.24931826594E+02  0.17770000000E+01 0.  1.
         15    1    1    2    0    0 -0.64001708615E+01 -0.20420202848E+01  0.70453798327E+02  0.70795674032E+02  0.17770000000E+01 0. -1.
</event>
<event>
 6    1  0.1782050E-003  0.5032507E+03  0.7546771E-02  0.9392565E-01
        -11   -1    0    0    0    0  0.00000000000E+00  0.00000000000E+00  0.50000000000E+03  0.50000000000E+03  0.00000000000E+00 0. -1.
         11   -1    0    0    0    0 -0.00000000000E+00 -0.00000000000E+00 -0.50000000000E+03  0.50000000000E+03  0.00000000000E+00 0. -1.
        -11    1    1    2    0    0 -0.60320744133E+01 -0.73806833402E+01  0.49665788520E+03  0.49674934861E+03  0.00000000000E+00 0. -1.
         11    1    1    2    0    0  0.31914217283E+01 -0.83985272898E+01 -0.46881888145E+03  0.46890496269E+03  0.00000000000E+00 0. -1.
        -15    1    1    2    0    0 -0.96157046206E+00  0.15555353762E+02 -0.19668295452E+02  0.25157369167E+02  0.17770000000E+01 0. -1.
         15    1    1    2    0    0  0.38022231471E+01  0.22385686812E+00 -0.81707083032E+01  0.91883195380E+01  0.17770000000E+01 0.  1.
</event>
<event>
 6    1  0.1782050E-003  0.4833012E+03  0.7546771E-02  0.9437970E-01
        -11   -1    0    0    0    0  0.00000000000E+00  0.00000000000E+00  0.50000000000E+03  0.50000000000E+03  0.00000000000E+00 0.  1.
         11   -1    0    0    0    0 -0.00000000000E+00 -0.00000000000E+00 -0.50000000000E+03  0.50000000000E+03  0.00000000000E+00 0.  1.
        -11    1    1    2    0    0  0.13778991350E+02  0.11186356017E+00  0.48318676776E+03  0.48338320788E+03  0.00000000000E+00 0.  1.
         11    1    1    2    0    0  0.15417400105E+01 -0.10611982348E+02 -0.48327865609E+03  0.48339761126E+03  0.00000000000E+00 0.  1.
        -15    1    1    2    0    0 -0.48031472908E+01  0.94472166758E+01  0.12722553968E+02  0.16653565243E+02  0.17770000000E+01 0.  1.
         15    1    1    2    0    0 -0.10517584070E+02  0.10529021121E+01 -0.12630665639E+02  0.16565615624E+02  0.17770000000E+01 0. -1.
</event>
<event>
 6    1  0.1782050E-003  0.5077382E+03  0.7546771E-02  0.9382659E-01
        -11   -1    0    0    0    0  0.00000000000E+00  0.00000000000E+00  0.50000000000E+03  0.50000000000E+03  0.00000000000E+00 0.  1.
         11   -1    0    0    0    0 -0.00000000000E+00 -0.00000000000E+00 -0.50000000000E+03  0.50000000000E+03  0.00000000000E+00 0. -1.
        -11    1    1    2    0    0  0.26895579704E+01  0.11362356921E+02  0.19955746587E+03  0.19989877203E+03  0.00000000000E+00 0.  1.
         11    1    1    2    0    0 -0.64885932563E+01 -0.60774876913E+01 -0.49218147581E+03  0.49226176251E+03  0.00000000000E+00 0. -1.
        -15    1    1    2    0    0  0.55646494240E+01 -0.16141455034E+02  0.29576549057E+03  0.29626321917E+03  0.17770000000E+01 0.  1.
         15    1    1    2    0    0 -0.17656141381E+01  0.10856585805E+02 -0.31414806241E+01  0.11576246288E+02  0.17770000000E+01 0. -1.
</event>
<event>
 6    1  0.1782050E-003  0.5024078E+03  0.7546771E-02  0.9394438E-01
        -11   -1    0    0    0    0  0.00000000000E+00  0.00000000000E+00  0.50000000000E+03  0.50000000000E+03  0.00000000000E+00 0. -1.
         11   -1    0    0    0    0 -0.00000000000E+00 -0.00000000000E+00 -0.50000000000E+03  0.50000000000E+03  0.00000000000E+00 0. -1.
        -11    1    1    2    0    0 -0.69095934134E+01 -0.61391830232E+01  0.47881263955E+03  0.47890184364E+03  0.00000000000E+00 0. -1.
         11    1    1    2    0    0  0.43016886070E+01  0.95420784956E+01 -0.49748213087E+03  0.49759222896E+03  0.00000000000E+00 0. -1.
        -15    1    1    2    0    0  0.70220722629E+00 -0.15333390736E+01 -0.16378318738E+01  0.29469384028E+01  0.17770000000E+01 0.  1.
         15    1    1    2    0    0  0.19056975800E+01 -0.18695563988E+01  0.20307323189E+02  0.20558988995E+02  0.17770000000E+01 0. -1.
</event>
<event>
 6    1  0.1782050E-003  0.5018753E+03  0.7546771E-02  0.9395623E-01
        -11   -1    0    0    0    0  0.00000000000E+00  0.00000000000E+00  0.50000000000E+03  0.50000000000E+03  0.00000000000E+00 0. -1.
         11   -1    0    0    0    0 -0.00000000000E+00 -0.00000000000E+00 -0.50000000000E+03  0.50000000000E+03  0.00000000000E+00 0.  1.
        -11    1    1    2    0    0  0.40947382065E+01  0.36653764071E+01  0.32164277300E+03  0.32168971897E+03  0.00000000000E+00 0. -1.
         11    1    1    2    0    0  0.25762033450E+01  0.75263119361E+01 -0.49806119869E+03  0.49812472317E+03  0.00000000000E+00 0.  1.
        -15    1    1    2    0    0 -0.27286880134E+01 -0.12511988017E+02  0.20728411914E+02  0.24429907325E+02  0.17770000000E+01 0. -1.
         15    1    1    2    0    0 -0.39422535380E+01  0.13202996743E+01  0.15569001378E+03  0.15575565053E+03  0.17770000000E+01 0. -1.
</event>
<event>
 6    1  0.1782050E-003  0.5070681E+03  0.7546771E-02  0.9384132E-01
        -11   -1    0    0    0    0  0.00000000000E+00  0.00000000000E+00  0.50000000000E+03  0.50000000000E+03  0.00000000000E+00 0.  1.
         11   -1    0    0    0    0 -0.00000000000E+00 -0.00000000000E+00 -0.50000000000E+03  0.50000000000E+03  0.00000000000E+00 0.  1.
        -11    1    1    2    0    0  0.73472877077E+01  0.95112385529E+01  0.49278532284E+03  0.49293186213E+03  0.00000000000E+00 0.  1.
         11    1    1    2    0    0  0.12777970236E+02 -0.21733362304E+01 -0.46010164520E+03  0.46028417725E+03  0.00000000000E+00 0.  1.
        -15    1    1    2    0    0  0.23827810110E+01 -0.28968954683E+01  0.24245318963E+01  0.48068422709E+01  0.17770000000E+01 0. -1.
         15    1    1    2    0    0 -0.22508038954E+02 -0.44410068542E+01 -0.35108209532E+02  0.41977118350E+02  0.17770000000E+01 0.  1.
</event>
<event>
 6    1  0.1782050E-003  0.5065257E+03  0.7546771E-02  0.9385325E-01
        -11   -1    0    0    0    0  0.00000000000E+00  0.00000000000E+00  0.50000000000E+03  0.50000000000E+03  0.00000000000E+00 0. -1.
         11   -1    0    0    0    0 -0.00000000000E+00 -0.00000000000E+00 -0.50000000000E+03  0.50000000000E+03  0.00000000000E+00 0.  1.
        -11    1    1    2    0    0  0.43732225998E+01 -0.79230283063E+01  0.49339129246E+03  0.49347428194E+03  0.00000000000E+00 0. -1.
         11    1    1    2    0    0  0.28066002050E+01  0.45923029610E+01 -0.23668569766E+03  0.23674688113E+03  0.00000000000E+00 0.  1.
        -15    1    1    2    0    0  0.16060218645E+00 -0.72271568049E+01  0.42021952454E+01  0.85483192748E+01  0.17770000000E+01 0. -1.
         15    1    1    2    0    0 -0.73404249912E+01  0.10557882150E+02 -0.26090779005E+03  0.26123051765E+03  0.17770000000E+01 0.  1.
</event>
<event>
 6    1  0.1782050E-003  0.5166859E+03  0.7546771E-02  0.9363229E-01
        -11   -1    0    0    0    0  0.00000000000E+00  0.00000000000E+00  0.50000000000E+03  0.50000000000E+03  0.00000000000E+00 0. -1.
         11   -1    0    0    0    0 -0.00000000000E+00 -0.00000000000E+00 -0.50000000000E+03  0.50000000000E+03  0.00000000000E+00 0.  1.
        -11    1    1    2    0    0  0.11317311319E+02  0.27091177227E+02  0.46013717607E+03  0.46107291639E+03  0.00000000000E+00 0. -1.
         11    1    1    2    0    0  0.10604461698E+02 -0.44785508507E+01 -0.48317701344E+03  0.48331411974E+03  0.00000000000E+00 0.  1.
        -15    1    1    2    0    0 -0.13257982103E+02 -0.22011859000E+02  0.33270647571E+02  0.42075999630E+02  0.17770000000E+01 0. -1.
         15    1    1    2    0    0 -0.86637909150E+01 -0.60076737643E+00 -0.10230810202E+02  0.13536964240E+02  0.17770000000E+01 0.  1.
</event>
<event>
 6    1  0.1782050E-003  0.5207749E+03  0.7546771E-02  0.9354488E-01
        -11   -1    0    0    0    0  0.00000000000E+00  0.00000000000E+00  0.50000000000E+03  0.50000000000E+03  0.00000000000E+00 0. -1.
         11   -1    0    0    0    0 -0.00000000000E+00 -0.00000000000E+00 -0.50000000000E+03  0.50000000000E+03  0.00000000000E+00 0.  1.
        -11    1    1    2    0    0  0.14002161891E+02 -0.51061051723E+01  0.47899332959E+03  0.47922514817E+03  0.00000000000E+00 0. -1.
         11    1    1    2    0    0 -0.61481344013E+01  0.30373740242E+01 -0.41846469169E+03  0.41852087569E+03  0.00000000000E+00 0.  1.
        -15    1    1    2    0    0 -0.15479485067E+02  0.62446753253E+01  0.17192374899E+02  0.24028023463E+02  0.17770000000E+01 0.  1.
         15    1    1    2    0    0  0.76254575772E+01 -0.41759441772E+01 -0.77721012802E+02  0.78225952682E+02  0.17770000000E+01 0.  1.
</event>
<event>
 6    1  0.1782050E-003  0.5015005E+03  0.7546771E-02  0.9396458E-01
        -11   -1    0    0    0    0  0.00000000000E+00  0.00000000000E+00  0.50000000000E+03  0.50000000000E+03  0.00000000000E+00 0.  1.
         11   -1    0    0    0    0 -0.00000000000E+00 -0.00000000000E+00 -0.50000000000E+03  0.50000000000E+03  0.00000000000E+00 0.  1.
        -11    1    1    2    0    0 -0.56277147422E+01  0.88171302204E+01  0.49838972147E+03  0.49849947585E+03  0.00000000000E+00 0.  1.
         11    1    1    2    0    0 -0.46746397839E+01 -0.12506845628E+02 -0.42167423575E+03  0.42188557044E+03  0.00000000000E+00 0.  1.
        -15    1    1    2    0    0  0.46470445745E+00  0.76016737999E+01 -0.53115567795E+02  0.53688198572E+02  0.17770000000E+01 0.  1.
         15    1    1    2    0    0  0.98376500686E+01 -0.39119583920E+01 -0.23599917920E+02  0.25926755142E+02  0.17770000000E+01 0. -1.
</event>
<event>
 6    1  0.1782050E-003  0.5228646E+03  0.7546771E-02  0.9350053E-01
        -11   -1    0    0    0    0  0.00000000000E+00  0.00000000000E+00  0.50000000000E+03  0.50000000000E+03  0.00000000000E+00 0. -1.
         11   -1    0    0    0    0 -0.00000000000E+00 -0.00000000000E+00 -0.50000000000E+03  0.50000000000E+03  0.00000000000E+00 0.  1.
        -11    1    1    2    0    0  0.14563008054E+02  0.41335143232E+01  0.47689523004E+03  0.47713543945E+03  0.00000000000E+00 0. -1.
         11    1    1    2    0    0  0.68827900756E+01 -0.43921188402E+01 -0.44290198480E+03  0.44297723603E+03  0.00000000000E+00 0.  1.
        -15    1    1    2    0    0  0.51001805245E+01 -0.28349219259E+02 -0.28278112867E+02  0.40404201146E+02  0.17770000000E+01 0. -1.
         15    1    1    2    0    0 -0.26545978654E+02  0.28607823776E+02 -0.57151323775E+01  0.39483123369E+02  0.17770000000E+01 0.  1.
</event>
<event>
 6    1  0.1782050E-003  0.5125918E+03  0.7546771E-02  0.9372067E-01
        -11   -1    0    0    0    0  0.00000000000E+00  0.00000000000E+00  0.50000000000E+03  0.50000000000E+03  0.00000000000E+00 0.  1.
         11   -1    0    0    0    0 -0.00000000000E+00 -0.00000000000E+00 -0.50000000000E+03  0.50000000000E+03  0.00000000000E+00 0.  1.
        -11    1    1    2    0    0 -0.74711647755E+01  0.64043401032E+01  0.48730885765E+03  0.48740820328E+03  0.00000000000E+00 0.  1.
         11    1    1    2    0    0 -0.36621238411E+00 -0.12503535035E+02 -0.46521005829E+03  0.46537820193E+03  0.00000000000E+00 0.  1.
        -15    1    1    2    0    0 -0.25070065929E+01 -0.11005648080E+02  0.58255898870E+01  0.12825934596E+02  0.17770000000E+01 0. -1.
         15    1    1    2    0    0  0.10344383752E+02  0.17104843012E+02 -0.27924389255E+02  0.34387660199E+02  0.17770000000E+01 0.  1.
</event>
<event>
 6    1  0.1782050E-003  0.5031258E+03  0.7546771E-02  0.9392843E-01
        -11   -1    0    0    0    0  0.00000000000E+00  0.00000000000E+00  0.50000000000E+03  0.50000000000E+03  0.00000000000E+00 0.  1.
         11   -1    0    0    0    0 -0.00000000000E+00 -0.00000000000E+00 -0.50000000000E+03  0.50000000000E+03  0.00000000000E+00 0.  1.
        -11    1    1    2    0    0 -0.10509799028E+02 -0.98675144162E+01  0.49666506031E+03  0.49687423544E+03  0.00000000000E+00 0.  1.
         11    1    1    2    0    0 -0.47107435628E+01  0.66574667090E+01 -0.43392072857E+03  0.43399736364E+03  0.00000000000E+00 0.  1.
        -15    1    1    2    0    0  0.15586844847E+02  0.11486705794E+02 -0.51505887913E+02  0.55053686171E+02  0.17770000000E+01 0. -1.
         15    1    1    2    0    0 -0.36630225613E+00 -0.82766580869E+01 -0.11238443830E+02  0.14074714745E+02  0.17770000000E+01 0.  1.
</event>
<event>
 6    1  0.1782050E-003  0.4595079E+03  0.7546771E-02  0.9495271E-01
        -11   -1    0    0    0    0  0.00000000000E+00  0.00000000000E+00  0.50000000000E+03  0.50000000000E+03  0.00000000000E+00 0.  1.
         11   -1    0    0    0    0 -0.00000000000E+00 -0.00000000000E+00 -0.50000000000E+03  0.50000000000E+03  0.00000000000E+00 0. -1.
        -11    1    1    2    0    0  0.48297003618E+01  0.93226777437E+01  0.46245844778E+03  0.46257761970E+03  0.00000000000E+00 0.  1.
         11    1    1    2    0    0  0.70749479972E+01 -0.42617124321E+01 -0.45647392494E+03  0.45654864060E+03  0.00000000000E+00 0. -1.
        -15    1    1    2    0    0 -0.80176996454E+01 -0.16853182743E+02  0.34077541028E+02  0.38894084481E+02  0.17770000000E+01 0.  1.
         15    1    1    2    0    0 -0.38869487136E+01  0.11792217431E+02 -0.40062063866E+02  0.41979655221E+02  0.17770000000E+01 0. -1.
</event>
<event>
 6    1  0.1782050E-003  0.5042209E+03  0.7546771E-02  0.9390414E-01
        -11   -1    0    0    0    0  0.00000000000E+00  0.00000000000E+00  0.50000000000E+03  0.50000000000E+03  0.00000000000E+00 0. -1.
         11   -1    0    0    0    0 -0.00000000000E+00 -0.00000000000E+00 -0.50000000000E+03  0.50000000000E+03  0.00000000000E+00 0.  1.
        -11    1    1    2    0    0 -0.69547639998E+01 -0.67162102307E+01  0.49568481100E+03  0.49577909201E+03  0.00000000000E+00 0. -1.
         11    1    1    2    0    0  0.11454794190E+01 -0.68797719389E+01 -0.45714826274E+03  0.45720146272E+03  0.00000000000E+00 0.  1.
        -15    1    1    2    0    0 -0.76258821483E+01  0.23016353590E+00 -0.12841430897E+02  0.15042178375E+02  0.17770000000E+01 0.  1.
         15    1    1    2    0    0  0.13435166729E+02  0.13365818634E+02 -0.25695117357E+02  0.31977266891E+02  0.17770000000E+01 0. -1.
</event>
<event>
 6    1  0.1782050E-003  0.5005563E+03  0.7546771E-02  0.9398566E-01
        -11   -1    0    0    0    0  0.00000000000E+00  0.00000000000E+00  0.50000000000E+03  0.50000000000E+03  0.00000000000E+00 0.  1.
         11   -1    0    0    0    0 -0.00000000000E+00 -0.00000000000E+00 -0.50000000000E+03  0.50000000000E+03  0.00000000000E+00 0.  1.
        -11    1    1    2    0    0  0.36184037081E+00 -0.73578279151E+00  0.24645305615E+02  0.24658941454E+02  0.00000000000E+00 0.  1.
         11    1    1    2    0    0 -0.33433812326E+01  0.20714514176E+02 -0.49900275377E+03  0.49944370811E+03  0.00000000000E+00 0.  1.
        -15    1    1    2    0    0  0.10325795842E+02 -0.25278880857E+02  0.40577450693E+03  0.40669614220E+03  0.17770000000E+01 0.  1.
         15    1    1    2    0    0 -0.73442549805E+01  0.53001494729E+01  0.68582941228E+02  0.69201208242E+02  0.17770000000E+01 0. -1.
</event>
<event>
 6    1  0.1782050E-003  0.4694799E+03  0.7546771E-02  0.9470816E-01
        -11   -1    0    0    0    0  0.00000000000E+00  0.00000000000E+00  0.50000000000E+03  0.50000000000E+03  0.00000000000E+00 0. -1.
         11   -1    0    0    0    0 -0.00000000000E+00 -0.00000000000E+00 -0.50000000000E+03  0.50000000000E+03  0.00000000000E+00 0.  1.
        -11    1    1    2    0    0  0.13913345205E+02  0.19386171858E+02  0.48098783532E+03  0.48157938345E+03  0.00000000000E+00 0. -1.
         11    1    1    2    0    0  0.13744955018E+02  0.13559419409E+02 -0.45823404247E+03  0.45864062110E+03  0.00000000000E+00 0.  1.
        -15    1    1    2    0    0  0.13512870949E+01 -0.96652623236E+01 -0.20139659059E+02  0.22450097296E+02  0.17770000000E+01 0. -1.
         15    1    1    2    0    0 -0.29009587317E+02 -0.23280328944E+02 -0.26141337971E+01  0.37329898159E+02  0.17770000000E+01 0.  1.
</event>
<event>
 6    1  0.1782050E-003  0.5019606E+03  0.7546771E-02  0.9395433E-01
        -11   -1    0    0    0    0  0.00000000000E+00  0.00000000000E+00  0.50000000000E+03  0.50000000000E+03  0.00000000000E+00 0. -1.
         11   -1    0    0    0    0 -0.00000000000E+00 -0.00000000000E+00 -0.50000000000E+03  0.50000000000E+03  0.00000000000E+00 0. -1.
        -11    1    1    2    0    0 -0.80811482644E+01 -0.78689236583E+01  0.49791163176E+03  0.49803937390E+03  0.00000000000E+00 0. -1.
         11    1    1    2    0    0 -0.18394620720E+01  0.33976850001E+01 -0.23119676775E+03  0.23122904944E+03  0.00000000000E+00 0. -1.
        -15    1    1    2    0    0  0.34217907569E+01 -0.80456043249E+01 -0.24241677099E+03  0.24258089164E+03  0.17770000000E+01 0. -1.
         15    1    1    2    0    0  0.64988195795E+01  0.12516842983E+02 -0.24298093013E+02  0.28150685023E+02  0.17770000000E+01 0.  1.
</event>
<event>
 6    1  0.1782050E-003  0.5160143E+03  0.7546771E-02  0.9364673E-01
        -11   -1    0    0    0    0  0.00000000000E+00  0.00000000000E+00  0.50000000000E+03  0.50000000000E+03  0.00000000000E+00 0.  1.
         11   -1    0    0    0    0 -0.00000000000E+00 -0.00000000000E+00 -0.50000000000E+03  0.50000000000E+03  0.00000000000E+00 0.  1.
        -11    1    1    2    0    0  0.31750363507E+02 -0.23843188473E+02  0.48235421004E+03  0.48398570967E+03  0.00000000000E+00 0.  1.
         11    1    1    2    0    0 -0.46721904163E+00  0.10225625421E+02 -0.46189281427E+03  0.46200622678E+03  0.00000000000E+00 0.  1.
        -15    1    1    2    0    0 -0.28418788790E+02  0.20469075254E+02 -0.32980401847E+01  0.35222796541E+02  0.17770000000E+01 0. -1.
         15    1    1    2    0    0 -0.28643556754E+01 -0.68515122021E+01 -0.17163355579E+02  0.18785267009E+02  0.17770000000E+01 0.  1.
</event>
<event>
 6    1  0.1782050E-003  0.5002215E+03  0.7546771E-02  0.9399314E-01
        -11   -1    0    0    0    0  0.00000000000E+00  0.00000000000E+00  0.50000000000E+03  0.50000000000E+03  0.00000000000E+00 0.  1.
         11   -1    0    0    0    0 -0.00000000000E+00 -0.00000000000E+00 -0.50000000000E+03  0.50000000000E+03  0.00000000000E+00 0. -1.
        -11    1    1    2    0    0 -0.82298394104E+01 -0.11965428254E+00  0.49971070108E+03  0.49977848028E+03  0.00000000000E+00 0.  1.
         11    1    1    2    0    0 -0.36249001623E+01  0.26084055356E+01 -0.25891981769E+03  0.25895832807E+03  0.00000000000E+00 0. -1.
        -15    1    1    2    0    0 -0.16278157989E-01 -0.20828501548E+01 -0.68200048064E+02  0.68254983808E+02  0.17770000000E+01 0.  1.
         15    1    1    2    0    0  0.11871017731E+02 -0.40590109826E+00 -0.17259083532E+03  0.17300820785E+03  0.17770000000E+01 0. -1.
</event>
<event>
 6    1  0.1782050E-003  0.5048880E+03  0.7546771E-02  0.9388938E-01
        -11   -1    0    0    0    0  0.00000000000E+00  0.00000000000E+00  0.50000000000E+03  0.50000000000E+03  0.00000000000E+00 0.  1.
         11   -1    0    0    0    0 -0.00000000000E+00 -0.00000000000E+00 -0.50000000000E+03  0.50000000000E+03  0.00000000000E+00 0.  1.
        -11    1    1    2    0    0 -0.49916121473E+01 -0.57033172633E+01  0.49505403010E+03  0.49511204463E+03  0.00000000000E+00 0.  1.
         11    1    1    2    0    0  0.67211647746E+01  0.52098733001E+00 -0.48101898323E+03  0.48106621967E+03  0.00000000000E+00 0.  1.
        -15    1    1    2    0    0  0.22853469109E+01  0.77671665091E+01 -0.16268676791E+02  0.18258676284E+02  0.17770000000E+01 0.  1.
         15    1    1    2    0    0 -0.40148995383E+01 -0.25848365759E+01  0.22336299202E+01  0.55630594143E+01  0.17770000000E+01 0. -1.
</event>
<event>
 6    1  0.1782050E-003  0.5006111E+03  0.7546771E-02  0.9398443E-01
        -11   -1    0    0    0    0  0.00000000000E+00  0.00000000000E+00  0.50000000000E+03  0.50000000000E+03  0.00000000000E+00 0.  1.
         11   -1    0    0    0    0 -0.00000000000E+00 -0.00000000000E+00 -0.50000000000E+03  0.50000000000E+03  0.00000000000E+00 0.  1.
        -11    1    1    2    0    0 -0.74325615047E+01  0.81752544426E+01  0.23142423868E+03  0.23168784173E+03  0.00000000000E+00 0.  1.
         11    1    1    2    0    0 -0.33189272696E+01  0.80242693592E+01 -0.49931336064E+03  0.49938886280E+03  0.00000000000E+00 0.  1.
        -15    1    1    2    0    0  0.39905389580E+01 -0.31343114402E+00  0.10921347467E+03  0.10930125076E+03  0.17770000000E+01 0. -1.
         15    1    1    2    0    0  0.67609498164E+01 -0.15886092658E+02  0.15867564729E+03  0.15962204470E+03  0.17770000000E+01 0.  1.
</event>
<event>
 6    1  0.1782050E-003  0.5024448E+03  0.7546771E-02  0.9394356E-01
        -11   -1    0    0    0    0  0.00000000000E+00  0.00000000000E+00  0.50000000000E+03  0.50000000000E+03  0.00000000000E+00 0.  1.
         11   -1    0    0    0    0 -0.00000000000E+00 -0.00000000000E+00 -0.50000000000E+03  0.50000000000E+03  0.00000000000E+00 0.  1.
        -11    1    1    2    0    0  0.10103384671E+02 -0.50844394936E+01  0.49742661281E+03  0.49755518794E+03  0.00000000000E+00 0.  1.
         11    1    1    2    0    0 -0.10333793497E+02 -0.48936026011E+01 -0.45410425481E+03  0.45424817982E+03  0.00000000000E+00 0.  1.
        -15    1    1    2    0    0 -0.66220674287E+01  0.99890780810E+00 -0.60115748152E+01  0.91731322130E+01  0.17770000000E+01 0. -1.
         15    1    1    2    0    0  0.68524762537E+01  0.89791342866E+01 -0.37310783192E+02  0.39023500032E+02  0.17770000000E+01 0.  1.
</event>
<event>
 6    1  0.1782050E-003  0.4725166E+03  0.7546771E-02  0.9463497E-01
        -11   -1    0    0    0    0  0.00000000000E+00  0.00000000000E+00  0.50000000000E+03  0.50000000000E+03  0.00000000000E+00 0. -1.
         11   -1    0    0    0    0 -0.00000000000E+00 -0.00000000000E+00 -0.50000000000E+03  0.50000000000E+03  0.00000000000E+00 0.  1.
        -11    1    1    2    0    0  0.63564190857E+01 -0.62569369775E+01  0.46441851745E+03  0.46450415786E+03  0.00000000000E+00 0. -1.
         11    1    1    2    0    0  0.20301533201E+02 -0.61182762827E+01 -0.48065796282E+03  0.48112541274E+03  0.00000000000E+00 0.  1.
        -15    1    1    2    0    0 -0.15902576288E+02  0.97063196116E+01 -0.13174991182E+02  0.22887610068E+02  0.17770000000E+01 0. -1.
         15    1    1    2    0    0 -0.10755375999E+02  0.26688936486E+01  0.29414436555E+02  0.31482819331E+02  0.17770000000E+01 0.  1.
</event>
<event>
 6    1  0.1782050E-003  0.5005295E+03  0.7546771E-02  0.9398626E-01
        -11   -1    0    0    0    0  0.00000000000E+00  0.00000000000E+00  0.50000000000E+03  0.50000000000E+03  0.00000000000E+00 0.  1.
         11   -1    0    0    0    0 -0.00000000000E+00 -0.00000000000E+00 -0.50000000000E+03  0.50000000000E+03  0.00000000000E+00 0.  1.
        -11    1    1    2    0    0 -0.60825750636E+00 -0.52332107786E+01  0.19641849127E+03  0.19648913503E+03  0.00000000000E+00 0.  1.
         11    1    1    2    0    0  0.37861703703E+01 -0.81464995208E+01 -0.49938970944E+03  0.49947050207E+03  0.00000000000E+00 0.  1.
        -15    1    1    2    0    0  0.75530204201E+01  0.12288246112E+02  0.16857147940E+03  0.16919678043E+03  0.17770000000E+01 0. -1.
         15    1    1    2    0    0 -0.10730933284E+02  0.10914641876E+01  0.13439973877E+03  0.13484358247E+03  0.17770000000E+01 0.  1.
</event>
<event>
 6    1  0.1782050E-003  0.5002813E+03  0.7546771E-02  0.9399180E-01
        -11   -1    0    0    0    0  0.00000000000E+00  0.00000000000E+00  0.50000000000E+03  0.50000000000E+03  0.00000000000E+00 0. -1.
         11   -1    0    0    0    0 -0.00000000000E+00 -0.00000000000E+00 -0.50000000000E+03  0.50000000000E+03  0.00000000000E+00 0. -1.
        -11    1    1    2    0    0 -0.69630301313E+01 -0.46167555965E+01  0.49964882639E+03  0.49971866879E+03  0.00000000000E+00 0. -1.
         11    1    1    2    0    0  0.21377832270E+01 -0.10302090261E+01 -0.17519860876E+03  0.17521467964E+03  0.00000000000E+00 0. -1.
        -15    1    1    2    0    0  0.81531122212E+01  0.28217952862E+01 -0.67394441451E+02  0.67967670514E+02  0.17770000000E+01 0. -1.
         15    1    1    2    0    0 -0.33278653168E+01  0.28251693364E+01 -0.25705577618E+03  0.25709898106E+03  0.17770000000E+01 0. -1.
</event>
<event>
 6    1  0.1782050E-003  0.5055804E+03  0.7546771E-02  0.9387409E-01
        -11   -1    0    0    0    0  0.00000000000E+00  0.00000000000E+00  0.50000000000E+03  0.50000000000E+03  0.00000000000E+00 0. -1.
         11   -1    0    0    0    0 -0.00000000000E+00 -0.00000000000E+00 -0.50000000000E+03  0.50000000000E+03  0.00000000000E+00 0. -1.
        -11    1    1    2    0    0  0.94005676213E+01  0.40378327195E+01  0.46646923511E+03  0.46658142062E+03  0.00000000000E+00 0. -1.
         11    1    1    2    0    0 -0.83013478722E+00  0.15062603656E+02 -0.49418940858E+03  0.49441960186E+03  0.00000000000E+00 0. -1.
        -15    1    1    2    0    0 -0.41623987517E+01 -0.21009974228E+02  0.25677058942E+02  0.33484528746E+02  0.17770000000E+01 0.  1.
         15    1    1    2    0    0 -0.44080340824E+01  0.19095378520E+01  0.20431145310E+01  0.55144487727E+01  0.17770000000E+01 0. -1.
</event>
<event>
 6    1  0.1782050E-003  0.5412167E+03  0.7546771E-02  0.9312031E-01
        -11   -1    0    0    0    0  0.00000000000E+00  0.00000000000E+00  0.50000000000E+03  0.50000000000E+03  0.00000000000E+00 0. -1.
         11   -1    0    0    0    0 -0.00000000000E+00 -0.00000000000E+00 -0.50000000000E+03  0.50000000000E+03  0.00000000000E+00 0.  1.
        -11    1    1    2    0    0  0.17034042800E+01 -0.12719380729E+02  0.45860379720E+03  0.45878331164E+03  0.00000000000E+00 0. -1.
         11    1    1    2    0    0  0.26903867792E+02 -0.46321157318E+02 -0.14720152427E+03  0.15664532060E+03  0.00000000000E+00 0.  1.
        -15    1    1    2    0    0  0.56353459196E+01  0.26398520959E+02 -0.33188727550E+03  0.33298792831E+03  0.17770000000E+01 0. -1.
         15    1    1    2    0    0 -0.34242617992E+02  0.32642017088E+02  0.20485002566E+02  0.51583439451E+02  0.17770000000E+01 0.  1.
</event>
<event>
 6    1  0.1782050E-003  0.5042302E+03  0.7546771E-02  0.9390394E-01
        -11   -1    0    0    0    0  0.00000000000E+00  0.00000000000E+00  0.50000000000E+03  0.50000000000E+03  0.00000000000E+00 0. -1.
         11   -1    0    0    0    0 -0.00000000000E+00 -0.00000000000E+00 -0.50000000000E+03  0.50000000000E+03  0.00000000000E+00 0. -1.
        -11    1    1    2    0    0 -0.66145760295E+01  0.25275509872E+01  0.48950175805E+03  0.48955297187E+03  0.00000000000E+00 0. -1.
         11    1    1    2    0    0  0.10811755996E+02 -0.15511769909E+01 -0.49564947377E+03  0.49576980653E+03  0.00000000000E+00 0. -1.
        -15    1    1    2    0    0  0.35024717334E+01 -0.87703429578E+00  0.54066368727E+01  0.67398774968E+01  0.17770000000E+01 0. -1.
         15    1    1    2    0    0 -0.76996517000E+01 -0.99339700551E-01  0.74107884600E+00  0.79373441108E+01  0.17770000000E+01 0.  1.
</event>
<event>
 6    1  0.1782050E-003  0.5071599E+03  0.7546771E-02  0.9383930E-01
        -11   -1    0    0    0    0  0.00000000000E+00  0.00000000000E+00  0.50000000000E+03  0.50000000000E+03  0.00000000000E+00 0. -1.
         11   -1    0    0    0    0 -0.00000000000E+00 -0.00000000000E+00 -0.50000000000E+03  0.50000000000E+03  0.00000000000E+00 0. -1.
        -11    1    1    2    0    0  0.66070233959E+01 -0.32447303581E+01  0.21385747334E+02  0.22617056004E+02  0.00000000000E+00 0. -1.
         11    1    1    2    0    0 -0.73188561232E+01  0.17014018305E+01 -0.49278286049E+03  0.49284014448E+03  0.00000000000E+00 0. -1.
        -15    1    1    2    0    0 -0.82330301718E+01  0.87693325062E+01  0.47268044179E+03  0.47283680246E+03  0.17770000000E+01 0. -1.
         15    1    1    2    0    0  0.89448628991E+01 -0.72260039785E+01 -0.12833286365E+01  0.11705997060E+02  0.17770000000E+01 0.  1.
</event>
<event>
 6    1  0.1782050E-003  0.5119907E+03  0.7546771E-02  0.9373372E-01
        -11   -1    0    0    0    0  0.00000000000E+00  0.00000000000E+00  0.50000000000E+03  0.50000000000E+03  0.00000000000E+00 0. -1.
         11   -1    0    0    0    0 -0.00000000000E+00 -0.00000000000E+00 -0.50000000000E+03  0.50000000000E+03  0.00000000000E+00 0.  1.
        -11    1    1    2    0    0  0.70865081650E+01 -0.28274223292E+01  0.48794961128E+03  0.48800925817E+03  0.00000000000E+00 0. -1.
         11    1    1    2    0    0 -0.43174429665E+01 -0.59480082308E+01 -0.48236395032E+03  0.48241994122E+03  0.00000000000E+00 0.  1.
        -15    1    1    2    0    0 -0.12999135082E+02  0.10122349158E+02 -0.86075741196E+01  0.18673176660E+02  0.17770000000E+01 0.  1.
         15    1    1    2    0    0  0.10230069884E+02 -0.13469185977E+01  0.30219131625E+01  0.10897623947E+02  0.17770000000E+01 0. -1.
</event>
<event>
 6    1  0.1782050E-003  0.5014459E+03  0.7546771E-02  0.9396580E-01
        -11   -1    0    0    0    0  0.00000000000E+00  0.00000000000E+00  0.50000000000E+03  0.50000000000E+03  0.00000000000E+00 0.  1.
         11   -1    0    0    0    0 -0.00000000000E+00 -0.00000000000E+00 -0.50000000000E+03  0.50000000000E+03  0.00000000000E+00 0.  1.
        -11    1    1    2    0    0 -0.52480407390E+01 -0.20947720810E+01  0.41656346837E+03  0.41660179210E+03  0.00000000000E+00 0.  1.
         11    1    1    2    0    0  0.99528302831E+01  0.12420294553E+02 -0.49830001672E+03  0.49855413869E+03  0.00000000000E+00 0.  1.
        -15    1    1    2    0    0  0.15894303320E+01 -0.89048117065E+01  0.74176617841E+02  0.74747242916E+02  0.17770000000E+01 0.  1.
         15    1    1    2    0    0 -0.62942198760E+01 -0.14207107650E+01  0.75599305032E+01  0.10096826290E+02  0.17770000000E+01 0. -1.
</event>
<event>
 6    1  0.1782050E-003  0.5026397E+03  0.7546771E-02  0.9393923E-01
        -11   -1    0    0    0    0  0.00000000000E+00  0.00000000000E+00  0.50000000000E+03  0.50000000000E+03  0.00000000000E+00 0.  1.
         11   -1    0    0    0    0 -0.00000000000E+00 -0.00000000000E+00 -0.50000000000E+03  0.50000000000E+03  0.00000000000E+00 0. -1.
        -11    1    1    2    0    0  0.68050590117E+01  0.33637245823E+01  0.46346075014E+03  0.46352291247E+03  0.00000000000E+00 0.  1.
         11    1    1    2    0    0 -0.63326354694E+01  0.42088491506E+01 -0.49730219323E+03  0.49736032016E+03  0.00000000000E+00 0. -1.
        -15    1    1    2    0    0  0.39000400111E+01 -0.81431594027E+00  0.79624269543E-01  0.43631974014E+01  0.17770000000E+01 0. -1.
         15    1    1    2    0    0 -0.43724635535E+01 -0.67582577926E+01  0.33761818823E+02  0.34753569963E+02  0.17770000000E+01 0.  1.
</event>
<event>
 6    1  0.1782050E-003  0.5057169E+03  0.7546771E-02  0.9387108E-01
        -11   -1    0    0    0    0  0.00000000000E+00  0.00000000000E+00  0.50000000000E+03  0.50000000000E+03  0.00000000000E+00 0.  1.
         11   -1    0    0    0    0 -0.00000000000E+00 -0.00000000000E+00 -0.50000000000E+03  0.50000000000E+03  0.00000000000E+00 0. -1.
        -11    1    1    2    0    0  0.65465211945E+01 -0.94574582273E+01  0.49414929121E+03  0.49428313997E+03  0.00000000000E+00 0.  1.
         11    1    1    2    0    0 -0.55058381337E+01 -0.40930556460E+01 -0.45450643099E+03  0.45455820658E+03  0.00000000000E+00 0. -1.
        -15    1    1    2    0    0  0.51171176792E+01  0.60316144669E+01 -0.40442046095E+02  0.41246600924E+02  0.17770000000E+01 0.  1.
         15    1    1    2    0    0 -0.61578007400E+01  0.75188994064E+01  0.79918588143E+00  0.99120525276E+01  0.17770000000E+01 0. -1.
</event>
<event>
 6    1  0.1782050E-003  0.5504548E+03  0.7546771E-02  0.9293492E-01
        -11   -1    0    0    0    0  0.00000000000E+00  0.00000000000E+00  0.50000000000E+03  0.50000000000E+03  0.00000000000E+00 0.  1.
         11   -1    0    0    0    0 -0.00000000000E+00 -0.00000000000E+00 -0.50000000000E+03  0.50000000000E+03  0.00000000000E+00 0. -1.
        -11    1    1    2    0    0 -0.11141384339E+02  0.35721782529E+01  0.44939287059E+03  0.44954515128E+03  0.00000000000E+00 0.  1.
         11    1    1    2    0    0  0.20377948352E+01 -0.78900176651E+01 -0.43272720380E+03  0.43280392546E+03  0.00000000000E+00 0. -1.
        -15    1    1    2    0    0  0.19594114834E+02 -0.53834226117E+02 -0.68609239162E+01  0.57725932160E+02  0.17770000000E+01 0. -1.
         15    1    1    2    0    0 -0.10490525330E+02  0.58152065529E+02 -0.98047428719E+01  0.59924991104E+02  0.17770000000E+01 0.  1.
</event>
<event>
 6    1  0.1782050E-003  0.5050655E+03  0.7546771E-02  0.9388546E-01
        -11   -1    0    0    0    0  0.00000000000E+00  0.00000000000E+00  0.50000000000E+03  0.50000000000E+03  0.00000000000E+00 0.  1.
         11   -1    0    0    0    0 -0.00000000000E+00 -0.00000000000E+00 -0.50000000000E+03  0.50000000000E+03  0.00000000000E+00 0.  1.
        -11    1    1    2    0    0  0.35645479861E+01 -0.20796635487E+02  0.43705519797E+03  0.43756422629E+03  0.00000000000E+00 0.  1.
         11    1    1    2    0    0  0.58319865259E+01  0.73207742092E+01 -0.49484595180E+03  0.49493446214E+03  0.00000000000E+00 0.  1.
        -15    1    1    2    0    0  0.10460933245E+01  0.21478186400E+02  0.37079443152E+02  0.42900461953E+02  0.17770000000E+01 0.  1.
         15    1    1    2    0    0 -0.10442627836E+02 -0.80023251218E+01  0.20711310671E+02  0.24600849624E+02  0.17770000000E+01 0. -1.
</event>
<event>
 6    1  0.1782050E-003  0.5082828E+03  0.7546771E-02  0.9381465E-01
        -11   -1    0    0    0    0  0.00000000000E+00  0.00000000000E+00  0.50000000000E+03  0.50000000000E+03  0.00000000000E+00 0. -1.
         11   -1    0    0    0    0 -0.00000000000E+00 -0.00000000000E+00 -0.50000000000E+03  0.50000000000E+03  0.00000000000E+00 0. -1.
        -11    1    1    2    0    0 -0.38606835625E+01 -0.14083760622E+02  0.49150027225E+03  0.49171716954E+03  0.00000000000E+00 0. -1.
         11    1    1    2    0    0  0.53767097660E+01  0.47181766137E+01 -0.47943224269E+03  0.47948560513E+03  0.00000000000E+00 0. -1.
        -15    1    1    2    0    0  0.41362679052E+01  0.99308911268E+01  0.40374530366E+01  0.11627126334E+02  0.17770000000E+01 0.  1.
         15    1    1    2    0    0 -0.56522941087E+01 -0.56530711856E+00 -0.16105482601E+02  0.17170098999E+02  0.17770000000E+01 0. -1.
</event>
<event>
 6    1  0.1782050E-003  0.5051331E+03  0.7546771E-02  0.9388397E-01
        -11   -1    0    0    0    0  0.00000000000E+00  0.00000000000E+00  0.50000000000E+03  0.50000000000E+03  0.00000000000E+00 0.  1.
         11   -1    0    0    0    0 -0.00000000000E+00 -0.00000000000E+00 -0.50000000000E+03  0.50000000000E+03  0.00000000000E+00 0. -1.
        -11    1    1    2    0    0 -0.11421266989E+02  0.43107104121E+01  0.34375088991E+03  0.34396758842E+03  0.00000000000E+00 0.  1.
         11    1    1    2    0    0  0.27002193825E+02 -0.18883867020E+02 -0.49376869111E+03  0.49486689041E+03  0.00000000000E+00 0. -1.
        -15    1    1    2    0    0 -0.16325097220E+02  0.15267792173E+02  0.17016401846E+02  0.28148355864E+02  0.17770000000E+01 0. -1.
         15    1    1    2    0    0  0.74417038290E+00 -0.69463556489E+00  0.13300139935E+03  0.13301716531E+03  0.17770000000E+01 0.  1.
</event>
<event>
 6    1  0.1782050E-003  0.5062369E+03  0.7546771E-02  0.9385961E-01
        -11   -1    0    0    0    0  0.00000000000E+00  0.00000000000E+00  0.50000000000E+03  0.50000000000E+03  0.00000000000E+00 0.  1.
         11   -1    0    0    0    0 -0.00000000000E+00 -0.00000000000E+00 -0.50000000000E+03  0.50000000000E+03  0.00000000000E+00 0.  1.
        -11    1    1    2    0    0  0.21783100556E+01  0.72892279593E+01  0.48465074085E+03  0.48471044809E+03  0.00000000000E+00 0.  1.
         11    1    1    2    0    0 -0.68921376515E+01  0.40972054012E+00 -0.49371485477E+03  0.49376312869E+03  0.00000000000E+00 0.  1.
        -15    1    1    2    0    0 -0.55414662261E+01 -0.10971856614E+01 -0.47499458927E+00  0.59409606269E+01  0.17770000000E+01 0. -1.
         15    1    1    2    0    0  0.10255293822E+02 -0.66017628380E+01  0.95391085117E+01  0.15585462590E+02  0.17770000000E+01 0.  1.
</event>
<event>
 6    1  0.1782050E-003  0.5059275E+03  0.7546771E-02  0.9386643E-01
        -11   -1    0    0    0    0  0.00000000000E+00  0.00000000000E+00  0.50000000000E+03  0.50000000000E+03  0.00000000000E+00 0. -1.
         11   -1    0    0    0    0 -0.00000000000E+00 -0.00000000000E+00 -0.50000000000E+03  0.50000000000E+03  0.00000000000E+00 0. -1.
        -11    1    1    2    0    0 -0.14488753683E+02  0.71387822135E+00  0.49385950569E+03  0.49407250982E+03  0.00000000000E+00 0. -1.
         11    1    1    2    0    0 -0.15391145366E+02  0.55965721424E+01 -0.35837223041E+03  0.35874623971E+03  0.00000000000E+00 0. -1.
        -15    1    1    2    0    0  0.23262752285E+01 -0.11597480509E+02 -0.38350845701E+01  0.12560999692E+02  0.17770000000E+01 0. -1.
         15    1    1    2    0    0  0.27553623820E+02  0.52870301450E+01 -0.13165219070E+03  0.13462025077E+03  0.17770000000E+01 0.  1.
</event>
<event>
 6    1  0.1782050E-003  0.4597709E+03  0.7546771E-02  0.9494617E-01
        -11   -1    0    0    0    0  0.00000000000E+00  0.00000000000E+00  0.50000000000E+03  0.50000000000E+03  0.00000000000E+00 0.  1.
         11   -1    0    0    0    0 -0.00000000000E+00 -0.00000000000E+00 -0.50000000000E+03  0.50000000000E+03  0.00000000000E+00 0.  1.
        -11    1    1    2    0    0  0.65648312706E+01 -0.32346835507E+02  0.46131766960E+03  0.46249692655E+03  0.00000000000E+00 0.  1.
         11    1    1    2    0    0 -0.83542368554E+01 -0.22098270450E+02 -0.45805387951E+03  0.45866271199E+03  0.00000000000E+00 0.  1.
        -15    1    1    2    0    0  0.24077584019E+02  0.37731572850E+02  0.12858787294E+02  0.46603731413E+02  0.17770000000E+01 0.  1.
         15    1    1    2    0    0 -0.22288178435E+02  0.16713533107E+02 -0.16122577383E+02  0.32236630055E+02  0.17770000000E+01 0. -1.
</event>
<event>
 6    1  0.1782050E-003  0.5001696E+03  0.7546771E-02  0.9399430E-01
        -11   -1    0    0    0    0  0.00000000000E+00  0.00000000000E+00  0.50000000000E+03  0.50000000000E+03  0.00000000000E+00 0.  1.
         11   -1    0    0    0    0 -0.00000000000E+00 -0.00000000000E+00 -0.50000000000E+03  0.50000000000E+03  0.00000000000E+00 0. -1.
        -11    1    1    2    0    0 -0.15102736808E+02 -0.26342317447E+01  0.49959519096E+03  0.49983035789E+03  0.00000000000E+00 0.  1.
         11    1    1    2    0    0 -0.15960684393E+01  0.22017730011E+01 -0.91552161300E+02  0.91592540513E+02  0.00000000000E+00 0. -1.
        -15    1    1    2    0    0  0.41530615293E+00  0.37475459250E+01 -0.84398132358E+02  0.84501000314E+02  0.17770000000E+01 0.  1.
         15    1    1    2    0    0  0.16283499094E+02 -0.33150871814E+01 -0.32364489730E+03  0.32407610129E+03  0.17770000000E+01 0. -1.
</event>
<event>
 6    1  0.1782050E-003  0.5033814E+03  0.7546771E-02  0.9392275E-01
        -11   -1    0    0    0    0  0.00000000000E+00  0.00000000000E+00  0.50000000000E+03  0.50000000000E+03  0.00000000000E+00 0.  1.
         11   -1    0    0    0    0 -0.00000000000E+00 -0.00000000000E+00 -0.50000000000E+03  0.50000000000E+03  0.00000000000E+00 0. -1.
        -11    1    1    2    0    0 -0.16770690810E+01  0.10877697156E+02  0.45402450803E+03  0.45415789187E+03  0.00000000000E+00 0.  1.
         11    1    1    2    0    0 -0.34150807710E+01  0.67325447169E+01 -0.49656117457E+03  0.49661855586E+03  0.00000000000E+00 0. -1.
        -15    1    1    2    0    0  0.28708920117E+01  0.15218864137E+01  0.17780577774E+01  0.41082085705E+01  0.17770000000E+01 0. -1.
         15    1    1    2    0    0  0.22212578402E+01 -0.19132128286E+02  0.40758608767E+02  0.45115343696E+02  0.17770000000E+01 0.  1.
</event>
<event>
 6    1  0.1782050E-003  0.5011676E+03  0.7546771E-02  0.9397201E-01
        -11   -1    0    0    0    0  0.00000000000E+00  0.00000000000E+00  0.50000000000E+03  0.50000000000E+03  0.00000000000E+00 0. -1.
         11   -1    0    0    0    0 -0.00000000000E+00 -0.00000000000E+00 -0.50000000000E+03  0.50000000000E+03  0.00000000000E+00 0.  1.
        -11    1    1    2    0    0 -0.29905279818E+00  0.62261374079E+01  0.42645110156E+03  0.42649665444E+03  0.00000000000E+00 0. -1.
         11    1    1    2    0    0  0.12896342076E+02 -0.46441925144E+01 -0.49864403265E+03  0.49883239215E+03  0.00000000000E+00 0.  1.
        -15    1    1    2    0    0 -0.53103135442E+01 -0.40782392623E+01  0.58106916516E+02  0.58518398316E+02  0.17770000000E+01 0.  1.
         15    1    1    2    0    0 -0.72869757335E+01  0.24962943688E+01  0.14086014566E+02  0.16152555100E+02  0.17770000000E+01 0. -1.
</event>
<event>
 6    1  0.1782050E-003  0.5003109E+03  0.7546771E-02  0.9399114E-01
        -11   -1    0    0    0    0  0.00000000000E+00  0.00000000000E+00  0.50000000000E+03  0.50000000000E+03  0.00000000000E+00 0.  1.
         11   -1    0    0    0    0 -0.00000000000E+00 -0.00000000000E+00 -0.50000000000E+03  0.50000000000E+03  0.00000000000E+00 0. -1.
        -11    1    1    2    0    0  0.93590269642E+01  0.60104634541E+01  0.27859512261E+03  0.27881707157E+03  0.00000000000E+00 0.  1.
         11    1    1    2    0    0 -0.14702244935E+01 -0.87683780623E+01 -0.49961001195E+03  0.49968911341E+03  0.00000000000E+00 0. -1.
        -15    1    1    2    0    0 -0.54091660845E+01 -0.17034909806E+01  0.18301869292E+03  0.18311515679E+03  0.17770000000E+01 0.  1.
         15    1    1    2    0    0 -0.24796363863E+01  0.44614055888E+01  0.37996196422E+02  0.38378658236E+02  0.17770000000E+01 0. -1.
</event>
<event>
 6    1  0.1782050E-003  0.5100377E+03  0.7546771E-02  0.9377626E-01
        -11   -1    0    0    0    0  0.00000000000E+00  0.00000000000E+00  0.50000000000E+03  0.50000000000E+03  0.00000000000E+00 0. -1.
         11   -1    0    0    0    0 -0.00000000000E+00 -0.00000000000E+00 -0.50000000000E+03  0.50000000000E+03  0.00000000000E+00 0. -1.
        -11    1    1    2    0    0 -0.79974487075E+01  0.28570278430E+02  0.48906323937E+03  0.48996231702E+03  0.00000000000E+00 0. -1.
         11    1    1    2    0    0 -0.25354067369E+01 -0.10171706709E+02 -0.40884053981E+03  0.40897491230E+03  0.00000000000E+00 0. -1.
        -15    1    1    2    0    0  0.18052930396E+02 -0.96343231020E+01 -0.85722451847E+02  0.88148879501E+02  0.17770000000E+01 0. -1.
         15    1    1    2    0    0 -0.75200749518E+01 -0.87642486197E+01  0.54997522854E+01  0.12913891178E+02  0.17770000000E+01 0.  1.
</event>
<event>
 6    1  0.1782050E-003  0.5009057E+03  0.7546771E-02  0.9397785E-01
        -11   -1    0    0    0    0  0.00000000000E+00  0.00000000000E+00  0.50000000000E+03  0.50000000000E+03  0.00000000000E+00 0. -1.
         11   -1    0    0    0    0 -0.00000000000E+00 -0.00000000000E+00 -0.50000000000E+03  0.50000000000E+03  0.00000000000E+00 0. -1.
        -11    1    1    2    0    0  0.41801814557E+01 -0.10999260675E-01  0.25268993230E+03  0.25272450598E+03  0.00000000000E+00 0. -1.
         11    1    1    2    0    0 -0.53103442494E+01 -0.87739068428E+01 -0.49898888818E+03  0.49909427138E+03  0.00000000000E+00 0. -1.
        -15    1    1    2    0    0 -0.33066562723E+01 -0.13770890514E+01  0.21304068817E+03  0.21307820840E+03  0.17770000000E+01 0. -1.
         15    1    1    2    0    0  0.44368190660E+01  0.10161995155E+02  0.33258267710E+02  0.35103014244E+02  0.17770000000E+01 0.  1.
</event>
<event>
 6    1  0.1782050E-003  0.5054497E+03  0.7546771E-02  0.9387697E-01
        -11   -1    0    0    0    0  0.00000000000E+00  0.00000000000E+00  0.50000000000E+03  0.50000000000E+03  0.00000000000E+00 0. -1.
         11   -1    0    0    0    0 -0.00000000000E+00 -0.00000000000E+00 -0.50000000000E+03  0.50000000000E+03  0.00000000000E+00 0.  1.
        -11    1    1    2    0    0  0.12403960040E+02 -0.38439876381E+01  0.47196808538E+03  0.47214670186E+03  0.00000000000E+00 0. -1.
         11    1    1    2    0    0 -0.24308845514E+01  0.66653553963E+01 -0.49449940690E+03  0.49455030036E+03  0.00000000000E+00 0.  1.
        -15    1    1    2    0    0 -0.18991025009E+01 -0.11592719525E+02  0.14818208686E+02  0.18993019085E+02  0.17770000000E+01 0.  1.
         15    1    1    2    0    0 -0.80739729878E+01  0.87713517670E+01  0.77131128351E+01  0.14309978694E+02  0.17770000000E+01 0. -1.
</event>
<event>
 6    1  0.1782050E-003  0.4874317E+03  0.7546771E-02  0.9428380E-01
        -11   -1    0    0    0    0  0.00000000000E+00  0.00000000000E+00  0.50000000000E+03  0.50000000000E+03  0.00000000000E+00 0. -1.
         11   -1    0    0    0    0 -0.00000000000E+00 -0.00000000000E+00 -0.50000000000E+03  0.50000000000E+03  0.00000000000E+00 0.  1.
        -11    1    1    2    0    0 -0.11878534192E+02  0.17262279943E+01  0.48856545703E+03  0.48871288631E+03  0.00000000000E+00 0. -1.
         11    1    1    2    0    0  0.42737155277E+01  0.82791116861E+01 -0.48614523639E+03  0.48623451050E+03  0.00000000000E+00 0.  1.
        -15    1    1    2    0    0 -0.69899519799E+01 -0.19156770204E+01 -0.34883999211E+01  0.82374698869E+01  0.17770000000E+01 0. -1.
         15    1    1    2    0    0  0.14594770644E+02 -0.80896626600E+01  0.10681792792E+01  0.16815133305E+02  0.17770000000E+01 0.  1.
</event>
<event>
 6    1  0.1782050E-003  0.5095298E+03  0.7546771E-02  0.9378735E-01
        -11   -1    0    0    0    0  0.00000000000E+00  0.00000000000E+00  0.50000000000E+03  0.50000000000E+03  0.00000000000E+00 0.  1.
         11   -1    0    0    0    0 -0.00000000000E+00 -0.00000000000E+00 -0.50000000000E+03  0.50000000000E+03  0.00000000000E+00 0. -1.
        -11    1    1    2    0    0 -0.10178570390E+02 -0.40593049437E+01  0.49034781269E+03  0.49047024238E+03  0.00000000000E+00 0.  1.
         11    1    1    2    0    0 -0.11296383203E+01  0.68581419145E+00 -0.68232986097E+02  0.68245782401E+02  0.00000000000E+00 0. -1.
        -15    1    1    2    0    0 -0.17184394966E+02  0.14997231607E+01 -0.40975021183E+03  0.41011699115E+03  0.17770000000E+01 0. -1.
         15    1    1    2    0    0  0.28492603676E+02  0.18737675915E+01 -0.12364614757E+02  0.31166984075E+02  0.17770000000E+01 0.  1.
</event>
<event>
 6    1  0.1782050E-003  0.5010165E+03  0.7546771E-02  0.9397538E-01
        -11   -1    0    0    0    0  0.00000000000E+00  0.00000000000E+00  0.50000000000E+03  0.50000000000E+03  0.00000000000E+00 0. -1.
         11   -1    0    0    0    0 -0.00000000000E+00 -0.00000000000E+00 -0.50000000000E+03  0.50000000000E+03  0.00000000000E+00 0.  1.
        -11    1    1    2    0    0  0.28760984549E+01 -0.13180137000E+02  0.49880110464E+03  0.49898349666E+03  0.00000000000E+00 0. -1.
         11    1    1    2    0    0 -0.10511154888E+01  0.22866320072E+01 -0.10005637322E+03  0.10008801802E+03  0.00000000000E+00 0.  1.
        -15    1    1    2    0    0  0.14200267882E+02 -0.28135734662E+01 -0.69999548646E+02  0.71502855490E+02  0.17770000000E+01 0. -1.
         15    1    1    2    0    0 -0.16025250848E+02  0.13707078459E+02 -0.32874518277E+03  0.32942562983E+03  0.17770000000E+01 0.  1.
</event>
<event>
 6    1  0.1782050E-003  0.5002398E+03  0.7546771E-02  0.9399273E-01
        -11   -1    0    0    0    0  0.00000000000E+00  0.00000000000E+00  0.50000000000E+03  0.50000000000E+03  0.00000000000E+00 0.  1.
         11   -1    0    0    0    0 -0.00000000000E+00 -0.00000000000E+00 -0.50000000000E+03  0.50000000000E+03  0.00000000000E+00 0. -1.
        -11    1    1    2    0    0  0.99408000661E+01 -0.20618190993E+02  0.49923569832E+03  0.49976015425E+03  0.00000000000E+00 0.  1.
         11    1    1    2    0    0 -0.24747416042E+00 -0.21703751897E+01 -0.67963288682E+02  0.67998385131E+02  0.00000000000E+00 0. -1.
        -15    1    1    2    0    0  0.20930462572E+01  0.14495497847E+01 -0.10870175073E+03  0.10874608212E+03  0.17770000000E+01 0.  1.
         15    1    1    2    0    0 -0.11786372163E+02  0.21339016398E+02 -0.32257065891E+03  0.32349537849E+03  0.17770000000E+01 0. -1.
</event>
<event>
 6    1  0.1782050E-003  0.4775709E+03  0.7546771E-02  0.9451444E-01
        -11   -1    0    0    0    0  0.00000000000E+00  0.00000000000E+00  0.50000000000E+03  0.50000000000E+03  0.00000000000E+00 0.  1.
         11   -1    0    0    0    0 -0.00000000000E+00 -0.00000000000E+00 -0.50000000000E+03  0.50000000000E+03  0.00000000000E+00 0.  1.
        -11    1    1    2    0    0 -0.29226125059E+02 -0.14462626031E+01  0.47568232201E+03  0.47658150356E+03  0.00000000000E+00 0.  1.
         11    1    1    2    0    0  0.73711640638E+01  0.18698597848E+00 -0.47875938608E+03  0.47881616387E+03  0.00000000000E+00 0.  1.
        -15    1    1    2    0    0  0.17234782733E+02 -0.56727238830E+01 -0.15651308616E+02  0.24027873866E+02  0.17770000000E+01 0. -1.
         15    1    1    2    0    0  0.46201782625E+01  0.69320005076E+01  0.18728372693E+02  0.20574458703E+02  0.17770000000E+01 0.  1.
</event>
<event>
 6    1  0.1782050E-003  0.5404014E+03  0.7546771E-02  0.9313686E-01
        -11   -1    0    0    0    0  0.00000000000E+00  0.00000000000E+00  0.50000000000E+03  0.50000000000E+03  0.00000000000E+00 0. -1.
         11   -1    0    0    0    0 -0.00000000000E+00 -0.00000000000E+00 -0.50000000000E+03  0.50000000000E+03  0.00000000000E+00 0. -1.
        -11    1    1    2    0    0 -0.23886742821E+01 -0.10078306957E+02  0.38472385909E+03  0.38486325596E+03  0.00000000000E+00 0. -1.
         11    1    1    2    0    0  0.11768349867E+02 -0.23003293098E+02 -0.45887168086E+03  0.45959859122E+03  0.00000000000E+00 0. -1.
        -15    1    1    2    0    0 -0.40741422956E+02  0.17765428814E+02  0.10172203954E+03  0.11102254304E+03  0.17770000000E+01 0.  1.
         15    1    1    2    0    0  0.31361747371E+02  0.15316171241E+02 -0.27574217768E+02  0.44515609781E+02  0.17770000000E+01 0. -1.
</event>
<event>
 6    1  0.1782050E-003  0.5018136E+03  0.7546771E-02  0.9395761E-01
        -11   -1    0    0    0    0  0.00000000000E+00  0.00000000000E+00  0.50000000000E+03  0.50000000000E+03  0.00000000000E+00 0. -1.
         11   -1    0    0    0    0 -0.00000000000E+00 -0.00000000000E+00 -0.50000000000E+03  0.50000000000E+03  0.00000000000E+00 0.  1.
        -11    1    1    2    0    0  0.16120046103E+01  0.12581724634E+02  0.49802492244E+03  0.49818643270E+03  0.00000000000E+00 0. -1.
         11    1    1    2    0    0  0.44839341396E+01 -0.57466402999E+01 -0.38147516830E+03  0.38154479890E+03  0.00000000000E+00 0.  1.
        -15    1    1    2    0    0  0.67194466331E+00  0.85872041672E+01 -0.73230995879E+02  0.73757223859E+02  0.17770000000E+01 0. -1.
         15    1    1    2    0    0 -0.67678834132E+01 -0.15422288502E+02 -0.43318758263E+02  0.46511544534E+02  0.17770000000E+01 0. -1.
</event>
<event>
 6    1  0.1782050E-003  0.5051038E+03  0.7546771E-02  0.9388461E-01
        -11   -1    0    0    0    0  0.00000000000E+00  0.00000000000E+00  0.50000000000E+03  0.50000000000E+03  0.00000000000E+00 0.  1.
         11   -1    0    0    0    0 -0.00000000000E+00 -0.00000000000E+00 -0.50000000000E+03  0.50000000000E+03  0.00000000000E+00 0.  1.
        -11    1    1    2    0    0 -0.10451800658E+01  0.88965196235E+01  0.39379622589E+03  0.39389809340E+03  0.00000000000E+00 0.  1.
         11    1    1    2    0    0  0.29059956262E+02  0.50638475461E+00 -0.49404197806E+03  0.49489616443E+03  0.00000000000E+00 0.  1.
        -15    1    1    2    0    0 -0.18380267635E+02 -0.13998886162E+02  0.97256564501E+02  0.99978998393E+02  0.17770000000E+01 0. -1.
         15    1    1    2    0    0 -0.96345085614E+01  0.45959817836E+01  0.29891876740E+01  0.11226743772E+02  0.17770000000E+01 0.  1.
</event>
<event>
 6    1  0.1782050E-003  0.4597414E+03  0.7546771E-02  0.9494690E-01
        -11   -1    0    0    0    0  0.00000000000E+00  0.00000000000E+00  0.50000000000E+03  0.50000000000E+03  0.00000000000E+00 0. -1.
         11   -1    0    0    0    0 -0.00000000000E+00 -0.00000000000E+00 -0.50000000000E+03  0.50000000000E+03  0.00000000000E+00 0.  1.
        -11    1    1    2    0    0  0.92231213700E+01 -0.21510498340E+01  0.45786501354E+03  0.45796295003E+03  0.00000000000E+00 0. -1.
         11    1    1    2    0    0  0.24256763286E+01  0.10209001893E+01 -0.37757217112E+02  0.37848825436E+02  0.00000000000E+00 0.  1.
        -15    1    1    2    0    0 -0.45892981985E+01 -0.94187636496E+01  0.41278221284E+02  0.42624219031E+02  0.17770000000E+01 0. -1.
         15    1    1    2    0    0 -0.70594995001E+01  0.10548913294E+02 -0.46138601771E+03  0.46156400550E+03  0.17770000000E+01 0.  1.
</event>
<event>
 6    1  0.1782050E-003  0.5201421E+03  0.7546771E-02  0.9355835E-01
        -11   -1    0    0    0    0  0.00000000000E+00  0.00000000000E+00  0.50000000000E+03  0.50000000000E+03  0.00000000000E+00 0.  1.
         11   -1    0    0    0    0 -0.00000000000E+00 -0.00000000000E+00 -0.50000000000E+03  0.50000000000E+03  0.00000000000E+00 0.  1.
        -11    1    1    2    0    0 -0.24947085963E+01 -0.19716157950E+02  0.47944617815E+03  0.47985788333E+03  0.00000000000E+00 0.  1.
         11    1    1    2    0    0  0.17253142612E+02  0.68814005546E+01 -0.42886917224E+03  0.42927123302E+03  0.00000000000E+00 0.  1.
        -15    1    1    2    0    0  0.49352418346E+01  0.12663796043E+02 -0.64978191893E+02  0.66408218564E+02  0.17770000000E+01 0.  1.
         15    1    1    2    0    0 -0.19693675851E+02  0.17096135328E+00  0.14401185979E+02  0.24462665081E+02  0.17770000000E+01 0. -1.
</event>
<event>
 6    1  0.1782050E-003  0.5002409E+03  0.7546771E-02  0.9399271E-01
        -11   -1    0    0    0    0  0.00000000000E+00  0.00000000000E+00  0.50000000000E+03  0.50000000000E+03  0.00000000000E+00 0. -1.
         11   -1    0    0    0    0 -0.00000000000E+00 -0.00000000000E+00 -0.50000000000E+03  0.50000000000E+03  0.00000000000E+00 0. -1.
        -11    1    1    2    0    0 -0.65405289043E+01  0.47875360863E+01  0.49969340684E+03  0.49975914184E+03  0.00000000000E+00 0. -1.
         11    1    1    2    0    0 -0.15964072132E+01  0.13650879057E+01 -0.11247042085E+03  0.11249003310E+03  0.00000000000E+00 0. -1.
        -15    1    1    2    0    0  0.18912297049E+01 -0.63052195103E+01 -0.34157366819E+03  0.34164171448E+03  0.17770000000E+01 0. -1.
         15    1    1    2    0    0  0.62457064126E+01  0.15259551823E+00 -0.45649317794E+02  0.46109110575E+02  0.17770000000E+01 0.  1.
</event>
<event>
 6    1  0.1782050E-003  0.5012156E+03  0.7546771E-02  0.9397094E-01
        -11   -1    0    0    0    0  0.00000000000E+00  0.00000000000E+00  0.50000000000E+03  0.50000000000E+03  0.00000000000E+00 0.  1.
         11   -1    0    0    0    0 -0.00000000000E+00 -0.00000000000E+00 -0.50000000000E+03  0.50000000000E+03  0.00000000000E+00 0. -1.
        -11    1    1    2    0    0  0.37531894183E+01 -0.55497583059E+01  0.42565578244E+03  0.42570850516E+03  0.00000000000E+00 0.  1.
         11    1    1    2    0    0 -0.63691166983E+01  0.44945674507E+01 -0.49872344807E+03  0.49878436667E+03  0.00000000000E+00 0. -1.
        -15    1    1    2    0    0  0.74657089120E+01 -0.82453422309E-01  0.12220857386E+02  0.14430893679E+02  0.17770000000E+01 0. -1.
         15    1    1    2    0    0 -0.48497816320E+01  0.11376442775E+01  0.60846808245E+02  0.61076234486E+02  0.17770000000E+01 0.  1.
</event>
<event>
 6    1  0.1782050E-003  0.5097500E+03  0.7546771E-02  0.9378254E-01
        -11   -1    0    0    0    0  0.00000000000E+00  0.00000000000E+00  0.50000000000E+03  0.50000000000E+03  0.00000000000E+00 0.  1.
         11   -1    0    0    0    0 -0.00000000000E+00 -0.00000000000E+00 -0.50000000000E+03  0.50000000000E+03  0.00000000000E+00 0.  1.
        -11    1    1    2    0    0 -0.70703069353E+01  0.11561055248E+01  0.49019761613E+03  0.49024996551E+03  0.00000000000E+00 0.  1.
         11    1    1    2    0    0  0.60531084555E+01 -0.94339453455E+00 -0.43862459389E+03  0.43866737339E+03  0.00000000000E+00 0.  1.
        -15    1    1    2    0    0 -0.14367844171E+02  0.18619667041E+02 -0.32342522870E+02  0.40029032732E+02  0.17770000000E+01 0. -1.
         15    1    1    2    0    0  0.15385042651E+02 -0.18832378031E+02 -0.19230499375E+02  0.31053628369E+02  0.17770000000E+01 0.  1.
</event>
<event>
 6    1  0.1782050E-003  0.5010751E+03  0.7546771E-02  0.9397407E-01
        -11   -1    0    0    0    0  0.00000000000E+00  0.00000000000E+00  0.50000000000E+03  0.50000000000E+03  0.00000000000E+00 0.  1.
         11   -1    0    0    0    0 -0.00000000000E+00 -0.00000000000E+00 -0.50000000000E+03  0.50000000000E+03  0.00000000000E+00 0.  1.
        -11    1    1    2    0    0  0.81668208496E+01  0.34680044392E+01  0.49884600821E+03  0.49892490810E+03  0.00000000000E+00 0.  1.
         11    1    1    2    0    0 -0.34367270702E+01 -0.14940984269E+02 -0.38664484429E+03  0.38694867841E+03  0.00000000000E+00 0.  1.
        -15    1    1    2    0    0 -0.52986990968E+01  0.92852496511E+01 -0.30386904685E+02  0.32261645626E+02  0.17770000000E+01 0. -1.
         15    1    1    2    0    0  0.56860531746E+00  0.21877301785E+01 -0.81814259233E+02  0.81864767869E+02  0.17770000000E+01 0.  1.
</event>
<event>
 6    1  0.1782050E-003  0.5054880E+03  0.7546771E-02  0.9387613E-01
        -11   -1    0    0    0    0  0.00000000000E+00  0.00000000000E+00  0.50000000000E+03  0.50000000000E+03  0.00000000000E+00 0. -1.
         11   -1    0    0    0    0 -0.00000000000E+00 -0.00000000000E+00 -0.50000000000E+03  0.50000000000E+03  0.00000000000E+00 0.  1.
        -11    1    1    2    0    0  0.61070810399E+01  0.46058381642E+01  0.49445287227E+03  0.49451203532E+03  0.00000000000E+00 0. -1.
         11    1    1    2    0    0  0.90051702861E+01 -0.10144770586E+02 -0.42086036657E+03  0.42107892088E+03  0.00000000000E+00 0.  1.
        -15    1    1    2    0    0 -0.11634733711E+02 -0.84227899044E+01 -0.66732501606E+01  0.15937390470E+02  0.17770000000E+01 0. -1.
         15    1    1    2    0    0 -0.34775176149E+01  0.13961722327E+02 -0.66919255534E+02  0.68471653327E+02  0.17770000000E+01 0.  1.
</event>
<event>
 6    1  0.1782050E-003  0.5130047E+03  0.7546771E-02  0.9371172E-01
        -11   -1    0    0    0    0  0.00000000000E+00  0.00000000000E+00  0.50000000000E+03  0.50000000000E+03  0.00000000000E+00 0. -1.
         11   -1    0    0    0    0 -0.00000000000E+00 -0.00000000000E+00 -0.50000000000E+03  0.50000000000E+03  0.00000000000E+00 0. -1.
        -11    1    1    2    0    0  0.52089372338E+01  0.42768013584E+01  0.48694870868E+03  0.48699534797E+03  0.00000000000E+00 0. -1.
         11    1    1    2    0    0  0.14576852355E+02  0.35291101174E+01 -0.45866570639E+03  0.45891085132E+03  0.00000000000E+00 0. -1.
        -15    1    1    2    0    0 -0.15785494100E+01 -0.34987891833E+01  0.10323142236E+02  0.11156089754E+02  0.17770000000E+01 0.  1.
         15    1    1    2    0    0 -0.18207240179E+02 -0.43071222924E+01 -0.38606144534E+02  0.42937710956E+02  0.17770000000E+01 0. -1.
</event>
<event>
 6    1  0.1782050E-003  0.5031859E+03  0.7546771E-02  0.9392709E-01
        -11   -1    0    0    0    0  0.00000000000E+00  0.00000000000E+00  0.50000000000E+03  0.50000000000E+03  0.00000000000E+00 0. -1.
         11   -1    0    0    0    0 -0.00000000000E+00 -0.00000000000E+00 -0.50000000000E+03  0.50000000000E+03  0.00000000000E+00 0.  1.
        -11    1    1    2    0    0 -0.69639171420E+01 -0.48961318637E+01  0.40597116249E+03  0.40606040563E+03  0.00000000000E+00 0. -1.
         11    1    1    2    0    0 -0.72994336285E+01 -0.77705633100E+01 -0.49669967758E+03  0.49681408302E+03  0.00000000000E+00 0.  1.
        -15    1    1    2    0    0  0.20974988370E+02  0.11724332696E+02  0.84088192042E+02  0.87472234933E+02  0.17770000000E+01 0. -1.
         15    1    1    2    0    0 -0.67116375999E+01  0.94236247822E+00  0.66403230446E+01  0.96532764101E+01  0.17770000000E+01 0.  1.
</event>
<event>
 6    1  0.1782050E-003  0.5747051E+03  0.7546771E-02  0.9246605E-01
        -11   -1    0    0    0    0  0.00000000000E+00  0.00000000000E+00  0.50000000000E+03  0.50000000000E+03  0.00000000000E+00 0. -1.
         11   -1    0    0    0    0 -0.00000000000E+00 -0.00000000000E+00 -0.50000000000E+03  0.50000000000E+03  0.00000000000E+00 0.  1.
        -11    1    1    2    0    0 -0.11759962320E+02  0.54260541470E+02  0.42165540524E+03  0.42529493748E+03  0.00000000000E+00 0. -1.
         11    1    1    2    0    0  0.86848726670E+01 -0.48204029174E+01 -0.29226880080E+03  0.29243754071E+03  0.00000000000E+00 0.  1.
        -15    1    1    2    0    0 -0.28791477688E+02 -0.94070195731E+02  0.38488425544E+02  0.10565352593E+03  0.17770000000E+01 0. -1.
         15    1    1    2    0    0  0.31866567341E+02  0.44630057178E+02 -0.16787502999E+03  0.17661399588E+03  0.17770000000E+01 0.  1.
</event>
<event>
 6    1  0.1782050E-003  0.5241858E+03  0.7546771E-02  0.9347261E-01
        -11   -1    0    0    0    0  0.00000000000E+00  0.00000000000E+00  0.50000000000E+03  0.50000000000E+03  0.00000000000E+00 0. -1.
         11   -1    0    0    0    0 -0.00000000000E+00 -0.00000000000E+00 -0.50000000000E+03  0.50000000000E+03  0.00000000000E+00 0. -1.
        -11    1    1    2    0    0 -0.18549528280E+02  0.27439033567E+02  0.14557187714E+03  0.14929218659E+03  0.00000000000E+00 0. -1.
         11    1    1    2    0    0  0.59943450053E+01  0.56187717774E+01 -0.47574321782E+03  0.47581415707E+03  0.00000000000E+00 0. -1.
        -15    1    1    2    0    0  0.17469185601E+02 -0.26932664048E+02  0.35104854547E+03  0.35251777238E+03  0.17770000000E+01 0. -1.
         15    1    1    2    0    0 -0.49140023263E+01 -0.61251412960E+01 -0.20877204783E+02  0.22375883967E+02  0.17770000000E+01 0. -1.
</event>
<event>
 6    1  0.1782050E-003  0.4698891E+03  0.7546771E-02  0.9469826E-01
        -11   -1    0    0    0    0  0.00000000000E+00  0.00000000000E+00  0.50000000000E+03  0.50000000000E+03  0.00000000000E+00 0.  1.
         11   -1    0    0    0    0 -0.00000000000E+00 -0.00000000000E+00 -0.50000000000E+03  0.50000000000E+03  0.00000000000E+00 0. -1.
        -11    1    1    2    0    0 -0.30742307294E+01 -0.56312474448E+01  0.47327545706E+03  0.47331894120E+03  0.00000000000E+00 0.  1.
         11    1    1    2    0    0  0.23358662908E+01 -0.75952783374E+01 -0.46650935203E+03  0.46657702478E+03  0.00000000000E+00 0. -1.
        -15    1    1    2    0    0 -0.12914266399E+02  0.13697294385E+02  0.21516674922E+02  0.28644705947E+02  0.17770000000E+01 0. -1.
         15    1    1    2    0    0  0.13652630838E+02 -0.47076860284E+00 -0.28282779956E+02  0.31459328075E+02  0.17770000000E+01 0.  1.
</event>
<event>
 6    1  0.1782050E-003  0.5005677E+03  0.7546771E-02  0.9398540E-01
        -11   -1    0    0    0    0  0.00000000000E+00  0.00000000000E+00  0.50000000000E+03  0.50000000000E+03  0.00000000000E+00 0. -1.
         11   -1    0    0    0    0 -0.00000000000E+00 -0.00000000000E+00 -0.50000000000E+03  0.50000000000E+03  0.00000000000E+00 0. -1.
        -11    1    1    2    0    0 -0.41472545838E+01 -0.65777412252E+01  0.49937180061E+03  0.49943233941E+03  0.00000000000E+00 0. -1.
         11    1    1    2    0    0 -0.86647787846E+01  0.69914343129E+01 -0.35774008018E+03  0.35791329050E+03  0.00000000000E+00 0. -1.
        -15    1    1    2    0    0  0.43314604802E+00 -0.36736068136E+01 -0.37419719658E+02  0.37644071921E+02  0.17770000000E+01 0.  1.
         15    1    1    2    0    0  0.12378887320E+02  0.32599137259E+01 -0.10421200077E+03  0.10501029817E+03  0.17770000000E+01 0. -1.
</event>
<event>
 6    1  0.1782050E-003  0.5053619E+03  0.7546771E-02  0.9387891E-01
        -11   -1    0    0    0    0  0.00000000000E+00  0.00000000000E+00  0.50000000000E+03  0.50000000000E+03  0.00000000000E+00 0. -1.
         11   -1    0    0    0    0 -0.00000000000E+00 -0.00000000000E+00 -0.50000000000E+03  0.50000000000E+03  0.00000000000E+00 0. -1.
        -11    1    1    2    0    0 -0.25703083316E+01  0.77362268252E+01  0.49457094990E+03  0.49463813053E+03  0.00000000000E+00 0. -1.
         11    1    1    2    0    0 -0.34757368933E+01 -0.19981286926E+02 -0.41872357027E+03  0.41921445690E+03  0.00000000000E+00 0. -1.
        -15    1    1    2    0    0 -0.28677922974E+01  0.15929547346E+02 -0.74486913414E+02  0.76245870119E+02  0.17770000000E+01 0.  1.
         15    1    1    2    0    0  0.89138375223E+01 -0.36844872450E+01 -0.13604662168E+01  0.99015424536E+01  0.17770000000E+01 0. -1.
</event>
<event>
 6    1  0.1782050E-003  0.5006302E+03  0.7546771E-02  0.9398401E-01
        -11   -1    0    0    0    0  0.00000000000E+00  0.00000000000E+00  0.50000000000E+03  0.50000000000E+03  0.00000000000E+00 0. -1.
         11   -1    0    0    0    0 -0.00000000000E+00 -0.00000000000E+00 -0.50000000000E+03  0.50000000000E+03  0.00000000000E+00 0.  1.
        -11    1    1    2    0    0  0.30834789270E+01 -0.30756115394E+00  0.19638306283E+03  0.19640750954E+03  0.00000000000E+00 0. -1.
         11    1    1    2    0    0  0.60418193936E+01 -0.37886395570E+01 -0.49931887491E+03  0.49936979906E+03  0.00000000000E+00 0.  1.
        -15    1    1    2    0    0  0.43219866047E+01  0.71604412171E+01  0.21705279685E+03  0.21722114500E+03  0.17770000000E+01 0. -1.
         15    1    1    2    0    0 -0.13447284925E+02 -0.30642405061E+01  0.85883015231E+02  0.87001546400E+02  0.17770000000E+01 0.  1.
</event>
<event>
 6    1  0.1782050E-003  0.4946792E+03  0.7546771E-02  0.9411795E-01
        -11   -1    0    0    0    0  0.00000000000E+00  0.00000000000E+00  0.50000000000E+03  0.50000000000E+03  0.00000000000E+00 0. -1.
         11   -1    0    0    0    0 -0.00000000000E+00 -0.00000000000E+00 -0.50000000000E+03  0.50000000000E+03  0.00000000000E+00 0.  1.
        -11    1    1    2    0    0 -0.14152223438E+02  0.63177816206E+01  0.49672417067E+03  0.49696589573E+03  0.00000000000E+00 0. -1.
         11    1    1    2    0    0  0.53053426500E+01  0.38155759064E+01 -0.13609482039E+02  0.15097128254E+02  0.00000000000E+00 0.  1.
        -15    1    1    2    0    0  0.10934291522E+02 -0.33295576015E+02 -0.15182588834E+03  0.15582814961E+03  0.17770000000E+01 0. -1.
         15    1    1    2    0    0 -0.20874107333E+01  0.23162218488E+02 -0.33128880029E+03  0.33210882640E+03  0.17770000000E+01 0.  1.
</event>
<event>
 6    1  0.1782050E-003  0.5097855E+03  0.7546771E-02  0.9378176E-01
        -11   -1    0    0    0    0  0.00000000000E+00  0.00000000000E+00  0.50000000000E+03  0.50000000000E+03  0.00000000000E+00 0.  1.
         11   -1    0    0    0    0 -0.00000000000E+00 -0.00000000000E+00 -0.50000000000E+03  0.50000000000E+03  0.00000000000E+00 0. -1.
        -11    1    1    2    0    0 -0.76048562997E+01  0.23348778686E+00  0.49015540347E+03  0.49021445094E+03  0.00000000000E+00 0.  1.
         11    1    1    2    0    0  0.55590294767E+01 -0.11171156846E+02 -0.48042749846E+03  0.48058951178E+03  0.00000000000E+00 0. -1.
        -15    1    1    2    0    0  0.40495926643E+01 -0.48279952169E+01 -0.11370081372E+02  0.13120412264E+02  0.17770000000E+01 0. -1.
         15    1    1    2    0    0 -0.20037658413E+01  0.15765664276E+02  0.16421763602E+01  0.16075625021E+02  0.17770000000E+01 0.  1.
</event>
<event>
 6    1  0.1782050E-003  0.4915578E+03  0.7546771E-02  0.9418900E-01
        -11   -1    0    0    0    0  0.00000000000E+00  0.00000000000E+00  0.50000000000E+03  0.50000000000E+03  0.00000000000E+00 0.  1.
         11   -1    0    0    0    0 -0.00000000000E+00 -0.00000000000E+00 -0.50000000000E+03  0.50000000000E+03  0.00000000000E+00 0. -1.
        -11    1    1    2    0    0 -0.30734610695E+01  0.14553041020E+01  0.18359075069E+02  0.18671360699E+02  0.00000000000E+00 0.  1.
         11    1    1    2    0    0  0.10379268862E+02 -0.14993610721E+02 -0.49855300523E+03  0.49888639650E+03  0.00000000000E+00 0. -1.
        -15    1    1    2    0    0  0.79064776849E-01 -0.71429121143E+01  0.36969552671E+03  0.36976880296E+03  0.17770000000E+01 0.  1.
         15    1    1    2    0    0 -0.73848725693E+01  0.20681218734E+02  0.11049840346E+03  0.11267343985E+03  0.17770000000E+01 0. -1.
</event>
<event>
 6    1  0.1782050E-003  0.4897211E+03  0.7546771E-02  0.9423108E-01
        -11   -1    0    0    0    0  0.00000000000E+00  0.00000000000E+00  0.50000000000E+03  0.50000000000E+03  0.00000000000E+00 0.  1.
         11   -1    0    0    0    0 -0.00000000000E+00 -0.00000000000E+00 -0.50000000000E+03  0.50000000000E+03  0.00000000000E+00 0. -1.
        -11    1    1    2    0    0  0.71349303867E+01  0.14990959700E+00  0.48856324142E+03  0.48861536055E+03  0.00000000000E+00 0.  1.
         11    1    1    2    0    0  0.33554127208E+01  0.78635761881E+01 -0.49084401284E+03  0.49091846529E+03  0.00000000000E+00 0. -1.
        -15    1    1    2    0    0 -0.86049217214E+01 -0.37247147581E+01  0.82905946365E+01  0.12641592712E+02  0.17770000000E+01 0. -1.
         15    1    1    2    0    0 -0.18854213862E+01 -0.42887710270E+01 -0.60098232176E+01  0.78245814477E+01  0.17770000000E+01 0. -1.
</event>
<event>
 6    1  0.1782050E-003  0.5012266E+03  0.7546771E-02  0.9397069E-01
        -11   -1    0    0    0    0  0.00000000000E+00  0.00000000000E+00  0.50000000000E+03  0.50000000000E+03  0.00000000000E+00 0.  1.
         11   -1    0    0    0    0 -0.00000000000E+00 -0.00000000000E+00 -0.50000000000E+03  0.50000000000E+03  0.00000000000E+00 0. -1.
        -11    1    1    2    0    0 -0.66872000938E+01 -0.19764078596E+02  0.38595959725E+03  0.38652315346E+03  0.00000000000E+00 0.  1.
         11    1    1    2    0    0  0.11855761367E+02  0.56773333278E+01 -0.49860010938E+03  0.49877335560E+03  0.00000000000E+00 0. -1.
        -15    1    1    2    0    0 -0.34681971277E+01  0.10198994750E+02  0.29830159831E+02  0.31765453716E+02  0.17770000000E+01 0. -1.
         15    1    1    2    0    0 -0.17003641456E+01  0.38877505184E+01  0.82810352291E+02  0.82938037220E+02  0.17770000000E+01 0.  1.
</event>
<event>
 6    1  0.1782050E-003  0.5134305E+03  0.7546771E-02  0.9370249E-01
        -11   -1    0    0    0    0  0.00000000000E+00  0.00000000000E+00  0.50000000000E+03  0.50000000000E+03  0.00000000000E+00 0.  1.
         11   -1    0    0    0    0 -0.00000000000E+00 -0.00000000000E+00 -0.50000000000E+03  0.50000000000E+03  0.00000000000E+00 0.  1.
        -11    1    1    2    0    0  0.16879195578E+02  0.72547438620E+01  0.45501954508E+03  0.45539029958E+03  0.00000000000E+00 0.  1.
         11    1    1    2    0    0 -0.34054231842E+01  0.58812303014E+01 -0.48652201434E+03  0.48656947728E+03  0.00000000000E+00 0.  1.
        -15    1    1    2    0    0  0.70615119521E+01 -0.15769231825E+02 -0.31330011032E+01  0.17649562270E+02  0.17770000000E+01 0.  1.
         15    1    1    2    0    0 -0.20535284346E+02  0.26332576617E+01  0.34635470367E+02  0.40390660871E+02  0.17770000000E+01 0. -1.
</event>
<event>
 6    1  0.1782050E-003  0.5073735E+03  0.7546771E-02  0.9383460E-01
        -11   -1    0    0    0    0  0.00000000000E+00  0.00000000000E+00  0.50000000000E+03  0.50000000000E+03  0.00000000000E+00 0.  1.
         11   -1    0    0    0    0 -0.00000000000E+00 -0.00000000000E+00 -0.50000000000E+03  0.50000000000E+03  0.00000000000E+00 0.  1.
        -11    1    1    2    0    0  0.41907947351E+02 -0.19818984798E+02  0.17759498598E+03  0.18354576338E+03  0.00000000000E+00 0.  1.
         11    1    1    2    0    0  0.20319497538E+01 -0.11797247189E+02 -0.49248102440E+03  0.49262649468E+03  0.00000000000E+00 0.  1.
        -15    1    1    2    0    0 -0.36134508768E+02  0.26348874305E+02  0.30972821154E+03  0.31294518474E+03  0.17770000000E+01 0.  1.
         15    1    1    2    0    0 -0.78053883368E+01  0.52673576819E+01  0.51578268863E+01  0.10882557201E+02  0.17770000000E+01 0. -1.
</event>
<event>
 6    1  0.1782050E-003  0.5050633E+03  0.7546771E-02  0.9388551E-01
        -11   -1    0    0    0    0  0.00000000000E+00  0.00000000000E+00  0.50000000000E+03  0.50000000000E+03  0.00000000000E+00 0.  1.
         11   -1    0    0    0    0 -0.00000000000E+00 -0.00000000000E+00 -0.50000000000E+03  0.50000000000E+03  0.00000000000E+00 0. -1.
        -11    1    1    2    0    0  0.44929436438E+01  0.56029876898E+01  0.47132184232E+03  0.47137655761E+03  0.00000000000E+00 0.  1.
         11    1    1    2    0    0 -0.50529409336E+01  0.85116343584E+01 -0.49483770440E+03  0.49493669679E+03  0.00000000000E+00 0. -1.
        -15    1    1    2    0    0 -0.31664876884E+01 -0.88220557434E+01  0.25046687742E+02  0.26802044842E+02  0.17770000000E+01 0. -1.
         15    1    1    2    0    0  0.37264849782E+01 -0.52925663047E+01 -0.15308256636E+01  0.68847007629E+01  0.17770000000E+01 0.  1.
</event>
<event>
 6    1  0.1782050E-003  0.5003433E+03  0.7546771E-02  0.9399042E-01
        -11   -1    0    0    0    0  0.00000000000E+00  0.00000000000E+00  0.50000000000E+03  0.50000000000E+03  0.00000000000E+00 0.  1.
         11   -1    0    0    0    0 -0.00000000000E+00 -0.00000000000E+00 -0.50000000000E+03  0.50000000000E+03  0.00000000000E+00 0. -1.
        -11    1    1    2    0    0 -0.43722577866E+01  0.92621674742E+01  0.49955172998E+03  0.49965671747E+03  0.00000000000E+00 0.  1.
         11    1    1    2    0    0 -0.41756001510E+01 -0.24431250430E+01 -0.34646421122E+03  0.34649798579E+03  0.00000000000E+00 0. -1.
        -15    1    1    2    0    0  0.24777915438E+01 -0.65818833042E+01 -0.11558840363E+03  0.11581579090E+03  0.17770000000E+01 0.  1.
         15    1    1    2    0    0  0.60700663939E+01 -0.23715912701E+00 -0.37499115127E+02  0.38029505844E+02  0.17770000000E+01 0. -1.
</event>
<event>
 6    1  0.1782050E-003  0.4769681E+03  0.7546771E-02  0.9452873E-01
        -11   -1    0    0    0    0  0.00000000000E+00  0.00000000000E+00  0.50000000000E+03  0.50000000000E+03  0.00000000000E+00 0.  1.
         11   -1    0    0    0    0 -0.00000000000E+00 -0.00000000000E+00 -0.50000000000E+03  0.50000000000E+03  0.00000000000E+00 0.  1.
        -11    1    1    2    0    0 -0.38079007860E+01  0.10148804272E+02  0.47609626613E+03  0.47621964781E+03  0.00000000000E+00 0.  1.
         11    1    1    2    0    0  0.16585503202E+02  0.93362472845E+01 -0.47762314577E+03  0.47800221109E+03  0.00000000000E+00 0.  1.
        -15    1    1    2    0    0  0.12687256480E+02 -0.10128550979E+01  0.55780160685E+01  0.14009437701E+02  0.17770000000E+01 0. -1.
         15    1    1    2    0    0 -0.25464858896E+02 -0.18472196459E+02 -0.40511364246E+01  0.31768703403E+02  0.17770000000E+01 0.  1.
</event>
<event>
 6    1  0.1782050E-003  0.5139264E+03  0.7546771E-02  0.9369176E-01
        -11   -1    0    0    0    0  0.00000000000E+00  0.00000000000E+00  0.50000000000E+03  0.50000000000E+03  0.00000000000E+00 0. -1.
         11   -1    0    0    0    0 -0.00000000000E+00 -0.00000000000E+00 -0.50000000000E+03  0.50000000000E+03  0.00000000000E+00 0. -1.
        -11    1    1    2    0    0 -0.96047738958E+01  0.31026320417E+02  0.48498728820E+03  0.48607360961E+03  0.00000000000E+00 0. -1.
         11    1    1    2    0    0 -0.72379418858E+00  0.81757825020E+01 -0.36863855083E+03  0.36872991262E+03  0.00000000000E+00 0. -1.
        -15    1    1    2    0    0  0.20318804529E+02  0.83295350817E+00 -0.97824255445E+02  0.99931428046E+02  0.17770000000E+01 0.  1.
         15    1    1    2    0    0 -0.99902364444E+01 -0.40035056427E+02 -0.18524481925E+02  0.45265049728E+02  0.17770000000E+01 0. -1.
</event>
<event>
 6    1  0.1782050E-003  0.4648366E+03  0.7546771E-02  0.9482121E-01
        -11   -1    0    0    0    0  0.00000000000E+00  0.00000000000E+00  0.50000000000E+03  0.50000000000E+03  0.00000000000E+00 0. -1.
         11   -1    0    0    0    0 -0.00000000000E+00 -0.00000000000E+00 -0.50000000000E+03  0.50000000000E+03  0.00000000000E+00 0. -1.
        -11    1    1    2    0    0 -0.98742376478E+01 -0.12422301239E+02  0.46542736853E+03  0.46569780923E+03  0.00000000000E+00 0. -1.
         11    1    1    2    0    0 -0.20145615220E+02 -0.35914580381E+01 -0.46414785502E+03  0.46459872546E+03  0.00000000000E+00 0. -1.
        -15    1    1    2    0    0  0.82178300471E+01 -0.10771954624E+01  0.28060350906E+02  0.29312695248E+02  0.17770000000E+01 0.  1.
         15    1    1    2    0    0  0.21802022821E+02  0.17090954739E+02 -0.29339864422E+02  0.40390770063E+02  0.17770000000E+01 0. -1.
</event>
<event>
 6    1  0.1782050E-003  0.5003097E+03  0.7546771E-02  0.9399117E-01
        -11   -1    0    0    0    0  0.00000000000E+00  0.00000000000E+00  0.50000000000E+03  0.50000000000E+03  0.00000000000E+00 0.  1.
         11   -1    0    0    0    0 -0.00000000000E+00 -0.00000000000E+00 -0.50000000000E+03  0.50000000000E+03  0.00000000000E+00 0. -1.
        -11    1    1    2    0    0 -0.13994436204E+01 -0.35499252922E+00  0.10212230803E+03  0.10213251324E+03  0.00000000000E+00 0.  1.
         11    1    1    2    0    0  0.51494584274E+01 -0.75391756504E+01 -0.49960692899E+03  0.49969034370E+03  0.00000000000E+00 0. -1.
        -15    1    1    2    0    0 -0.82687605201E+01  0.55219774657E+01  0.78550776278E+02  0.79197517755E+02  0.17770000000E+01 0.  1.
         15    1    1    2    0    0  0.45187457131E+01  0.23721907139E+01  0.31893384468E+03  0.31897962531E+03  0.17770000000E+01 0.  1.
</event>
<event>
 6    1  0.1782050E-003  0.5008910E+03  0.7546771E-02  0.9397818E-01
        -11   -1    0    0    0    0  0.00000000000E+00  0.00000000000E+00  0.50000000000E+03  0.50000000000E+03  0.00000000000E+00 0.  1.
         11   -1    0    0    0    0 -0.00000000000E+00 -0.00000000000E+00 -0.50000000000E+03  0.50000000000E+03  0.00000000000E+00 0.  1.
        -11    1    1    2    0    0 -0.97943732717E+01  0.51145270274E+01  0.49898663206E+03  0.49910895314E+03  0.00000000000E+00 0.  1.
         11    1    1    2    0    0 -0.21825420792E+01 -0.55599895817E+01 -0.28850007678E+03  0.28856190198E+03  0.00000000000E+00 0.  1.
        -15    1    1    2    0    0  0.46346678189E+01  0.18874284945E+01 -0.19466545439E+03  0.19473787355E+03  0.17770000000E+01 0.  1.
         15    1    1    2    0    0  0.73422475320E+01 -0.14419659402E+01 -0.15821100886E+02  0.17591271325E+02  0.17770000000E+01 0. -1.
</event>
<event>
 6    1  0.1816610E-003  0.4737677E+03  0.7546771E-02  0.9460499E-01
        -11   -1    0    0    0    0  0.00000000000E+00  0.00000000000E+00  0.50000000000E+03  0.50000000000E+03  0.00000000000E+00 0. -1.
         11   -1    0    0    0    0 -0.00000000000E+00 -0.00000000000E+00 -0.50000000000E+03  0.50000000000E+03  0.00000000000E+00 0. -1.
        -11    1    1    2    0    0  0.87219163232E+01  0.34473784570E+01  0.47476196210E+03  0.47485458501E+03  0.00000000000E+00 0. -1.
         11    1    1    2    0    0 -0.86116984304E+01  0.27030300703E+01 -0.47261712008E+03  0.47270330009E+03  0.00000000000E+00 0. -1.
        -15    1    1    2    0    0  0.46681321688E+01 -0.19923478978E+01 -0.26589408330E+02  0.27127758338E+02  0.17770000000E+01 0.  1.
         15    1    1    2    0    0 -0.47783500617E+01 -0.41580606295E+01  0.24444566305E+02  0.25314356566E+02  0.17770000000E+01 0. -1.
</event>
<event>
 6    1  0.1782050E-003  0.5032784E+03  0.7546771E-02  0.9392504E-01
        -11   -1    0    0    0    0  0.00000000000E+00  0.00000000000E+00  0.50000000000E+03  0.50000000000E+03  0.00000000000E+00 0. -1.
         11   -1    0    0    0    0 -0.00000000000E+00 -0.00000000000E+00 -0.50000000000E+03  0.50000000000E+03  0.00000000000E+00 0.  1.
        -11    1    1    2    0    0 -0.13120619438E+01  0.98261049629E+01  0.49662262554E+03  0.49672155786E+03  0.00000000000E+00 0. -1.
         11    1    1    2    0    0 -0.30275660805E+01  0.17992287402E+01 -0.99587834132E+02  0.99650088247E+02  0.00000000000E+00 0.  1.
        -15    1    1    2    0    0 -0.12539342805E+01 -0.10040679756E+02 -0.39740510447E+03  0.39753787541E+03  0.17770000000E+01 0.  1.
         15    1    1    2    0    0  0.55935623049E+01 -0.15846539473E+01  0.37031306497E+00  0.60904784835E+01  0.17770000000E+01 0. -1.
</event>
<event>
 6    1  0.1782050E-003  0.5186339E+03  0.7546771E-02  0.9359054E-01
        -11   -1    0    0    0    0  0.00000000000E+00  0.00000000000E+00  0.50000000000E+03  0.50000000000E+03  0.00000000000E+00 0.  1.
         11   -1    0    0    0    0 -0.00000000000E+00 -0.00000000000E+00 -0.50000000000E+03  0.50000000000E+03  0.00000000000E+00 0. -1.
        -11    1    1    2    0    0  0.48650834853E+02  0.35957150202E+02  0.47754942739E+03  0.48136605197E+03  0.00000000000E+00 0.  1.
         11    1    1    2    0    0 -0.66751535829E+01 -0.41297881478E+00 -0.37843452714E+03  0.37849361892E+03  0.00000000000E+00 0. -1.
        -15    1    1    2    0    0 -0.14151014798E+02  0.26405092927E+02 -0.40546025864E+02  0.50444207741E+02  0.17770000000E+01 0. -1.
         15    1    1    2    0    0 -0.27824666472E+02 -0.61949264315E+02 -0.58568874388E+02  0.89696121374E+02  0.17770000000E+01 0.  1.
</event>
<event>
 6    1  0.1782050E-003  0.5030069E+03  0.7546771E-02  0.9393107E-01
        -11   -1    0    0    0    0  0.00000000000E+00  0.00000000000E+00  0.50000000000E+03  0.50000000000E+03  0.00000000000E+00 0.  1.
         11   -1    0    0    0    0 -0.00000000000E+00 -0.00000000000E+00 -0.50000000000E+03  0.50000000000E+03  0.00000000000E+00 0.  1.
        -11    1    1    2    0    0  0.67939123013E+01 -0.14955468354E+01  0.47952285786E+03  0.47957331568E+03  0.00000000000E+00 0.  1.
         11    1    1    2    0    0 -0.35970885979E+01  0.66504833317E+01 -0.49693559065E+03  0.49699310783E+03  0.00000000000E+00 0.  1.
        -15    1    1    2    0    0 -0.50320676756E+01  0.18853396862E+00  0.16621538756E+02  0.17458251051E+02  0.17770000000E+01 0.  1.
         15    1    1    2    0    0  0.18352439722E+01 -0.53434704649E+01  0.79119404121E+00  0.59753254352E+01  0.17770000000E+01 0. -1.
</event>
<event>
 6    1  0.1782050E-003  0.5005500E+03  0.7546771E-02  0.9398580E-01
        -11   -1    0    0    0    0  0.00000000000E+00  0.00000000000E+00  0.50000000000E+03  0.50000000000E+03  0.00000000000E+00 0. -1.
         11   -1    0    0    0    0 -0.00000000000E+00 -0.00000000000E+00 -0.50000000000E+03  0.50000000000E+03  0.00000000000E+00 0. -1.
        -11    1    1    2    0    0 -0.39953613401E+00  0.13719091875E+02  0.49926139357E+03  0.49945000973E+03  0.00000000000E+00 0. -1.
         11    1    1    2    0    0  0.56328388267E+01 -0.86601594273E+00 -0.29490999723E+03  0.29496505780E+03  0.00000000000E+00 0. -1.
        -15    1    1    2    0    0 -0.94175476185E+01 -0.41911761374E+01 -0.60200060917E+02  0.61102055808E+02  0.17770000000E+01 0.  1.
         15    1    1    2    0    0  0.41842449259E+01 -0.86618997945E+01 -0.14415133543E+03  0.14448287666E+03  0.17770000000E+01 0. -1.
</event>
<event>
 6    1  0.1782050E-003  0.5207805E+03  0.7546771E-02  0.9354476E-01
        -11   -1    0    0    0    0  0.00000000000E+00  0.00000000000E+00  0.50000000000E+03  0.50000000000E+03  0.00000000000E+00 0. -1.
         11   -1    0    0    0    0 -0.00000000000E+00 -0.00000000000E+00 -0.50000000000E+03  0.50000000000E+03  0.00000000000E+00 0.  1.
        -11    1    1    2    0    0  0.77628699656E+01  0.67677883036E+01  0.19281544395E+03  0.19309029115E+03  0.00000000000E+00 0. -1.
         11    1    1    2    0    0 -0.77173333193E+01 -0.42542156532E+02 -0.47726508819E+03  0.47921952874E+03  0.00000000000E+00 0.  1.
        -15    1    1    2    0    0  0.76229536712E+01 -0.25029142194E+02  0.26058056518E+03  0.26189684240E+03  0.17770000000E+01 0. -1.
         15    1    1    2    0    0 -0.76684903175E+01  0.60803510423E+02  0.23869079063E+02  0.65793337716E+02  0.17770000000E+01 0.  1.
</event>
<event>
 6    1  0.1782050E-003  0.5066042E+03  0.7546771E-02  0.9385152E-01
        -11   -1    0    0    0    0  0.00000000000E+00  0.00000000000E+00  0.50000000000E+03  0.50000000000E+03  0.00000000000E+00 0.  1.
         11   -1    0    0    0    0 -0.00000000000E+00 -0.00000000000E+00 -0.50000000000E+03  0.50000000000E+03  0.00000000000E+00 0.  1.
        -11    1    1    2    0    0 -0.15443157717E+02 -0.37175221613E+00  0.49315387558E+03  0.49339575831E+03  0.00000000000E+00 0.  1.
         11    1    1    2    0    0 -0.14150340199E+02 -0.59307646353E+01 -0.45280773558E+03  0.45306760146E+03  0.00000000000E+00 0.  1.
        -15    1    1    2    0    0  0.37065935326E+01  0.26170194739E+01  0.61191094707E+00  0.49111903394E+01  0.17770000000E+01 0. -1.
         15    1    1    2    0    0  0.25886904384E+02  0.36854973775E+01 -0.40958050954E+02  0.48625449884E+02  0.17770000000E+01 0.  1.
</event>
<event>
 6    1  0.1782050E-003  0.5056952E+03  0.7546771E-02  0.9387156E-01
        -11   -1    0    0    0    0  0.00000000000E+00  0.00000000000E+00  0.50000000000E+03  0.50000000000E+03  0.00000000000E+00 0.  1.
         11   -1    0    0    0    0 -0.00000000000E+00 -0.00000000000E+00 -0.50000000000E+03  0.50000000000E+03  0.00000000000E+00 0.  1.
        -11    1    1    2    0    0  0.81962092510E+01 -0.47007728020E+01  0.49421443978E+03  0.49430475175E+03  0.00000000000E+00 0.  1.
         11    1    1    2    0    0  0.56692875647E+01  0.10470290475E+01 -0.41221571247E+03  0.41225602566E+03  0.00000000000E+00 0.  1.
        -15    1    1    2    0    0 -0.55095436384E+01  0.20242036374E+01  0.37909731772E+01  0.72098320437E+01  0.17770000000E+01 0.  1.
         15    1    1    2    0    0 -0.83559531773E+01  0.16295401171E+01 -0.85789700491E+02  0.86229390545E+02  0.17770000000E+01 0. -1.
</event>
<event>
 6    1  0.1782050E-003  0.5037426E+03  0.7546771E-02  0.9391474E-01
        -11   -1    0    0    0    0  0.00000000000E+00  0.00000000000E+00  0.50000000000E+03  0.50000000000E+03  0.00000000000E+00 0. -1.
         11   -1    0    0    0    0 -0.00000000000E+00 -0.00000000000E+00 -0.50000000000E+03  0.50000000000E+03  0.00000000000E+00 0. -1.
        -11    1    1    2    0    0 -0.66678611145E+01 -0.41634937907E+01  0.49619514513E+03  0.49625741012E+03  0.00000000000E+00 0. -1.
         11    1    1    2    0    0 -0.73782157725E+00  0.80339793745E+01 -0.48353927521E+03  0.48360657551E+03  0.00000000000E+00 0. -1.
        -15    1    1    2    0    0 -0.22795956788E+01 -0.24576384361E+01 -0.85878560867E+01  0.93885858523E+01  0.17770000000E+01 0. -1.
         15    1    1    2    0    0  0.96852783705E+01 -0.14128471477E+01 -0.40680138255E+01  0.10747428514E+02  0.17770000000E+01 0.  1.
</event>
<event>
 6    1  0.1782050E-003  0.5086817E+03  0.7546771E-02  0.9380591E-01
        -11   -1    0    0    0    0  0.00000000000E+00  0.00000000000E+00  0.50000000000E+03  0.50000000000E+03  0.00000000000E+00 0. -1.
         11   -1    0    0    0    0 -0.00000000000E+00 -0.00000000000E+00 -0.50000000000E+03  0.50000000000E+03  0.00000000000E+00 0.  1.
        -11    1    1    2    0    0 -0.87096951129E+01  0.50544908539E+01  0.45615763332E+03  0.45626877288E+03  0.00000000000E+00 0. -1.
         11    1    1    2    0    0 -0.10952359979E+02  0.13888754571E+01 -0.49119426818E+03  0.49131832071E+03  0.00000000000E+00 0.  1.
        -15    1    1    2    0    0  0.13177915753E+02 -0.84460996853E+01  0.40542333554E+02  0.43495202063E+02  0.17770000000E+01 0. -1.
         15    1    1    2    0    0  0.64841393388E+01  0.20027333743E+01 -0.55056986872E+01  0.89177043552E+01  0.17770000000E+01 0.  1.
</event>
<event>
 6    1  0.1782050E-003  0.5007091E+03  0.7546771E-02  0.9398224E-01
        -11   -1    0    0    0    0  0.00000000000E+00  0.00000000000E+00  0.50000000000E+03  0.50000000000E+03  0.00000000000E+00 0.  1.
         11   -1    0    0    0    0 -0.00000000000E+00 -0.00000000000E+00 -0.50000000000E+03  0.50000000000E+03  0.00000000000E+00 0.  1.
        -11    1    1    2    0    0 -0.28396439485E+01  0.30889558417E+01  0.12833690559E+03  0.12840547715E+03  0.00000000000E+00 0.  1.
         11    1    1    2    0    0  0.12956839810E+02  0.69644595793E+01 -0.49907413773E+03  0.49929087549E+03  0.00000000000E+00 0.  1.
        -15    1    1    2    0    0  0.62459340742E+01 -0.10688328572E+02  0.26464688849E+03  0.26494223027E+03  0.17770000000E+01 0.  1.
         15    1    1    2    0    0 -0.16363129935E+02  0.63491315139E+00  0.10609034365E+03  0.10736141709E+03  0.17770000000E+01 0.  1.
</event>
<event>
 6    1  0.1782050E-003  0.5034473E+03  0.7546771E-02  0.9392129E-01
        -11   -1    0    0    0    0  0.00000000000E+00  0.00000000000E+00  0.50000000000E+03  0.50000000000E+03  0.00000000000E+00 0. -1.
         11   -1    0    0    0    0 -0.00000000000E+00 -0.00000000000E+00 -0.50000000000E+03  0.50000000000E+03  0.00000000000E+00 0. -1.
        -11    1    1    2    0    0 -0.23229429340E+02  0.55724136585E+01  0.49597779541E+03  0.49655274818E+03  0.00000000000E+00 0. -1.
         11    1    1    2    0    0  0.75265150538E+01 -0.11028376596E+02 -0.39885203795E+03  0.39907545865E+03  0.00000000000E+00 0. -1.
        -15    1    1    2    0    0  0.15992042090E+02 -0.85085813064E+00 -0.15094479042E+02  0.22078731764E+02  0.17770000000E+01 0.  1.
         15    1    1    2    0    0 -0.28912780338E+00  0.63068210681E+01 -0.82031278424E+02  0.82293061407E+02  0.17770000000E+01 0. -1.
</event>
<event>
 6    1  0.1782050E-003  0.5744071E+03  0.7546771E-02  0.9247166E-01
        -11   -1    0    0    0    0  0.00000000000E+00  0.00000000000E+00  0.50000000000E+03  0.50000000000E+03  0.00000000000E+00 0.  1.
         11   -1    0    0    0    0 -0.00000000000E+00 -0.00000000000E+00 -0.50000000000E+03  0.50000000000E+03  0.00000000000E+00 0.  1.
        -11    1    1    2    0    0  0.35549894176E+02 -0.10704812406E+02  0.42397041953E+03  0.42559288601E+03  0.00000000000E+00 0.  1.
         11    1    1    2    0    0 -0.73445558543E+01 -0.10343989465E+02 -0.37731892627E+03  0.37753213471E+03  0.00000000000E+00 0.  1.
        -15    1    1    2    0    0  0.76173809065E+01  0.17731504997E+02 -0.11659861167E+03  0.11819824336E+03  0.17770000000E+01 0.  1.
         15    1    1    2    0    0 -0.35822719229E+02  0.33172968737E+01  0.69947118407E+02  0.78676735913E+02  0.17770000000E+01 0. -1.
</event>
<event>
 6    1  0.1782050E-003  0.5003217E+03  0.7546771E-02  0.9399090E-01
        -11   -1    0    0    0    0  0.00000000000E+00  0.00000000000E+00  0.50000000000E+03  0.50000000000E+03  0.00000000000E+00 0.  1.
         11   -1    0    0    0    0 -0.00000000000E+00 -0.00000000000E+00 -0.50000000000E+03  0.50000000000E+03  0.00000000000E+00 0. -1.
        -11    1    1    2    0    0 -0.50159226903E+01 -0.16251491075E+01  0.18710335089E+03  0.18717762821E+03  0.00000000000E+00 0.  1.
         11    1    1    2    0    0 -0.67344886528E+01  0.24529150289E+01 -0.49962690244E+03  0.49967830829E+03  0.00000000000E+00 0. -1.
        -15    1    1    2    0    0  0.94276570734E+01 -0.37945074869E+01  0.29297345520E+03  0.29315504803E+03  0.17770000000E+01 0.  1.
         15    1    1    2    0    0  0.23227542696E+01  0.29667415655E+01  0.19550096354E+02  0.19989015467E+02  0.17770000000E+01 0. -1.
</event>
<event>
 6    1  0.1782050E-003  0.5051813E+03  0.7546771E-02  0.9388290E-01
        -11   -1    0    0    0    0  0.00000000000E+00  0.00000000000E+00  0.50000000000E+03  0.50000000000E+03  0.00000000000E+00 0.  1.
         11   -1    0    0    0    0 -0.00000000000E+00 -0.00000000000E+00 -0.50000000000E+03  0.50000000000E+03  0.00000000000E+00 0. -1.
        -11    1    1    2    0    0  0.30099174680E+01  0.11602861772E+02  0.49467352635E+03  0.49481873820E+03  0.00000000000E+00 0.  1.
         11    1    1    2    0    0  0.86146416615E+01  0.29300369725E+01 -0.46822992444E+03  0.46831833117E+03  0.00000000000E+00 0. -1.
        -15    1    1    2    0    0 -0.68760767107E+01 -0.67741858355E+00 -0.19086720505E+02  0.20376455911E+02  0.17770000000E+01 0. -1.
         15    1    1    2    0    0 -0.47484824188E+01 -0.13855480161E+02 -0.73568813982E+01  0.16486474719E+02  0.17770000000E+01 0.  1.
</event>
<event>
 6    1  0.1782050E-003  0.5179637E+03  0.7546771E-02  0.9360488E-01
        -11   -1    0    0    0    0  0.00000000000E+00  0.00000000000E+00  0.50000000000E+03  0.50000000000E+03  0.00000000000E+00 0. -1.
         11   -1    0    0    0    0 -0.00000000000E+00 -0.00000000000E+00 -0.50000000000E+03  0.50000000000E+03  0.00000000000E+00 0. -1.
        -11    1    1    2    0    0  0.71574133387E+01  0.65585142635E+01  0.43947298173E+03  0.43958019102E+03  0.00000000000E+00 0. -1.
         11    1    1    2    0    0 -0.37900483205E+01 -0.85890404810E+01 -0.48194491636E+03  0.48203634561E+03  0.00000000000E+00 0. -1.
        -15    1    1    2    0    0  0.29029460824E+02 -0.20656329929E+01  0.33622932091E+02  0.44504333798E+02  0.17770000000E+01 0. -1.
         15    1    1    2    0    0 -0.32396825842E+02  0.40961592104E+01  0.88490025483E+01  0.33879129564E+02  0.17770000000E+01 0.  1.
</event>
<event>
 6    1  0.1782050E-003  0.5024082E+03  0.7546771E-02  0.9394437E-01
        -11   -1    0    0    0    0  0.00000000000E+00  0.00000000000E+00  0.50000000000E+03  0.50000000000E+03  0.00000000000E+00 0. -1.
         11   -1    0    0    0    0 -0.00000000000E+00 -0.00000000000E+00 -0.50000000000E+03  0.50000000000E+03  0.00000000000E+00 0.  1.
        -11    1    1    2    0    0 -0.39370072818E-01  0.69588572955E+00  0.31374266241E+02  0.31382007411E+02  0.00000000000E+00 0. -1.
         11    1    1    2    0    0  0.15886426539E+01  0.89744216333E+01 -0.49750835797E+03  0.49759183100E+03  0.00000000000E+00 0.  1.
        -15    1    1    2    0    0  0.45405575437E+01 -0.13786201609E+02  0.19731044706E+02  0.24559069034E+02  0.17770000000E+01 0.  1.
         15    1    1    2    0    0 -0.60898301248E+01  0.41158942460E+01  0.44640304702E+03  0.44646709256E+03  0.17770000000E+01 0. -1.
</event>
<event>
 6    1  0.1782050E-003  0.5043175E+03  0.7546771E-02  0.9390201E-01
        -11   -1    0    0    0    0  0.00000000000E+00  0.00000000000E+00  0.50000000000E+03  0.50000000000E+03  0.00000000000E+00 0. -1.
         11   -1    0    0    0    0 -0.00000000000E+00 -0.00000000000E+00 -0.50000000000E+03  0.50000000000E+03  0.00000000000E+00 0. -1.
        -11    1    1    2    0    0 -0.56512830401E+01 -0.58541451856E+01  0.48090978554E+03  0.48097861682E+03  0.00000000000E+00 0. -1.
         11    1    1    2    0    0 -0.61079883101E+01 -0.38754178189E+01 -0.49562976376E+03  0.49568254873E+03  0.00000000000E+00 0. -1.
        -15    1    1    2    0    0  0.82524673076E+01  0.10107416048E+02  0.14181359458E+02  0.19352823074E+02  0.17770000000E+01 0.  1.
         15    1    1    2    0    0  0.35068040426E+01 -0.37785304346E+00  0.53861876809E+00  0.39860113764E+01  0.17770000000E+01 0. -1.
</event>
<event>
 6    1  0.1782050E-003  0.5155183E+03  0.7546771E-02  0.9365740E-01
        -11   -1    0    0    0    0  0.00000000000E+00  0.00000000000E+00  0.50000000000E+03  0.50000000000E+03  0.00000000000E+00 0. -1.
         11   -1    0    0    0    0 -0.00000000000E+00 -0.00000000000E+00 -0.50000000000E+03  0.50000000000E+03  0.00000000000E+00 0.  1.
        -11    1    1    2    0    0  0.27357924629E+01  0.66118542066E+01  0.41850127127E+03  0.41856243887E+03  0.00000000000E+00 0. -1.
         11    1    1    2    0    0  0.58747278039E+01  0.48093490586E+01 -0.48442218603E+03  0.48448167828E+03  0.00000000000E+00 0.  1.
        -15    1    1    2    0    0  0.92276248703E+01 -0.82965888933E+01 -0.11750252098E+02  0.17181635585E+02  0.17770000000E+01 0.  1.
         15    1    1    2    0    0 -0.17838145137E+02 -0.31246143719E+01  0.77671166862E+02  0.79774247271E+02  0.17770000000E+01 0. -1.
</event>
<event>
 6    1  0.1782050E-003  0.5027028E+03  0.7546771E-02  0.9393782E-01
        -11   -1    0    0    0    0  0.00000000000E+00  0.00000000000E+00  0.50000000000E+03  0.50000000000E+03  0.00000000000E+00 0.  1.
         11   -1    0    0    0    0 -0.00000000000E+00 -0.00000000000E+00 -0.50000000000E+03  0.50000000000E+03  0.00000000000E+00 0. -1.
        -11    1    1    2    0    0 -0.66916109729E+00 -0.94683111758E+01  0.49720658682E+03  0.49729718144E+03  0.00000000000E+00 0.  1.
         11    1    1    2    0    0 -0.72172681658E+01  0.60124249498E+01 -0.44424766657E+03  0.44434696743E+03  0.00000000000E+00 0. -1.
        -15    1    1    2    0    0  0.12355156301E+01  0.10185461118E+02 -0.10382334287E+02  0.14704445290E+02  0.17770000000E+01 0. -1.
         15    1    1    2    0    0  0.66509136330E+01 -0.67295748919E+01 -0.42576585966E+02  0.43651405841E+02  0.17770000000E+01 0.  1.
</event>
<event>
 6    1  0.1782050E-003  0.5174381E+03  0.7546771E-02  0.9361614E-01
        -11   -1    0    0    0    0  0.00000000000E+00  0.00000000000E+00  0.50000000000E+03  0.50000000000E+03  0.00000000000E+00 0. -1.
         11   -1    0    0    0    0 -0.00000000000E+00 -0.00000000000E+00 -0.50000000000E+03  0.50000000000E+03  0.00000000000E+00 0. -1.
        -11    1    1    2    0    0  0.37756460053E+02 -0.28703138703E+02  0.40479426388E+03  0.40756326689E+03  0.00000000000E+00 0. -1.
         11    1    1    2    0    0  0.27527303469E+02  0.48902656504E+01 -0.48175129040E+03  0.48256188508E+03  0.00000000000E+00 0. -1.
        -15    1    1    2    0    0 -0.44513317745E+02  0.16083515347E+02  0.73406355841E+02  0.87359977847E+02  0.17770000000E+01 0.  1.
         15    1    1    2    0    0 -0.20770445776E+02  0.77293577062E+01  0.35506706790E+01  0.22514870187E+02  0.17770000000E+01 0. -1.
</event>
<event>
 6    1  0.1782050E-003  0.5096876E+03  0.7546771E-02  0.9378390E-01
        -11   -1    0    0    0    0  0.00000000000E+00  0.00000000000E+00  0.50000000000E+03  0.50000000000E+03  0.00000000000E+00 0. -1.
         11   -1    0    0    0    0 -0.00000000000E+00 -0.00000000000E+00 -0.50000000000E+03  0.50000000000E+03  0.00000000000E+00 0. -1.
        -11    1    1    2    0    0 -0.65029516704E+01 -0.69873390875E+01  0.49021944998E+03  0.49031237025E+03  0.00000000000E+00 0. -1.
         11    1    1    2    0    0  0.14977657779E+01 -0.18044117367E+02 -0.43730762027E+03  0.43768229141E+03  0.00000000000E+00 0. -1.
        -15    1    1    2    0    0  0.19248272828E+02 -0.64489140347E+00 -0.23031852780E+02  0.30075502711E+02  0.17770000000E+01 0. -1.
         15    1    1    2    0    0 -0.14243086936E+02  0.25676347858E+02 -0.29879976931E+02  0.41929835621E+02  0.17770000000E+01 0.  1.
</event>
<event>
 6    1  0.1782050E-003  0.5021843E+03  0.7546771E-02  0.9394935E-01
        -11   -1    0    0    0    0  0.00000000000E+00  0.00000000000E+00  0.50000000000E+03  0.50000000000E+03  0.00000000000E+00 0. -1.
         11   -1    0    0    0    0 -0.00000000000E+00 -0.00000000000E+00 -0.50000000000E+03  0.50000000000E+03  0.00000000000E+00 0. -1.
        -11    1    1    2    0    0 -0.14928875280E+02 -0.12359011248E+01  0.49759026417E+03  0.49781569859E+03  0.00000000000E+00 0. -1.
         11    1    1    2    0    0 -0.50017235052E+01 -0.91691108454E+01 -0.26010762302E+03  0.26031723989E+03  0.00000000000E+00 0. -1.
        -15    1    1    2    0    0  0.10732913037E+02 -0.92044339697E+01 -0.17746107009E+03  0.17803231772E+03  0.17770000000E+01 0. -1.
         15    1    1    2    0    0  0.91976857479E+01  0.19609445940E+02 -0.60021571063E+02  0.63834743792E+02  0.17770000000E+01 0.  1.
</event>
<event>
 6    1  0.1782050E-003  0.5024494E+03  0.7546771E-02  0.9394346E-01
        -11   -1    0    0    0    0  0.00000000000E+00  0.00000000000E+00  0.50000000000E+03  0.50000000000E+03  0.00000000000E+00 0. -1.
         11   -1    0    0    0    0 -0.00000000000E+00 -0.00000000000E+00 -0.50000000000E+03  0.50000000000E+03  0.00000000000E+00 0. -1.
        -11    1    1    2    0    0 -0.12512618786E+01 -0.83529461752E+01  0.45319204621E+03  0.45327074483E+03  0.00000000000E+00 0. -1.
         11    1    1    2    0    0  0.91790630145E+01  0.46679848372E+01 -0.49744404462E+03  0.49755062337E+03  0.00000000000E+00 0. -1.
        -15    1    1    2    0    0 -0.49840406740E+01  0.10686515079E+02  0.16544849408E+02  0.20394411903E+02  0.17770000000E+01 0.  1.
         15    1    1    2    0    0 -0.29437604619E+01 -0.70015537408E+01  0.27707149004E+02  0.28784219903E+02  0.17770000000E+01 0. -1.
</event>
<event>
 6    1  0.1782050E-003  0.5781228E+03  0.7546771E-02  0.9240194E-01
        -11   -1    0    0    0    0  0.00000000000E+00  0.00000000000E+00  0.50000000000E+03  0.50000000000E+03  0.00000000000E+00 0. -1.
         11   -1    0    0    0    0 -0.00000000000E+00 -0.00000000000E+00 -0.50000000000E+03  0.50000000000E+03  0.00000000000E+00 0. -1.
        -11    1    1    2    0    0  0.33529634335E+02  0.11107352091E+01  0.39199615925E+03  0.39342910286E+03  0.00000000000E+00 0. -1.
         11    1    1    2    0    0  0.82677691494E+01 -0.15823671864E+01 -0.42179317441E+03  0.42187716444E+03  0.00000000000E+00 0. -1.
        -15    1    1    2    0    0 -0.91143401397E+01  0.47198723130E+02 -0.60862738813E+02  0.77577196174E+02  0.17770000000E+01 0. -1.
         15    1    1    2    0    0 -0.32683063345E+02 -0.46727091153E+02  0.90659753982E+02  0.10711653653E+03  0.17770000000E+01 0.  1.
</event>
<event>
 6    1  0.1782050E-003  0.5010783E+03  0.7546771E-02  0.9397400E-01
        -11   -1    0    0    0    0  0.00000000000E+00  0.00000000000E+00  0.50000000000E+03  0.50000000000E+03  0.00000000000E+00 0. -1.
         11   -1    0    0    0    0 -0.00000000000E+00 -0.00000000000E+00 -0.50000000000E+03  0.50000000000E+03  0.00000000000E+00 0. -1.
        -11    1    1    2    0    0 -0.27382733880E+00  0.55547860796E+01  0.10825211796E+03  0.10839488767E+03  0.00000000000E+00 0. -1.
         11    1    1    2    0    0  0.30785971279E+02  0.22242168746E+01 -0.49796600392E+03  0.49892170150E+03  0.00000000000E+00 0. -1.
        -15    1    1    2    0    0 -0.10530954185E+02 -0.97366991395E+01  0.42596786496E+02  0.44981643533E+02  0.17770000000E+01 0.  1.
         15    1    1    2    0    0 -0.19981189755E+02  0.19576961852E+01  0.34711709946E+03  0.34770176730E+03  0.17770000000E+01 0. -1.
</event>
<event>
 6    1  0.1782050E-003  0.5001825E+03  0.7546771E-02  0.9399401E-01
        -11   -1    0    0    0    0  0.00000000000E+00  0.00000000000E+00  0.50000000000E+03  0.50000000000E+03  0.00000000000E+00 0. -1.
         11   -1    0    0    0    0 -0.00000000000E+00 -0.00000000000E+00 -0.50000000000E+03  0.50000000000E+03  0.00000000000E+00 0.  1.
        -11    1    1    2    0    0  0.33580545238E+01  0.12951932666E+02  0.49963838859E+03  0.49981751514E+03  0.00000000000E+00 0. -1.
         11    1    1    2    0    0  0.10340826982E+01 -0.69056192282E+00 -0.84142698381E+02  0.84151885859E+02  0.00000000000E+00 0.  1.
        -15    1    1    2    0    0  0.14966153674E+01 -0.65017411597E+01 -0.54373537807E+02  0.54810143571E+02  0.17770000000E+01 0. -1.
         15    1    1    2    0    0 -0.58887525894E+01 -0.57596295830E+01 -0.36112215240E+03  0.36122045543E+03  0.17770000000E+01 0.  1.
</event>
<event>
 6    1  0.1782050E-003  0.5171159E+03  0.7546771E-02  0.9362305E-01
        -11   -1    0    0    0    0  0.00000000000E+00  0.00000000000E+00  0.50000000000E+03  0.50000000000E+03  0.00000000000E+00 0.  1.
         11   -1    0    0    0    0 -0.00000000000E+00 -0.00000000000E+00 -0.50000000000E+03  0.50000000000E+03  0.00000000000E+00 0. -1.
        -11    1    1    2    0    0  0.16969620356E+01  0.12157058443E+02  0.44680509379E+03  0.44697367437E+03  0.00000000000E+00 0.  1.
         11    1    1    2    0    0  0.12691807914E+02  0.56796220216E+01 -0.48268382267E+03  0.48288405727E+03  0.00000000000E+00 0. -1.
        -15    1    1    2    0    0 -0.13879782242E+02 -0.10889433634E+02 -0.12204091271E+02  0.21525001573E+02  0.17770000000E+01 0. -1.
         15    1    1    2    0    0 -0.50898770742E+00 -0.69472468302E+01  0.48082820155E+02  0.48617266789E+02  0.17770000000E+01 0.  1.
</event>
<event>
 6    1  0.1782050E-003  0.5003162E+03  0.7546771E-02  0.9399102E-01
        -11   -1    0    0    0    0  0.00000000000E+00  0.00000000000E+00  0.50000000000E+03  0.50000000000E+03  0.00000000000E+00 0. -1.
         11   -1    0    0    0    0 -0.00000000000E+00 -0.00000000000E+00 -0.50000000000E+03  0.50000000000E+03  0.00000000000E+00 0. -1.
        -11    1    1    2    0    0  0.28045720304E+01 -0.64370415640E+01  0.49963447406E+03  0.49968380883E+03  0.00000000000E+00 0. -1.
         11    1    1    2    0    0 -0.97306181989E+00  0.79175315744E+01 -0.45074939985E+03  0.45081998139E+03  0.00000000000E+00 0. -1.
        -15    1    1    2    0    0 -0.80130603907E+00 -0.19076772744E+01 -0.63693943435E+01  0.69287976774E+01  0.17770000000E+01 0.  1.
         15    1    1    2    0    0 -0.10302041715E+01  0.42718726407E+00 -0.42515679870E+02  0.42567412106E+02  0.17770000000E+01 0. -1.
</event>
<event>
 6    1  0.1782050E-003  0.5020619E+03  0.7546771E-02  0.9395208E-01
        -11   -1    0    0    0    0  0.00000000000E+00  0.00000000000E+00  0.50000000000E+03  0.50000000000E+03  0.00000000000E+00 0. -1.
         11   -1    0    0    0    0 -0.00000000000E+00 -0.00000000000E+00 -0.50000000000E+03  0.50000000000E+03  0.00000000000E+00 0. -1.
        -11    1    1    2    0    0  0.14376514868E+01  0.10177793638E+02  0.49783203989E+03  0.49793814301E+03  0.00000000000E+00 0. -1.
         11    1    1    2    0    0 -0.52693036164E+01  0.27710713984E+00 -0.37426671428E+03  0.37430390830E+03  0.00000000000E+00 0. -1.
        -15    1    1    2    0    0  0.16993595015E+00 -0.89260792354E+01 -0.80229647452E+01  0.12133814777E+02  0.17770000000E+01 0.  1.
         15    1    1    2    0    0  0.36617161795E+01 -0.15288215423E+01 -0.11554236086E+03  0.11562413392E+03  0.17770000000E+01 0. -1.
</event>
<event>
 6    1  0.1782050E-003  0.5007053E+03  0.7546771E-02  0.9398233E-01
        -11   -1    0    0    0    0  0.00000000000E+00  0.00000000000E+00  0.50000000000E+03  0.50000000000E+03  0.00000000000E+00 0. -1.
         11   -1    0    0    0    0 -0.00000000000E+00 -0.00000000000E+00 -0.50000000000E+03  0.50000000000E+03  0.00000000000E+00 0.  1.
        -11    1    1    2    0    0  0.67207787451E+01 -0.30813223312E+01  0.49923996773E+03  0.49929471136E+03  0.00000000000E+00 0. -1.
         11    1    1    2    0    0  0.38880838558E+01 -0.71436401278E+01 -0.39493818753E+03  0.39502192441E+03  0.00000000000E+00 0.  1.
        -15    1    1    2    0    0 -0.92952281491E+01  0.88815581914E+01 -0.64224171331E+02  0.65522402691E+02  0.17770000000E+01 0.  1.
         15    1    1    2    0    0 -0.13136344518E+01  0.13434042676E+01 -0.40077608866E+02  0.40160961541E+02  0.17770000000E+01 0. -1.
</event>
<event>
 6    1  0.3771117E-003  0.5230308E+03  0.7546771E-02  0.9349702E-01
        -11   -1    0    0    0    0  0.00000000000E+00  0.00000000000E+00  0.50000000000E+03  0.50000000000E+03  0.00000000000E+00 0.  1.
         11   -1    0    0    0    0 -0.00000000000E+00 -0.00000000000E+00 -0.50000000000E+03  0.50000000000E+03  0.00000000000E+00 0. -1.
        -11    1    1    2    0    0  0.45655248380E+01  0.11218490354E+02  0.47681541503E+03  0.47696922181E+03  0.00000000000E+00 0.  1.
         11    1    1    2    0    0  0.13614824864E+02  0.43982687592E+02 -0.27267841378E+03  0.27653816663E+03  0.00000000000E+00 0. -1.
        -15    1    1    2    0    0 -0.26501190227E+02 -0.54445236938E+02 -0.22015602962E+03  0.22833841555E+03  0.17770000000E+01 0. -1.
         15    1    1    2    0    0  0.83208405250E+01 -0.75594100782E+00  0.16019028370E+02  0.18154196010E+02  0.17770000000E+01 0.  1.
</event>
<event>
 6    1  0.1782050E-003  0.4787440E+03  0.7546771E-02  0.9448669E-01
        -11   -1    0    0    0    0  0.00000000000E+00  0.00000000000E+00  0.50000000000E+03  0.50000000000E+03  0.00000000000E+00 0.  1.
         11   -1    0    0    0    0 -0.00000000000E+00 -0.00000000000E+00 -0.50000000000E+03  0.50000000000E+03  0.00000000000E+00 0. -1.
        -11    1    1    2    0    0  0.98626487967E+01 -0.94151046770E+01  0.47883212397E+03  0.47902621951E+03  0.00000000000E+00 0.  1.
         11    1    1    2    0    0 -0.24248917701E+02  0.20481527675E+02 -0.47758091234E+03  0.47863454829E+03  0.00000000000E+00 0. -1.
        -15    1    1    2    0    0  0.24006435176E+02 -0.15320478757E+02 -0.81010334037E+01  0.29661599256E+02  0.17770000000E+01 0. -1.
         15    1    1    2    0    0 -0.96201662718E+01  0.42540557586E+01  0.68498217791E+01  0.12677632938E+02  0.17770000000E+01 0.  1.
</event>
<event>
 6    1  0.1782050E-003  0.5085521E+03  0.7546771E-02  0.9380875E-01
        -11   -1    0    0    0    0  0.00000000000E+00  0.00000000000E+00  0.50000000000E+03  0.50000000000E+03  0.00000000000E+00 0.  1.
         11   -1    0    0    0    0 -0.00000000000E+00 -0.00000000000E+00 -0.50000000000E+03  0.50000000000E+03  0.00000000000E+00 0.  1.
        -11    1    1    2    0    0  0.12366279286E+02 -0.14608921881E+02  0.49107507683E+03  0.49144793879E+03  0.00000000000E+00 0.  1.
         11    1    1    2    0    0 -0.40031429296E+01  0.71837384677E+01 -0.44402929942E+03  0.44410544918E+03  0.00000000000E+00 0.  1.
        -15    1    1    2    0    0 -0.86786033769E+00 -0.14247609735E+02 -0.36325993378E+02  0.39070232769E+02  0.17770000000E+01 0. -1.
         15    1    1    2    0    0 -0.74952760184E+01  0.21672793148E+02 -0.10719784032E+02  0.25376379256E+02  0.17770000000E+01 0.  1.
</event>
<event>
 6    1  0.1782050E-003  0.5007658E+03  0.7546771E-02  0.9398098E-01
        -11   -1    0    0    0    0  0.00000000000E+00  0.00000000000E+00  0.50000000000E+03  0.50000000000E+03  0.00000000000E+00 0.  1.
         11   -1    0    0    0    0 -0.00000000000E+00 -0.00000000000E+00 -0.50000000000E+03  0.50000000000E+03  0.00000000000E+00 0.  1.
        -11    1    1    2    0    0  0.82258049933E+01  0.43059302317E+01  0.49914786333E+03  0.49923420793E+03  0.00000000000E+00 0.  1.
         11    1    1    2    0    0  0.43241821295E+00  0.67007919657E+01 -0.34429829676E+03  0.34436376806E+03  0.00000000000E+00 0.  1.
        -15    1    1    2    0    0 -0.10716600546E+02 -0.37837096281E+01 -0.51705164004E+02  0.52969271276E+02  0.17770000000E+01 0.  1.
         15    1    1    2    0    0  0.20583773399E+01 -0.72230125694E+01 -0.10314440257E+03  0.10343275273E+03  0.17770000000E+01 0. -1.
</event>
<event>
 6    1  0.3579407E-003  0.5082886E+03  0.7546771E-02  0.9381452E-01
        -11   -1    0    0    0    0  0.00000000000E+00  0.00000000000E+00  0.50000000000E+03  0.50000000000E+03  0.00000000000E+00 0.  1.
         11   -1    0    0    0    0 -0.00000000000E+00 -0.00000000000E+00 -0.50000000000E+03  0.50000000000E+03  0.00000000000E+00 0. -1.
        -11    1    1    2    0    0  0.43690189923E+01  0.11028979301E+02  0.49156830130E+03  0.49171142101E+03  0.00000000000E+00 0.  1.
         11    1    1    2    0    0 -0.28917964587E+02  0.29946697879E+02 -0.22423260595E+03  0.22806427813E+03  0.00000000000E+00 0. -1.
        -15    1    1    2    0    0 -0.22344302251E+01 -0.56140878143E+01  0.24885993661E+01  0.67721131283E+01  0.17770000000E+01 0.  1.
         15    1    1    2    0    0  0.26783375820E+02 -0.35361589366E+02 -0.26982429472E+03  0.27345218773E+03  0.17770000000E+01 0. -1.
</event>
<event>
 6    1  0.1782050E-003  0.4904121E+03  0.7546771E-02  0.9421523E-01
        -11   -1    0    0    0    0  0.00000000000E+00  0.00000000000E+00  0.50000000000E+03  0.50000000000E+03  0.00000000000E+00 0.  1.
         11   -1    0    0    0    0 -0.00000000000E+00 -0.00000000000E+00 -0.50000000000E+03  0.50000000000E+03  0.00000000000E+00 0.  1.
        -11    1    1    2    0    0  0.12437278489E+02 -0.28857715600E+01  0.48751124407E+03  0.48767840497E+03  0.00000000000E+00 0.  1.
         11    1    1    2    0    0 -0.58801886966E+01 -0.38632814801E+01 -0.49315701303E+03  0.49320719892E+03  0.00000000000E+00 0.  1.
        -15    1    1    2    0    0  0.18440234798E+01 -0.23236624676E+01 -0.24415226735E+01  0.42330357691E+01  0.17770000000E+01 0.  1.
         15    1    1    2    0    0 -0.84011132722E+01  0.90727155077E+01  0.80872916277E+01  0.14881360347E+02  0.17770000000E+01 0.  1.
</event>
<event>
 6    1  0.1782050E-003  0.5004314E+03  0.7546771E-02  0.9398845E-01
        -11   -1    0    0    0    0  0.00000000000E+00  0.00000000000E+00  0.50000000000E+03  0.50000000000E+03  0.00000000000E+00 0.  1.
         11   -1    0    0    0    0 -0.00000000000E+00 -0.00000000000E+00 -0.50000000000E+03  0.50000000000E+03  0.00000000000E+00 0.  1.
        -11    1    1    2    0    0 -0.26086720756E+01 -0.68028606702E+01  0.44564266220E+03  0.44570221724E+03  0.00000000000E+00 0.  1.
         11    1    1    2    0    0 -0.14239346387E+01  0.11127293051E+02 -0.49944267069E+03  0.49956863947E+03  0.00000000000E+00 0.  1.
        -15    1    1    2    0    0 -0.48289879992E-01  0.15476190284E+01  0.79916766147E+01  0.83319913997E+01  0.17770000000E+01 0. -1.
         15    1    1    2    0    0  0.40808965943E+01 -0.58720514088E+01  0.45808331875E+02  0.46397151883E+02  0.17770000000E+01 0. -1.
</event>
<event>
 6    1  0.1782050E-003  0.5043487E+03  0.7546771E-02  0.9390131E-01
        -11   -1    0    0    0    0  0.00000000000E+00  0.00000000000E+00  0.50000000000E+03  0.50000000000E+03  0.00000000000E+00 0.  1.
         11   -1    0    0    0    0 -0.00000000000E+00 -0.00000000000E+00 -0.50000000000E+03  0.50000000000E+03  0.00000000000E+00 0. -1.
        -11    1    1    2    0    0  0.60613682934E+01 -0.47508161682E+01  0.43766569195E+03  0.43773344440E+03  0.00000000000E+00 0.  1.
         11    1    1    2    0    0 -0.11783523329E+02 -0.31201771230E+01 -0.49550142828E+03  0.49565134152E+03  0.00000000000E+00 0. -1.
        -15    1    1    2    0    0  0.53562653766E+01  0.15977106756E+02  0.55437569781E+02  0.57969296971E+02  0.17770000000E+01 0. -1.
         15    1    1    2    0    0  0.36588965940E+00 -0.81061134653E+01  0.23981665534E+01  0.86459171042E+01  0.17770000000E+01 0.  1.
</event>
<event>
 6    1  0.1782050E-003  0.5065195E+03  0.7546771E-02  0.9385339E-01
        -11   -1    0    0    0    0  0.00000000000E+00  0.00000000000E+00  0.50000000000E+03  0.50000000000E+03  0.00000000000E+00 0. -1.
         11   -1    0    0    0    0 -0.00000000000E+00 -0.00000000000E+00 -0.50000000000E+03  0.50000000000E+03  0.00000000000E+00 0.  1.
        -11    1    1    2    0    0 -0.10648906316E+02  0.63921132894E+01  0.38837764117E+03  0.38857618362E+03  0.00000000000E+00 0. -1.
         11    1    1    2    0    0  0.54795704384E+01  0.12341677204E+02 -0.49329570546E+03  0.49348049172E+03  0.00000000000E+00 0.  1.
        -15    1    1    2    0    0  0.72027486571E+01  0.34342933279E+01  0.91553574601E+02  0.91917836736E+02  0.17770000000E+01 0. -1.
         15    1    1    2    0    0 -0.20334127796E+01 -0.22168083821E+02  0.13364489687E+02  0.26025487919E+02  0.17770000000E+01 0.  1.
</event>
<event>
 6    1  0.1782050E-003  0.5007842E+03  0.7546771E-02  0.9398057E-01
        -11   -1    0    0    0    0  0.00000000000E+00  0.00000000000E+00  0.50000000000E+03  0.50000000000E+03  0.00000000000E+00 0.  1.
         11   -1    0    0    0    0 -0.00000000000E+00 -0.00000000000E+00 -0.50000000000E+03  0.50000000000E+03  0.00000000000E+00 0. -1.
        -11    1    1    2    0    0  0.75294092781E+00 -0.86146670222E+01  0.40666181751E+03  0.40675375011E+03  0.00000000000E+00 0.  1.
         11    1    1    2    0    0 -0.72596155610E+01 -0.17681416684E+01 -0.49915984480E+03  0.49921576398E+03  0.00000000000E+00 0. -1.
        -15    1    1    2    0    0  0.88732001147E-01  0.23329089514E+01  0.42392314400E+01  0.51554970416E+01  0.17770000000E+01 0. -1.
         15    1    1    2    0    0  0.64179426320E+01  0.80498997393E+01  0.88258795853E+02  0.88874988877E+02  0.17770000000E+01 0.  1.
</event>
<event>
 6    1  0.1782050E-003  0.4770312E+03  0.7546771E-02  0.9452724E-01
        -11   -1    0    0    0    0  0.00000000000E+00  0.00000000000E+00  0.50000000000E+03  0.50000000000E+03  0.00000000000E+00 0. -1.
         11   -1    0    0    0    0 -0.00000000000E+00 -0.00000000000E+00 -0.50000000000E+03  0.50000000000E+03  0.00000000000E+00 0.  1.
        -11    1    1    2    0    0 -0.15698573555E+02 -0.99501656722E+01  0.48100783023E+03  0.48136678713E+03  0.00000000000E+00 0. -1.
         11    1    1    2    0    0 -0.28240495975E+01  0.79213171299E+01 -0.47283771883E+03  0.47291249811E+03  0.00000000000E+00 0.  1.
        -15    1    1    2    0    0  0.15674678637E+02  0.28901460974E+01  0.15199252702E+02  0.22095780288E+02  0.17770000000E+01 0.  1.
         15    1    1    2    0    0  0.28479445151E+01 -0.86129755512E+00 -0.23369364101E+02  0.23624934474E+02  0.17770000000E+01 0.  1.
</event>
<event>
 6    1  0.1782050E-003  0.5002736E+03  0.7546771E-02  0.9399198E-01
        -11   -1    0    0    0    0  0.00000000000E+00  0.00000000000E+00  0.50000000000E+03  0.50000000000E+03  0.00000000000E+00 0. -1.
         11   -1    0    0    0    0 -0.00000000000E+00 -0.00000000000E+00 -0.50000000000E+03  0.50000000000E+03  0.00000000000E+00 0.  1.
        -11    1    1    2    0    0 -0.46942875166E+01 -0.22720574937E+01  0.25517380067E+03  0.25522708933E+03  0.00000000000E+00 0. -1.
         11    1    1    2    0    0  0.21740785274E+01 -0.65746248359E+01 -0.49967844469E+03  0.49972642556E+03  0.00000000000E+00 0.  1.
        -15    1    1    2    0    0 -0.66163831714E+00  0.77489275356E+01  0.63148892059E+02  0.63650796857E+02  0.17770000000E+01 0. -1.
         15    1    1    2    0    0  0.31818473063E+01  0.10977547940E+01  0.18135575197E+03  0.18139568826E+03  0.17770000000E+01 0. -1.
</event>
<event>
 6    1  0.1782050E-003  0.5034411E+03  0.7546771E-02  0.9392143E-01
        -11   -1    0    0    0    0  0.00000000000E+00  0.00000000000E+00  0.50000000000E+03  0.50000000000E+03  0.00000000000E+00 0.  1.
         11   -1    0    0    0    0 -0.00000000000E+00 -0.00000000000E+00 -0.50000000000E+03  0.50000000000E+03  0.00000000000E+00 0. -1.
        -11    1    1    2    0    0 -0.17643982063E+01 -0.99434573570E+01  0.49645622786E+03  0.49655893067E+03  0.00000000000E+00 0.  1.
         11    1    1    2    0    0  0.71911337628E+01 -0.79417150468E+01 -0.40425937087E+03  0.40440131328E+03  0.00000000000E+00 0. -1.
        -15    1    1    2    0    0 -0.12162161457E+01  0.24575248430E+02 -0.83865098986E+02  0.87418159292E+02  0.17770000000E+01 0. -1.
         15    1    1    2    0    0 -0.42105194109E+01 -0.66900760267E+01 -0.83317579976E+01  0.11621596761E+02  0.17770000000E+01 0.  1.
</event>
<event>
 6    1  0.1782050E-003  0.5019204E+03  0.7546771E-02  0.9395523E-01
        -11   -1    0    0    0    0  0.00000000000E+00  0.00000000000E+00  0.50000000000E+03  0.50000000000E+03  0.00000000000E+00 0. -1.
         11   -1    0    0    0    0 -0.00000000000E+00 -0.00000000000E+00 -0.50000000000E+03  0.50000000000E+03  0.00000000000E+00 0. -1.
        -11    1    1    2    0    0  0.79145897980E+01  0.56817557969E+01  0.40289111893E+03  0.40300890412E+03  0.00000000000E+00 0. -1.
         11    1    1    2    0    0  0.35345060345E+01 -0.58568600197E+01 -0.49803266958E+03  0.49807964776E+03  0.00000000000E+00 0. -1.
        -15    1    1    2    0    0 -0.81332135471E+01  0.60149287965E+01  0.13439849045E+02  0.16914957948E+02  0.17770000000E+01 0. -1.
         15    1    1    2    0    0 -0.33158822854E+01 -0.58398245738E+01  0.81701701605E+02  0.81996490172E+02  0.17770000000E+01 0.  1.
</event>
<event>
 6    1  0.1782050E-003  0.5027013E+03  0.7546771E-02  0.9393786E-01
        -11   -1    0    0    0    0  0.00000000000E+00  0.00000000000E+00  0.50000000000E+03  0.50000000000E+03  0.00000000000E+00 0. -1.
         11   -1    0    0    0    0 -0.00000000000E+00 -0.00000000000E+00 -0.50000000000E+03  0.50000000000E+03  0.00000000000E+00 0. -1.
        -11    1    1    2    0    0  0.74980291659E+01  0.10054228443E+02  0.43427088500E+03  0.43445196456E+03  0.00000000000E+00 0. -1.
         11    1    1    2    0    0 -0.77241809274E+01 -0.32755396063E+01 -0.49722793845E+03  0.49729871799E+03  0.00000000000E+00 0. -1.
        -15    1    1    2    0    0 -0.79153956698E+01  0.17923636437E+01  0.65224395202E+01  0.10562480880E+02  0.17770000000E+01 0.  1.
         15    1    1    2    0    0  0.81415474313E+01 -0.85710524805E+01  0.56434613933E+02  0.57686836574E+02  0.17770000000E+01 0. -1.
</event>
<event>
 6    1  0.1782050E-003  0.5016566E+03  0.7546771E-02  0.9396111E-01
        -11   -1    0    0    0    0  0.00000000000E+00  0.00000000000E+00  0.50000000000E+03  0.50000000000E+03  0.00000000000E+00 0. -1.
         11   -1    0    0    0    0 -0.00000000000E+00 -0.00000000000E+00 -0.50000000000E+03  0.50000000000E+03  0.00000000000E+00 0.  1.
        -11    1    1    2    0    0  0.60741779351E+01 -0.11678829175E+02  0.41215561293E+03  0.41236578418E+03  0.00000000000E+00 0. -1.
         11    1    1    2    0    0 -0.26257389197E+01  0.89568932053E+01 -0.49825596008E+03  0.49834337780E+03  0.00000000000E+00 0.  1.
        -15    1    1    2    0    0 -0.30891293109E+01 -0.32499291217E+01  0.24531479035E+01  0.54111387740E+01  0.17770000000E+01 0.  1.
         15    1    1    2    0    0 -0.35930970455E+00  0.59718650910E+01  0.83647199243E+02  0.83879699250E+02  0.17770000000E+01 0. -1.
</event>
