<event>
 7    1  0.3243445E-006  0.4929605E+03  0.7546771E-02  0.9415700E-01
        -11   -1    0    0    0    0  0.00000000000E+00  0.00000000000E+00  0.50000000000E+03  0.50000000000E+03  0.00000000000E+00 0.  1.
         11   -1    0    0    0    0 -0.00000000000E+00 -0.00000000000E+00 -0.50000000000E+03  0.50000000000E+03  0.00000000000E+00 0.  1.
         23    2    1    2    0    0 -0.17755087377E+02  0.18671241671E+03 -0.45247095493E+03  0.49868075019E+03  0.93679004450E+02 0.  0.
        -11    1    1    2    0    0  0.29685334154E+02 -0.19612089410E+03  0.43547655050E+03  0.47852319714E+03  0.00000000000E+00 0.  1.
         11    1    1    2    0    0 -0.11930246777E+02  0.94084773944E+01  0.16994404430E+02  0.22796052662E+02  0.00000000000E+00 0.  1.
        -15    1    3    3    0    0  0.23728751843E+01 -0.10647592685E+02 -0.29211571850E+02  0.31232601966E+02  0.17770000000E+01 0. -1.
         15    1    3    3    0    0 -0.20127962562E+02  0.19736000939E+03 -0.42325938308E+03  0.46744814823E+03  0.17770000000E+01 0.  1.
</event>
<event>
 7    1  0.3243445E-006  0.5265196E+03  0.7546771E-02  0.9342350E-01
        -11   -1    0    0    0    0  0.00000000000E+00  0.00000000000E+00  0.50000000000E+03  0.50000000000E+03  0.00000000000E+00 0.  1.
         11   -1    0    0    0    0 -0.00000000000E+00 -0.00000000000E+00 -0.50000000000E+03  0.50000000000E+03  0.00000000000E+00 0. -1.
         23    2    1    2    0    0 -0.51983887768E+02  0.44342082549E+02 -0.82358472245E+02  0.14172619607E+03  0.92923903434E+02 0.  0.
        -11    1    1    2    0    0 -0.34115465293E+03  0.14932399576E+03 -0.96859842907E+02  0.38479342782E+03  0.00000000000E+00 0. -1.
         11    1    1    2    0    0  0.39313854070E+03 -0.19366607831E+03  0.17921831515E+03  0.47348037611E+03  0.00000000000E+00 0.  1.
        -15    1    3    3    0    0 -0.10396930946E+02 -0.66629707999E+01 -0.74369837945E+02  0.75409030480E+02  0.17770000000E+01 0. -1.
         15    1    3    3    0    0 -0.41586956822E+02  0.51005053349E+02 -0.79886343003E+01  0.66317165590E+02  0.17770000000E+01 0.  1.
</event>
<event>
 7    1  0.3243445E-006  0.5403166E+03  0.7546771E-02  0.9313859E-01
        -11   -1    0    0    0    0  0.00000000000E+00  0.00000000000E+00  0.50000000000E+03  0.50000000000E+03  0.00000000000E+00 0.  1.
         11   -1    0    0    0    0 -0.00000000000E+00 -0.00000000000E+00 -0.50000000000E+03  0.50000000000E+03  0.00000000000E+00 0. -1.
         23    2    1    2    0    0  0.12450968928E+02  0.75442612720E+01 -0.16912150174E+02  0.93985670098E+02  0.91298098857E+02 0.  0.
        -11    1    1    2    0    0  0.12780182061E+03 -0.67462088959E+02  0.43637644580E+03  0.45968341415E+03  0.00000000000E+00 0.  1.
         11    1    1    2    0    0 -0.14025278954E+03  0.59917827687E+02 -0.41946429563E+03  0.44633091575E+03  0.00000000000E+00 0. -1.
        -15    1    3    3    0    0  0.35848542320E+01 -0.22172806301E+02 -0.46131829915E+02  0.51339925783E+02  0.17770000000E+01 0.  1.
         15    1    3    3    0    0  0.88661146959E+01  0.29717067573E+02  0.29219679742E+02  0.42645744314E+02  0.17770000000E+01 0. -1.
</event>
<event>
 7    1  0.3243445E-006  0.4742235E+03  0.7546771E-02  0.9459409E-01
        -11   -1    0    0    0    0  0.00000000000E+00  0.00000000000E+00  0.50000000000E+03  0.50000000000E+03  0.00000000000E+00 0.  1.
         11   -1    0    0    0    0 -0.00000000000E+00 -0.00000000000E+00 -0.50000000000E+03  0.50000000000E+03  0.00000000000E+00 0. -1.
         23    2    1    2    0    0 -0.52194050652E+02 -0.27906466524E+02 -0.46371423928E+03  0.47644537061E+03  0.92012529922E+02 0.  0.
        -11    1    1    2    0    0  0.83915065367E+02 -0.21021494624E+02  0.45670271614E+03  0.46482363576E+03  0.00000000000E+00 0.  1.
         11    1    1    2    0    0 -0.31721014715E+02  0.48927961148E+02  0.70115231431E+01  0.58730993635E+02  0.00000000000E+00 0. -1.
        -15    1    3    3    0    0 -0.26470698229E+02  0.95625548306E+01 -0.33310541762E+02  0.43645048300E+02  0.17770000000E+01 0.  1.
         15    1    3    3    0    0 -0.25723352423E+02 -0.37469021355E+02 -0.43040369752E+03  0.43280032231E+03  0.17770000000E+01 0. -1.
</event>
<event>
 7    1  0.3243445E-006  0.4694064E+03  0.7546771E-02  0.9470994E-01
        -11   -1    0    0    0    0  0.00000000000E+00  0.00000000000E+00  0.50000000000E+03  0.50000000000E+03  0.00000000000E+00 0.  1.
         11   -1    0    0    0    0 -0.00000000000E+00 -0.00000000000E+00 -0.50000000000E+03  0.50000000000E+03  0.00000000000E+00 0. -1.
         23    2    1    2    0    0 -0.10622419387E+03  0.16437252800E+03 -0.41268045172E+03  0.46624438672E+03  0.93684393558E+02 0.  0.
        -11    1    1    2    0    0  0.17295428057E+03 -0.15360131706E+03  0.40409716348E+03  0.46561901304E+03  0.00000000000E+00 0.  1.
         11    1    1    2    0    0 -0.66730086695E+02 -0.10771210936E+02  0.85832882408E+01  0.68136600241E+02  0.00000000000E+00 0. -1.
        -15    1    3    3    0    0  0.70342600601E+01  0.11928900556E-02  0.59888758720E+00  0.72799183620E+01  0.17770000000E+01 0.  1.
         15    1    3    3    0    0 -0.11325845393E+03  0.16437133511E+03 -0.41327933931E+03  0.45896446836E+03  0.17770000000E+01 0. -1.
</event>
<event>
 7    1  0.3243445E-006  0.4559303E+03  0.7546771E-02  0.9504206E-01
        -11   -1    0    0    0    0  0.00000000000E+00  0.00000000000E+00  0.50000000000E+03  0.50000000000E+03  0.00000000000E+00 0.  1.
         11   -1    0    0    0    0 -0.00000000000E+00 -0.00000000000E+00 -0.50000000000E+03  0.50000000000E+03  0.00000000000E+00 0. -1.
         23    2    1    2    0    0 -0.28553304956E+02 -0.47454440704E+02 -0.16876591299E+01  0.86457484672E+02  0.66368918148E+02 0.  0.
        -11    1    1    2    0    0 -0.19041064009E+02 -0.34232993403E+02  0.45185754442E+03  0.45355231275E+03  0.00000000000E+00 0.  1.
         11    1    1    2    0    0  0.47594368966E+02  0.81687434107E+02 -0.45016988529E+03  0.45999020258E+03  0.00000000000E+00 0. -1.
        -15    1    3    3    0    0 -0.33967989859E+01 -0.56330566416E+02 -0.12140080366E+02  0.57751279089E+02  0.17770000000E+01 0. -1.
         15    1    3    3    0    0 -0.25156505970E+02  0.88761257127E+01  0.10452421236E+02  0.28706205583E+02  0.17770000000E+01 0.  1.
</event>
<event>
 7    1  0.3243445E-006  0.3602246E+03  0.7546771E-02  0.9781824E-01
        -11   -1    0    0    0    0  0.00000000000E+00  0.00000000000E+00  0.50000000000E+03  0.50000000000E+03  0.00000000000E+00 0.  1.
         11   -1    0    0    0    0 -0.00000000000E+00 -0.00000000000E+00 -0.50000000000E+03  0.50000000000E+03  0.00000000000E+00 0. -1.
         23    2    1    2    0    0  0.73390564213E+02  0.19568577959E+02 -0.29728848674E+03  0.31985437306E+03  0.90317614333E+02 0.  0.
        -11    1    1    2    0    0  0.14020566898E+03 -0.10086584750E+03  0.39536540166E+03  0.43144565085E+03  0.00000000000E+00 0.  1.
         11    1    1    2    0    0 -0.21359623319E+03  0.81297269543E+02 -0.98076914921E+02  0.24869997610E+03  0.00000000000E+00 0. -1.
        -15    1    3    3    0    0  0.13107257318E+02  0.70523084394E+01 -0.22233326017E+03  0.22283799397E+03  0.17770000000E+01 0. -1.
         15    1    3    3    0    0  0.60283306895E+02  0.12516269520E+02 -0.74955226565E+02  0.97016379088E+02  0.17770000000E+01 0.  1.
</event>
<event>
 7    1  0.3243445E-006  0.4696378E+03  0.7546771E-02  0.9470434E-01
        -11   -1    0    0    0    0  0.00000000000E+00  0.00000000000E+00  0.50000000000E+03  0.50000000000E+03  0.00000000000E+00 0.  1.
         11   -1    0    0    0    0 -0.00000000000E+00 -0.00000000000E+00 -0.50000000000E+03  0.50000000000E+03  0.00000000000E+00 0. -1.
         23    2    1    2    0    0  0.44220931227E+02  0.12455165196E+03 -0.42157757588E+03  0.45178955780E+03  0.94432765934E+02 0.  0.
        -11    1    1    2    0    0 -0.41714485951E+02 -0.79179922494E+02  0.47195570821E+03  0.48036626545E+03  0.00000000000E+00 0.  1.
         11    1    1    2    0    0 -0.25064452759E+01 -0.45371729467E+02 -0.50378132329E+02  0.67844176756E+02  0.00000000000E+00 0. -1.
        -15    1    3    3    0    0  0.12319220374E+02  0.50268128679E+02 -0.51699764533E+02  0.73175619801E+02  0.17770000000E+01 0.  1.
         15    1    3    3    0    0  0.31901710853E+02  0.74283523282E+02 -0.36987781135E+03  0.37861393800E+03  0.17770000000E+01 0. -1.
</event>
<event>
 7    1  0.3243445E-006  0.5271054E+03  0.7546771E-02  0.9341122E-01
        -11   -1    0    0    0    0  0.00000000000E+00  0.00000000000E+00  0.50000000000E+03  0.50000000000E+03  0.00000000000E+00 0. -1.
         11   -1    0    0    0    0 -0.00000000000E+00 -0.00000000000E+00 -0.50000000000E+03  0.50000000000E+03  0.00000000000E+00 0. -1.
         23    2    1    2    0    0 -0.93143859077E+02  0.54449526615E+02 -0.17244568408E+03  0.22467541734E+03  0.95399160198E+02 0.  0.
        -11    1    1    2    0    0  0.15942620079E+02 -0.17138293009E+03  0.44045772550E+03  0.47289458002E+03  0.00000000000E+00 0. -1.
         11    1    1    2    0    0  0.77201238998E+02  0.11693340347E+03 -0.26801204142E+03  0.30243000264E+03  0.00000000000E+00 0. -1.
        -15    1    3    3    0    0 -0.28710231697E+02  0.15115373591E+01  0.44068398021E+01  0.29140008843E+02  0.17770000000E+01 0.  1.
         15    1    3    3    0    0 -0.64433627380E+02  0.52937989256E+02 -0.17685252388E+03  0.19553540849E+03  0.17770000000E+01 0. -1.
</event>
<event>
 7    1  0.3243445E-006  0.5148131E+03  0.7546771E-02  0.9367261E-01
        -11   -1    0    0    0    0  0.00000000000E+00  0.00000000000E+00  0.50000000000E+03  0.50000000000E+03  0.00000000000E+00 0. -1.
         11   -1    0    0    0    0 -0.00000000000E+00 -0.00000000000E+00 -0.50000000000E+03  0.50000000000E+03  0.00000000000E+00 0. -1.
         23    2    1    2    0    0  0.39307406810E+02 -0.22274008315E+02 -0.22480695147E+03  0.24740760222E+03  0.92903996302E+02 0.  0.
        -11    1    1    2    0    0  0.18611777032E+01  0.12123095629E+03  0.46979345432E+03  0.48518686964E+03  0.00000000000E+00 0. -1.
         11    1    1    2    0    0 -0.41168584513E+02 -0.98956947978E+02 -0.24498650285E+03  0.26740552815E+03  0.00000000000E+00 0. -1.
        -15    1    3    3    0    0  0.21921507667E+02 -0.56748241746E+02 -0.16812567239E+03  0.17880244653E+03  0.17770000000E+01 0. -1.
         15    1    3    3    0    0  0.17385899143E+02  0.34474233431E+02 -0.56681279083E+02  0.68605155689E+02  0.17770000000E+01 0.  1.
</event>
<event>
 7    1  0.3243445E-006  0.5233179E+03  0.7546771E-02  0.9349094E-01
        -11   -1    0    0    0    0  0.00000000000E+00  0.00000000000E+00  0.50000000000E+03  0.50000000000E+03  0.00000000000E+00 0.  1.
         11   -1    0    0    0    0 -0.00000000000E+00 -0.00000000000E+00 -0.50000000000E+03  0.50000000000E+03  0.00000000000E+00 0. -1.
         23    2    1    2    0    0  0.14275334323E+02 -0.97084601800E+02 -0.25533900133E+03  0.28849374267E+03  0.91659308758E+02 0.  0.
        -11    1    1    2    0    0 -0.66431577813E+02  0.29706262979E+03  0.36683299079E+03  0.47668207821E+03  0.00000000000E+00 0.  1.
         11    1    1    2    0    0  0.52156243490E+02 -0.19997802799E+03 -0.11149398946E+03  0.23482417912E+03  0.00000000000E+00 0. -1.
        -15    1    3    3    0    0  0.31276718766E+00  0.13018192191E+02 -0.40036088912E+01  0.13738914236E+02  0.17770000000E+01 0.  1.
         15    1    3    3    0    0  0.13962567135E+02 -0.11010279399E+03 -0.25133539244E+03  0.27475482843E+03  0.17770000000E+01 0. -1.
</event>
<event>
 7    1  0.3243445E-006  0.4045726E+03  0.7546771E-02  0.9642986E-01
        -11   -1    0    0    0    0  0.00000000000E+00  0.00000000000E+00  0.50000000000E+03  0.50000000000E+03  0.00000000000E+00 0. -1.
         11   -1    0    0    0    0 -0.00000000000E+00 -0.00000000000E+00 -0.50000000000E+03  0.50000000000E+03  0.00000000000E+00 0.  1.
         23    2    1    2    0    0 -0.11385696780E+03  0.40106945301E+02 -0.92134535993E+02  0.17672807057E+03  0.90399458115E+02 0.  0.
        -11    1    1    2    0    0  0.21383938292E+03  0.24456356748E+03  0.31162368052E+03  0.45016434609E+03  0.00000000000E+00 0. -1.
         11    1    1    2    0    0 -0.99982415121E+02 -0.28467051278E+03 -0.21948914452E+03  0.37310758334E+03  0.00000000000E+00 0.  1.
        -15    1    3    3    0    0 -0.10335496253E+03  0.30298967330E+02 -0.28442510942E+02  0.11141099524E+03  0.17770000000E+01 0.  1.
         15    1    3    3    0    0 -0.10502005268E+02  0.98079779713E+01 -0.63692025052E+02  0.65317075338E+02  0.17770000000E+01 0. -1.
</event>
<event>
 7    1  0.3243445E-006  0.3428370E+03  0.7546771E-02  0.9842230E-01
        -11   -1    0    0    0    0  0.00000000000E+00  0.00000000000E+00  0.50000000000E+03  0.50000000000E+03  0.00000000000E+00 0.  1.
         11   -1    0    0    0    0 -0.00000000000E+00 -0.00000000000E+00 -0.50000000000E+03  0.50000000000E+03  0.00000000000E+00 0. -1.
         23    2    1    2    0    0  0.25583922367E+02 -0.71445635759E+02 -0.25483502858E+03  0.28063223255E+03  0.89747101365E+02 0.  0.
        -11    1    1    2    0    0 -0.70438119571E+02 -0.14394317915E+03  0.41655368549E+03  0.44631618883E+03  0.00000000000E+00 0.  1.
         11    1    1    2    0    0  0.44854197204E+02  0.21538881491E+03 -0.16171865691E+03  0.27305157862E+03  0.00000000000E+00 0. -1.
        -15    1    3    3    0    0  0.29882882309E+02 -0.72051777691E+02 -0.10546561038E+03  0.13118916886E+03  0.17770000000E+01 0. -1.
         15    1    3    3    0    0 -0.42989599415E+01  0.60614193177E+00 -0.14936941820E+03  0.14944306369E+03  0.17770000000E+01 0.  1.
</event>
<event>
 7    1  0.3243445E-006  0.4904922E+03  0.7546771E-02  0.9421339E-01
        -11   -1    0    0    0    0  0.00000000000E+00  0.00000000000E+00  0.50000000000E+03  0.50000000000E+03  0.00000000000E+00 0. -1.
         11   -1    0    0    0    0 -0.00000000000E+00 -0.00000000000E+00 -0.50000000000E+03  0.50000000000E+03  0.00000000000E+00 0.  1.
         23    2    1    2    0    0  0.25550086206E+03 -0.21151712779E+03 -0.33479722958E+03  0.47983478836E+03  0.90177898237E+02 0.  0.
        -11    1    1    2    0    0 -0.25465265428E+03  0.23078382554E+03  0.35369621351E+03  0.49316342110E+03  0.00000000000E+00 0. -1.
         11    1    1    2    0    0 -0.84820777553E+00 -0.19266697753E+02 -0.18898983930E+02  0.27001790539E+02  0.00000000000E+00 0.  1.
        -15    1    3    3    0    0  0.26103200562E+03 -0.20737046905E+03 -0.33510158892E+03  0.47269065151E+03  0.17770000000E+01 0.  1.
         15    1    3    3    0    0 -0.55311435660E+01 -0.41466587307E+01  0.30435934433E+00  0.71441368539E+01  0.17770000000E+01 0. -1.
</event>
<event>
 7    1  0.3243445E-006  0.5351857E+03  0.7546771E-02  0.9324348E-01
        -11   -1    0    0    0    0  0.00000000000E+00  0.00000000000E+00  0.50000000000E+03  0.50000000000E+03  0.00000000000E+00 0. -1.
         11   -1    0    0    0    0 -0.00000000000E+00 -0.00000000000E+00 -0.50000000000E+03  0.50000000000E+03  0.00000000000E+00 0. -1.
         23    2    1    2    0    0 -0.29112380260E+01 -0.51569054429E+02 -0.26536243450E+03  0.28518319542E+03  0.90798626782E+02 0.  0.
        -11    1    1    2    0    0  0.78512140013E+02 -0.10351796139E+03  0.44628716748E+03  0.46481432887E+03  0.00000000000E+00 0. -1.
         11    1    1    2    0    0 -0.75600901987E+02  0.15508701582E+03 -0.18092473299E+03  0.25000247572E+03  0.00000000000E+00 0. -1.
        -15    1    3    3    0    0 -0.36939442924E+02 -0.33167872812E+02 -0.22000052825E+03  0.22553939875E+03  0.17770000000E+01 0.  1.
         15    1    3    3    0    0  0.34028204898E+02 -0.18401181616E+02 -0.45361906249E+02  0.59643796668E+02  0.17770000000E+01 0. -1.
</event>
<event>
 7    1  0.3243445E-006  0.5336612E+03  0.7546771E-02  0.9327488E-01
        -11   -1    0    0    0    0  0.00000000000E+00  0.00000000000E+00  0.50000000000E+03  0.50000000000E+03  0.00000000000E+00 0.  1.
         11   -1    0    0    0    0 -0.00000000000E+00 -0.00000000000E+00 -0.50000000000E+03  0.50000000000E+03  0.00000000000E+00 0. -1.
         23    2    1    2    0    0 -0.64948573770E+02 -0.41231631804E+02 -0.69413548436E+02  0.13604972179E+03  0.88164172983E+02 0.  0.
        -11    1    1    2    0    0  0.38864150271E+02  0.67531116235E+01  0.46466750334E+03  0.46633884178E+03  0.00000000000E+00 0.  1.
         11    1    1    2    0    0  0.26084423499E+02  0.34478520181E+02 -0.39525395491E+03  0.39761143642E+03  0.00000000000E+00 0. -1.
        -15    1    3    3    0    0  0.14189576924E+02 -0.34134762167E+02 -0.16169699011E+02  0.40387411115E+02  0.17770000000E+01 0.  1.
         15    1    3    3    0    0 -0.79138150694E+02 -0.70968696369E+01 -0.53243849425E+02  0.95662310679E+02  0.17770000000E+01 0. -1.
</event>
<event>
 7    1  0.3243445E-006  0.5088011E+03  0.7546771E-02  0.9380329E-01
        -11   -1    0    0    0    0  0.00000000000E+00  0.00000000000E+00  0.50000000000E+03  0.50000000000E+03  0.00000000000E+00 0. -1.
         11   -1    0    0    0    0 -0.00000000000E+00 -0.00000000000E+00 -0.50000000000E+03  0.50000000000E+03  0.00000000000E+00 0.  1.
         23    2    1    2    0    0  0.16332382458E+02  0.20397867429E+02 -0.22783226924E+03  0.24423518306E+03  0.84026555479E+02 0.  0.
        -11    1    1    2    0    0 -0.51380801085E+02  0.89162734658E+01  0.48842281083E+03  0.49119886888E+03  0.00000000000E+00 0. -1.
         11    1    1    2    0    0  0.35048418627E+02 -0.29314140895E+02 -0.26059054159E+03  0.26456594806E+03  0.00000000000E+00 0.  1.
        -15    1    3    3    0    0  0.40515576512E+02  0.15420058327E+02 -0.57079273272E+02  0.71697219647E+02  0.17770000000E+01 0. -1.
         15    1    3    3    0    0 -0.24183194053E+02  0.49778091020E+01 -0.17075299597E+03  0.17253796342E+03  0.17770000000E+01 0.  1.
</event>
<event>
 7    1  0.3243445E-006  0.4493987E+03  0.7546771E-02  0.9520746E-01
        -11   -1    0    0    0    0  0.00000000000E+00  0.00000000000E+00  0.50000000000E+03  0.50000000000E+03  0.00000000000E+00 0.  1.
         11   -1    0    0    0    0 -0.00000000000E+00 -0.00000000000E+00 -0.50000000000E+03  0.50000000000E+03  0.00000000000E+00 0. -1.
         23    2    1    2    0    0  0.13416789658E+03  0.47091275343E+02  0.38946557278E+03  0.42440197821E+03  0.90636604315E+02 0.  0.
        -11    1    1    2    0    0 -0.16775715702E+02 -0.79214139782E+02  0.65805716599E+02  0.10433933542E+03  0.00000000000E+00 0.  1.
         11    1    1    2    0    0 -0.11739218088E+03  0.32122864439E+02 -0.45527128938E+03  0.47125868637E+03  0.00000000000E+00 0. -1.
        -15    1    3    3    0    0  0.90690745325E+02  0.71810718621E+02  0.30525298371E+03  0.32644162172E+03  0.17770000000E+01 0.  1.
         15    1    3    3    0    0  0.43477151255E+02 -0.24719443278E+02  0.84212589062E+02  0.97960356486E+02  0.17770000000E+01 0. -1.
</event>
<event>
 7    1  0.3243445E-006  0.4722743E+03  0.7546771E-02  0.9464079E-01
        -11   -1    0    0    0    0  0.00000000000E+00  0.00000000000E+00  0.50000000000E+03  0.50000000000E+03  0.00000000000E+00 0. -1.
         11   -1    0    0    0    0 -0.00000000000E+00 -0.00000000000E+00 -0.50000000000E+03  0.50000000000E+03  0.00000000000E+00 0.  1.
         23    2    1    2    0    0 -0.42803666907E+02  0.18988760418E+02 -0.44265871923E+03  0.45552966200E+03  0.96787418243E+02 0.  0.
        -11    1    1    2    0    0 -0.76024587826E+01 -0.15387311146E+02  0.48083205365E+03  0.48113826552E+03  0.00000000000E+00 0. -1.
         11    1    1    2    0    0  0.50406125690E+02 -0.36014492725E+01 -0.38173334422E+02  0.63332072482E+02  0.00000000000E+00 0.  1.
        -15    1    3    3    0    0  0.10653123252E+02 -0.24398894836E+02 -0.24019792608E+03  0.24167539495E+03  0.17770000000E+01 0. -1.
         15    1    3    3    0    0 -0.53456790159E+02  0.43387655254E+02 -0.20246079316E+03  0.21385426705E+03  0.17770000000E+01 0.  1.
</event>
<event>
 6    1  0.3243445E-006  0.4543619E+03  0.7546771E-02  0.9508150E-01
        -11   -1    0    0    0    0  0.00000000000E+00  0.00000000000E+00  0.50000000000E+03  0.50000000000E+03  0.00000000000E+00 0. -1.
         11   -1    0    0    0    0 -0.00000000000E+00 -0.00000000000E+00 -0.50000000000E+03  0.50000000000E+03  0.00000000000E+00 0. -1.
        -11    1    1    2    0    0  0.21822465916E+03 -0.26100546841E+03  0.30882610237E+03  0.45947733122E+03  0.00000000000E+00 0. -1.
         11    1    1    2    0    0 -0.40644829668E+02  0.93878156514E+02  0.25459662457E+02  0.10541966070E+03  0.00000000000E+00 0. -1.
        -15    1    1    2    0    0 -0.63415977415E+02  0.58674231482E+02 -0.28227077118E+02  0.90907520279E+02  0.17770000000E+01 0.  1.
         15    1    1    2    0    0 -0.11416385207E+03  0.10845308041E+03 -0.30605868771E+03  0.34419548780E+03  0.17770000000E+01 0. -1.
</event>
<event>
 7    1  0.3243445E-006  0.5241457E+03  0.7546771E-02  0.9347346E-01
        -11   -1    0    0    0    0  0.00000000000E+00  0.00000000000E+00  0.50000000000E+03  0.50000000000E+03  0.00000000000E+00 0.  1.
         11   -1    0    0    0    0 -0.00000000000E+00 -0.00000000000E+00 -0.50000000000E+03  0.50000000000E+03  0.00000000000E+00 0. -1.
         23    2    1    2    0    0 -0.61378895164E+02 -0.55527285483E+02 -0.34443831477E+03  0.36585019237E+03  0.91421892180E+02 0.  0.
        -11    1    1    2    0    0  0.93822564276E+02 -0.42287800174E+02  0.46459271984E+03  0.47585431273E+03  0.00000000000E+00 0.  1.
         11    1    1    2    0    0 -0.32443669112E+02  0.97815085656E+02 -0.12015440508E+03  0.15829549490E+03  0.00000000000E+00 0. -1.
        -15    1    3    3    0    0  0.25097219907E+01  0.22308170584E+02 -0.68512296484E+02  0.72118275615E+02  0.17770000000E+01 0.  1.
         15    1    3    3    0    0 -0.63888617155E+02 -0.77835456067E+02 -0.27592601828E+03  0.29373191675E+03  0.17770000000E+01 0. -1.
</event>
<event>
 7    1  0.3243445E-006  0.5116128E+03  0.7546771E-02  0.9374194E-01
        -11   -1    0    0    0    0  0.00000000000E+00  0.00000000000E+00  0.50000000000E+03  0.50000000000E+03  0.00000000000E+00 0.  1.
         11   -1    0    0    0    0 -0.00000000000E+00 -0.00000000000E+00 -0.50000000000E+03  0.50000000000E+03  0.00000000000E+00 0. -1.
         23    2    1    2    0    0 -0.85763135118E+02 -0.12922749471E+03 -0.29847904226E+03  0.34803274713E+03  0.89342003976E+02 0.  0.
        -11    1    1    2    0    0  0.14951981824E+03  0.24451096093E+03  0.39544941226E+03  0.48838716580E+03  0.00000000000E+00 0.  1.
         11    1    1    2    0    0 -0.63756683124E+02 -0.11528346622E+03 -0.96970370003E+02  0.16358008707E+03  0.00000000000E+00 0. -1.
        -15    1    3    3    0    0 -0.59202951429E+02 -0.14256208472E+02 -0.97558773861E+02  0.11501782916E+03  0.17770000000E+01 0. -1.
         15    1    3    3    0    0 -0.26560183689E+02 -0.11497128624E+03 -0.20092026840E+03  0.23301491797E+03  0.17770000000E+01 0.  1.
</event>
<event>
 7    1  0.3243445E-006  0.3988864E+03  0.7546771E-02  0.9659697E-01
        -11   -1    0    0    0    0  0.00000000000E+00  0.00000000000E+00  0.50000000000E+03  0.50000000000E+03  0.00000000000E+00 0. -1.
         11   -1    0    0    0    0 -0.00000000000E+00 -0.00000000000E+00 -0.50000000000E+03  0.50000000000E+03  0.00000000000E+00 0.  1.
         23    2    1    2    0    0  0.75513525697E+02 -0.13439167273E+03  0.90107741784E+00  0.18746959644E+03  0.10668000462E+03 0.  0.
        -11    1    1    2    0    0 -0.13400563068E+02 -0.79372001256E+01  0.39083057262E+03  0.39114078122E+03  0.00000000000E+00 0. -1.
         11    1    1    2    0    0 -0.62112962629E+02  0.14232887286E+03 -0.39173165004E+03  0.42138962234E+03  0.00000000000E+00 0.  1.
        -15    1    3    3    0    0  0.11257558340E+02 -0.88734048529E+01  0.38836602415E+02  0.41435604854E+02  0.17770000000E+01 0.  1.
         15    1    3    3    0    0  0.64255967357E+02 -0.12551826788E+03 -0.37935524997E+02  0.14603399159E+03  0.17770000000E+01 0. -1.
</event>
<event>
 7    1  0.3243445E-006  0.4401834E+03  0.7546771E-02  0.9544598E-01
        -11   -1    0    0    0    0  0.00000000000E+00  0.00000000000E+00  0.50000000000E+03  0.50000000000E+03  0.00000000000E+00 0.  1.
         11   -1    0    0    0    0 -0.00000000000E+00 -0.00000000000E+00 -0.50000000000E+03  0.50000000000E+03  0.00000000000E+00 0. -1.
         23    2    1    2    0    0  0.16781793682E+03  0.28468162367E+02  0.39066036341E+03  0.43700744252E+03  0.96884927076E+02 0.  0.
        -11    1    1    2    0    0 -0.20044782234E+02  0.12023504324E+03 -0.25964608868E+01  0.12192210844E+03  0.00000000000E+00 0.  1.
         11    1    1    2    0    0 -0.14777315458E+03 -0.14870320560E+03 -0.38806390252E+03  0.44107044904E+03  0.00000000000E+00 0. -1.
        -15    1    3    3    0    0  0.17278995027E+03  0.77369302706E+01  0.32830416491E+03  0.37108356125E+03  0.17770000000E+01 0.  1.
         15    1    3    3    0    0 -0.49720134463E+01  0.20731232097E+02  0.62356198501E+02  0.65923881275E+02  0.17770000000E+01 0. -1.
</event>
<event>
 7    1  0.3243445E-006  0.4379794E+03  0.7546771E-02  0.9550395E-01
        -11   -1    0    0    0    0  0.00000000000E+00  0.00000000000E+00  0.50000000000E+03  0.50000000000E+03  0.00000000000E+00 0.  1.
         11   -1    0    0    0    0 -0.00000000000E+00 -0.00000000000E+00 -0.50000000000E+03  0.50000000000E+03  0.00000000000E+00 0. -1.
         23    2    1    2    0    0  0.99100959332E+02  0.11018875356E+03 -0.43197582306E+03  0.46568246748E+03  0.91074075701E+02 0.  0.
        -11    1    1    2    0    0  0.16085745818E+02 -0.12946477999E+03  0.38829899882E+03  0.40962909194E+03  0.00000000000E+00 0.  1.
         11    1    1    2    0    0 -0.11518670515E+03  0.19276026430E+02  0.43676824238E+02  0.12468844058E+03  0.00000000000E+00 0. -1.
        -15    1    3    3    0    0  0.59463614082E+02  0.93100966826E+02 -0.39037378370E+03  0.40570748102E+03  0.17770000000E+01 0. -1.
         15    1    3    3    0    0  0.39637345250E+02  0.17087786739E+02 -0.41602039353E+02  0.59974986465E+02  0.17770000000E+01 0.  1.
</event>
<event>
 7    1  0.3243445E-006  0.5324659E+03  0.7546771E-02  0.9329958E-01
        -11   -1    0    0    0    0  0.00000000000E+00  0.00000000000E+00  0.50000000000E+03  0.50000000000E+03  0.00000000000E+00 0.  1.
         11   -1    0    0    0    0 -0.00000000000E+00 -0.00000000000E+00 -0.50000000000E+03  0.50000000000E+03  0.00000000000E+00 0. -1.
         23    2    1    2    0    0  0.14973779022E+03 -0.44347241595E+02  0.10260003679E+02  0.18434362030E+03  0.97412622447E+02 0.  0.
        -11    1    1    2    0    0  0.23663533134E+03  0.35507177489E+02  0.25284794864E+03  0.34812228429E+03  0.00000000000E+00 0.  1.
         11    1    1    2    0    0 -0.38637312156E+03  0.88400641054E+01 -0.26310795232E+03  0.46753409541E+03  0.00000000000E+00 0. -1.
        -15    1    3    3    0    0  0.12087811701E+03 -0.60356241395E+02  0.38902220468E+02  0.14060915879E+03  0.17770000000E+01 0.  1.
         15    1    3    3    0    0  0.28859673207E+02  0.16008999800E+02 -0.28642216789E+02  0.43734461513E+02  0.17770000000E+01 0. -1.
</event>
<event>
 7    1  0.3243445E-006  0.4084874E+03  0.7546771E-02  0.9631650E-01
        -11   -1    0    0    0    0  0.00000000000E+00  0.00000000000E+00  0.50000000000E+03  0.50000000000E+03  0.00000000000E+00 0. -1.
         11   -1    0    0    0    0 -0.00000000000E+00 -0.00000000000E+00 -0.50000000000E+03  0.50000000000E+03  0.00000000000E+00 0. -1.
         23    2    1    2    0    0 -0.46598912870E+02  0.10258076778E+03  0.89381421699E+02  0.17046320449E+03  0.91511709314E+02 0.  0.
        -11    1    1    2    0    0  0.29982154975E+03  0.18415266964E+03  0.14537300572E+03  0.38070786467E+03  0.00000000000E+00 0. -1.
         11    1    1    2    0    0 -0.25322263688E+03 -0.28673343742E+03 -0.23475442742E+03  0.44882893084E+03  0.00000000000E+00 0. -1.
        -15    1    3    3    0    0 -0.30921478121E+02  0.34337276463E+02 -0.11498941285E+02  0.47650495735E+02  0.17770000000E+01 0.  1.
         15    1    3    3    0    0 -0.15677434749E+02  0.68243491318E+02  0.10088036298E+03  0.12281270876E+03  0.17770000000E+01 0. -1.
</event>
<event>
 7    1  0.3243445E-006  0.5305162E+03  0.7546771E-02  0.9334002E-01
        -11   -1    0    0    0    0  0.00000000000E+00  0.00000000000E+00  0.50000000000E+03  0.50000000000E+03  0.00000000000E+00 0.  1.
         11   -1    0    0    0    0 -0.00000000000E+00 -0.00000000000E+00 -0.50000000000E+03  0.50000000000E+03  0.00000000000E+00 0.  1.
         23    2    1    2    0    0  0.48852458091E+02  0.75784650824E+02  0.17277054069E+03  0.21531511832E+03  0.91548153930E+02 0.  0.
        -11    1    1    2    0    0 -0.10217873796E+03 -0.54361719474E+02  0.29318263654E+03  0.31520112532E+03  0.00000000000E+00 0.  1.
         11    1    1    2    0    0  0.53326279870E+02 -0.21422931350E+02 -0.46595317723E+03  0.46948375635E+03  0.00000000000E+00 0.  1.
        -15    1    3    3    0    0  0.70026436171E+02  0.33943340842E+02  0.13155162049E+03  0.15285561400E+03  0.17770000000E+01 0. -1.
         15    1    3    3    0    0 -0.21173978080E+02  0.41841309982E+02  0.41218920200E+02  0.62459504323E+02  0.17770000000E+01 0.  1.
</event>
<event>
 7    1  0.3243445E-006  0.5189086E+03  0.7546771E-02  0.9358467E-01
        -11   -1    0    0    0    0  0.00000000000E+00  0.00000000000E+00  0.50000000000E+03  0.50000000000E+03  0.00000000000E+00 0.  1.
         11   -1    0    0    0    0 -0.00000000000E+00 -0.00000000000E+00 -0.50000000000E+03  0.50000000000E+03  0.00000000000E+00 0.  1.
         23    2    1    2    0    0  0.35786290260E+02  0.40192692477E+00 -0.37707583012E+03  0.38927438262E+03  0.89819503374E+02 0.  0.
        -11    1    1    2    0    0 -0.23609096945E+02 -0.87277310087E+02  0.47251904151E+03  0.48109142884E+03  0.00000000000E+00 0.  1.
         11    1    1    2    0    0 -0.12177193316E+02  0.86875383162E+02 -0.95443211392E+02  0.12963418854E+03  0.00000000000E+00 0.  1.
        -15    1    3    3    0    0  0.30250798491E+02  0.41399448111E+02 -0.26198506547E+03  0.26696134060E+03  0.17770000000E+01 0.  1.
         15    1    3    3    0    0  0.55354917692E+01 -0.40997521186E+02 -0.11509076465E+03  0.12231304202E+03  0.17770000000E+01 0. -1.
</event>
<event>
 7    1  0.3243445E-006  0.3624586E+03  0.7546771E-02  0.9774329E-01
        -11   -1    0    0    0    0  0.00000000000E+00  0.00000000000E+00  0.50000000000E+03  0.50000000000E+03  0.00000000000E+00 0. -1.
         11   -1    0    0    0    0 -0.00000000000E+00 -0.00000000000E+00 -0.50000000000E+03  0.50000000000E+03  0.00000000000E+00 0.  1.
         23    2    1    2    0    0 -0.96239526136E+02 -0.83743461433E+02  0.27212803166E+03  0.31393957108E+03  0.90715902416E+02 0.  0.
        -11    1    1    2    0    0  0.64245779532E+02  0.17741499703E+03  0.15712400353E+03  0.24554338485E+03  0.00000000000E+00 0. -1.
         11    1    1    2    0    0  0.31993746604E+02 -0.93671535599E+02 -0.42925203519E+03  0.44051704407E+03  0.00000000000E+00 0.  1.
        -15    1    3    3    0    0  0.14755909052E+02  0.27262029911E+01  0.18443126019E+02  0.23842727635E+02  0.17770000000E+01 0.  1.
         15    1    3    3    0    0 -0.11099543519E+03 -0.86469664425E+02  0.25368490564E+03  0.29009684344E+03  0.17770000000E+01 0. -1.
</event>
<event>
 7    1  0.3243445E-006  0.4811475E+03  0.7546771E-02  0.9443011E-01
        -11   -1    0    0    0    0  0.00000000000E+00  0.00000000000E+00  0.50000000000E+03  0.50000000000E+03  0.00000000000E+00 0. -1.
         11   -1    0    0    0    0 -0.00000000000E+00 -0.00000000000E+00 -0.50000000000E+03  0.50000000000E+03  0.00000000000E+00 0. -1.
         23    2    1    2    0    0  0.42145935343E+02  0.58622174971E+01 -0.45765304250E+03  0.46788081765E+03  0.87495752776E+02 0.  0.
        -11    1    1    2    0    0 -0.80081367486E+02 -0.12789951541E+01  0.48081241722E+03  0.48743742347E+03  0.00000000000E+00 0. -1.
         11    1    1    2    0    0  0.37935432143E+02 -0.45832223430E+01 -0.23159374721E+02  0.44681758878E+02  0.00000000000E+00 0. -1.
        -15    1    3    3    0    0 -0.12069042679E+02 -0.14287916050E+02 -0.28836033319E+03  0.28897170419E+03  0.17770000000E+01 0. -1.
         15    1    3    3    0    0  0.54214978021E+02  0.20150133547E+02 -0.16929270931E+03  0.17890911346E+03  0.17770000000E+01 0.  1.
</event>
<event>
 7    1  0.3243445E-006  0.5093633E+03  0.7546771E-02  0.9379099E-01
        -11   -1    0    0    0    0  0.00000000000E+00  0.00000000000E+00  0.50000000000E+03  0.50000000000E+03  0.00000000000E+00 0. -1.
         11   -1    0    0    0    0 -0.00000000000E+00 -0.00000000000E+00 -0.50000000000E+03  0.50000000000E+03  0.00000000000E+00 0. -1.
         23    2    1    2    0    0  0.57625063353E+02  0.46049360707E+02 -0.47673210959E+03  0.49063668627E+03  0.89496715310E+02 0.  0.
        -11    1    1    2    0    0 -0.33065366133E+02 -0.91350960414E+02  0.42641091198E+03  0.43733806404E+03  0.00000000000E+00 0. -1.
         11    1    1    2    0    0 -0.24559697220E+02  0.45301599707E+02  0.50321197613E+02  0.72025249689E+02  0.00000000000E+00 0. -1.
        -15    1    3    3    0    0  0.23527595211E+02 -0.51625897124E+01 -0.25113854655E+02  0.34843413920E+02  0.17770000000E+01 0.  1.
         15    1    3    3    0    0  0.34097468141E+02  0.51211950420E+02 -0.45161825494E+03  0.45579327235E+03  0.17770000000E+01 0. -1.
</event>
<event>
 7    1  0.3243445E-006  0.5188118E+03  0.7546771E-02  0.9358673E-01
        -11   -1    0    0    0    0  0.00000000000E+00  0.00000000000E+00  0.50000000000E+03  0.50000000000E+03  0.00000000000E+00 0. -1.
         11   -1    0    0    0    0 -0.00000000000E+00 -0.00000000000E+00 -0.50000000000E+03  0.50000000000E+03  0.00000000000E+00 0.  1.
         23    2    1    2    0    0  0.60263906014E+00 -0.34789576640E+03 -0.15061814775E+03  0.38999662491E+03  0.91540775379E+02 0.  0.
        -11    1    1    2    0    0  0.71947099331E+02  0.45400985199E+03  0.14226990062E+03  0.48118817050E+03  0.00000000000E+00 0. -1.
         11    1    1    2    0    0 -0.72549738391E+02 -0.10611408559E+03  0.83482471384E+01  0.12881520458E+03  0.00000000000E+00 0.  1.
        -15    1    3    3    0    0  0.11268260835E+02 -0.34145292436E+03 -0.15687707194E+03  0.37593968490E+03  0.17770000000E+01 0.  1.
         15    1    3    3    0    0 -0.10665621775E+02 -0.64428420459E+01  0.62589241902E+01  0.14056940012E+02  0.17770000000E+01 0. -1.
</event>
<event>
 7    1  0.3243445E-006  0.5249969E+03  0.7546771E-02  0.9345551E-01
        -11   -1    0    0    0    0  0.00000000000E+00  0.00000000000E+00  0.50000000000E+03  0.50000000000E+03  0.00000000000E+00 0.  1.
         11   -1    0    0    0    0 -0.00000000000E+00 -0.00000000000E+00 -0.50000000000E+03  0.50000000000E+03  0.00000000000E+00 0. -1.
         23    2    1    2    0    0  0.23522524872E+02  0.47419426351E+02 -0.78999755014E+02  0.13063154003E+03  0.89564093174E+02 0.  0.
        -11    1    1    2    0    0 -0.27073829793E+03 -0.56988796481E+02  0.38611014054E+03  0.47500314685E+03  0.00000000000E+00 0.  1.
         11    1    1    2    0    0  0.24721577306E+03  0.95693701300E+01 -0.30711038553E+03  0.39436531312E+03  0.00000000000E+00 0. -1.
        -15    1    3    3    0    0  0.38777706590E+01 -0.20477678998E+02  0.43166257203E+01  0.21357982794E+02  0.17770000000E+01 0.  1.
         15    1    3    3    0    0  0.19644754213E+02  0.67897105349E+02 -0.83316380734E+02  0.10927355723E+03  0.17770000000E+01 0. -1.
</event>
<event>
 7    1  0.3243445E-006  0.4495934E+03  0.7546771E-02  0.9520248E-01
        -11   -1    0    0    0    0  0.00000000000E+00  0.00000000000E+00  0.50000000000E+03  0.50000000000E+03  0.00000000000E+00 0.  1.
         11   -1    0    0    0    0 -0.00000000000E+00 -0.00000000000E+00 -0.50000000000E+03  0.50000000000E+03  0.00000000000E+00 0.  1.
         23    2    1    2    0    0  0.70903551043E+02  0.92652406276E+02 -0.41860243909E+03  0.44381977591E+03  0.90200939821E+02 0.  0.
        -11    1    1    2    0    0  0.29499341424E+02 -0.11188424632E+03  0.43721907026E+03  0.45227072768E+03  0.00000000000E+00 0.  1.
         11    1    1    2    0    0 -0.10040289247E+03  0.19231840042E+02 -0.18616631171E+02  0.10390949641E+03  0.00000000000E+00 0.  1.
        -15    1    3    3    0    0  0.26043367078E+02  0.81078586116E+02 -0.35522491012E+03  0.36529424933E+03  0.17770000000E+01 0.  1.
         15    1    3    3    0    0  0.44860183965E+02  0.11573820161E+02 -0.63377528971E+02  0.78525526588E+02  0.17770000000E+01 0. -1.
</event>
<event>
 7    1  0.3243445E-006  0.5072805E+03  0.7546771E-02  0.9383665E-01
        -11   -1    0    0    0    0  0.00000000000E+00  0.00000000000E+00  0.50000000000E+03  0.50000000000E+03  0.00000000000E+00 0. -1.
         11   -1    0    0    0    0 -0.00000000000E+00 -0.00000000000E+00 -0.50000000000E+03  0.50000000000E+03  0.00000000000E+00 0. -1.
         23    2    1    2    0    0 -0.27595389026E+02  0.23669281374E+02  0.35449651079E+03  0.36747759715E+03  0.89723285023E+02 0.  0.
        -11    1    1    2    0    0  0.25610782984E+02  0.10818453298E+02  0.13701055336E+03  0.13980287146E+03  0.00000000000E+00 0. -1.
         11    1    1    2    0    0  0.19846060417E+01 -0.34487734672E+02 -0.49150706414E+03  0.49271953138E+03  0.00000000000E+00 0. -1.
        -15    1    3    3    0    0 -0.25391919352E+02 -0.29174762374E+02  0.94026377149E+02  0.10168595605E+03  0.17770000000E+01 0.  1.
         15    1    3    3    0    0 -0.22034696732E+01  0.52844043748E+02  0.26047013364E+03  0.26579164111E+03  0.17770000000E+01 0. -1.
</event>
<event>
 6    1  0.3243445E-006  0.4668520E+03  0.7546771E-02  0.9477197E-01
        -11   -1    0    0    0    0  0.00000000000E+00  0.00000000000E+00  0.50000000000E+03  0.50000000000E+03  0.00000000000E+00 0. -1.
         11   -1    0    0    0    0 -0.00000000000E+00 -0.00000000000E+00 -0.50000000000E+03  0.50000000000E+03  0.00000000000E+00 0.  1.
        -11    1    1    2    0    0 -0.11916068007E+03  0.45654734660E+02  0.45391689889E+03  0.47151264412E+03  0.00000000000E+00 0. -1.
         11    1    1    2    0    0  0.15902007106E+02  0.59408489473E+02 -0.54675382068E+02  0.82289974212E+02  0.00000000000E+00 0.  1.
        -15    1    1    2    0    0  0.75999283214E+01 -0.85834455059E+02 -0.10304240042E+03  0.13433617010E+03  0.17770000000E+01 0. -1.
         15    1    1    2    0    0  0.95658744642E+02 -0.19228769074E+02 -0.29619911641E+03  0.31186121156E+03  0.17770000000E+01 0.  1.
</event>
<event>
 7    1  0.3243445E-006  0.4600446E+03  0.7546771E-02  0.9493938E-01
        -11   -1    0    0    0    0  0.00000000000E+00  0.00000000000E+00  0.50000000000E+03  0.50000000000E+03  0.00000000000E+00 0.  1.
         11   -1    0    0    0    0 -0.00000000000E+00 -0.00000000000E+00 -0.50000000000E+03  0.50000000000E+03  0.00000000000E+00 0. -1.
         23    2    1    2    0    0  0.23110401976E+02 -0.90600709002E+02  0.40131188334E+03  0.42222236509E+03  0.92075614119E+02 0.  0.
        -11    1    1    2    0    0  0.18727599663E+02  0.91904109962E+01  0.82646948060E+02  0.85239102923E+02  0.00000000000E+00 0.  1.
         11    1    1    2    0    0 -0.41838001639E+02  0.81410298006E+02 -0.48395883140E+03  0.49253853199E+03  0.00000000000E+00 0. -1.
        -15    1    3    3    0    0  0.37177905469E+02 -0.33345571936E+02  0.71836152902E+02  0.87508367688E+02  0.17770000000E+01 0. -1.
         15    1    3    3    0    0 -0.14067503493E+02 -0.57255137067E+02  0.32947573044E+03  0.33471399740E+03  0.17770000000E+01 0.  1.
</event>
<event>
 7    1  0.3243445E-006  0.5125319E+03  0.7546771E-02  0.9372197E-01
        -11   -1    0    0    0    0  0.00000000000E+00  0.00000000000E+00  0.50000000000E+03  0.50000000000E+03  0.00000000000E+00 0. -1.
         11   -1    0    0    0    0 -0.00000000000E+00 -0.00000000000E+00 -0.50000000000E+03  0.50000000000E+03  0.00000000000E+00 0.  1.
         23    2    1    2    0    0 -0.13947013994E+03 -0.10970342980E+03  0.19620772936E+03  0.27971918488E+03  0.90876767574E+02 0.  0.
        -11    1    1    2    0    0 -0.18284520572E+03 -0.34158070852E+02  0.14000927764E+03  0.23281267338E+03  0.00000000000E+00 0. -1.
         11    1    1    2    0    0  0.32231534566E+03  0.14386150065E+03 -0.33621700700E+03  0.48746814174E+03  0.00000000000E+00 0.  1.
        -15    1    3    3    0    0 -0.95274513181E+02 -0.11988608085E+03  0.16163537594E+03  0.22266355276E+03  0.17770000000E+01 0.  1.
         15    1    3    3    0    0 -0.44195626762E+02  0.10182651043E+02  0.34572353417E+02  0.57055632123E+02  0.17770000000E+01 0. -1.
</event>
<event>
 7    1  0.3243445E-006  0.5357436E+03  0.7546771E-02  0.9323201E-01
        -11   -1    0    0    0    0  0.00000000000E+00  0.00000000000E+00  0.50000000000E+03  0.50000000000E+03  0.00000000000E+00 0.  1.
         11   -1    0    0    0    0 -0.00000000000E+00 -0.00000000000E+00 -0.50000000000E+03  0.50000000000E+03  0.00000000000E+00 0. -1.
         23    2    1    2    0    0 -0.19542142970E+02 -0.27805362678E+02 -0.25804669768E+03  0.27591079298E+03  0.91562186243E+02 0.  0.
        -11    1    1    2    0    0  0.12694111294E+03 -0.14115627005E+03  0.42366832671E+03  0.46425638368E+03  0.00000000000E+00 0.  1.
         11    1    1    2    0    0 -0.10739896997E+03  0.16896163273E+03 -0.16562162903E+03  0.25983282334E+03  0.00000000000E+00 0. -1.
        -15    1    3    3    0    0  0.35265933426E+02 -0.23811042699E+02 -0.10662955324E+03  0.11482016882E+03  0.17770000000E+01 0. -1.
         15    1    3    3    0    0 -0.54808076396E+02 -0.39943199792E+01 -0.15141714444E+03  0.16109062415E+03  0.17770000000E+01 0.  1.
</event>
<event>
 7    1  0.3243445E-006  0.5320906E+03  0.7546771E-02  0.9330735E-01
        -11   -1    0    0    0    0  0.00000000000E+00  0.00000000000E+00  0.50000000000E+03  0.50000000000E+03  0.00000000000E+00 0.  1.
         11   -1    0    0    0    0 -0.00000000000E+00 -0.00000000000E+00 -0.50000000000E+03  0.50000000000E+03  0.00000000000E+00 0. -1.
         23    2    1    2    0    0  0.48362683502E+01  0.93053729199E+02 -0.15574047170E+03  0.20284230273E+03  0.90595359944E+02 0.  0.
        -11    1    1    2    0    0 -0.79935672082E+02  0.48117934159E+01  0.46100574868E+03  0.46790935591E+03  0.00000000000E+00 0.  1.
         11    1    1    2    0    0  0.75099403731E+02 -0.97865522614E+02 -0.30526527698E+03  0.32924834136E+03  0.00000000000E+00 0. -1.
        -15    1    3    3    0    0  0.24677548425E+02  0.85620402073E+02 -0.66754850152E+02  0.11135170585E+03  0.17770000000E+01 0.  1.
         15    1    3    3    0    0 -0.19841280075E+02  0.74333271254E+01 -0.88985621547E+02  0.91490596884E+02  0.17770000000E+01 0. -1.
</event>
<event>
 7    1  0.3243445E-006  0.4667708E+03  0.7546771E-02  0.9477395E-01
        -11   -1    0    0    0    0  0.00000000000E+00  0.00000000000E+00  0.50000000000E+03  0.50000000000E+03  0.00000000000E+00 0.  1.
         11   -1    0    0    0    0 -0.00000000000E+00 -0.00000000000E+00 -0.50000000000E+03  0.50000000000E+03  0.00000000000E+00 0. -1.
         23    2    1    2    0    0 -0.27521057982E+02 -0.55761214362E+02 -0.44622268492E+03  0.45943088986E+03  0.89974087168E+02 0.  0.
        -11    1    1    2    0    0  0.26987970508E+02 -0.13510498362E+02  0.46721167197E+03  0.46818546597E+03  0.00000000000E+00 0.  1.
         11    1    1    2    0    0  0.53308747370E+00  0.69271712725E+02 -0.20988987048E+02  0.72383644170E+02  0.00000000000E+00 0. -1.
        -15    1    3    3    0    0  0.11207301630E+02 -0.66658138971E+02 -0.31463830876E+03  0.32182189821E+03  0.17770000000E+01 0. -1.
         15    1    3    3    0    0 -0.38728359611E+02  0.10896924609E+02 -0.13158437617E+03  0.13760899165E+03  0.17770000000E+01 0.  1.
</event>
<event>
 7    1  0.3243445E-006  0.4306021E+03  0.7546771E-02  0.9570067E-01
        -11   -1    0    0    0    0  0.00000000000E+00  0.00000000000E+00  0.50000000000E+03  0.50000000000E+03  0.00000000000E+00 0. -1.
         11   -1    0    0    0    0 -0.00000000000E+00 -0.00000000000E+00 -0.50000000000E+03  0.50000000000E+03  0.00000000000E+00 0. -1.
         23    2    1    2    0    0 -0.77691792801E+02 -0.39621988597E+02  0.32650225561E+02  0.13377569776E+03  0.96041571384E+02 0.  0.
        -11    1    1    2    0    0  0.22136421856E+01  0.70528556051E+02  0.41004820487E+03  0.41607536306E+03  0.00000000000E+00 0. -1.
         11    1    1    2    0    0  0.75478150616E+02 -0.30906567454E+02 -0.44269843043E+03  0.45014893917E+03  0.00000000000E+00 0. -1.
        -15    1    3    3    0    0  0.16956216163E+02 -0.20681588691E+02  0.25459557575E+02  0.36967393447E+02  0.17770000000E+01 0.  1.
         15    1    3    3    0    0 -0.94648008965E+02 -0.18940399906E+02  0.71906679860E+01  0.96808304316E+02  0.17770000000E+01 0. -1.
</event>
<event>
 7    1  0.3243445E-006  0.4955948E+03  0.7546771E-02  0.9409721E-01
        -11   -1    0    0    0    0  0.00000000000E+00  0.00000000000E+00  0.50000000000E+03  0.50000000000E+03  0.00000000000E+00 0.  1.
         11   -1    0    0    0    0 -0.00000000000E+00 -0.00000000000E+00 -0.50000000000E+03  0.50000000000E+03  0.00000000000E+00 0.  1.
         23    2    1    2    0    0  0.13093535399E+02  0.13239975552E+02 -0.48865119006E+03  0.49671902184E+03  0.87195547415E+02 0.  0.
        -11    1    1    2    0    0 -0.26050689222E+02 -0.22840308560E+02  0.48564222745E+03  0.48687646399E+03  0.00000000000E+00 0.  1.
         11    1    1    2    0    0  0.12957153824E+02  0.96003330077E+01  0.30089626104E+01  0.16404514167E+02  0.00000000000E+00 0.  1.
        -15    1    3    3    0    0  0.30537994951E+02 -0.29759527359E+02 -0.22597264322E+03  0.22996737120E+03  0.17770000000E+01 0.  1.
         15    1    3    3    0    0 -0.17444459553E+02  0.42999502911E+02 -0.26267854684E+03  0.26675165064E+03  0.17770000000E+01 0. -1.
</event>
<event>
 7    1  0.3243445E-006  0.5096857E+03  0.7546771E-02  0.9378394E-01
        -11   -1    0    0    0    0  0.00000000000E+00  0.00000000000E+00  0.50000000000E+03  0.50000000000E+03  0.00000000000E+00 0. -1.
         11   -1    0    0    0    0 -0.00000000000E+00 -0.00000000000E+00 -0.50000000000E+03  0.50000000000E+03  0.00000000000E+00 0. -1.
         23    2    1    2    0    0 -0.19116087839E+02 -0.22235543124E+02 -0.26968936154E+03  0.28680212858E+03  0.93076662147E+02 0.  0.
        -11    1    1    2    0    0  0.43031026012E+02  0.94355994759E+02  0.47922167655E+03  0.49031432594E+03  0.00000000000E+00 0. -1.
         11    1    1    2    0    0 -0.23914938173E+02 -0.72120451634E+02 -0.20953231501E+03  0.22288354548E+03  0.00000000000E+00 0. -1.
        -15    1    3    3    0    0 -0.66734965886E+01 -0.13261294875E+02  0.16329179331E+01  0.15040666489E+02  0.17770000000E+01 0.  1.
         15    1    3    3    0    0 -0.12442591251E+02 -0.89742482494E+01 -0.27132227947E+03  0.27176146209E+03  0.17770000000E+01 0. -1.
</event>
<event>
 7    1  0.3243445E-006  0.5206701E+03  0.7546771E-02  0.9354711E-01
        -11   -1    0    0    0    0  0.00000000000E+00  0.00000000000E+00  0.50000000000E+03  0.50000000000E+03  0.00000000000E+00 0.  1.
         11   -1    0    0    0    0 -0.00000000000E+00 -0.00000000000E+00 -0.50000000000E+03  0.50000000000E+03  0.00000000000E+00 0.  1.
         23    2    1    2    0    0 -0.13867494879E+03 -0.12539353873E+03  0.29018246932E+03  0.35696026454E+03  0.90887204719E+02 0.  0.
        -11    1    1    2    0    0 -0.68218231192E+02 -0.13964610907E+03  0.51440665016E+02  0.16370981908E+03  0.00000000000E+00 0.  1.
         11    1    1    2    0    0  0.20689317998E+03  0.26503964780E+03 -0.34162313434E+03  0.47932991639E+03  0.00000000000E+00 0.  1.
        -15    1    3    3    0    0  0.10726259024E+02 -0.15813634352E+02  0.11721146432E+02  0.22487033302E+02  0.17770000000E+01 0. -1.
         15    1    3    3    0    0 -0.14940120781E+03 -0.10957990438E+03  0.27846132289E+03  0.33447323124E+03  0.17770000000E+01 0.  1.
</event>
<event>
 7    1  0.3243445E-006  0.5220351E+03  0.7546771E-02  0.9351811E-01
        -11   -1    0    0    0    0  0.00000000000E+00  0.00000000000E+00  0.50000000000E+03  0.50000000000E+03  0.00000000000E+00 0.  1.
         11   -1    0    0    0    0 -0.00000000000E+00 -0.00000000000E+00 -0.50000000000E+03  0.50000000000E+03  0.00000000000E+00 0.  1.
         23    2    1    2    0    0  0.40978700190E+02 -0.25238330322E+02 -0.39969262363E+03  0.41345133975E+03  0.94189117061E+02 0.  0.
        -11    1    1    2    0    0  0.34082865138E+00  0.99260428818E+02  0.46754434018E+03  0.47796491391E+03  0.00000000000E+00 0.  1.
         11    1    1    2    0    0 -0.41319528841E+02 -0.74022098496E+02 -0.67851716550E+02  0.10858374633E+03  0.00000000000E+00 0.  1.
        -15    1    3    3    0    0  0.37590416848E+02 -0.48295306809E+02 -0.37291781545E+03  0.37791048001E+03  0.17770000000E+01 0.  1.
         15    1    3    3    0    0  0.33882833411E+01  0.23056976486E+02 -0.26774808185E+02  0.35540859740E+02  0.17770000000E+01 0. -1.
</event>
<event>
 7    1  0.3243445E-006  0.4077283E+03  0.7546771E-02  0.9633838E-01
        -11   -1    0    0    0    0  0.00000000000E+00  0.00000000000E+00  0.50000000000E+03  0.50000000000E+03  0.00000000000E+00 0. -1.
         11   -1    0    0    0    0 -0.00000000000E+00 -0.00000000000E+00 -0.50000000000E+03  0.50000000000E+03  0.00000000000E+00 0. -1.
         23    2    1    2    0    0  0.11942648116E+03 -0.58669502833E+02 -0.55195915938E+02  0.17191734653E+03  0.93830644970E+02 0.  0.
        -11    1    1    2    0    0  0.17276302217E+03  0.32130542833E+03 -0.13829801921E+03  0.39014174632E+03  0.00000000000E+00 0. -1.
         11    1    1    2    0    0 -0.29218950333E+03 -0.26263592549E+03  0.19349393515E+03  0.43794090715E+03  0.00000000000E+00 0. -1.
        -15    1    3    3    0    0  0.93794561675E+02 -0.49562509631E+02  0.46023041307E+01  0.10619887520E+03  0.17770000000E+01 0. -1.
         15    1    3    3    0    0  0.25631919489E+02 -0.91069932016E+01 -0.59798220068E+02  0.65718471332E+02  0.17770000000E+01 0.  1.
</event>
<event>
 7    1  0.3243445E-006  0.5156908E+03  0.7546771E-02  0.9365369E-01
        -11   -1    0    0    0    0  0.00000000000E+00  0.00000000000E+00  0.50000000000E+03  0.50000000000E+03  0.00000000000E+00 0.  1.
         11   -1    0    0    0    0 -0.00000000000E+00 -0.00000000000E+00 -0.50000000000E+03  0.50000000000E+03  0.00000000000E+00 0. -1.
         23    2    1    2    0    0 -0.48062786284E+02 -0.10351958826E+02 -0.13651216027E+03  0.17072553564E+03  0.89969128817E+02 0.  0.
        -11    1    1    2    0    0  0.13892250288E+03 -0.78006875736E+02  0.45735205388E+03  0.48430923557E+03  0.00000000000E+00 0.  1.
         11    1    1    2    0    0 -0.90859716596E+02  0.88358834562E+02 -0.32083989361E+03  0.34496522879E+03  0.00000000000E+00 0. -1.
        -15    1    3    3    0    0 -0.10713002623E+02 -0.37420897720E+01 -0.13198614924E+03  0.13248499154E+03  0.17770000000E+01 0. -1.
         15    1    3    3    0    0 -0.37349783661E+02 -0.66098690544E+01 -0.45260110280E+01  0.38240544103E+02  0.17770000000E+01 0.  1.
</event>
<event>
 7    1  0.3243445E-006  0.5131413E+03  0.7546771E-02  0.9370876E-01
        -11   -1    0    0    0    0  0.00000000000E+00  0.00000000000E+00  0.50000000000E+03  0.50000000000E+03  0.00000000000E+00 0.  1.
         11   -1    0    0    0    0 -0.00000000000E+00 -0.00000000000E+00 -0.50000000000E+03  0.50000000000E+03  0.00000000000E+00 0.  1.
         23    2    1    2    0    0  0.35070826465E+02  0.71677538690E+02 -0.21132764453E+03  0.23584232832E+03  0.67783464542E+02 0.  0.
        -11    1    1    2    0    0  0.48464926527E+02 -0.97934790968E+02  0.47443794507E+03  0.48685874348E+03  0.00000000000E+00 0.  1.
         11    1    1    2    0    0 -0.83535752992E+02  0.26257252277E+02 -0.26311030054E+03  0.27729892819E+03  0.00000000000E+00 0.  1.
        -15    1    3    3    0    0  0.45129839744E+02  0.73560510439E+02 -0.20755939380E+03  0.22479303996E+03  0.17770000000E+01 0.  1.
         15    1    3    3    0    0 -0.10059013279E+02 -0.18829717485E+01 -0.37682507281E+01  0.11049288362E+02  0.17770000000E+01 0. -1.
</event>
<event>
 7    1  0.3243445E-006  0.5216319E+03  0.7546771E-02  0.9352666E-01
        -11   -1    0    0    0    0  0.00000000000E+00  0.00000000000E+00  0.50000000000E+03  0.50000000000E+03  0.00000000000E+00 0.  1.
         11   -1    0    0    0    0 -0.00000000000E+00 -0.00000000000E+00 -0.50000000000E+03  0.50000000000E+03  0.00000000000E+00 0. -1.
         23    2    1    2    0    0 -0.47668420232E+01 -0.67728869257E+01 -0.31359333032E+03  0.32648771505E+03  0.90470196613E+02 0.  0.
        -11    1    1    2    0    0  0.97019311081E+02 -0.81232117983E+02  0.46132915338E+03  0.47836805022E+03  0.00000000000E+00 0.  1.
         11    1    1    2    0    0 -0.92252469057E+02  0.88005004909E+02 -0.14773582306E+03  0.19514423474E+03  0.00000000000E+00 0. -1.
        -15    1    3    3    0    0  0.35976785692E+02  0.20809972682E+02 -0.14072227877E+03  0.14674229637E+03  0.17770000000E+01 0. -1.
         15    1    3    3    0    0 -0.40743627715E+02 -0.27582859608E+02 -0.17287105155E+03  0.17974541868E+03  0.17770000000E+01 0.  1.
</event>
<event>
 7    1  0.3243445E-006  0.5288864E+03  0.7546771E-02  0.9337397E-01
        -11   -1    0    0    0    0  0.00000000000E+00  0.00000000000E+00  0.50000000000E+03  0.50000000000E+03  0.00000000000E+00 0.  1.
         11   -1    0    0    0    0 -0.00000000000E+00 -0.00000000000E+00 -0.50000000000E+03  0.50000000000E+03  0.00000000000E+00 0.  1.
         23    2    1    2    0    0  0.28596450622E+02 -0.35978150644E+01  0.38578714665E+02  0.99289754770E+02  0.86829930989E+02 0.  0.
        -11    1    1    2    0    0  0.40871753691E+02  0.26837945070E+02  0.42680504319E+03  0.42959669509E+03  0.00000000000E+00 0.  1.
         11    1    1    2    0    0 -0.69468204314E+02 -0.23240130006E+02 -0.46538375785E+03  0.47111355014E+03  0.00000000000E+00 0.  1.
        -15    1    3    3    0    0  0.29363733057E+02  0.23257459275E+02 -0.14152444247E+02  0.40082260891E+02  0.17770000000E+01 0.  1.
         15    1    3    3    0    0 -0.76728243453E+00 -0.26855274339E+02  0.52731158912E+02  0.59207493879E+02  0.17770000000E+01 0. -1.
</event>
<event>
 7    1  0.3243445E-006  0.4774504E+03  0.7546771E-02  0.9451730E-01
        -11   -1    0    0    0    0  0.00000000000E+00  0.00000000000E+00  0.50000000000E+03  0.50000000000E+03  0.00000000000E+00 0. -1.
         11   -1    0    0    0    0 -0.00000000000E+00 -0.00000000000E+00 -0.50000000000E+03  0.50000000000E+03  0.00000000000E+00 0.  1.
         23    2    1    2    0    0  0.11412701560E+03  0.33419405939E+02 -0.44259468867E+03  0.46701884175E+03  0.89859377531E+02 0.  0.
        -11    1    1    2    0    0 -0.10247311836E+03  0.96713677584E+01  0.46964107514E+03  0.48078791041E+03  0.00000000000E+00 0. -1.
         11    1    1    2    0    0 -0.11653897234E+02 -0.43090773698E+02 -0.27046386472E+02  0.52193247837E+02  0.00000000000E+00 0.  1.
        -15    1    3    3    0    0  0.12390556475E+03  0.13589689735E+02 -0.34210367572E+03  0.36410898274E+03  0.17770000000E+01 0. -1.
         15    1    3    3    0    0 -0.97785491596E+01  0.19829716205E+02 -0.10049101295E+03  0.10290985901E+03  0.17770000000E+01 0.  1.
</event>
<event>
 7    1  0.3243445E-006  0.5428941E+03  0.7546771E-02  0.9308636E-01
        -11   -1    0    0    0    0  0.00000000000E+00  0.00000000000E+00  0.50000000000E+03  0.50000000000E+03  0.00000000000E+00 0.  1.
         11   -1    0    0    0    0 -0.00000000000E+00 -0.00000000000E+00 -0.50000000000E+03  0.50000000000E+03  0.00000000000E+00 0.  1.
         23    2    1    2    0    0  0.53581756800E+02 -0.87216218053E+02 -0.19054152989E+03  0.23538056600E+03  0.92845370829E+02 0.  0.
        -11    1    1    2    0    0 -0.49254813799E+02 -0.82606373740E+02  0.44687357108E+03  0.45710593761E+03  0.00000000000E+00 0.  1.
         11    1    1    2    0    0 -0.43269430009E+01  0.16982259179E+03 -0.25633204120E+03  0.30751349639E+03  0.00000000000E+00 0.  1.
        -15    1    3    3    0    0  0.42793694451E+02 -0.95151419134E+02 -0.19499241886E+03  0.22115671817E+03  0.17770000000E+01 0.  1.
         15    1    3    3    0    0  0.10788062349E+02  0.79352010815E+01  0.44508889740E+01  0.14223847831E+02  0.17770000000E+01 0. -1.
</event>
<event>
 7    1  0.3243445E-006  0.3559260E+03  0.7546771E-02  0.9796413E-01
        -11   -1    0    0    0    0  0.00000000000E+00  0.00000000000E+00  0.50000000000E+03  0.50000000000E+03  0.00000000000E+00 0.  1.
         11   -1    0    0    0    0 -0.00000000000E+00 -0.00000000000E+00 -0.50000000000E+03  0.50000000000E+03  0.00000000000E+00 0. -1.
         23    2    1    2    0    0 -0.15451841042E+03 -0.22371966432E+03  0.97866843188E+02  0.30273563813E+03  0.90246995715E+02 0.  0.
        -11    1    1    2    0    0  0.73034192017E+02 -0.51738180537E+02  0.23861148815E+03  0.25484559012E+03  0.00000000000E+00 0.  1.
         11    1    1    2    0    0  0.81484218404E+02  0.27545784485E+03 -0.33647833133E+03  0.44241877175E+03  0.00000000000E+00 0. -1.
        -15    1    3    3    0    0 -0.68448211160E+02 -0.82344578441E+02  0.84975411222E+02  0.13671051697E+03  0.17770000000E+01 0.  1.
         15    1    3    3    0    0 -0.86070199261E+02 -0.14137508588E+03  0.12891431967E+02  0.16602512115E+03  0.17770000000E+01 0. -1.
</event>
<event>
 7    1  0.3243445E-006  0.5229255E+03  0.7546771E-02  0.9349924E-01
        -11   -1    0    0    0    0  0.00000000000E+00  0.00000000000E+00  0.50000000000E+03  0.50000000000E+03  0.00000000000E+00 0. -1.
         11   -1    0    0    0    0 -0.00000000000E+00 -0.00000000000E+00 -0.50000000000E+03  0.50000000000E+03  0.00000000000E+00 0.  1.
         23    2    1    2    0    0  0.90553324193E+02  0.20540155262E+01 -0.12435988527E+03  0.17776415186E+03  0.89053855167E+02 0.  0.
        -11    1    1    2    0    0 -0.25886200853E+03  0.20200643290E+03  0.34609817767E+03  0.47707450883E+03  0.00000000000E+00 0. -1.
         11    1    1    2    0    0  0.16830868434E+03 -0.20406044842E+03 -0.22173829240E+03  0.34516133931E+03  0.00000000000E+00 0.  1.
        -15    1    3    3    0    0  0.98425766104E+02 -0.70847152554E+01 -0.13089230300E+03  0.16393223398E+03  0.17770000000E+01 0.  1.
         15    1    3    3    0    0 -0.78724419115E+01  0.91387307816E+01  0.65324177285E+01  0.13831917883E+02  0.17770000000E+01 0. -1.
</event>
<event>
 7    1  0.3243445E-006  0.5015483E+03  0.7546771E-02  0.9396352E-01
        -11   -1    0    0    0    0  0.00000000000E+00  0.00000000000E+00  0.50000000000E+03  0.50000000000E+03  0.00000000000E+00 0. -1.
         11   -1    0    0    0    0 -0.00000000000E+00 -0.00000000000E+00 -0.50000000000E+03  0.50000000000E+03  0.00000000000E+00 0.  1.
         23    2    1    2    0    0  0.40952491625E+02 -0.15867895764E+03 -0.46521411324E+03  0.50154825119E+03  0.90941513845E+02 0.  0.
        -11    1    1    2    0    0 -0.33708780066E+02  0.14494164349E+03  0.45753573110E+03  0.48112712156E+03  0.00000000000E+00 0. -1.
         11    1    1    2    0    0 -0.72437115589E+01  0.13737314143E+02  0.76783821465E+01  0.17324627251E+02  0.00000000000E+00 0.  1.
        -15    1    3    3    0    0  0.55953657694E+02 -0.13817437514E+03 -0.44413249693E+03  0.46848671519E+03  0.17770000000E+01 0.  1.
         15    1    3    3    0    0 -0.15001166069E+02 -0.20504582499E+02 -0.21081616314E+02  0.33061535994E+02  0.17770000000E+01 0. -1.
</event>
<event>
 7    1  0.3243445E-006  0.4977832E+03  0.7546771E-02  0.9404784E-01
        -11   -1    0    0    0    0  0.00000000000E+00  0.00000000000E+00  0.50000000000E+03  0.50000000000E+03  0.00000000000E+00 0.  1.
         11   -1    0    0    0    0 -0.00000000000E+00 -0.00000000000E+00 -0.50000000000E+03  0.50000000000E+03  0.00000000000E+00 0. -1.
         23    2    1    2    0    0  0.58875096154E+01 -0.13950943790E+02 -0.48357463318E+03  0.49210141726E+03  0.89944913200E+02 0.  0.
        -11    1    1    2    0    0 -0.57749942304E+01  0.19260335847E+02  0.49494285143E+03  0.49535112524E+03  0.00000000000E+00 0.  1.
         11    1    1    2    0    0 -0.11251538497E+00 -0.53093920571E+01 -0.11368218243E+02  0.12547457502E+02  0.00000000000E+00 0. -1.
        -15    1    3    3    0    0  0.14016148193E+02 -0.10568791527E+02 -0.14220214744E+02  0.22661067956E+02  0.17770000000E+01 0.  1.
         15    1    3    3    0    0 -0.81286385780E+01 -0.33821522623E+01 -0.46935441844E+03  0.46944034931E+03  0.17770000000E+01 0. -1.
</event>
<event>
 7    1  0.3243445E-006  0.5381303E+03  0.7546771E-02  0.9318313E-01
        -11   -1    0    0    0    0  0.00000000000E+00  0.00000000000E+00  0.50000000000E+03  0.50000000000E+03  0.00000000000E+00 0. -1.
         11   -1    0    0    0    0 -0.00000000000E+00 -0.00000000000E+00 -0.50000000000E+03  0.50000000000E+03  0.00000000000E+00 0.  1.
         23    2    1    2    0    0 -0.90305298420E+01  0.95127724133E+01  0.18308190447E+02  0.94254524273E+02  0.91524216469E+02 0.  0.
        -11    1    1    2    0    0 -0.11442891662E+03 -0.86928846175E+02  0.41997038761E+03  0.44387580214E+03  0.00000000000E+00 0. -1.
         11    1    1    2    0    0  0.12345944646E+03  0.77416073762E+02 -0.43827857805E+03  0.46186967359E+03  0.00000000000E+00 0.  1.
        -15    1    3    3    0    0 -0.66071676385E+01 -0.11332715491E+02  0.52474472862E+02  0.54118510103E+02  0.17770000000E+01 0.  1.
         15    1    3    3    0    0 -0.24233622035E+01  0.20845487904E+02 -0.34166282416E+02  0.40136014170E+02  0.17770000000E+01 0. -1.
</event>
<event>
 7    1  0.3243445E-006  0.5140974E+03  0.7546771E-02  0.9368807E-01
        -11   -1    0    0    0    0  0.00000000000E+00  0.00000000000E+00  0.50000000000E+03  0.50000000000E+03  0.00000000000E+00 0.  1.
         11   -1    0    0    0    0 -0.00000000000E+00 -0.00000000000E+00 -0.50000000000E+03  0.50000000000E+03  0.00000000000E+00 0.  1.
         23    2    1    2    0    0 -0.13683511623E+02  0.12833447342E+02  0.19932257458E+03  0.22017500856E+03  0.91627560243E+02 0.  0.
        -11    1    1    2    0    0 -0.12308748916E+02 -0.88902732465E+02  0.27988424218E+03  0.29392242201E+03  0.00000000000E+00 0.  1.
         11    1    1    2    0    0  0.25992260539E+02  0.76069285123E+02 -0.47920681676E+03  0.48590256943E+03  0.00000000000E+00 0.  1.
        -15    1    3    3    0    0  0.10604545395E+01  0.41018850110E+02  0.38727392200E+02  0.56450325631E+02  0.17770000000E+01 0.  1.
         15    1    3    3    0    0 -0.14743966163E+02 -0.28185402768E+02  0.16059518238E+03  0.16372468293E+03  0.17770000000E+01 0. -1.
</event>
<event>
 7    1  0.3243445E-006  0.3630095E+03  0.7546771E-02  0.9772489E-01
        -11   -1    0    0    0    0  0.00000000000E+00  0.00000000000E+00  0.50000000000E+03  0.50000000000E+03  0.00000000000E+00 0.  1.
         11   -1    0    0    0    0 -0.00000000000E+00 -0.00000000000E+00 -0.50000000000E+03  0.50000000000E+03  0.00000000000E+00 0.  1.
         23    2    1    2    0    0  0.19129510653E+02  0.18444351424E+03 -0.12456734828E+03  0.24039099271E+03  0.88800095702E+02 0.  0.
        -11    1    1    2    0    0 -0.47606086696E+02  0.90302979771E+02  0.37384943901E+03  0.38753628307E+03  0.00000000000E+00 0.  1.
         11    1    1    2    0    0  0.28476576042E+02 -0.27474649401E+03 -0.24928209073E+03  0.37207272423E+03  0.00000000000E+00 0.  1.
        -15    1    3    3    0    0  0.10749527892E+02  0.16514485098E+03 -0.66078137489E+02  0.17820732908E+03  0.17770000000E+01 0. -1.
         15    1    3    3    0    0  0.83799827615E+01  0.19298663257E+02 -0.58489210788E+02  0.62183663627E+02  0.17770000000E+01 0.  1.
</event>
<event>
 7    1  0.3243445E-006  0.4639690E+03  0.7546771E-02  0.9484250E-01
        -11   -1    0    0    0    0  0.00000000000E+00  0.00000000000E+00  0.50000000000E+03  0.50000000000E+03  0.00000000000E+00 0.  1.
         11   -1    0    0    0    0 -0.00000000000E+00 -0.00000000000E+00 -0.50000000000E+03  0.50000000000E+03  0.00000000000E+00 0. -1.
         23    2    1    2    0    0 -0.13347129449E+03  0.55919019782E+02  0.40408259991E+03  0.43813999087E+03  0.87990799639E+02 0.  0.
        -11    1    1    2    0    0 -0.51803783182E+02 -0.37477947934E+02  0.43339366320E+02  0.77243311726E+02  0.00000000000E+00 0.  1.
         11    1    1    2    0    0  0.18527507767E+03 -0.18441071848E+02 -0.44742196623E+03  0.48461669741E+03  0.00000000000E+00 0. -1.
        -15    1    3    3    0    0 -0.64441787552E+02  0.73010960835E+02  0.25459583027E+03  0.27259042336E+03  0.17770000000E+01 0.  1.
         15    1    3    3    0    0 -0.69029506940E+02 -0.17091941053E+02  0.14948676964E+03  0.16554956751E+03  0.17770000000E+01 0. -1.
</event>
<event>
 7    1  0.3243445E-006  0.5121852E+03  0.7546771E-02  0.9372950E-01
        -11   -1    0    0    0    0  0.00000000000E+00  0.00000000000E+00  0.50000000000E+03  0.50000000000E+03  0.00000000000E+00 0. -1.
         11   -1    0    0    0    0 -0.00000000000E+00 -0.00000000000E+00 -0.50000000000E+03  0.50000000000E+03  0.00000000000E+00 0.  1.
         23    2    1    2    0    0 -0.37966366725E+01  0.89035271066E+02  0.15337753256E+03  0.19921930980E+03  0.90675090081E+02 0.  0.
        -11    1    1    2    0    0  0.58676675335E+02  0.16181525636E+03  0.26138197283E+03  0.31296591689E+03  0.00000000000E+00 0. -1.
         11    1    1    2    0    0 -0.54880038663E+02 -0.25085052742E+03 -0.41475950538E+03  0.48781477331E+03  0.00000000000E+00 0.  1.
        -15    1    3    3    0    0 -0.37080795379E+02  0.45742223650E+02  0.34210785792E+02  0.68123945892E+02  0.17770000000E+01 0. -1.
         15    1    3    3    0    0  0.33284158707E+02  0.43293047417E+02  0.11916674676E+03  0.13109536391E+03  0.17770000000E+01 0.  1.
</event>
<event>
 7    1  0.3243445E-006  0.4868568E+03  0.7546771E-02  0.9429709E-01
        -11   -1    0    0    0    0  0.00000000000E+00  0.00000000000E+00  0.50000000000E+03  0.50000000000E+03  0.00000000000E+00 0. -1.
         11   -1    0    0    0    0 -0.00000000000E+00 -0.00000000000E+00 -0.50000000000E+03  0.50000000000E+03  0.00000000000E+00 0. -1.
         23    2    1    2    0    0  0.30752830880E+02 -0.62059765065E+02 -0.46547366386E+03  0.47913179264E+03  0.90024396271E+02 0.  0.
        -11    1    1    2    0    0 -0.14908631372E+02  0.89381434402E+02  0.47827903156E+03  0.48678757187E+03  0.00000000000E+00 0. -1.
         11    1    1    2    0    0 -0.15844199508E+02 -0.27321669337E+02 -0.12805367701E+02  0.34080635490E+02  0.00000000000E+00 0. -1.
        -15    1    3    3    0    0  0.25905211418E+02 -0.63197527723E+02 -0.46821679602E+03  0.47317558400E+03  0.17770000000E+01 0. -1.
         15    1    3    3    0    0  0.48476194613E+01  0.11377626581E+01  0.27431321609E+01  0.59562086397E+01  0.17770000000E+01 0.  1.
</event>
<event>
 7    1  0.3243445E-006  0.5063192E+03  0.7546771E-02  0.9385780E-01
        -11   -1    0    0    0    0  0.00000000000E+00  0.00000000000E+00  0.50000000000E+03  0.50000000000E+03  0.00000000000E+00 0. -1.
         11   -1    0    0    0    0 -0.00000000000E+00 -0.00000000000E+00 -0.50000000000E+03  0.50000000000E+03  0.00000000000E+00 0. -1.
         23    2    1    2    0    0  0.73515516908E+01  0.55556487588E+02 -0.48172131794E+03  0.49368084243E+03  0.92329721124E+02 0.  0.
        -11    1    1    2    0    0 -0.42849531556E+02 -0.66373923366E+02  0.45178298392E+03  0.45863868635E+03  0.00000000000E+00 0. -1.
         11    1    1    2    0    0  0.35497979866E+02  0.10817435778E+02  0.29938334016E+02  0.47680471212E+02  0.00000000000E+00 0. -1.
        -15    1    3    3    0    0  0.36110453409E+02  0.64842950102E+02 -0.27887485737E+03  0.28858779743E+03  0.17770000000E+01 0.  1.
         15    1    3    3    0    0 -0.28758901719E+02 -0.92864625145E+01 -0.20284646057E+03  0.20509304500E+03  0.17770000000E+01 0. -1.
</event>
<event>
 7    1  0.3243445E-006  0.4354375E+03  0.7546771E-02  0.9557126E-01
        -11   -1    0    0    0    0  0.00000000000E+00  0.00000000000E+00  0.50000000000E+03  0.50000000000E+03  0.00000000000E+00 0. -1.
         11   -1    0    0    0    0 -0.00000000000E+00 -0.00000000000E+00 -0.50000000000E+03  0.50000000000E+03  0.00000000000E+00 0.  1.
         23    2    1    2    0    0  0.73861267394E+02 -0.25551964960E+02 -0.40364818789E+03  0.42120309579E+03  0.91497533199E+02 0.  0.
        -11    1    1    2    0    0 -0.18160048664E+03  0.96766360832E+02  0.39973528521E+03  0.44958955012E+03  0.00000000000E+00 0. -1.
         11    1    1    2    0    0  0.10773921925E+03 -0.71214395873E+02  0.39129026873E+01  0.12920735409E+03  0.00000000000E+00 0.  1.
        -15    1    3    3    0    0  0.13087867768E+02 -0.28940521843E+02 -0.33957104382E+02  0.46530514228E+02  0.17770000000E+01 0. -1.
         15    1    3    3    0    0  0.60773399625E+02  0.33885568837E+01 -0.36969108351E+03  0.37467258156E+03  0.17770000000E+01 0.  1.
</event>
<event>
 7    1  0.3381775E-006  0.5106867E+03  0.7546771E-02  0.9376210E-01
        -11   -1    0    0    0    0  0.00000000000E+00  0.00000000000E+00  0.50000000000E+03  0.50000000000E+03  0.00000000000E+00 0. -1.
         11   -1    0    0    0    0 -0.00000000000E+00 -0.00000000000E+00 -0.50000000000E+03  0.50000000000E+03  0.00000000000E+00 0.  1.
         23    2    1    2    0    0 -0.48443312867E+02  0.63631052323E+02  0.27877015342E+03  0.30238137315E+03  0.85592236831E+02 0.  0.
        -11    1    1    2    0    0 -0.25883705518E+01 -0.27182316635E+02  0.20650790859E+03  0.20830529113E+03  0.00000000000E+00 0. -1.
         11    1    1    2    0    0  0.51031683419E+02 -0.36448735688E+02 -0.48527806202E+03  0.48931333573E+03  0.00000000000E+00 0.  1.
        -15    1    3    3    0    0 -0.56722605249E+01  0.39120397025E+02  0.22868581431E+03  0.23208390595E+03  0.17770000000E+01 0. -1.
         15    1    3    3    0    0 -0.42771052342E+02  0.24510655298E+02  0.50084339109E+02  0.70297467199E+02  0.17770000000E+01 0.  1.
</event>
<event>
 7    1  0.3243445E-006  0.5221253E+03  0.7546771E-02  0.9351620E-01
        -11   -1    0    0    0    0  0.00000000000E+00  0.00000000000E+00  0.50000000000E+03  0.50000000000E+03  0.00000000000E+00 0.  1.
         11   -1    0    0    0    0 -0.00000000000E+00 -0.00000000000E+00 -0.50000000000E+03  0.50000000000E+03  0.00000000000E+00 0. -1.
         23    2    1    2    0    0 -0.60608999452E+02  0.31747010576E+02  0.14696913392E+03  0.19045798302E+03  0.99964961238E+02 0.  0.
        -11    1    1    2    0    0  0.63820687146E+00 -0.59268157824E+02  0.32632816995E+03  0.33166729766E+03  0.00000000000E+00 0.  1.
         11    1    1    2    0    0  0.59970792581E+02  0.27521147248E+02 -0.47329730387E+03  0.47787471931E+03  0.00000000000E+00 0. -1.
        -15    1    3    3    0    0 -0.15708952900E+02  0.50205326489E+02  0.12783445863E+03  0.13824670901E+03  0.17770000000E+01 0.  1.
         15    1    3    3    0    0 -0.44900046552E+02 -0.18458315912E+02  0.19134675295E+02  0.52211274016E+02  0.17770000000E+01 0. -1.
</event>
<event>
 7    1  0.3243445E-006  0.4604527E+03  0.7546771E-02  0.9492925E-01
        -11   -1    0    0    0    0  0.00000000000E+00  0.00000000000E+00  0.50000000000E+03  0.50000000000E+03  0.00000000000E+00 0. -1.
         11   -1    0    0    0    0 -0.00000000000E+00 -0.00000000000E+00 -0.50000000000E+03  0.50000000000E+03  0.00000000000E+00 0.  1.
         23    2    1    2    0    0  0.23540345931E+03 -0.17444876286E+03  0.32503746453E+03  0.44688543983E+03  0.90609510909E+02 0.  0.
        -11    1    1    2    0    0 -0.46569963510E+02  0.63787399812E+01  0.69879106651E+02  0.84217215410E+02  0.00000000000E+00 0. -1.
         11    1    1    2    0    0 -0.18883349580E+03  0.16807002288E+03 -0.39491657118E+03  0.46889734476E+03  0.00000000000E+00 0.  1.
        -15    1    3    3    0    0  0.14034042989E+03 -0.15178268730E+03  0.24491214017E+03  0.32049732379E+03  0.17770000000E+01 0. -1.
         15    1    3    3    0    0  0.95063029419E+02 -0.22666075564E+02  0.80125324359E+02  0.12638811604E+03  0.17770000000E+01 0.  1.
</event>
<event>
 7    1  0.3243445E-006  0.4723112E+03  0.7546771E-02  0.9463990E-01
        -11   -1    0    0    0    0  0.00000000000E+00  0.00000000000E+00  0.50000000000E+03  0.50000000000E+03  0.00000000000E+00 0.  1.
         11   -1    0    0    0    0 -0.00000000000E+00 -0.00000000000E+00 -0.50000000000E+03  0.50000000000E+03  0.00000000000E+00 0. -1.
         23    2    1    2    0    0 -0.21840926711E+02 -0.24866864305E+02 -0.44748662875E+03  0.45967153380E+03  0.99791026898E+02 0.  0.
        -11    1    1    2    0    0  0.48836749112E+02  0.79246675381E+02  0.46728764290E+03  0.47646910165E+03  0.00000000000E+00 0.  1.
         11    1    1    2    0    0 -0.26995822402E+02 -0.54379811076E+02 -0.19801014147E+02  0.63859364553E+02  0.00000000000E+00 0. -1.
        -15    1    3    3    0    0 -0.11349207918E+02  0.40808264202E+01 -0.11216036905E+01  0.12242278729E+02  0.17770000000E+01 0.  1.
         15    1    3    3    0    0 -0.10491718793E+02 -0.28947690725E+02 -0.44636502506E+03  0.44742925507E+03  0.17770000000E+01 0. -1.
</event>
<event>
 7    1  0.3243445E-006  0.4549593E+03  0.7546771E-02  0.9506646E-01
        -11   -1    0    0    0    0  0.00000000000E+00  0.00000000000E+00  0.50000000000E+03  0.50000000000E+03  0.00000000000E+00 0. -1.
         11   -1    0    0    0    0 -0.00000000000E+00 -0.00000000000E+00 -0.50000000000E+03  0.50000000000E+03  0.00000000000E+00 0. -1.
         23    2    1    2    0    0 -0.12801347562E+03 -0.16965859292E+02 -0.40665744764E+03  0.43634845244E+03  0.91402417403E+02 0.  0.
        -11    1    1    2    0    0  0.12305234869E+03 -0.67932221335E+02  0.44768318050E+03  0.46923011127E+03  0.00000000000E+00 0. -1.
         11    1    1    2    0    0  0.49611269298E+01  0.84898080627E+02 -0.41025732866E+02  0.94421436294E+02  0.00000000000E+00 0. -1.
        -15    1    3    3    0    0 -0.95877842589E+02  0.53441741258E+01 -0.16008484048E+03  0.18668538983E+03  0.17770000000E+01 0.  1.
         15    1    3    3    0    0 -0.32135633030E+02 -0.22310033418E+02 -0.24657260716E+03  0.24966306261E+03  0.17770000000E+01 0. -1.
</event>
<event>
 7    1  0.3243445E-006  0.5076170E+03  0.7546771E-02  0.9382925E-01
        -11   -1    0    0    0    0  0.00000000000E+00  0.00000000000E+00  0.50000000000E+03  0.50000000000E+03  0.00000000000E+00 0.  1.
         11   -1    0    0    0    0 -0.00000000000E+00 -0.00000000000E+00 -0.50000000000E+03  0.50000000000E+03  0.00000000000E+00 0.  1.
         23    2    1    2    0    0  0.96924886181E+02 -0.27431103687E+02  0.26196249710E+03  0.29492611823E+03  0.90609968089E+02 0.  0.
        -11    1    1    2    0    0  0.97221114136E+02 -0.12787348819E+02  0.18873782853E+03  0.21269092421E+03  0.00000000000E+00 0.  1.
         11    1    1    2    0    0 -0.19414600032E+03  0.40218452506E+02 -0.45070032564E+03  0.49238295755E+03  0.00000000000E+00 0.  1.
        -15    1    3    3    0    0  0.15106964602E+02  0.28995393304E+02  0.96457915398E+02  0.10186383256E+03  0.17770000000E+01 0. -1.
         15    1    3    3    0    0  0.81817921579E+02 -0.56426496991E+02  0.16550458170E+03  0.19306228567E+03  0.17770000000E+01 0.  1.
</event>
<event>
 7    1  0.3243445E-006  0.3869114E+03  0.7546771E-02  0.9695884E-01
        -11   -1    0    0    0    0  0.00000000000E+00  0.00000000000E+00  0.50000000000E+03  0.50000000000E+03  0.00000000000E+00 0.  1.
         11   -1    0    0    0    0 -0.00000000000E+00 -0.00000000000E+00 -0.50000000000E+03  0.50000000000E+03  0.00000000000E+00 0. -1.
         23    2    1    2    0    0  0.70504351989E+02  0.13992520156E+02  0.16924694913E+03  0.20463035042E+03  0.89790847254E+02 0.  0.
        -11    1    1    2    0    0 -0.21998556527E+03  0.36263520267E+02  0.25738538743E+03  0.34052302343E+03  0.00000000000E+00 0.  1.
         11    1    1    2    0    0  0.14948121328E+03 -0.50256040422E+02 -0.42663233656E+03  0.45484662615E+03  0.00000000000E+00 0. -1.
        -15    1    3    3    0    0  0.70935391234E+02  0.17239104012E+02  0.57820830790E+02  0.93141948868E+02  0.17770000000E+01 0.  1.
         15    1    3    3    0    0 -0.43103924528E+00 -0.32465838564E+01  0.11142611834E+03  0.11148840155E+03  0.17770000000E+01 0. -1.
</event>
<event>
 7    1  0.3243445E-006  0.4455529E+03  0.7546771E-02  0.9530625E-01
        -11   -1    0    0    0    0  0.00000000000E+00  0.00000000000E+00  0.50000000000E+03  0.50000000000E+03  0.00000000000E+00 0. -1.
         11   -1    0    0    0    0 -0.00000000000E+00 -0.00000000000E+00 -0.50000000000E+03  0.50000000000E+03  0.00000000000E+00 0. -1.
         23    2    1    2    0    0  0.13330226343E+03  0.33808802197E+02 -0.42764078396E+03  0.45870205407E+03  0.92835369102E+02 0.  0.
        -11    1    1    2    0    0 -0.22303576153E+02 -0.45636922511E+02  0.42665336178E+03  0.42966646288E+03  0.00000000000E+00 0. -1.
         11    1    1    2    0    0 -0.11099868728E+03  0.11828120314E+02  0.98742218719E+00  0.11163148306E+03  0.00000000000E+00 0. -1.
        -15    1    3    3    0    0  0.19326732570E+00  0.32638785933E+02 -0.91146101101E+02  0.96830249273E+02  0.17770000000E+01 0.  1.
         15    1    3    3    0    0  0.13310899610E+03  0.11700162634E+01 -0.33649468286E+03  0.36187180479E+03  0.17770000000E+01 0. -1.
</event>
<event>
 7    1  0.3243445E-006  0.3487182E+03  0.7546771E-02  0.9821377E-01
        -11   -1    0    0    0    0  0.00000000000E+00  0.00000000000E+00  0.50000000000E+03  0.50000000000E+03  0.00000000000E+00 0.  1.
         11   -1    0    0    0    0 -0.00000000000E+00 -0.00000000000E+00 -0.50000000000E+03  0.50000000000E+03  0.00000000000E+00 0.  1.
         23    2    1    2    0    0  0.55604809378E+02 -0.16065461324E+03 -0.17542156548E+03  0.26101948931E+03  0.91960037959E+02 0.  0.
        -11    1    1    2    0    0 -0.22025703684E+03 -0.11307349800E+03  0.30623475994E+03  0.39380008434E+03  0.00000000000E+00 0.  1.
         11    1    1    2    0    0  0.16465222747E+03  0.27372811124E+03 -0.13081319446E+03  0.34518042635E+03  0.00000000000E+00 0.  1.
        -15    1    3    3    0    0  0.76556010565E+02 -0.86123945736E+02 -0.11488086833E+03  0.16272347224E+03  0.17770000000E+01 0.  1.
         15    1    3    3    0    0 -0.20951201187E+02 -0.74530667500E+02 -0.60540697157E+02  0.98296017063E+02  0.17770000000E+01 0. -1.
</event>
<event>
 7    1  0.3243445E-006  0.4125147E+03  0.7546771E-02  0.9620130E-01
        -11   -1    0    0    0    0  0.00000000000E+00  0.00000000000E+00  0.50000000000E+03  0.50000000000E+03  0.00000000000E+00 0.  1.
         11   -1    0    0    0    0 -0.00000000000E+00 -0.00000000000E+00 -0.50000000000E+03  0.50000000000E+03  0.00000000000E+00 0. -1.
         23    2    1    2    0    0 -0.22199377541E+02  0.72558863534E+02 -0.11418099668E+03  0.16365773138E+03  0.89380937547E+02 0.  0.
        -11    1    1    2    0    0 -0.42988001979E+02  0.26802170028E+03  0.33046515623E+03  0.42765736240E+03  0.00000000000E+00 0.  1.
         11    1    1    2    0    0  0.65187379520E+02 -0.34058056381E+03 -0.21628415955E+03  0.40868490622E+03  0.00000000000E+00 0. -1.
        -15    1    3    3    0    0 -0.14777755046E+02 -0.12124002074E+02 -0.59612464204E+02  0.62627287088E+02  0.17770000000E+01 0. -1.
         15    1    3    3    0    0 -0.74216224945E+01  0.84682865608E+02 -0.54568532476E+02  0.10103044429E+03  0.17770000000E+01 0.  1.
</event>
<event>
 7    1  0.3243445E-006  0.3912917E+03  0.7546771E-02  0.9682487E-01
        -11   -1    0    0    0    0  0.00000000000E+00  0.00000000000E+00  0.50000000000E+03  0.50000000000E+03  0.00000000000E+00 0.  1.
         11   -1    0    0    0    0 -0.00000000000E+00 -0.00000000000E+00 -0.50000000000E+03  0.50000000000E+03  0.00000000000E+00 0. -1.
         23    2    1    2    0    0 -0.45175703537E+02  0.30611351184E+01 -0.32262239632E+03  0.33835562745E+03  0.91373438603E+02 0.  0.
        -11    1    1    2    0    0  0.95136517958E+02 -0.17673580105E+03  0.41329479846E+03  0.45945521093E+03  0.00000000000E+00 0.  1.
         11    1    1    2    0    0 -0.49960814421E+02  0.17367466594E+03 -0.90672402134E+02  0.20218916161E+03  0.00000000000E+00 0. -1.
        -15    1    3    3    0    0  0.15095928149E+02  0.85824115545E+01 -0.10406200518E+02  0.20322194099E+02  0.17770000000E+01 0.  1.
         15    1    3    3    0    0 -0.60271631686E+02 -0.55212764361E+01 -0.31221619580E+03  0.31803343335E+03  0.17770000000E+01 0. -1.
</event>
<event>
 7    1  0.3243445E-006  0.5152411E+03  0.7546771E-02  0.9366338E-01
        -11   -1    0    0    0    0  0.00000000000E+00  0.00000000000E+00  0.50000000000E+03  0.50000000000E+03  0.00000000000E+00 0. -1.
         11   -1    0    0    0    0 -0.00000000000E+00 -0.00000000000E+00 -0.50000000000E+03  0.50000000000E+03  0.00000000000E+00 0. -1.
         23    2    1    2    0    0 -0.95297062418E+01 -0.14088598879E+02 -0.18419022070E+03  0.20692399477E+03  0.92748036583E+02 0.  0.
        -11    1    1    2    0    0 -0.67974551661E+02 -0.33380789847E+02  0.47880723771E+03  0.48475889645E+03  0.00000000000E+00 0. -1.
         11    1    1    2    0    0  0.77504257903E+02  0.47469388725E+02 -0.29461701701E+03  0.30831710878E+03  0.00000000000E+00 0. -1.
        -15    1    3    3    0    0 -0.21812190237E+01 -0.25609464673E+02 -0.19016656770E+03  0.19190383946E+03  0.17770000000E+01 0.  1.
         15    1    3    3    0    0 -0.73484872181E+01  0.11520865795E+02  0.59763470039E+01  0.15020155311E+02  0.17770000000E+01 0. -1.
</event>
<event>
 7    1  0.3243445E-006  0.4359076E+03  0.7546771E-02  0.9555877E-01
        -11   -1    0    0    0    0  0.00000000000E+00  0.00000000000E+00  0.50000000000E+03  0.50000000000E+03  0.00000000000E+00 0.  1.
         11   -1    0    0    0    0 -0.00000000000E+00 -0.00000000000E+00 -0.50000000000E+03  0.50000000000E+03  0.00000000000E+00 0. -1.
         23    2    1    2    0    0 -0.32318875229E+03 -0.78749404963E+02 -0.27601530553E+03  0.44191135233E+03  0.91917115086E+02 0.  0.
        -11    1    1    2    0    0  0.30358701211E+03 -0.45825546643E+02  0.30051727316E+03  0.42962272532E+03  0.00000000000E+00 0.  1.
         11    1    1    2    0    0  0.19601740181E+02  0.12457495161E+03 -0.24501967634E+02  0.12846592234E+03  0.00000000000E+00 0. -1.
        -15    1    3    3    0    0 -0.23329927567E+02 -0.34279631850E+02 -0.26055724842E+02  0.49004461083E+02  0.17770000000E+01 0.  1.
         15    1    3    3    0    0 -0.29985882472E+03 -0.44469773113E+02 -0.24995958069E+03  0.39290689125E+03  0.17770000000E+01 0. -1.
</event>
<event>
 7    1  0.3243445E-006  0.5278997E+03  0.7546771E-02  0.9339459E-01
        -11   -1    0    0    0    0  0.00000000000E+00  0.00000000000E+00  0.50000000000E+03  0.50000000000E+03  0.00000000000E+00 0.  1.
         11   -1    0    0    0    0 -0.00000000000E+00 -0.00000000000E+00 -0.50000000000E+03  0.50000000000E+03  0.00000000000E+00 0.  1.
         23    2    1    2    0    0 -0.10345038803E+03 -0.78272098810E+02 -0.24223556481E+03  0.28885186420E+03  0.89043957457E+02 0.  0.
        -11    1    1    2    0    0  0.11026281749E+03 -0.23472033540E+02  0.45844286197E+03  0.47210028910E+03  0.00000000000E+00 0.  1.
         11    1    1    2    0    0 -0.68124294561E+01  0.10174413235E+03 -0.21620729716E+03  0.23904784669E+03  0.00000000000E+00 0.  1.
        -15    1    3    3    0    0 -0.72344329902E+02 -0.87040540277E+01 -0.16477109644E+03  0.18017251338E+03  0.17770000000E+01 0. -1.
         15    1    3    3    0    0 -0.31106058128E+02 -0.69568044783E+02 -0.77464468364E+02  0.10867935082E+03  0.17770000000E+01 0.  1.
</event>
<event>
 7    1  0.3243445E-006  0.4701308E+03  0.7546771E-02  0.9469242E-01
        -11   -1    0    0    0    0  0.00000000000E+00  0.00000000000E+00  0.50000000000E+03  0.50000000000E+03  0.00000000000E+00 0.  1.
         11   -1    0    0    0    0 -0.00000000000E+00 -0.00000000000E+00 -0.50000000000E+03  0.50000000000E+03  0.00000000000E+00 0. -1.
         23    2    1    2    0    0 -0.68913856501E+02  0.17420074691E+03 -0.43235409795E+03  0.47952677380E+03  0.88999106337E+02 0.  0.
        -11    1    1    2    0    0  0.78707502955E+02 -0.10904787073E+03  0.43421246445E+03  0.45456217772E+03  0.00000000000E+00 0.  1.
         11    1    1    2    0    0 -0.97936464541E+01 -0.65152876185E+02 -0.18583664978E+01  0.65911048482E+02  0.00000000000E+00 0. -1.
        -15    1    3    3    0    0 -0.19148188514E+02  0.83440291995E+02 -0.29714535787E+03  0.30923689444E+03  0.17770000000E+01 0. -1.
         15    1    3    3    0    0 -0.49765667988E+02  0.90760454916E+02 -0.13520874009E+03  0.17028987936E+03  0.17770000000E+01 0.  1.
</event>
<event>
 7    1  0.3243445E-006  0.3931827E+03  0.7546771E-02  0.9676761E-01
        -11   -1    0    0    0    0  0.00000000000E+00  0.00000000000E+00  0.50000000000E+03  0.50000000000E+03  0.00000000000E+00 0.  1.
         11   -1    0    0    0    0 -0.00000000000E+00 -0.00000000000E+00 -0.50000000000E+03  0.50000000000E+03  0.00000000000E+00 0. -1.
         23    2    1    2    0    0  0.11390172378E+03  0.10584303577E+03 -0.73103320150E+02  0.19508319581E+03  0.92395925061E+02 0.  0.
        -11    1    1    2    0    0 -0.45576207837E+02  0.14099021687E+03  0.37842450532E+03  0.40639948105E+03  0.00000000000E+00 0.  1.
         11    1    1    2    0    0 -0.68325515945E+02 -0.24683325264E+03 -0.30532118517E+03  0.39851732315E+03  0.00000000000E+00 0. -1.
        -15    1    3    3    0    0  0.11469782866E+03  0.73021905701E+02 -0.27290021895E+02  0.13869280312E+03  0.17770000000E+01 0.  1.
         15    1    3    3    0    0 -0.79610487937E+00  0.32821130069E+02 -0.45813298255E+02  0.56390392692E+02  0.17770000000E+01 0. -1.
</event>
<event>
 7    1  0.3243445E-006  0.5232819E+03  0.7546771E-02  0.9349170E-01
        -11   -1    0    0    0    0  0.00000000000E+00  0.00000000000E+00  0.50000000000E+03  0.50000000000E+03  0.00000000000E+00 0.  1.
         11   -1    0    0    0    0 -0.00000000000E+00 -0.00000000000E+00 -0.50000000000E+03  0.50000000000E+03  0.00000000000E+00 0. -1.
         23    2    1    2    0    0  0.62706695212E+02  0.12434954071E+03 -0.13098964797E+03  0.21181198790E+03  0.91165193165E+02 0.  0.
        -11    1    1    2    0    0 -0.52014609471E+02 -0.42615237287E+03  0.20724084593E+03  0.47671808516E+03  0.00000000000E+00 0.  1.
         11    1    1    2    0    0 -0.10692085741E+02  0.30180283215E+03 -0.76251197957E+02  0.31146992693E+03  0.00000000000E+00 0. -1.
        -15    1    3    3    0    0  0.76236127166E+02  0.12429817291E+03 -0.13376789692E+03  0.19788630789E+03  0.17770000000E+01 0. -1.
         15    1    3    3    0    0 -0.13529431954E+02  0.51367802962E-01  0.27782489521E+01  0.13925680015E+02  0.17770000000E+01 0.  1.
</event>
<event>
 7    1  0.3243445E-006  0.4241928E+03  0.7546771E-02  0.9587501E-01
        -11   -1    0    0    0    0  0.00000000000E+00  0.00000000000E+00  0.50000000000E+03  0.50000000000E+03  0.00000000000E+00 0. -1.
         11   -1    0    0    0    0 -0.00000000000E+00 -0.00000000000E+00 -0.50000000000E+03  0.50000000000E+03  0.00000000000E+00 0. -1.
         23    2    1    2    0    0  0.51836613405E+02 -0.12425501546E+02 -0.37344030808E+03  0.38800932359E+03  0.90841311746E+02 0.  0.
        -11    1    1    2    0    0 -0.18579936361E+03  0.54945818007E+02  0.42113653786E+03  0.46356922887E+03  0.00000000000E+00 0. -1.
         11    1    1    2    0    0  0.13396275021E+03 -0.42520316462E+02 -0.47696229776E+02  0.14842144754E+03  0.00000000000E+00 0. -1.
        -15    1    3    3    0    0  0.32135103764E+02  0.38460025598E+02 -0.15855136977E+03  0.16629351475E+03  0.17770000000E+01 0.  1.
         15    1    3    3    0    0  0.19701509641E+02 -0.50885527143E+02 -0.21488893831E+03  0.22171580885E+03  0.17770000000E+01 0. -1.
</event>
<event>
 7    1  0.3243445E-006  0.4852848E+03  0.7546771E-02  0.9433352E-01
        -11   -1    0    0    0    0  0.00000000000E+00  0.00000000000E+00  0.50000000000E+03  0.50000000000E+03  0.00000000000E+00 0.  1.
         11   -1    0    0    0    0 -0.00000000000E+00 -0.00000000000E+00 -0.50000000000E+03  0.50000000000E+03  0.00000000000E+00 0. -1.
         23    2    1    2    0    0 -0.33447900591E+02 -0.82890429441E+02 -0.45500731871E+03  0.47172373961E+03  0.86614323787E+02 0.  0.
        -11    1    1    2    0    0  0.24828542474E+02  0.66654422123E+02  0.48657509320E+03  0.49174646906E+03  0.00000000000E+00 0.  1.
         11    1    1    2    0    0  0.86193581162E+01  0.16236007318E+02 -0.31567774491E+02  0.36529791326E+02  0.00000000000E+00 0. -1.
        -15    1    3    3    0    0 -0.17706566335E+02 -0.59259799183E+02 -0.11552311479E+03  0.13104958630E+03  0.17770000000E+01 0. -1.
         15    1    3    3    0    0 -0.15741334255E+02 -0.23630630258E+02 -0.33948420392E+03  0.34067415331E+03  0.17770000000E+01 0.  1.
</event>
<event>
 7    1  0.3243445E-006  0.4934664E+03  0.7546771E-02  0.9414549E-01
        -11   -1    0    0    0    0  0.00000000000E+00  0.00000000000E+00  0.50000000000E+03  0.50000000000E+03  0.00000000000E+00 0.  1.
         11   -1    0    0    0    0 -0.00000000000E+00 -0.00000000000E+00 -0.50000000000E+03  0.50000000000E+03  0.00000000000E+00 0. -1.
         23    2    1    2    0    0 -0.26087643090E+02  0.64872700570E+02 -0.47807837872E+03  0.49253315263E+03  0.95608251977E+02 0.  0.
        -11    1    1    2    0    0  0.44298343382E+02 -0.77466977378E+02  0.47702507963E+03  0.48530032187E+03  0.00000000000E+00 0.  1.
         11    1    1    2    0    0 -0.18210700291E+02  0.12594276809E+02  0.10532990834E+01  0.22166525492E+02  0.00000000000E+00 0. -1.
        -15    1    3    3    0    0 -0.13038342698E+02  0.28915196528E+02 -0.32985948594E+02  0.45796479168E+02  0.17770000000E+01 0.  1.
         15    1    3    3    0    0 -0.13049300392E+02  0.35957504041E+02 -0.44509243012E+03  0.44673667347E+03  0.17770000000E+01 0. -1.
</event>
<event>
 7    1  0.3978345E-006  0.4566242E+03  0.7546771E-02  0.9502466E-01
        -11   -1    0    0    0    0  0.00000000000E+00  0.00000000000E+00  0.50000000000E+03  0.50000000000E+03  0.00000000000E+00 0. -1.
         11   -1    0    0    0    0 -0.00000000000E+00 -0.00000000000E+00 -0.50000000000E+03  0.50000000000E+03  0.00000000000E+00 0.  1.
         23    2    1    2    0    0  0.12159353070E+03  0.10346434517E+03  0.37301999738E+03  0.41596322638E+03  0.91605839473E+02 0.  0.
        -11    1    1    2    0    0  0.28038032985E+02  0.51872463826E+02  0.69866804963E+02  0.91423488409E+02  0.00000000000E+00 0. -1.
         11    1    1    2    0    0 -0.14963156369E+03 -0.15533680899E+03 -0.44288680234E+03  0.49261328521E+03  0.00000000000E+00 0.  1.
        -15    1    3    3    0    0  0.11711670527E+03  0.52386346115E+02  0.22134851246E+03  0.25584951360E+03  0.17770000000E+01 0. -1.
         15    1    3    3    0    0  0.44768254327E+01  0.51077999051E+02  0.15167148492E+03  0.16011371277E+03  0.17770000000E+01 0.  1.
</event>
<event>
 7    1  0.3243445E-006  0.4056583E+03  0.7546771E-02  0.9639828E-01
        -11   -1    0    0    0    0  0.00000000000E+00  0.00000000000E+00  0.50000000000E+03  0.50000000000E+03  0.00000000000E+00 0.  1.
         11   -1    0    0    0    0 -0.00000000000E+00 -0.00000000000E+00 -0.50000000000E+03  0.50000000000E+03  0.00000000000E+00 0.  1.
         23    2    1    2    0    0 -0.16460862422E+02  0.86692319569E+02 -0.33989681264E+03  0.36251770050E+03  0.90015119111E+02 0.  0.
        -11    1    1    2    0    0  0.16822931770E+03 -0.43104224490E+02  0.42427988497E+03  0.45844574193E+03  0.00000000000E+00 0.  1.
         11    1    1    2    0    0 -0.15176845528E+03 -0.43588095079E+02 -0.84383072332E+02  0.17903655757E+03  0.00000000000E+00 0.  1.
        -15    1    3    3    0    0  0.82326605903E+01  0.47428325347E+01  0.21656373289E+01  0.99054972055E+01  0.17770000000E+01 0. -1.
         15    1    3    3    0    0 -0.24693523012E+02  0.81949487034E+02 -0.34206244997E+03  0.35261220329E+03  0.17770000000E+01 0.  1.
</event>
<event>
 7    1  0.3243445E-006  0.4843189E+03  0.7546771E-02  0.9435598E-01
        -11   -1    0    0    0    0  0.00000000000E+00  0.00000000000E+00  0.50000000000E+03  0.50000000000E+03  0.00000000000E+00 0.  1.
         11   -1    0    0    0    0 -0.00000000000E+00 -0.00000000000E+00 -0.50000000000E+03  0.50000000000E+03  0.00000000000E+00 0. -1.
         23    2    1    2    0    0 -0.16135064744E+02  0.12174941083E+03 -0.45301704971E+03  0.47848156556E+03  0.92934933683E+02 0.  0.
        -11    1    1    2    0    0  0.44449906156E+02 -0.14918183924E+03  0.45614107893E+03  0.48197064144E+03  0.00000000000E+00 0.  1.
         11    1    1    2    0    0 -0.28314841412E+02  0.27432428412E+02 -0.31240292211E+01  0.39547793003E+02  0.00000000000E+00 0. -1.
        -15    1    3    3    0    0 -0.44338014440E+02  0.11721371357E+03 -0.37393003169E+03  0.39437512663E+03  0.17770000000E+01 0. -1.
         15    1    3    3    0    0  0.28202949696E+02  0.45356972563E+01 -0.79087018021E+02  0.84106438930E+02  0.17770000000E+01 0.  1.
</event>
<event>
 7    1  0.3243445E-006  0.4196330E+03  0.7546771E-02  0.9600106E-01
        -11   -1    0    0    0    0  0.00000000000E+00  0.00000000000E+00  0.50000000000E+03  0.50000000000E+03  0.00000000000E+00 0.  1.
         11   -1    0    0    0    0 -0.00000000000E+00 -0.00000000000E+00 -0.50000000000E+03  0.50000000000E+03  0.00000000000E+00 0. -1.
         23    2    1    2    0    0  0.46551771996E+02 -0.82783453627E+02 -0.36918798532E+03  0.39155806659E+03  0.89430326691E+02 0.  0.
        -11    1    1    2    0    0  0.95522270475E+02  0.99687924554E+02  0.43100786268E+03  0.45258144477E+03  0.00000000000E+00 0.  1.
         11    1    1    2    0    0 -0.14207404247E+03 -0.16904470927E+02 -0.61819877360E+02  0.15586048864E+03  0.00000000000E+00 0. -1.
        -15    1    3    3    0    0  0.16604150822E+02 -0.95970052993E+02 -0.28681613389E+03  0.30290691852E+03  0.17770000000E+01 0. -1.
         15    1    3    3    0    0  0.29947621174E+02  0.13186599366E+02 -0.82371851430E+02  0.88651148068E+02  0.17770000000E+01 0.  1.
</event>
<event>
 7    1  0.3243445E-006  0.5321059E+03  0.7546771E-02  0.9330704E-01
        -11   -1    0    0    0    0  0.00000000000E+00  0.00000000000E+00  0.50000000000E+03  0.50000000000E+03  0.00000000000E+00 0.  1.
         11   -1    0    0    0    0 -0.00000000000E+00 -0.00000000000E+00 -0.50000000000E+03  0.50000000000E+03  0.00000000000E+00 0. -1.
         23    2    1    2    0    0  0.13585801133E+03 -0.66571513857E+02 -0.15323862581E+03  0.23387116951E+03  0.91238598121E+02 0.  0.
        -11    1    1    2    0    0 -0.25109312027E+03 -0.78537590924E+02  0.38692249274E+03  0.46789413720E+03  0.00000000000E+00 0.  1.
         11    1    1    2    0    0  0.11523510893E+03  0.14510910478E+03 -0.23368386693E+03  0.29823469330E+03  0.00000000000E+00 0. -1.
        -15    1    3    3    0    0  0.11864016237E+03 -0.68442485855E+02 -0.16378586879E+03  0.21351541055E+03  0.17770000000E+01 0.  1.
         15    1    3    3    0    0  0.17217848963E+02  0.18709719978E+01  0.10547242986E+02  0.20355758957E+02  0.17770000000E+01 0. -1.
</event>
<event>
 7    1  0.3243445E-006  0.4960135E+03  0.7546771E-02  0.9408774E-01
        -11   -1    0    0    0    0  0.00000000000E+00  0.00000000000E+00  0.50000000000E+03  0.50000000000E+03  0.00000000000E+00 0. -1.
         11   -1    0    0    0    0 -0.00000000000E+00 -0.00000000000E+00 -0.50000000000E+03  0.50000000000E+03  0.00000000000E+00 0. -1.
         23    2    1    2    0    0 -0.11560584108E+03  0.92830347754E+00 -0.47463216289E+03  0.49524133077E+03  0.81380055383E+02 0.  0.
        -11    1    1    2    0    0  0.11084916326E+03  0.12598840176E+02  0.47730750266E+03  0.49017213290E+03  0.00000000000E+00 0. -1.
         11    1    1    2    0    0  0.47566778189E+01 -0.13527143653E+02 -0.26753397707E+01  0.14586536333E+02  0.00000000000E+00 0. -1.
        -15    1    3    3    0    0  0.58610533254E+01 -0.15481916371E+02 -0.33726908566E+02  0.37612548053E+02  0.17770000000E+01 0.  1.
         15    1    3    3    0    0 -0.12146689440E+03  0.16410219848E+02 -0.44090525433E+03  0.45762878272E+03  0.17770000000E+01 0. -1.
</event>
<event>
 7    1  0.3243445E-006  0.4285637E+03  0.7546771E-02  0.9575576E-01
        -11   -1    0    0    0    0  0.00000000000E+00  0.00000000000E+00  0.50000000000E+03  0.50000000000E+03  0.00000000000E+00 0. -1.
         11   -1    0    0    0    0 -0.00000000000E+00 -0.00000000000E+00 -0.50000000000E+03  0.50000000000E+03  0.00000000000E+00 0. -1.
         23    2    1    2    0    0 -0.23646062243E+03 -0.83672443919E+02 -0.37303124151E+03  0.45855443078E+03  0.90582310722E+02 0.  0.
        -11    1    1    2    0    0 -0.26859175299E+02 -0.74947088170E+02  0.11627328038E+03  0.14091826373E+03  0.00000000000E+00 0. -1.
         11    1    1    2    0    0  0.26331979773E+03  0.15861953209E+03  0.25675796113E+03  0.40052730548E+03  0.00000000000E+00 0. -1.
        -15    1    3    3    0    0 -0.83179178703E+02 -0.10690488596E+02 -0.62374386626E+02  0.10453125921E+03  0.17770000000E+01 0.  1.
         15    1    3    3    0    0 -0.15328144372E+03 -0.72981955323E+02 -0.31065685489E+03  0.35402317157E+03  0.17770000000E+01 0. -1.
</event>
<event>
 7    1  0.3243445E-006  0.3376641E+03  0.7546771E-02  0.9860947E-01
        -11   -1    0    0    0    0  0.00000000000E+00  0.00000000000E+00  0.50000000000E+03  0.50000000000E+03  0.00000000000E+00 0.  1.
         11   -1    0    0    0    0 -0.00000000000E+00 -0.00000000000E+00 -0.50000000000E+03  0.50000000000E+03  0.00000000000E+00 0. -1.
         23    2    1    2    0    0 -0.35691293096E+02  0.11128806645E+03 -0.22978825602E+03  0.27713791940E+03  0.10170487514E+03 0.  0.
        -11    1    1    2    0    0 -0.21543103094E+03  0.58638420874E+02  0.33442272600E+03  0.40210390841E+03  0.00000000000E+00 0.  1.
         11    1    1    2    0    0  0.25112232404E+03 -0.16992648732E+03 -0.10463446998E+03  0.32075817220E+03  0.00000000000E+00 0. -1.
        -15    1    3    3    0    0 -0.10365197105E+02 -0.18780482390E+01 -0.10958730284E+03  0.11010676205E+03  0.17770000000E+01 0.  1.
         15    1    3    3    0    0 -0.25326095991E+02  0.11316611469E+03 -0.12020095318E+03  0.16703115735E+03  0.17770000000E+01 0. -1.
</event>
<event>
 7    1  0.3243445E-006  0.5265302E+03  0.7546771E-02  0.9342328E-01
        -11   -1    0    0    0    0  0.00000000000E+00  0.00000000000E+00  0.50000000000E+03  0.50000000000E+03  0.00000000000E+00 0.  1.
         11   -1    0    0    0    0 -0.00000000000E+00 -0.00000000000E+00 -0.50000000000E+03  0.50000000000E+03  0.00000000000E+00 0. -1.
         23    2    1    2    0    0  0.47773671122E+02  0.61729880170E+02 -0.16786951298E+03  0.21037305435E+03  0.99918701204E+02 0.  0.
        -11    1    1    2    0    0  0.77326090709E+02 -0.21282551505E+03  0.41581202657E+03  0.47346981488E+03  0.00000000000E+00 0.  1.
         11    1    1    2    0    0 -0.12509976183E+03  0.15109563488E+03 -0.24794251359E+03  0.31615713077E+03  0.00000000000E+00 0. -1.
        -15    1    3    3    0    0  0.11638483824E+02 -0.72536808930E+01  0.94157967028E+01  0.16729768342E+02  0.17770000000E+01 0.  1.
         15    1    3    3    0    0  0.36135187298E+02  0.68983561063E+02 -0.17728530968E+03  0.19364328601E+03  0.17770000000E+01 0. -1.
</event>
<event>
 7    1  0.3243445E-006  0.5165303E+03  0.7546771E-02  0.9363563E-01
        -11   -1    0    0    0    0  0.00000000000E+00  0.00000000000E+00  0.50000000000E+03  0.50000000000E+03  0.00000000000E+00 0.  1.
         11   -1    0    0    0    0 -0.00000000000E+00 -0.00000000000E+00 -0.50000000000E+03  0.50000000000E+03  0.00000000000E+00 0. -1.
         23    2    1    2    0    0  0.60297881486E+00  0.11223875557E+02 -0.29786024754E+03  0.31142136543E+03  0.90200891449E+02 0.  0.
        -11    1    1    2    0    0 -0.11160044812E+03 -0.90359861903E+01  0.47032607355E+03  0.48346967281E+03  0.00000000000E+00 0.  1.
         11    1    1    2    0    0  0.11099746930E+03 -0.21878893668E+01 -0.17246582601E+03  0.20510896176E+03  0.00000000000E+00 0. -1.
        -15    1    3    3    0    0  0.10151314892E+02  0.47097597614E+02 -0.21897567517E+03  0.22422028664E+03  0.17770000000E+01 0. -1.
         15    1    3    3    0    0 -0.95483360775E+01 -0.35873722057E+02 -0.78884572363E+02  0.87201078789E+02  0.17770000000E+01 0.  1.
</event>
<event>
 7    1  0.3243445E-006  0.4450169E+03  0.7546771E-02  0.9532010E-01
        -11   -1    0    0    0    0  0.00000000000E+00  0.00000000000E+00  0.50000000000E+03  0.50000000000E+03  0.00000000000E+00 0. -1.
         11   -1    0    0    0    0 -0.00000000000E+00 -0.00000000000E+00 -0.50000000000E+03  0.50000000000E+03  0.00000000000E+00 0.  1.
         23    2    1    2    0    0  0.24528688961E+02  0.68654124381E+02  0.45777621878E+02  0.10581271338E+03  0.61527995828E+02 0.  0.
        -11    1    1    2    0    0 -0.12833031868E+03 -0.36763540703E+01  0.40615190910E+03  0.42595957500E+03  0.00000000000E+00 0. -1.
         11    1    1    2    0    0  0.10380162972E+03 -0.64977770310E+02 -0.45192953097E+03  0.46822771162E+03  0.00000000000E+00 0.  1.
        -15    1    3    3    0    0 -0.98384330597E+01  0.52362910315E+01  0.29864156360E+02  0.31925523847E+02  0.17770000000E+01 0. -1.
         15    1    3    3    0    0  0.34367122021E+02  0.63417833349E+02  0.15913465518E+02  0.73887189529E+02  0.17770000000E+01 0.  1.
</event>
<event>
 7    1  0.3243445E-006  0.4782336E+03  0.7546771E-02  0.9449876E-01
        -11   -1    0    0    0    0  0.00000000000E+00  0.00000000000E+00  0.50000000000E+03  0.50000000000E+03  0.00000000000E+00 0. -1.
         11   -1    0    0    0    0 -0.00000000000E+00 -0.00000000000E+00 -0.50000000000E+03  0.50000000000E+03  0.00000000000E+00 0.  1.
         23    2    1    2    0    0  0.37169880809E+02  0.43835734287E+02 -0.45973146644E+03  0.47265636486E+03  0.93529922327E+02 0.  0.
        -11    1    1    2    0    0  0.10651090464E+02 -0.57760711938E+02  0.47233000069E+03  0.47596782992E+03  0.00000000000E+00 0. -1.
         11    1    1    2    0    0 -0.47820971273E+02  0.13924977651E+02 -0.12598534247E+02  0.51375805212E+02  0.00000000000E+00 0.  1.
        -15    1    3    3    0    0  0.12779129403E+02  0.55877430778E+02 -0.13360612477E+03  0.14539376783E+03  0.17770000000E+01 0. -1.
         15    1    3    3    0    0  0.24390751406E+02 -0.12041696490E+02 -0.32612534167E+03  0.32726259704E+03  0.17770000000E+01 0.  1.
</event>
<event>
 7    1  0.3243445E-006  0.4538041E+03  0.7546771E-02  0.9509557E-01
        -11   -1    0    0    0    0  0.00000000000E+00  0.00000000000E+00  0.50000000000E+03  0.50000000000E+03  0.00000000000E+00 0. -1.
         11   -1    0    0    0    0 -0.00000000000E+00 -0.00000000000E+00 -0.50000000000E+03  0.50000000000E+03  0.00000000000E+00 0.  1.
         23    2    1    2    0    0 -0.72516874672E+02  0.11811351178E+02 -0.46459382228E+03  0.47936438971E+03  0.92436969305E+02 0.  0.
        -11    1    1    2    0    0  0.10201845505E+03  0.60104327828E+02  0.40704988417E+03  0.42392204896E+03  0.00000000000E+00 0. -1.
         11    1    1    2    0    0 -0.29501580383E+02 -0.71915679006E+02  0.57543938106E+02  0.96713561328E+02  0.00000000000E+00 0.  1.
        -15    1    3    3    0    0 -0.51547028865E+02 -0.35098553340E+02 -0.18944605054E+03  0.19945417626E+03  0.17770000000E+01 0.  1.
         15    1    3    3    0    0 -0.20969845808E+02  0.46909904518E+02 -0.27514777173E+03  0.27991021345E+03  0.17770000000E+01 0. -1.
</event>
<event>
 7    1  0.3243445E-006  0.4489319E+03  0.7546771E-02  0.9521939E-01
        -11   -1    0    0    0    0  0.00000000000E+00  0.00000000000E+00  0.50000000000E+03  0.50000000000E+03  0.00000000000E+00 0.  1.
         11   -1    0    0    0    0 -0.00000000000E+00 -0.00000000000E+00 -0.50000000000E+03  0.50000000000E+03  0.00000000000E+00 0. -1.
         23    2    1    2    0    0  0.15000680549E+02  0.20525976646E+03 -0.40436847238E+03  0.46256256613E+03  0.89964848634E+02 0.  0.
        -11    1    1    2    0    0 -0.19105774067E+02 -0.10143698428E+03  0.41988056651E+03  0.43238198680E+03  0.00000000000E+00 0.  1.
         11    1    1    2    0    0  0.41050935182E+01 -0.10382278218E+03 -0.15512094130E+02  0.10505544706E+03  0.00000000000E+00 0. -1.
        -15    1    3    3    0    0  0.71929591265E+01  0.33044511366E+01 -0.79779531677E+02  0.80190956235E+02  0.17770000000E+01 0.  1.
         15    1    3    3    0    0  0.78077214224E+01  0.20195531532E+03 -0.32458894070E+03  0.38237160990E+03  0.17770000000E+01 0. -1.
</event>
<event>
 7    1  0.3243445E-006  0.5200785E+03  0.7546771E-02  0.9355970E-01
        -11   -1    0    0    0    0  0.00000000000E+00  0.00000000000E+00  0.50000000000E+03  0.50000000000E+03  0.00000000000E+00 0. -1.
         11   -1    0    0    0    0 -0.00000000000E+00 -0.00000000000E+00 -0.50000000000E+03  0.50000000000E+03  0.00000000000E+00 0.  1.
         23    2    1    2    0    0 -0.12145314279E+02  0.11538008108E+00 -0.17846844142E+03  0.20112609547E+03  0.91941284108E+02 0.  0.
        -11    1    1    2    0    0  0.24326689669E+02  0.16939537373E+03  0.44837273323E+03  0.47992154398E+03  0.00000000000E+00 0. -1.
         11    1    1    2    0    0 -0.12181375389E+02 -0.16951075381E+03 -0.26990429181E+03  0.31895236055E+03  0.00000000000E+00 0.  1.
        -15    1    3    3    0    0 -0.48607707766E+02 -0.58262337931E+01 -0.62549946555E+02  0.79450033339E+02  0.17770000000E+01 0. -1.
         15    1    3    3    0    0  0.36462393487E+02  0.59416138742E+01 -0.11591849487E+03  0.12167606213E+03  0.17770000000E+01 0.  1.
</event>
<event>
 7    1  0.3243445E-006  0.5117818E+03  0.7546771E-02  0.9373826E-01
        -11   -1    0    0    0    0  0.00000000000E+00  0.00000000000E+00  0.50000000000E+03  0.50000000000E+03  0.00000000000E+00 0.  1.
         11   -1    0    0    0    0 -0.00000000000E+00 -0.00000000000E+00 -0.50000000000E+03  0.50000000000E+03  0.00000000000E+00 0. -1.
         23    2    1    2    0    0 -0.20058874942E+03 -0.11190454667E+03  0.23893797778E+03  0.34370995928E+03  0.91031340326E+02 0.  0.
        -11    1    1    2    0    0 -0.13719149701E+03  0.49836893617E+01  0.96962927436E+02  0.16807186948E+03  0.00000000000E+00 0.  1.
         11    1    1    2    0    0  0.33778024644E+03  0.10692085731E+03 -0.33590090521E+03  0.48821817125E+03  0.00000000000E+00 0. -1.
        -15    1    3    3    0    0 -0.10176198256E+03 -0.74766476227E+02  0.69731313827E+02  0.14426067004E+03  0.17770000000E+01 0.  1.
         15    1    3    3    0    0 -0.98826766863E+02 -0.37138070443E+02  0.16920666395E+03  0.19944928924E+03  0.17770000000E+01 0. -1.
</event>
<event>
 7    1  0.3243445E-006  0.5201411E+03  0.7546771E-02  0.9355837E-01
        -11   -1    0    0    0    0  0.00000000000E+00  0.00000000000E+00  0.50000000000E+03  0.50000000000E+03  0.00000000000E+00 0.  1.
         11   -1    0    0    0    0 -0.00000000000E+00 -0.00000000000E+00 -0.50000000000E+03  0.50000000000E+03  0.00000000000E+00 0.  1.
         23    2    1    2    0    0 -0.20676922260E+02 -0.86601615402E+02 -0.17238309584E+03  0.21032148118E+03  0.81190016681E+02 0.  0.
        -11    1    1    2    0    0 -0.41259688918E+01  0.42124175801E+02  0.47798863343E+03  0.47985894125E+03  0.00000000000E+00 0.  1.
         11    1    1    2    0    0  0.24802891151E+02  0.44477439601E+02 -0.30560553759E+03  0.30981957758E+03  0.00000000000E+00 0.  1.
        -15    1    3    3    0    0 -0.82013156641E+01 -0.91433368250E+02 -0.17398929045E+03  0.19673015359E+03  0.17770000000E+01 0.  1.
         15    1    3    3    0    0 -0.12475606595E+02  0.48317528476E+01  0.16061946158E+01  0.13591327590E+02  0.17770000000E+01 0. -1.
</event>
<event>
 7    1  0.3243445E-006  0.4150616E+03  0.7546771E-02  0.9612916E-01
        -11   -1    0    0    0    0  0.00000000000E+00  0.00000000000E+00  0.50000000000E+03  0.50000000000E+03  0.00000000000E+00 0.  1.
         11   -1    0    0    0    0 -0.00000000000E+00 -0.00000000000E+00 -0.50000000000E+03  0.50000000000E+03  0.00000000000E+00 0. -1.
         23    2    1    2    0    0  0.48667729982E+01  0.63916303690E+02  0.36808818001E+03  0.38486725770E+03  0.92330484851E+02 0.  0.
        -11    1    1    2    0    0  0.12961660928E+03 -0.78930634098E+02  0.62243567798E+02  0.16402674212E+03  0.00000000000E+00 0.  1.
         11    1    1    2    0    0 -0.13448338228E+03  0.15014330408E+02 -0.43033174780E+03  0.45110600018E+03  0.00000000000E+00 0. -1.
        -15    1    3    3    0    0 -0.42753176114E+02  0.32332454843E+02  0.14600477056E+03  0.15554347450E+03  0.17770000000E+01 0. -1.
         15    1    3    3    0    0  0.47619949112E+02  0.31583848847E+02  0.22208340945E+03  0.22932378320E+03  0.17770000000E+01 0.  1.
</event>
<event>
 7    1  0.3243445E-006  0.4444263E+03  0.7546771E-02  0.9533539E-01
        -11   -1    0    0    0    0  0.00000000000E+00  0.00000000000E+00  0.50000000000E+03  0.50000000000E+03  0.00000000000E+00 0.  1.
         11   -1    0    0    0    0 -0.00000000000E+00 -0.00000000000E+00 -0.50000000000E+03  0.50000000000E+03  0.00000000000E+00 0. -1.
         23    2    1    2    0    0  0.12250982797E+02  0.62135901603E+02 -0.90784468039E+01  0.10884766333E+03  0.88059291209E+02 0.  0.
        -11    1    1    2    0    0  0.19897597616E+03  0.15486956392E+02  0.39605566142E+03  0.44349900997E+03  0.00000000000E+00 0.  1.
         11    1    1    2    0    0 -0.21122695895E+03 -0.77622857994E+02 -0.38697721462E+03  0.44765332670E+03  0.00000000000E+00 0. -1.
        -15    1    3    3    0    0 -0.11607022280E+02 -0.51597766729E+01  0.26212823706E+02  0.29182462493E+02  0.17770000000E+01 0. -1.
         15    1    3    3    0    0  0.23858005077E+02  0.67295678276E+02 -0.35291270510E+02  0.79665200835E+02  0.17770000000E+01 0.  1.
</event>
<event>
 6    1  0.3243445E-006  0.3358445E+03  0.7546771E-02  0.9867616E-01
        -11   -1    0    0    0    0  0.00000000000E+00  0.00000000000E+00  0.50000000000E+03  0.50000000000E+03  0.00000000000E+00 0.  1.
         11   -1    0    0    0    0 -0.00000000000E+00 -0.00000000000E+00 -0.50000000000E+03  0.50000000000E+03  0.00000000000E+00 0.  1.
        -11    1    1    2    0    0 -0.49465647778E+02  0.85877570039E+02  0.28018695611E+03  0.29719780908E+03  0.00000000000E+00 0.  1.
         11    1    1    2    0    0  0.15923958303E+03 -0.29208320350E+03 -0.37999540936E+02  0.33483400018E+03  0.00000000000E+00 0.  1.
        -15    1    1    2    0    0 -0.51795302077E+02 -0.39187243424E+01 -0.17310991565E+02  0.54780816675E+02  0.17770000000E+01 0. -1.
         15    1    1    2    0    0 -0.57978633174E+02  0.21012435780E+03 -0.22487642361E+03  0.31318737406E+03  0.17770000000E+01 0.  1.
</event>
<event>
 7    1  0.3243445E-006  0.5121246E+03  0.7546771E-02  0.9373081E-01
        -11   -1    0    0    0    0  0.00000000000E+00  0.00000000000E+00  0.50000000000E+03  0.50000000000E+03  0.00000000000E+00 0.  1.
         11   -1    0    0    0    0 -0.00000000000E+00 -0.00000000000E+00 -0.50000000000E+03  0.50000000000E+03  0.00000000000E+00 0. -1.
         23    2    1    2    0    0  0.11917386690E+03  0.33507231302E+02  0.20231103047E+03  0.25435555100E+03  0.91879530776E+02 0.  0.
        -11    1    1    2    0    0  0.49271161491E+02  0.26099229861E+02  0.25166661950E+03  0.25776909148E+03  0.00000000000E+00 0.  1.
         11    1    1    2    0    0 -0.16844502839E+03 -0.59606461163E+02 -0.45397764997E+03  0.48787535752E+03  0.00000000000E+00 0. -1.
        -15    1    3    3    0    0 -0.11031839415E+02  0.15106885299E+02  0.48349440142E+02  0.51872396854E+02  0.17770000000E+01 0. -1.
         15    1    3    3    0    0  0.13020570631E+03  0.18400346003E+02  0.15396159033E+03  0.20248315415E+03  0.17770000000E+01 0.  1.
</event>
<event>
 7    1  0.3243445E-006  0.5151500E+03  0.7546771E-02  0.9366534E-01
        -11   -1    0    0    0    0  0.00000000000E+00  0.00000000000E+00  0.50000000000E+03  0.50000000000E+03  0.00000000000E+00 0. -1.
         11   -1    0    0    0    0 -0.00000000000E+00 -0.00000000000E+00 -0.50000000000E+03  0.50000000000E+03  0.00000000000E+00 0.  1.
         23    2    1    2    0    0 -0.44498254789E+02 -0.10929052544E+03 -0.46064051646E+03  0.48484998182E+03  0.94685298921E+02 0.  0.
        -11    1    1    2    0    0  0.74823745232E+02  0.19205538262E+02  0.38774173996E+03  0.39536198914E+03  0.00000000000E+00 0. -1.
         11    1    1    2    0    0 -0.30325490443E+02  0.90084987180E+02  0.72898776508E+02  0.11978802904E+03  0.00000000000E+00 0.  1.
        -15    1    3    3    0    0  0.18263340079E+02 -0.19533720051E+02 -0.20480475723E+03  0.20655087055E+03  0.17770000000E+01 0. -1.
         15    1    3    3    0    0 -0.62761594868E+02 -0.89756805390E+02 -0.25583575923E+03  0.27829911127E+03  0.17770000000E+01 0.  1.
</event>
<event>
 7    1  0.3243445E-006  0.3912054E+03  0.7546771E-02  0.9682749E-01
        -11   -1    0    0    0    0  0.00000000000E+00  0.00000000000E+00  0.50000000000E+03  0.50000000000E+03  0.00000000000E+00 0. -1.
         11   -1    0    0    0    0 -0.00000000000E+00 -0.00000000000E+00 -0.50000000000E+03  0.50000000000E+03  0.00000000000E+00 0.  1.
         23    2    1    2    0    0 -0.13962059828E+03  0.22251891618E+02 -0.10375609544E+03  0.19817637020E+03  0.92301073776E+02 0.  0.
        -11    1    1    2    0    0 -0.29774515331E+03  0.80416728729E+02  0.16273472342E+03  0.34871423370E+03  0.00000000000E+00 0. -1.
         11    1    1    2    0    0  0.43736575159E+03 -0.10266862035E+03 -0.58978627983E+02  0.45310939609E+03  0.00000000000E+00 0.  1.
        -15    1    3    3    0    0 -0.11636277139E+03 -0.21447488741E+02 -0.63192300290E+02  0.13415183146E+03  0.17770000000E+01 0. -1.
         15    1    3    3    0    0 -0.23257826896E+02  0.43699380359E+02 -0.40563795151E+02  0.64024538747E+02  0.17770000000E+01 0.  1.
</event>
<event>
 7    1  0.3243445E-006  0.4781334E+03  0.7546771E-02  0.9450113E-01
        -11   -1    0    0    0    0  0.00000000000E+00  0.00000000000E+00  0.50000000000E+03  0.50000000000E+03  0.00000000000E+00 0. -1.
         11   -1    0    0    0    0 -0.00000000000E+00 -0.00000000000E+00 -0.50000000000E+03  0.50000000000E+03  0.00000000000E+00 0. -1.
         23    2    1    2    0    0  0.22062295920E+02 -0.13790324236E+03 -0.43129345160E+03  0.46214232975E+03  0.89763257515E+02 0.  0.
        -11    1    1    2    0    0  0.74601100371E+01  0.17130273496E+03  0.45580282993E+03  0.48698716617E+03  0.00000000000E+00 0. -1.
         11    1    1    2    0    0 -0.29522405957E+02 -0.33399492596E+02 -0.24509378325E+02  0.50870504077E+02  0.00000000000E+00 0. -1.
        -15    1    3    3    0    0  0.16933646693E+02 -0.12181836060E+03 -0.23616809121E+03  0.26627990237E+03  0.17770000000E+01 0. -1.
         15    1    3    3    0    0  0.51286492270E+01 -0.16084881759E+02 -0.19512536039E+03  0.19586242739E+03  0.17770000000E+01 0.  1.
</event>
<event>
 7    1  0.3243445E-006  0.5122965E+03  0.7546771E-02  0.9372708E-01
        -11   -1    0    0    0    0  0.00000000000E+00  0.00000000000E+00  0.50000000000E+03  0.50000000000E+03  0.00000000000E+00 0.  1.
         11   -1    0    0    0    0 -0.00000000000E+00 -0.00000000000E+00 -0.50000000000E+03  0.50000000000E+03  0.00000000000E+00 0. -1.
         23    2    1    2    0    0  0.10887112485E+02  0.85971461365E+02 -0.28276278220E+03  0.30959998716E+03  0.91584603838E+02 0.  0.
        -11    1    1    2    0    0 -0.85190624469E+02 -0.92351451613E+02  0.47124136941E+03  0.48770345637E+03  0.00000000000E+00 0.  1.
         11    1    1    2    0    0  0.74303511984E+02  0.63799902476E+01 -0.18847858721E+03  0.20269655647E+03  0.00000000000E+00 0. -1.
        -15    1    3    3    0    0  0.14488709213E+02  0.53471759793E+02 -0.50322514358E+02  0.74864310391E+02  0.17770000000E+01 0.  1.
         15    1    3    3    0    0 -0.36015967275E+01  0.32499701572E+02 -0.23244026784E+03  0.23473567676E+03  0.17770000000E+01 0. -1.
</event>
<event>
 7    1  0.3243445E-006  0.3941708E+03  0.7546771E-02  0.9673783E-01
        -11   -1    0    0    0    0  0.00000000000E+00  0.00000000000E+00  0.50000000000E+03  0.50000000000E+03  0.00000000000E+00 0.  1.
         11   -1    0    0    0    0 -0.00000000000E+00 -0.00000000000E+00 -0.50000000000E+03  0.50000000000E+03  0.00000000000E+00 0. -1.
         23    2    1    2    0    0  0.24928793923E+03 -0.75909146687E+02 -0.28892120579E+03  0.39972928537E+03  0.91658950656E+02 0.  0.
        -11    1    1    2    0    0 -0.12159624657E+03 -0.43498538966E+02  0.38127493571E+03  0.40255229060E+03  0.00000000000E+00 0.  1.
         11    1    1    2    0    0 -0.12769169266E+03  0.11940768565E+03 -0.92353729920E+02  0.19771842402E+03  0.00000000000E+00 0. -1.
        -15    1    3    3    0    0  0.14226814071E+03  0.44678540028E+01 -0.14568396416E+03  0.20368397266E+03  0.17770000000E+01 0.  1.
         15    1    3    3    0    0  0.10701979853E+03 -0.80377000690E+02 -0.14323724163E+03  0.19604531271E+03  0.17770000000E+01 0. -1.
</event>
<event>
 7    1  0.3243445E-006  0.5100675E+03  0.7546771E-02  0.9377560E-01
        -11   -1    0    0    0    0  0.00000000000E+00  0.00000000000E+00  0.50000000000E+03  0.50000000000E+03  0.00000000000E+00 0.  1.
         11   -1    0    0    0    0 -0.00000000000E+00 -0.00000000000E+00 -0.50000000000E+03  0.50000000000E+03  0.00000000000E+00 0.  1.
         23    2    1    2    0    0  0.31134585131E+02  0.30743330427E+02 -0.35414009839E+03  0.36849311017E+03  0.91964385490E+02 0.  0.
        -11    1    1    2    0    0  0.74881396849E+01 -0.68117801083E+02  0.48511621569E+03  0.48993249514E+03  0.00000000000E+00 0.  1.
         11    1    1    2    0    0 -0.38622724816E+02  0.37374470657E+02 -0.13097611730E+03  0.14157439469E+03  0.00000000000E+00 0.  1.
        -15    1    3    3    0    0  0.25320005659E+02  0.43394036184E+02 -0.35037194134E+03  0.35396016735E+03  0.17770000000E+01 0.  1.
         15    1    3    3    0    0  0.58145794726E+01 -0.12650705757E+02 -0.37681570555E+01  0.14532942826E+02  0.17770000000E+01 0. -1.
</event>
<event>
 7    1  0.3243445E-006  0.5263255E+03  0.7546771E-02  0.9342758E-01
        -11   -1    0    0    0    0  0.00000000000E+00  0.00000000000E+00  0.50000000000E+03  0.50000000000E+03  0.00000000000E+00 0.  1.
         11   -1    0    0    0    0 -0.00000000000E+00 -0.00000000000E+00 -0.50000000000E+03  0.50000000000E+03  0.00000000000E+00 0. -1.
         23    2    1    2    0    0  0.10647037140E+03  0.55082401111E+02 -0.20192047136E+03  0.24870436537E+03  0.81926636077E+02 0.  0.
        -11    1    1    2    0    0 -0.35280764515E+02 -0.46063828795E+02  0.47010734941E+03  0.47367449651E+03  0.00000000000E+00 0.  1.
         11    1    1    2    0    0 -0.71189606888E+02 -0.90185723158E+01 -0.26818687805E+03  0.27762113813E+03  0.00000000000E+00 0. -1.
        -15    1    3    3    0    0  0.79786264993E+02  0.32693334570E+02 -0.19489739042E+03  0.21312637736E+03  0.17770000000E+01 0.  1.
         15    1    3    3    0    0  0.26684106410E+02  0.22389066542E+02 -0.70230809432E+01  0.35577988005E+02  0.17770000000E+01 0. -1.
</event>
<event>
 7    1  0.3243445E-006  0.4839924E+03  0.7546771E-02  0.9436358E-01
        -11   -1    0    0    0    0  0.00000000000E+00  0.00000000000E+00  0.50000000000E+03  0.50000000000E+03  0.00000000000E+00 0. -1.
         11   -1    0    0    0    0 -0.00000000000E+00 -0.00000000000E+00 -0.50000000000E+03  0.50000000000E+03  0.00000000000E+00 0.  1.
         23    2    1    2    0    0  0.56652222607E+02 -0.72966142750E+02 -0.46356614027E+03  0.48118642419E+03  0.90073725922E+02 0.  0.
        -11    1    1    2    0    0 -0.45122823283E+02  0.11090269523E+03  0.46396177240E+03  0.47916177147E+03  0.00000000000E+00 0. -1.
         11    1    1    2    0    0 -0.11529399324E+02 -0.37936552483E+02 -0.39563212674E+00  0.39651804345E+02  0.00000000000E+00 0.  1.
        -15    1    3    3    0    0  0.54314147762E+02 -0.90495175913E+02 -0.33074096372E+03  0.34717739892E+03  0.17770000000E+01 0. -1.
         15    1    3    3    0    0  0.23380748441E+01  0.17529033162E+02 -0.13282517655E+03  0.13400902526E+03  0.17770000000E+01 0.  1.
</event>
<event>
 7    1  0.3243445E-006  0.4053451E+03  0.7546771E-02  0.9640738E-01
        -11   -1    0    0    0    0  0.00000000000E+00  0.00000000000E+00  0.50000000000E+03  0.50000000000E+03  0.00000000000E+00 0. -1.
         11   -1    0    0    0    0 -0.00000000000E+00 -0.00000000000E+00 -0.50000000000E+03  0.50000000000E+03  0.00000000000E+00 0. -1.
         23    2    1    2    0    0 -0.12431633578E+03  0.87472318280E+02 -0.45506230394E+02  0.17392778693E+03  0.71232719001E+02 0.  0.
        -11    1    1    2    0    0  0.57107595087E+02  0.28559072391E+02  0.42179770679E+03  0.42660309830E+03  0.00000000000E+00 0. -1.
         11    1    1    2    0    0  0.67208740690E+02 -0.11603139067E+03 -0.37629147639E+03  0.39946911476E+03  0.00000000000E+00 0. -1.
        -15    1    3    3    0    0 -0.24460629954E+02 -0.11087561280E+02 -0.18519039263E+01  0.26978578725E+02  0.17770000000E+01 0. -1.
         15    1    3    3    0    0 -0.99855705823E+02  0.98559879560E+02 -0.43654326468E+02  0.14694920821E+03  0.17770000000E+01 0.  1.
</event>
<event>
 7    1  0.3243445E-006  0.5234803E+03  0.7546771E-02  0.9348751E-01
        -11   -1    0    0    0    0  0.00000000000E+00  0.00000000000E+00  0.50000000000E+03  0.50000000000E+03  0.00000000000E+00 0.  1.
         11   -1    0    0    0    0 -0.00000000000E+00 -0.00000000000E+00 -0.50000000000E+03  0.50000000000E+03  0.00000000000E+00 0. -1.
         23    2    1    2    0    0 -0.44384076316E+02  0.91638810658E+02 -0.32381676095E+03  0.35429917855E+03  0.10150367186E+03 0.  0.
        -11    1    1    2    0    0  0.13231860588E+03 -0.34307965286E+02  0.45649288146E+03  0.47651967511E+03  0.00000000000E+00 0.  1.
         11    1    1    2    0    0 -0.87934529565E+02 -0.57330845372E+02 -0.13267612052E+03  0.16918114634E+03  0.00000000000E+00 0. -1.
        -15    1    3    3    0    0 -0.93279711563E+01  0.36885198872E+02 -0.18892868188E+02  0.42516198549E+02  0.17770000000E+01 0.  1.
         15    1    3    3    0    0 -0.35056105160E+02  0.54753611786E+02 -0.30492389276E+03  0.31178298000E+03  0.17770000000E+01 0. -1.
</event>
<event>
 7    1  0.3243445E-006  0.5155562E+03  0.7546771E-02  0.9365659E-01
        -11   -1    0    0    0    0  0.00000000000E+00  0.00000000000E+00  0.50000000000E+03  0.50000000000E+03  0.00000000000E+00 0. -1.
         11   -1    0    0    0    0 -0.00000000000E+00 -0.00000000000E+00 -0.50000000000E+03  0.50000000000E+03  0.00000000000E+00 0.  1.
         23    2    1    2    0    0  0.90503206669E+01  0.77708871102E+02 -0.15173049285E+03  0.19355302288E+03  0.91214325935E+02 0.  0.
        -11    1    1    2    0    0  0.87066154308E+02 -0.17522400320E+03  0.44317250078E+03  0.48444383779E+03  0.00000000000E+00 0. -1.
         11    1    1    2    0    0 -0.96116474975E+02  0.97515132098E+02 -0.29144200793E+03  0.32200313933E+03  0.00000000000E+00 0.  1.
        -15    1    3    3    0    0 -0.87943478938E+01  0.37523456054E+02 -0.14374064779E+03  0.14882836378E+03  0.17770000000E+01 0.  1.
         15    1    3    3    0    0  0.17844668561E+02  0.40185415048E+02 -0.79898450514E+01  0.44724659099E+02  0.17770000000E+01 0. -1.
</event>
<event>
 7    1  0.3243445E-006  0.4838026E+03  0.7546771E-02  0.9436800E-01
        -11   -1    0    0    0    0  0.00000000000E+00  0.00000000000E+00  0.50000000000E+03  0.50000000000E+03  0.00000000000E+00 0.  1.
         11   -1    0    0    0    0 -0.00000000000E+00 -0.00000000000E+00 -0.50000000000E+03  0.50000000000E+03  0.00000000000E+00 0.  1.
         23    2    1    2    0    0 -0.87107818605E+02 -0.42301111263E+02 -0.45134179845E+03  0.47082917646E+03  0.92701339267E+02 0.  0.
        -11    1    1    2    0    0  0.64261644114E+02  0.57841363608E+02  0.48095774637E+03  0.48866710145E+03  0.00000000000E+00 0.  1.
         11    1    1    2    0    0  0.22846174490E+02 -0.15540252345E+02 -0.29615947914E+02  0.40503722084E+02  0.00000000000E+00 0.  1.
        -15    1    3    3    0    0 -0.77104434849E+02 -0.37592016105E+02 -0.45154998690E+03  0.45962898293E+03  0.17770000000E+01 0.  1.
         15    1    3    3    0    0 -0.10003383756E+02 -0.47090951580E+01  0.20818844881E+00  0.11200193534E+02  0.17770000000E+01 0. -1.
</event>
<event>
 7    1  0.3243445E-006  0.5365009E+03  0.7546771E-02  0.9321647E-01
        -11   -1    0    0    0    0  0.00000000000E+00  0.00000000000E+00  0.50000000000E+03  0.50000000000E+03  0.00000000000E+00 0.  1.
         11   -1    0    0    0    0 -0.00000000000E+00 -0.00000000000E+00 -0.50000000000E+03  0.50000000000E+03  0.00000000000E+00 0. -1.
         23    2    1    2    0    0  0.13861044581E+03  0.26244621724E+02  0.20233594383E+03  0.26286947126E+03  0.90878429246E+02 0.  0.
        -11    1    1    2    0    0  0.95569413537E+02 -0.20318130950E+03  0.15639048249E+03  0.27363139503E+03  0.00000000000E+00 0.  1.
         11    1    1    2    0    0 -0.23417985934E+03  0.17693668778E+03 -0.35872642632E+03  0.46349913370E+03  0.00000000000E+00 0. -1.
        -15    1    3    3    0    0  0.66072653098E+02 -0.32936216033E+02  0.97434492350E+02  0.12225803795E+03  0.17770000000E+01 0. -1.
         15    1    3    3    0    0  0.72537792709E+02  0.59180837758E+02  0.10490145148E+03  0.14061143332E+03  0.17770000000E+01 0.  1.
</event>
<event>
 7    1  0.3243445E-006  0.3448668E+03  0.7546771E-02  0.9834983E-01
        -11   -1    0    0    0    0  0.00000000000E+00  0.00000000000E+00  0.50000000000E+03  0.50000000000E+03  0.00000000000E+00 0.  1.
         11   -1    0    0    0    0 -0.00000000000E+00 -0.00000000000E+00 -0.50000000000E+03  0.50000000000E+03  0.00000000000E+00 0. -1.
         23    2    1    2    0    0 -0.66117017620E+02  0.18466957116E+03  0.20980164410E+03  0.30253302493E+03  0.95053620521E+02 0.  0.
        -11    1    1    2    0    0 -0.77945521854E+02 -0.17589274489E+03  0.19122563646E+03  0.27125819089E+03  0.00000000000E+00 0.  1.
         11    1    1    2    0    0  0.14406253947E+03 -0.87768262665E+01 -0.40102728056E+03  0.42620878418E+03  0.00000000000E+00 0. -1.
        -15    1    3    3    0    0 -0.11920234338E+02  0.12588615434E+03  0.78659994465E+02  0.14892940710E+03  0.17770000000E+01 0.  1.
         15    1    3    3    0    0 -0.54196783282E+02  0.58783416815E+02  0.13114164964E+03  0.15360361783E+03  0.17770000000E+01 0. -1.
</event>
<event>
 6    1  0.3243445E-006  0.3546395E+03  0.7546771E-02  0.9800822E-01
        -11   -1    0    0    0    0  0.00000000000E+00  0.00000000000E+00  0.50000000000E+03  0.50000000000E+03  0.00000000000E+00 0.  1.
         11   -1    0    0    0    0 -0.00000000000E+00 -0.00000000000E+00 -0.50000000000E+03  0.50000000000E+03  0.00000000000E+00 0. -1.
        -11    1    1    2    0    0 -0.36713300327E+02  0.25913906004E+03  0.28797498350E+03  0.38914073287E+03  0.00000000000E+00 0.  1.
         11    1    1    2    0    0 -0.16392267739E+03 -0.17568288585E+03 -0.25893700687E+03  0.35324707227E+03  0.00000000000E+00 0. -1.
        -15    1    1    2    0    0 -0.20273590645E+02 -0.20685842806E+01 -0.55520876182E+00  0.20463711890E+02  0.17770000000E+01 0.  1.
         15    1    1    2    0    0  0.22090956836E+03 -0.81387589909E+02 -0.28482767868E+02  0.23714848298E+03  0.17770000000E+01 0. -1.
</event>
<event>
 7    1  0.3243445E-006  0.5152168E+03  0.7546771E-02  0.9366390E-01
        -11   -1    0    0    0    0  0.00000000000E+00  0.00000000000E+00  0.50000000000E+03  0.50000000000E+03  0.00000000000E+00 0. -1.
         11   -1    0    0    0    0 -0.00000000000E+00 -0.00000000000E+00 -0.50000000000E+03  0.50000000000E+03  0.00000000000E+00 0. -1.
         23    2    1    2    0    0 -0.10519738029E+03  0.95685007084E+02  0.18035854196E+03  0.24641401904E+03  0.89266767173E+02 0.  0.
        -11    1    1    2    0    0 -0.11901422850E+01  0.12421420010E+03  0.23837858830E+03  0.26880278143E+03  0.00000000000E+00 0. -1.
         11    1    1    2    0    0  0.10638752258E+03 -0.21989920718E+03 -0.41873713026E+03  0.48478319952E+03  0.00000000000E+00 0. -1.
        -15    1    3    3    0    0 -0.10315850260E+03  0.42724793998E+02  0.14351142456E+03  0.18183996092E+03  0.17770000000E+01 0.  1.
         15    1    3    3    0    0 -0.20388776959E+01  0.52960213086E+02  0.36847117401E+02  0.64574058120E+02  0.17770000000E+01 0. -1.
</event>
<event>
 7    1  0.3243445E-006  0.3671133E+03  0.7546771E-02  0.9758895E-01
        -11   -1    0    0    0    0  0.00000000000E+00  0.00000000000E+00  0.50000000000E+03  0.50000000000E+03  0.00000000000E+00 0.  1.
         11   -1    0    0    0    0 -0.00000000000E+00 -0.00000000000E+00 -0.50000000000E+03  0.50000000000E+03  0.00000000000E+00 0. -1.
         23    2    1    2    0    0  0.94029801121E+02 -0.76140662433E+02 -0.17974078034E+03  0.23447108661E+03  0.89615502927E+02 0.  0.
        -11    1    1    2    0    0 -0.97944522052E+02 -0.30269911124E+03  0.21659461942E+03  0.38488064450E+03  0.00000000000E+00 0.  1.
         11    1    1    2    0    0  0.39147209315E+01  0.37883977367E+03 -0.36853839082E+02  0.38064826889E+03  0.00000000000E+00 0. -1.
        -15    1    3    3    0    0 -0.49469069332E+01 -0.43380517116E+02 -0.34496461637E+02  0.55673195955E+02  0.17770000000E+01 0. -1.
         15    1    3    3    0    0  0.98976708054E+02 -0.32760145317E+02 -0.14524431870E+03  0.17879789065E+03  0.17770000000E+01 0.  1.
</event>
<event>
 7    1  0.3243445E-006  0.3819854E+03  0.7546771E-02  0.9711179E-01
        -11   -1    0    0    0    0  0.00000000000E+00  0.00000000000E+00  0.50000000000E+03  0.50000000000E+03  0.00000000000E+00 0.  1.
         11   -1    0    0    0    0 -0.00000000000E+00 -0.00000000000E+00 -0.50000000000E+03  0.50000000000E+03  0.00000000000E+00 0. -1.
         23    2    1    2    0    0  0.18040771324E+03 -0.49636716993E+02 -0.49081276316E+02  0.21191941323E+03  0.86545475615E+02 0.  0.
        -11    1    1    2    0    0 -0.23266577065E+03 -0.18671158762E+03  0.31133795752E+03  0.43119125870E+03  0.00000000000E+00 0.  1.
         11    1    1    2    0    0  0.52258057411E+02  0.23634830461E+03 -0.26225668120E+03  0.35688932807E+03  0.00000000000E+00 0. -1.
        -15    1    3    3    0    0  0.18855307315E+03 -0.49241468038E+02 -0.38856783300E+02  0.19872088694E+03  0.17770000000E+01 0.  1.
         15    1    3    3    0    0 -0.81453599106E+01 -0.39524895467E+00 -0.10224493017E+02  0.13198526291E+02  0.17770000000E+01 0. -1.
</event>
<event>
 7    1  0.3243445E-006  0.4728514E+03  0.7546771E-02  0.9462694E-01
        -11   -1    0    0    0    0  0.00000000000E+00  0.00000000000E+00  0.50000000000E+03  0.50000000000E+03  0.00000000000E+00 0.  1.
         11   -1    0    0    0    0 -0.00000000000E+00 -0.00000000000E+00 -0.50000000000E+03  0.50000000000E+03  0.00000000000E+00 0. -1.
         23    2    1    2    0    0 -0.37040196827E+02  0.35343817740E+02 -0.44278194337E+03  0.45487928287E+03  0.90764260450E+02 0.  0.
        -11    1    1    2    0    0  0.68693570608E+02 -0.78196331193E+02  0.47269723194E+03  0.48402081147E+03  0.00000000000E+00 0.  1.
         11    1    1    2    0    0 -0.31653373780E+02  0.42852513453E+02 -0.29915288573E+02  0.61099905658E+02  0.00000000000E+00 0. -1.
        -15    1    3    3    0    0 -0.53841548001E+01  0.45892032242E+02 -0.96692568532E+02  0.10718058726E+03  0.17770000000E+01 0.  1.
         15    1    3    3    0    0 -0.31656042027E+02 -0.10548214502E+02 -0.34608937484E+03  0.34769869561E+03  0.17770000000E+01 0. -1.
</event>
<event>
 7    1  0.3243445E-006  0.5119280E+03  0.7546771E-02  0.9373509E-01
        -11   -1    0    0    0    0  0.00000000000E+00  0.00000000000E+00  0.50000000000E+03  0.50000000000E+03  0.00000000000E+00 0. -1.
         11   -1    0    0    0    0 -0.00000000000E+00 -0.00000000000E+00 -0.50000000000E+03  0.50000000000E+03  0.00000000000E+00 0.  1.
         23    2    1    2    0    0 -0.53278484585E+02  0.23289531025E+02  0.17563753161E+03  0.20379916846E+03  0.85466715051E+02 0.  0.
        -11    1    1    2    0    0  0.12052169879E+01  0.35488810318E+02  0.30607587283E+03  0.30812878498E+03  0.00000000000E+00 0. -1.
         11    1    1    2    0    0  0.52073267597E+02 -0.58778341343E+02 -0.48171340444E+03  0.48807204655E+03  0.00000000000E+00 0.  1.
        -15    1    3    3    0    0 -0.35808107920E+02  0.27661493758E+02  0.17964489820E+03  0.18526420596E+03  0.17770000000E+01 0. -1.
         15    1    3    3    0    0 -0.17470376666E+02 -0.43719627322E+01 -0.40073665964E+01  0.18534962504E+02  0.17770000000E+01 0.  1.
</event>
<event>
 7    1  0.3243445E-006  0.5338468E+03  0.7546771E-02  0.9327105E-01
        -11   -1    0    0    0    0  0.00000000000E+00  0.00000000000E+00  0.50000000000E+03  0.50000000000E+03  0.00000000000E+00 0.  1.
         11   -1    0    0    0    0 -0.00000000000E+00 -0.00000000000E+00 -0.50000000000E+03  0.50000000000E+03  0.00000000000E+00 0.  1.
         23    2    1    2    0    0 -0.12202378068E+02 -0.35659668209E+02  0.35355825404E+02  0.10381488337E+03  0.90038800809E+02 0.  0.
        -11    1    1    2    0    0  0.34356488310E+02 -0.32110085048E+01  0.42864530147E+03  0.43003194455E+03  0.00000000000E+00 0.  1.
         11    1    1    2    0    0 -0.22154110242E+02  0.38870676714E+02 -0.46400112687E+03  0.46615317208E+03  0.00000000000E+00 0.  1.
        -15    1    3    3    0    0  0.12599674818E+02 -0.38431230272E+02 -0.18440510026E+02  0.44485069459E+02  0.17770000000E+01 0. -1.
         15    1    3    3    0    0 -0.24802052886E+02  0.27715620627E+01  0.53796335430E+02  0.59329813908E+02  0.17770000000E+01 0.  1.
</event>
<event>
 7    1  0.3243445E-006  0.5245383E+03  0.7546771E-02  0.9346518E-01
        -11   -1    0    0    0    0  0.00000000000E+00  0.00000000000E+00  0.50000000000E+03  0.50000000000E+03  0.00000000000E+00 0.  1.
         11   -1    0    0    0    0 -0.00000000000E+00 -0.00000000000E+00 -0.50000000000E+03  0.50000000000E+03  0.00000000000E+00 0. -1.
         23    2    1    2    0    0 -0.44339648598E+02  0.56002004949E+01 -0.98102227616E+02  0.14347868881E+03  0.94682207388E+02 0.  0.
        -11    1    1    2    0    0  0.77995342515E+02 -0.19896183110E+03  0.42472897735E+03  0.47546165764E+03  0.00000000000E+00 0.  1.
         11    1    1    2    0    0 -0.33655693916E+02  0.19336163061E+03 -0.32662674973E+03  0.38105965355E+03  0.00000000000E+00 0. -1.
        -15    1    3    3    0    0 -0.66342395095E+02 -0.18893760477E+02 -0.80755289571E+02  0.10622081761E+03  0.17770000000E+01 0.  1.
         15    1    3    3    0    0  0.22002746497E+02  0.24493960972E+02 -0.17346938045E+02  0.37257871196E+02  0.17770000000E+01 0. -1.
</event>
<event>
 7    1  0.3243445E-006  0.5276621E+03  0.7546771E-02  0.9339956E-01
        -11   -1    0    0    0    0  0.00000000000E+00  0.00000000000E+00  0.50000000000E+03  0.50000000000E+03  0.00000000000E+00 0. -1.
         11   -1    0    0    0    0 -0.00000000000E+00 -0.00000000000E+00 -0.50000000000E+03  0.50000000000E+03  0.00000000000E+00 0. -1.
         23    2    1    2    0    0 -0.12156040314E+01 -0.11294400226E+03 -0.26855156020E+03  0.30499021866E+03  0.90228973478E+02 0.  0.
        -11    1    1    2    0    0  0.94406352934E+02  0.48538134558E+02  0.46025486199E+03  0.47233785362E+03  0.00000000000E+00 0. -1.
         11    1    1    2    0    0 -0.93190748903E+02  0.64405867701E+02 -0.19170330179E+03  0.22267192771E+03  0.00000000000E+00 0. -1.
        -15    1    3    3    0    0 -0.22449111862E+02 -0.61362068848E+02 -0.58728827603E+02  0.87872060619E+02  0.17770000000E+01 0.  1.
         15    1    3    3    0    0  0.21233507831E+02 -0.51581933411E+02 -0.20982273260E+03  0.21711815805E+03  0.17770000000E+01 0. -1.
</event>
<event>
 7    1  0.3243445E-006  0.3301155E+03  0.7546771E-02  0.9888915E-01
        -11   -1    0    0    0    0  0.00000000000E+00  0.00000000000E+00  0.50000000000E+03  0.50000000000E+03  0.00000000000E+00 0.  1.
         11   -1    0    0    0    0 -0.00000000000E+00 -0.00000000000E+00 -0.50000000000E+03  0.50000000000E+03  0.00000000000E+00 0. -1.
         23    2    1    2    0    0 -0.20924906305E+03 -0.20272664547E+03 -0.92965658096E+02  0.32155342481E+03  0.99351538732E+02 0.  0.
        -11    1    1    2    0    0  0.11832218114E+03  0.10475809044E+03  0.35261762829E+03  0.38641116423E+03  0.00000000000E+00 0.  1.
         11    1    1    2    0    0  0.90926881916E+02  0.97968555031E+02 -0.25965197019E+03  0.29203541096E+03  0.00000000000E+00 0. -1.
        -15    1    3    3    0    0 -0.18225126003E+03 -0.21154325528E+03 -0.87097234242E+02  0.29249813090E+03  0.17770000000E+01 0.  1.
         15    1    3    3    0    0 -0.26997803029E+02  0.88166098092E+01 -0.58684238538E+01  0.29055293915E+02  0.17770000000E+01 0. -1.
</event>
<event>
 7    1  0.3243445E-006  0.5040289E+03  0.7546771E-02  0.9390840E-01
        -11   -1    0    0    0    0  0.00000000000E+00  0.00000000000E+00  0.50000000000E+03  0.50000000000E+03  0.00000000000E+00 0.  1.
         11   -1    0    0    0    0 -0.00000000000E+00 -0.00000000000E+00 -0.50000000000E+03  0.50000000000E+03  0.00000000000E+00 0. -1.
         23    2    1    2    0    0 -0.27025242383E+02 -0.22132646072E+02 -0.49225826145E+03  0.50402893517E+03  0.10250245743E+03 0.  0.
        -11    1    1    2    0    0  0.29422128371E+02  0.17279358176E+02  0.48770677387E+03  0.48889890073E+03  0.00000000000E+00 0.  1.
         11    1    1    2    0    0 -0.23968859877E+01  0.48532878962E+01  0.45514875780E+01  0.70721640969E+01  0.00000000000E+00 0. -1.
        -15    1    3    3    0    0 -0.97718968236E+01 -0.31465497127E+02 -0.42334870552E+02  0.53674635264E+02  0.17770000000E+01 0.  1.
         15    1    3    3    0    0 -0.17253345560E+02  0.93328510547E+01 -0.44992339090E+03  0.45035429991E+03  0.17770000000E+01 0. -1.
</event>
<event>
 7    1  0.3243445E-006  0.5069016E+03  0.7546771E-02  0.9384498E-01
        -11   -1    0    0    0    0  0.00000000000E+00  0.00000000000E+00  0.50000000000E+03  0.50000000000E+03  0.00000000000E+00 0. -1.
         11   -1    0    0    0    0 -0.00000000000E+00 -0.00000000000E+00 -0.50000000000E+03  0.50000000000E+03  0.00000000000E+00 0.  1.
         23    2    1    2    0    0 -0.56378720047E+02 -0.72679497286E+02 -0.41139094457E+03  0.42676803187E+03  0.66540020719E+02 0.  0.
        -11    1    1    2    0    0  0.53327479067E+02  0.48675082174E+02  0.48778374927E+03  0.49309843815E+03  0.00000000000E+00 0. -1.
         11    1    1    2    0    0  0.30512409801E+01  0.24004415111E+02 -0.76392804706E+02  0.80133529980E+02  0.00000000000E+00 0.  1.
        -15    1    3    3    0    0 -0.70556945898E+02 -0.68722899016E+02 -0.36540701988E+03  0.37845286017E+03  0.17770000000E+01 0.  1.
         15    1    3    3    0    0  0.14178225851E+02 -0.39565982695E+01 -0.45983924684E+02  0.48315171701E+02  0.17770000000E+01 0. -1.
</event>
<event>
 7    1  0.3243445E-006  0.3687005E+03  0.7546771E-02  0.9753688E-01
        -11   -1    0    0    0    0  0.00000000000E+00  0.00000000000E+00  0.50000000000E+03  0.50000000000E+03  0.00000000000E+00 0. -1.
         11   -1    0    0    0    0 -0.00000000000E+00 -0.00000000000E+00 -0.50000000000E+03  0.50000000000E+03  0.00000000000E+00 0.  1.
         23    2    1    2    0    0  0.69384755835E+02 -0.15082243098E+03 -0.13340942366E+03  0.23245846374E+03  0.93151559372E+02 0.  0.
        -11    1    1    2    0    0  0.17166746457E+03 -0.90046620709E+02  0.32365163805E+03  0.37726448959E+03  0.00000000000E+00 0. -1.
         11    1    1    2    0    0 -0.24105222041E+03  0.24086905169E+03 -0.19024221438E+03  0.39027704667E+03  0.00000000000E+00 0.  1.
        -15    1    3    3    0    0  0.32415356823E+01 -0.16118438731E+02 -0.65815799269E+02  0.67861541267E+02  0.17770000000E+01 0.  1.
         15    1    3    3    0    0  0.66143220153E+02 -0.13470399225E+03 -0.67593624393E+02  0.16459692247E+03  0.17770000000E+01 0. -1.
</event>
<event>
 7    1  0.3243445E-006  0.4025794E+03  0.7546771E-02  0.9648810E-01
        -11   -1    0    0    0    0  0.00000000000E+00  0.00000000000E+00  0.50000000000E+03  0.50000000000E+03  0.00000000000E+00 0. -1.
         11   -1    0    0    0    0 -0.00000000000E+00 -0.00000000000E+00 -0.50000000000E+03  0.50000000000E+03  0.00000000000E+00 0. -1.
         23    2    1    2    0    0  0.34559060373E+02 -0.41047905762E+02 -0.41032775110E+03  0.42348509759E+03  0.89952795055E+02 0.  0.
        -11    1    1    2    0    0 -0.62201641102E+01 -0.13581469363E+03  0.36821374592E+03  0.39251201781E+03  0.00000000000E+00 0. -1.
         11    1    1    2    0    0 -0.28338896262E+02  0.17686259939E+03  0.42114005186E+02  0.18400288459E+03  0.00000000000E+00 0. -1.
        -15    1    3    3    0    0  0.20092830729E+02 -0.64225653702E+02 -0.19225457667E+03  0.20369986848E+03  0.17770000000E+01 0.  1.
         15    1    3    3    0    0  0.14466229643E+02  0.23177747940E+02 -0.21807317443E+03  0.21978522911E+03  0.17770000000E+01 0. -1.
</event>
<event>
 7    1  0.3243445E-006  0.4092418E+03  0.7546771E-02  0.9629481E-01
        -11   -1    0    0    0    0  0.00000000000E+00  0.00000000000E+00  0.50000000000E+03  0.50000000000E+03  0.00000000000E+00 0.  1.
         11   -1    0    0    0    0 -0.00000000000E+00 -0.00000000000E+00 -0.50000000000E+03  0.50000000000E+03  0.00000000000E+00 0.  1.
         23    2    1    2    0    0 -0.91120389346E+02  0.19812652495E+03 -0.28191236204E+03  0.36814181009E+03  0.92177910706E+02 0.  0.
        -11    1    1    2    0    0  0.47800732332E+02 -0.36591873717E+03  0.27170638614E+03  0.45826388958E+03  0.00000000000E+00 0.  1.
         11    1    1    2    0    0  0.43319657013E+02  0.16779221222E+03  0.10205975898E+02  0.17359430034E+03  0.00000000000E+00 0.  1.
        -15    1    3    3    0    0 -0.58627571416E+02  0.18183193856E+03 -0.26810732228E+03  0.32921837737E+03  0.17770000000E+01 0.  1.
         15    1    3    3    0    0 -0.32492817930E+02  0.16294586388E+02 -0.13805039757E+02  0.38923432714E+02  0.17770000000E+01 0. -1.
</event>
<event>
 7    1  0.3243445E-006  0.5027055E+03  0.7546771E-02  0.9393776E-01
        -11   -1    0    0    0    0  0.00000000000E+00  0.00000000000E+00  0.50000000000E+03  0.50000000000E+03  0.00000000000E+00 0. -1.
         11   -1    0    0    0    0 -0.00000000000E+00 -0.00000000000E+00 -0.50000000000E+03  0.50000000000E+03  0.00000000000E+00 0. -1.
         23    2    1    2    0    0 -0.27551237380E+02  0.40120448333E+02 -0.49192621466E+03  0.50270546507E+03  0.91392903925E+02 0.  0.
        -11    1    1    2    0    0  0.33515342518E+02 -0.24598754355E+02  0.45379601138E+03  0.45569638669E+03  0.00000000000E+00 0. -1.
         11    1    1    2    0    0 -0.59641051379E+01 -0.15521693978E+02  0.38130203283E+02  0.41598148233E+02  0.00000000000E+00 0. -1.
        -15    1    3    3    0    0 -0.54963853156E+02  0.25026376885E+00 -0.24882406545E+03  0.25482868964E+03  0.17770000000E+01 0.  1.
         15    1    3    3    0    0  0.27412615775E+02  0.39870184564E+02 -0.24310214921E+03  0.24787677544E+03  0.17770000000E+01 0. -1.
</event>
<event>
 7    1  0.3243445E-006  0.5107158E+03  0.7546771E-02  0.9376146E-01
        -11   -1    0    0    0    0  0.00000000000E+00  0.00000000000E+00  0.50000000000E+03  0.50000000000E+03  0.00000000000E+00 0.  1.
         11   -1    0    0    0    0 -0.00000000000E+00 -0.00000000000E+00 -0.50000000000E+03  0.50000000000E+03  0.00000000000E+00 0. -1.
         23    2    1    2    0    0  0.74132541651E+02  0.27253238367E+02  0.17047907644E+03  0.20867950120E+03  0.90805539386E+02 0.  0.
        -11    1    1    2    0    0  0.89670601325E+02  0.41359828119E+02  0.28543735349E+03  0.30203631386E+03  0.00000000000E+00 0.  1.
         11    1    1    2    0    0 -0.16380314298E+03 -0.68613066486E+02 -0.45591642994E+03  0.48928418493E+03  0.00000000000E+00 0. -1.
        -15    1    3    3    0    0  0.45846991969E+02  0.55440371060E+02  0.69364171023E+02  0.99950624643E+02  0.17770000000E+01 0. -1.
         15    1    3    3    0    0  0.28285549682E+02 -0.28187132693E+02  0.10111490542E+03  0.10872887656E+03  0.17770000000E+01 0.  1.
</event>
<event>
 7    1  0.4691807E-006  0.5083732E+03  0.7546771E-02  0.9381267E-01
        -11   -1    0    0    0    0  0.00000000000E+00  0.00000000000E+00  0.50000000000E+03  0.50000000000E+03  0.00000000000E+00 0.  1.
         11   -1    0    0    0    0 -0.00000000000E+00 -0.00000000000E+00 -0.50000000000E+03  0.50000000000E+03  0.00000000000E+00 0. -1.
         23    2    1    2    0    0 -0.91027534345E+02 -0.10497815710E+02  0.19177203365E+03  0.22835517864E+03  0.83506637940E+02 0.  0.
        -11    1    1    2    0    0 -0.13956977282E+03  0.12910051681E+02  0.24241224163E+03  0.28001800979E+03  0.00000000000E+00 0.  1.
         11    1    1    2    0    0  0.23059730716E+03 -0.24122359718E+01 -0.43418427527E+03  0.49162681156E+03  0.00000000000E+00 0. -1.
        -15    1    3    3    0    0 -0.25377926889E+02  0.34607923015E+02  0.83846394281E+02  0.94207871601E+02  0.17770000000E+01 0. -1.
         15    1    3    3    0    0 -0.65649607456E+02 -0.45105738724E+02  0.10792563937E+03  0.13414730704E+03  0.17770000000E+01 0.  1.
</event>
<event>
 7    1  0.3243445E-006  0.4522538E+03  0.7546771E-02  0.9513479E-01
        -11   -1    0    0    0    0  0.00000000000E+00  0.00000000000E+00  0.50000000000E+03  0.50000000000E+03  0.00000000000E+00 0. -1.
         11   -1    0    0    0    0 -0.00000000000E+00 -0.00000000000E+00 -0.50000000000E+03  0.50000000000E+03  0.00000000000E+00 0.  1.
         23    2    1    2    0    0 -0.36684041757E+02  0.19566853311E+03 -0.39452097181E+03  0.45123279755E+03  0.91281688307E+02 0.  0.
        -11    1    1    2    0    0  0.98194799511E+02 -0.26122711632E+03  0.35232250729E+03  0.44945853435E+03  0.00000000000E+00 0. -1.
         11    1    1    2    0    0 -0.61510757754E+02  0.65558583216E+02  0.42198464514E+02  0.99308668102E+02  0.00000000000E+00 0.  1.
        -15    1    3    3    0    0 -0.17889295406E+01  0.23440113031E+02 -0.52804719871E+01  0.24159476013E+02  0.17770000000E+01 0. -1.
         15    1    3    3    0    0 -0.34895112216E+02  0.17222842008E+03 -0.38924049982E+03  0.42707332154E+03  0.17770000000E+01 0.  1.
</event>
