<event>
 7    1  0.3165060E-007  0.1776564E+03  0.7546771E-02  0.1072377E+00
        -11   -1    0    0    0    0  0.00000000000E+00  0.00000000000E+00  0.18250000000E+03  0.18250000000E+03  0.00000000000E+00 0. -1.
         11   -1    0    0    0    0 -0.00000000000E+00 -0.00000000000E+00 -0.18250000000E+03  0.18250000000E+03  0.00000000000E+00 0.  1.
         23    2    1    2    0    0 -0.68618833431E+01 -0.33148171120E+02 -0.15600221392E+03  0.18380056768E+03  0.91104726773E+02 0.  0.
        -11    1    1    2    0    0 -0.57879343607E+01  0.31524865814E+02  0.85173550771E+01  0.33164177757E+02  0.00000000000E+00 0.  1.
         11    1    1    2    0    0  0.12649817704E+02  0.16233053058E+01  0.14748485884E+03  0.14803525457E+03  0.00000000000E+00 0. -1.
        -15    1    3    3    0    0 -0.21836622681E+02 -0.60346805415E+02 -0.12100892630E+03  0.13698501008E+03  0.17770000000E+01 0.  1.
         15    1    3    3    0    0  0.14974739338E+02  0.27198634296E+02 -0.34993287616E+02  0.46815557595E+02  0.17770000000E+01 0. -1.
</event>
<event>
 7    1  0.3165060E-007  0.1925251E+03  0.7546771E-02  0.1060744E+00
        -11   -1    0    0    0    0  0.00000000000E+00  0.00000000000E+00  0.18250000000E+03  0.18250000000E+03  0.00000000000E+00 0.  1.
         11   -1    0    0    0    0 -0.00000000000E+00 -0.00000000000E+00 -0.18250000000E+03  0.18250000000E+03  0.00000000000E+00 0.  1.
         23    2    1    2    0    0  0.29243121815E+02  0.15553853367E+02 -0.16590606352E+03  0.19252510157E+03  0.91891296075E+02 0.  0.
        -11    1    1    2    0    0 -0.81923421095E+01 -0.22873468028E+02  0.99720419174E+02  0.10263757601E+03  0.00000000000E+00 0.  1.
         11    1    1    2    0    0 -0.21050779706E+02  0.73196146620E+01  0.66185644347E+02  0.69837322419E+02  0.00000000000E+00 0.  1.
        -15    1    3    3    0    0  0.19851274560E+02 -0.26706634570E+02 -0.16933152685E+02  0.37379229801E+02  0.17770000000E+01 0. -1.
         15    1    3    3    0    0  0.93918472556E+01  0.42260487936E+02 -0.14897291084E+03  0.15514587177E+03  0.17770000000E+01 0.  1.
</event>
<event>
 7    1  0.3165060E-007  0.1814636E+03  0.7546771E-02  0.1069283E+00
        -11   -1    0    0    0    0  0.00000000000E+00  0.00000000000E+00  0.18250000000E+03  0.18250000000E+03  0.00000000000E+00 0.  1.
         11   -1    0    0    0    0 -0.00000000000E+00 -0.00000000000E+00 -0.18250000000E+03  0.18250000000E+03  0.00000000000E+00 0.  1.
         23    2    1    2    0    0  0.24284398600E+02 -0.39878146315E+02 -0.14022101701E+03  0.18405659702E+03  0.10970368602E+03 0.  0.
        -11    1    1    2    0    0 -0.13880865184E+02  0.71491295949E+02  0.12427024208E+03  0.14403741487E+03  0.00000000000E+00 0.  1.
         11    1    1    2    0    0 -0.10403533416E+02 -0.31613149634E+02  0.15950774930E+02  0.36905988107E+02  0.00000000000E+00 0.  1.
        -15    1    3    3    0    0  0.97266914076E+01  0.38201920820E+02 -0.40312922456E+02  0.56411742803E+02  0.17770000000E+01 0. -1.
         15    1    3    3    0    0  0.14557707193E+02 -0.78080067135E+02 -0.99908094556E+02  0.12764485422E+03  0.17770000000E+01 0.  1.
</event>
<event>
 7    1  0.3165060E-007  0.1391271E+03  0.7546771E-02  0.1109419E+00
        -11   -1    0    0    0    0  0.00000000000E+00  0.00000000000E+00  0.18250000000E+03  0.18250000000E+03  0.00000000000E+00 0. -1.
         11   -1    0    0    0    0 -0.00000000000E+00 -0.00000000000E+00 -0.18250000000E+03  0.18250000000E+03  0.00000000000E+00 0.  1.
         23    2    1    2    0    0  0.10693638517E+03 -0.36774896067E+02 -0.15178575025E+02  0.14628402054E+03  0.91546939167E+02 0.  0.
        -11    1    1    2    0    0 -0.11463758875E+02  0.61231546103E+02  0.79521310429E+02  0.10101662644E+03  0.00000000000E+00 0. -1.
         11    1    1    2    0    0 -0.95472626293E+02 -0.24456650036E+02 -0.64342735404E+02  0.11769935302E+03  0.00000000000E+00 0.  1.
        -15    1    3    3    0    0  0.94407500176E+02 -0.35671778258E+02  0.25132114951E+02  0.10401938658E+03  0.17770000000E+01 0. -1.
         15    1    3    3    0    0  0.12528884992E+02 -0.11031178092E+01 -0.40310689976E+02  0.42264633955E+02  0.17770000000E+01 0.  1.
</event>
<event>
 6    1  0.3165060E-007  0.1423306E+03  0.7546771E-02  0.1105859E+00
        -11   -1    0    0    0    0  0.00000000000E+00  0.00000000000E+00  0.18250000000E+03  0.18250000000E+03  0.00000000000E+00 0.  1.
         11   -1    0    0    0    0 -0.00000000000E+00 -0.00000000000E+00 -0.18250000000E+03  0.18250000000E+03  0.00000000000E+00 0. -1.
        -11    1    1    2    0    0  0.42515861660E+02  0.28801712607E+02  0.12443492022E+03  0.13461495649E+03  0.00000000000E+00 0.  1.
         11    1    1    2    0    0 -0.70169494400E+02  0.15133227897E+02 -0.13741233128E+03  0.15503200095E+03  0.00000000000E+00 0. -1.
        -15    1    1    2    0    0  0.34527511992E+02 -0.35235523544E+02 -0.94599873749E+01  0.50262712759E+02  0.17770000000E+01 0.  1.
         15    1    1    2    0    0 -0.68738792520E+01 -0.86994169600E+01  0.22437398443E+02  0.25090329796E+02  0.17770000000E+01 0. -1.
</event>
<event>
 7    1  0.3165060E-007  0.1719745E+03  0.7546771E-02  0.1077156E+00
        -11   -1    0    0    0    0  0.00000000000E+00  0.00000000000E+00  0.18250000000E+03  0.18250000000E+03  0.00000000000E+00 0. -1.
         11   -1    0    0    0    0 -0.00000000000E+00 -0.00000000000E+00 -0.18250000000E+03  0.18250000000E+03  0.00000000000E+00 0. -1.
         23    2    1    2    0    0  0.68421159566E+01 -0.22576246694E+01 -0.16119379391E+03  0.18384193022E+03  0.88105077575E+02 0.  0.
        -11    1    1    2    0    0 -0.29158849471E+02 -0.21432012079E+02  0.13383305630E+03  0.13863930396E+03  0.00000000000E+00 0. -1.
         11    1    1    2    0    0  0.22316733515E+02  0.23689636748E+02  0.27360737609E+02  0.42518765817E+02  0.00000000000E+00 0. -1.
        -15    1    3    3    0    0 -0.85685969168E+01  0.33365562134E+02 -0.12854149801E+03  0.13308927841E+03  0.17770000000E+01 0. -1.
         15    1    3    3    0    0  0.15410712873E+02 -0.35623186803E+02 -0.32652295898E+02  0.50752651810E+02  0.17770000000E+01 0.  1.
</event>
<event>
 7    1  0.3165060E-007  0.1440979E+03  0.7546771E-02  0.1103940E+00
        -11   -1    0    0    0    0  0.00000000000E+00  0.00000000000E+00  0.18250000000E+03  0.18250000000E+03  0.00000000000E+00 0. -1.
         11   -1    0    0    0    0 -0.00000000000E+00 -0.00000000000E+00 -0.18250000000E+03  0.18250000000E+03  0.00000000000E+00 0. -1.
         23    2    1    2    0    0 -0.22290337135E+02  0.10605993803E+03 -0.75652773721E+02  0.16102739292E+03  0.91983202353E+02 0.  0.
        -11    1    1    2    0    0  0.88788248345E+02 -0.47981516824E+02  0.45145028343E+02  0.11056062855E+03  0.00000000000E+00 0. -1.
         11    1    1    2    0    0 -0.66497911210E+02 -0.58078421205E+02  0.30507745378E+02  0.93411978531E+02  0.00000000000E+00 0. -1.
        -15    1    3    3    0    0 -0.34223128079E+02  0.11491466356E+03 -0.47183473777E+02  0.12886442614E+03  0.17770000000E+01 0. -1.
         15    1    3    3    0    0  0.11932790944E+02 -0.88547255338E+01 -0.28469299944E+02  0.32162966783E+02  0.17770000000E+01 0.  1.
</event>
<event>
 7    1  0.3165060E-007  0.1271043E+03  0.7546771E-02  0.1123784E+00
        -11   -1    0    0    0    0  0.00000000000E+00  0.00000000000E+00  0.18250000000E+03  0.18250000000E+03  0.00000000000E+00 0.  1.
         11   -1    0    0    0    0 -0.00000000000E+00 -0.00000000000E+00 -0.18250000000E+03  0.18250000000E+03  0.00000000000E+00 0. -1.
         23    2    1    2    0    0  0.42121168455E+02  0.26598308588E+02  0.17635840253E+02  0.10535650486E+03  0.91144431550E+02 0.  0.
        -11    1    1    2    0    0 -0.69659786452E+01 -0.80616482796E+02  0.98103883104E+02  0.12716884067E+03  0.00000000000E+00 0.  1.
         11    1    1    2    0    0 -0.35155189810E+02  0.54018174208E+02 -0.11573972336E+03  0.13247465447E+03  0.00000000000E+00 0. -1.
        -15    1    3    3    0    0 -0.13414377583E+02 -0.10091948523E+02 -0.22105389446E+02  0.27813646336E+02  0.17770000000E+01 0. -1.
         15    1    3    3    0    0  0.55535546038E+02  0.36690257110E+02  0.39741229699E+02  0.77542858521E+02  0.17770000000E+01 0.  1.
</event>
<event>
 7    1  0.3165060E-007  0.1590500E+03  0.7546771E-02  0.1088823E+00
        -11   -1    0    0    0    0  0.00000000000E+00  0.00000000000E+00  0.18250000000E+03  0.18250000000E+03  0.00000000000E+00 0.  1.
         11   -1    0    0    0    0 -0.00000000000E+00 -0.00000000000E+00 -0.18250000000E+03  0.18250000000E+03  0.00000000000E+00 0. -1.
         23    2    1    2    0    0 -0.63156556999E+02  0.78943916726E+02  0.22440645906E+02  0.13995213484E+03  0.94138859023E+02 0.  0.
        -11    1    1    2    0    0  0.17596458151E+02  0.60667408691E+02  0.28913505258E+02  0.69470573648E+02  0.00000000000E+00 0.  1.
         11    1    1    2    0    0  0.45560098848E+02 -0.13961132542E+03 -0.51354151164E+02  0.15557729151E+03  0.00000000000E+00 0. -1.
        -15    1    3    3    0    0 -0.75042773711E+02  0.36704962062E+02  0.40022518559E+02  0.92647891757E+02  0.17770000000E+01 0.  1.
         15    1    3    3    0    0  0.11886216712E+02  0.42238954664E+02 -0.17581872653E+02  0.47304243085E+02  0.17770000000E+01 0. -1.
</event>
<event>
 7    1  0.3165060E-007  0.1457955E+03  0.7546771E-02  0.1102124E+00
        -11   -1    0    0    0    0  0.00000000000E+00  0.00000000000E+00  0.18250000000E+03  0.18250000000E+03  0.00000000000E+00 0.  1.
         11   -1    0    0    0    0 -0.00000000000E+00 -0.00000000000E+00 -0.18250000000E+03  0.18250000000E+03  0.00000000000E+00 0. -1.
         23    2    1    2    0    0  0.49004185227E+01  0.19813336580E+02 -0.63711040914E+02  0.11962374196E+03  0.99167335837E+02 0.  0.
        -11    1    1    2    0    0 -0.33006114579E+02  0.20050097655E+02  0.14528625808E+03  0.15033132343E+03  0.00000000000E+00 0.  1.
         11    1    1    2    0    0  0.28105696056E+02 -0.39863434235E+02 -0.81575217170E+02  0.95044934616E+02  0.00000000000E+00 0. -1.
        -15    1    3    3    0    0  0.35005321122E+02 -0.12113168180E+02  0.56656004965E+01  0.37514771866E+02  0.17770000000E+01 0.  1.
         15    1    3    3    0    0 -0.30104902599E+02  0.31926504760E+02 -0.69376641410E+02  0.82108970089E+02  0.17770000000E+01 0. -1.
</event>
<event>
 7    1  0.3165060E-007  0.1634993E+03  0.7546771E-02  0.1084673E+00
        -11   -1    0    0    0    0  0.00000000000E+00  0.00000000000E+00  0.18250000000E+03  0.18250000000E+03  0.00000000000E+00 0.  1.
         11   -1    0    0    0    0 -0.00000000000E+00 -0.00000000000E+00 -0.18250000000E+03  0.18250000000E+03  0.00000000000E+00 0. -1.
         23    2    1    2    0    0 -0.67312959933E+01  0.38494828067E+02 -0.10481885385E+03  0.14316910817E+03  0.89348974697E+02 0.  0.
        -11    1    1    2    0    0 -0.22192002572E+02 -0.69215052681E+02  0.14586135904E+03  0.16296853855E+03  0.00000000000E+00 0.  1.
         11    1    1    2    0    0  0.28923298566E+02  0.30720224615E+02 -0.41042505196E+02  0.58862353275E+02  0.00000000000E+00 0. -1.
        -15    1    3    3    0    0  0.15279053901E+01  0.29377225856E+02  0.73017223155E+01  0.30361633217E+02  0.17770000000E+01 0.  1.
         15    1    3    3    0    0 -0.82592013835E+01  0.91176022108E+01 -0.11212057616E+03  0.11280747496E+03  0.17770000000E+01 0. -1.
</event>
<event>
 7    1  0.3165060E-007  0.1831439E+03  0.7546771E-02  0.1067943E+00
        -11   -1    0    0    0    0  0.00000000000E+00  0.00000000000E+00  0.18250000000E+03  0.18250000000E+03  0.00000000000E+00 0. -1.
         11   -1    0    0    0    0 -0.00000000000E+00 -0.00000000000E+00 -0.18250000000E+03  0.18250000000E+03  0.00000000000E+00 0. -1.
         23    2    1    2    0    0  0.18499362707E+02  0.12310274266E+02 -0.14956711606E+03  0.17771391433E+03  0.93371001211E+02 0.  0.
        -11    1    1    2    0    0 -0.31934535994E+02  0.34810524345E+01  0.16061296432E+03  0.16379394562E+03  0.00000000000E+00 0. -1.
         11    1    1    2    0    0  0.13435173287E+02 -0.15791326700E+02 -0.11045848258E+02  0.23492140046E+02  0.00000000000E+00 0. -1.
        -15    1    3    3    0    0  0.17231102228E+02  0.51070363079E+02 -0.63588736700E+02  0.83377323254E+02  0.17770000000E+01 0.  1.
         15    1    3    3    0    0  0.12682604791E+01 -0.38760088813E+02 -0.85978379361E+02  0.94336591077E+02  0.17770000000E+01 0. -1.
</event>
<event>
 7    1  0.3165060E-007  0.1357182E+03  0.7546771E-02  0.1113324E+00
        -11   -1    0    0    0    0  0.00000000000E+00  0.00000000000E+00  0.18250000000E+03  0.18250000000E+03  0.00000000000E+00 0.  1.
         11   -1    0    0    0    0 -0.00000000000E+00 -0.00000000000E+00 -0.18250000000E+03  0.18250000000E+03  0.00000000000E+00 0.  1.
         23    2    1    2    0    0  0.56214225273E+01  0.31893811944E+02 -0.11110346413E+03  0.14711603058E+03  0.90831333148E+02 0.  0.
        -11    1    1    2    0    0 -0.94368557399E+02 -0.69583374705E+01  0.47419307506E+02  0.10584155049E+03  0.00000000000E+00 0.  1.
         11    1    1    2    0    0  0.88747134872E+02 -0.24935474473E+02  0.63684156619E+02  0.11204241893E+03  0.00000000000E+00 0.  1.
        -15    1    3    3    0    0 -0.14456192962E+02  0.55845229143E+02 -0.96800093331E+02  0.11269909907E+03  0.17770000000E+01 0.  1.
         15    1    3    3    0    0  0.20077615489E+02 -0.23951417199E+02 -0.14303370794E+02  0.34416931511E+02  0.17770000000E+01 0. -1.
</event>
<event>
 7    1  0.3165060E-007  0.1455066E+03  0.7546771E-02  0.1102431E+00
        -11   -1    0    0    0    0  0.00000000000E+00  0.00000000000E+00  0.18250000000E+03  0.18250000000E+03  0.00000000000E+00 0. -1.
         11   -1    0    0    0    0 -0.00000000000E+00 -0.00000000000E+00 -0.18250000000E+03  0.18250000000E+03  0.00000000000E+00 0. -1.
         23    2    1    2    0    0  0.93171057513E+02 -0.34932527036E+02 -0.10281887154E+03  0.16969795821E+03  0.91238967948E+02 0.  0.
        -11    1    1    2    0    0 -0.26085263077E+01 -0.15617417618E+02  0.89319267468E+02  0.90711849741E+02  0.00000000000E+00 0. -1.
         11    1    1    2    0    0 -0.90562531205E+02  0.50549944654E+02  0.13499604073E+02  0.10459019205E+03  0.00000000000E+00 0. -1.
        -15    1    3    3    0    0  0.12839595653E+02  0.29319359191E+02 -0.22224496349E+02  0.39007255824E+02  0.17770000000E+01 0.  1.
         15    1    3    3    0    0  0.80331461860E+02 -0.64251886227E+02 -0.80594375191E+02  0.13069070239E+03  0.17770000000E+01 0. -1.
</event>
<event>
 7    1  0.3165060E-007  0.2095875E+03  0.7546771E-02  0.1048729E+00
        -11   -1    0    0    0    0  0.00000000000E+00  0.00000000000E+00  0.18250000000E+03  0.18250000000E+03  0.00000000000E+00 0.  1.
         11   -1    0    0    0    0 -0.00000000000E+00 -0.00000000000E+00 -0.18250000000E+03  0.18250000000E+03  0.00000000000E+00 0.  1.
         23    2    1    2    0    0  0.42011716109E+02  0.16817512450E+02 -0.54329506946E+02  0.11100304115E+03  0.85569660531E+02 0.  0.
        -11    1    1    2    0    0 -0.11298315945E+03 -0.84345113847E+02  0.65373879747E+02  0.15541247280E+03  0.00000000000E+00 0.  1.
         11    1    1    2    0    0  0.70971443338E+02  0.67527601397E+02 -0.11044372801E+02  0.98584486054E+02  0.00000000000E+00 0.  1.
        -15    1    3    3    0    0  0.52077694538E+02 -0.85555621084E+01 -0.63096726855E+02  0.82277813415E+02  0.17770000000E+01 0.  1.
         15    1    3    3    0    0 -0.10065978430E+02  0.25373074559E+02  0.87672199092E+01  0.28725227732E+02  0.17770000000E+01 0. -1.
</event>
<event>
 7    1  0.3165060E-007  0.1580479E+03  0.7546771E-02  0.1089778E+00
        -11   -1    0    0    0    0  0.00000000000E+00  0.00000000000E+00  0.18250000000E+03  0.18250000000E+03  0.00000000000E+00 0. -1.
         11   -1    0    0    0    0 -0.00000000000E+00 -0.00000000000E+00 -0.18250000000E+03  0.18250000000E+03  0.00000000000E+00 0.  1.
         23    2    1    2    0    0  0.37600722013E+02  0.10530880903E+03 -0.44036634374E+02  0.15526340981E+03  0.98304332066E+02 0.  0.
        -11    1    1    2    0    0  0.29657824908E+02 -0.11035752511E+03  0.73780284747E+02  0.13602169071E+03  0.00000000000E+00 0. -1.
         11    1    1    2    0    0 -0.67258546921E+02  0.50487160755E+01 -0.29743650373E+02  0.73714899481E+02  0.00000000000E+00 0.  1.
        -15    1    3    3    0    0 -0.12338374168E+02 -0.12829108002E+02 -0.15919981989E+02  0.23946295011E+02  0.17770000000E+01 0. -1.
         15    1    3    3    0    0  0.49939096181E+02  0.11813791703E+03 -0.28116652385E+02  0.13131711480E+03  0.17770000000E+01 0.  1.
</event>
<event>
 7    1  0.3165060E-007  0.1886677E+03  0.7546771E-02  0.1063649E+00
        -11   -1    0    0    0    0  0.00000000000E+00  0.00000000000E+00  0.18250000000E+03  0.18250000000E+03  0.00000000000E+00 0.  1.
         11   -1    0    0    0    0 -0.00000000000E+00 -0.00000000000E+00 -0.18250000000E+03  0.18250000000E+03  0.00000000000E+00 0. -1.
         23    2    1    2    0    0  0.45564374401E+01  0.62609780720E+02 -0.15333679002E+03  0.18866768495E+03  0.90236236644E+02 0.  0.
        -11    1    1    2    0    0 -0.23961868981E+02 -0.53571362401E+02  0.13811224810E+03  0.15006350359E+03  0.00000000000E+00 0.  1.
         11    1    1    2    0    0  0.19405431541E+02 -0.90384183193E+01  0.15224541926E+02  0.26268811466E+02  0.00000000000E+00 0. -1.
        -15    1    3    3    0    0 -0.17620564419E+02 -0.17961240918E+02 -0.47726762580E+02  0.53982331009E+02  0.17770000000E+01 0.  1.
         15    1    3    3    0    0  0.22177001859E+02  0.80571021638E+02 -0.10561002744E+03  0.13468535394E+03  0.17770000000E+01 0. -1.
</event>
<event>
 7    1  0.3165060E-007  0.1493618E+03  0.7546771E-02  0.1098396E+00
        -11   -1    0    0    0    0  0.00000000000E+00  0.00000000000E+00  0.18250000000E+03  0.18250000000E+03  0.00000000000E+00 0.  1.
         11   -1    0    0    0    0 -0.00000000000E+00 -0.00000000000E+00 -0.18250000000E+03  0.18250000000E+03  0.00000000000E+00 0. -1.
         23    2    1    2    0    0  0.10997946708E+00  0.11114333569E+02 -0.97415298635E+02  0.13362864384E+03  0.90792805548E+02 0.  0.
        -11    1    1    2    0    0  0.79517403671E+02 -0.23348550597E+02  0.12169179017E+03  0.14723132851E+03  0.00000000000E+00 0.  1.
         11    1    1    2    0    0 -0.79627383138E+02  0.12234217028E+02 -0.24276491534E+02  0.84140027650E+02  0.00000000000E+00 0. -1.
        -15    1    3    3    0    0 -0.32549120795E+02 -0.19762759906E+02 -0.73232969190E+02  0.82560507805E+02  0.17770000000E+01 0.  1.
         15    1    3    3    0    0  0.32659100262E+02  0.30877093475E+02 -0.24182329444E+02  0.51068136031E+02  0.17770000000E+01 0. -1.
</event>
<event>
 7    1  0.3165060E-007  0.1647747E+03  0.7546771E-02  0.1083511E+00
        -11   -1    0    0    0    0  0.00000000000E+00  0.00000000000E+00  0.18250000000E+03  0.18250000000E+03  0.00000000000E+00 0.  1.
         11   -1    0    0    0    0 -0.00000000000E+00 -0.00000000000E+00 -0.18250000000E+03  0.18250000000E+03  0.00000000000E+00 0.  1.
         23    2    1    2    0    0  0.46565048892E+01  0.10230691537E+03 -0.79924869720E+02  0.16252560650E+03  0.97663708699E+02 0.  0.
        -11    1    1    2    0    0 -0.30376107228E+02 -0.65317709629E+02  0.12144865195E+03  0.14120512081E+03  0.00000000000E+00 0.  1.
         11    1    1    2    0    0  0.25719602339E+02 -0.36989205741E+02 -0.41523782232E+02  0.61269272696E+02  0.00000000000E+00 0.  1.
        -15    1    3    3    0    0  0.16996291231E+02  0.73835740382E+02 -0.10003797247E+03  0.12550435904E+03  0.17770000000E+01 0.  1.
         15    1    3    3    0    0 -0.12339786341E+02  0.28471174988E+02  0.20113102747E+02  0.37021247457E+02  0.17770000000E+01 0. -1.
</event>
<event>
 7    1  0.3165060E-007  0.1647280E+03  0.7546771E-02  0.1083553E+00
        -11   -1    0    0    0    0  0.00000000000E+00  0.00000000000E+00  0.18250000000E+03  0.18250000000E+03  0.00000000000E+00 0. -1.
         11   -1    0    0    0    0 -0.00000000000E+00 -0.00000000000E+00 -0.18250000000E+03  0.18250000000E+03  0.00000000000E+00 0. -1.
         23    2    1    2    0    0 -0.73887878365E+02 -0.66708469039E+02 -0.88544698255E+02  0.14908575795E+03  0.66910098079E+02 0.  0.
        -11    1    1    2    0    0  0.11574195209E+03  0.86634513322E+02  0.88591758817E+02  0.16955895170E+03  0.00000000000E+00 0. -1.
         11    1    1    2    0    0 -0.41854073725E+02 -0.19926044283E+02 -0.47060562035E-01  0.46355290343E+02  0.00000000000E+00 0. -1.
        -15    1    3    3    0    0 -0.19308924550E+01 -0.39455454140E+02 -0.14026647673E+02  0.41956713181E+02  0.17770000000E+01 0.  1.
         15    1    3    3    0    0 -0.71956985910E+02 -0.27253014899E+02 -0.74518050583E+02  0.10712904477E+03  0.17770000000E+01 0. -1.
</event>
<event>
 7    1  0.3165060E-007  0.1589082E+03  0.7546771E-02  0.1088957E+00
        -11   -1    0    0    0    0  0.00000000000E+00  0.00000000000E+00  0.18250000000E+03  0.18250000000E+03  0.00000000000E+00 0.  1.
         11   -1    0    0    0    0 -0.00000000000E+00 -0.00000000000E+00 -0.18250000000E+03  0.18250000000E+03  0.00000000000E+00 0. -1.
         23    2    1    2    0    0 -0.17370348032E+02  0.47866331780E+02 -0.99593655189E+02  0.14654907908E+03  0.94682742441E+02 0.  0.
        -11    1    1    2    0    0  0.48528115300E+02 -0.10937737394E+00  0.14025694234E+03  0.14841495818E+03  0.00000000000E+00 0.  1.
         11    1    1    2    0    0 -0.31157767268E+02 -0.47756954406E+02 -0.40663287148E+02  0.70035962740E+02  0.00000000000E+00 0. -1.
        -15    1    3    3    0    0 -0.44914980072E+02  0.13059970042E+02 -0.11980698839E+02  0.48317834451E+02  0.17770000000E+01 0.  1.
         15    1    3    3    0    0  0.27544632041E+02  0.34806361738E+02 -0.87612956351E+02  0.98231244628E+02  0.17770000000E+01 0. -1.
</event>
<event>
 7    1  0.3165060E-007  0.1326314E+03  0.7546771E-02  0.1116971E+00
        -11   -1    0    0    0    0  0.00000000000E+00  0.00000000000E+00  0.18250000000E+03  0.18250000000E+03  0.00000000000E+00 0.  1.
         11   -1    0    0    0    0 -0.00000000000E+00 -0.00000000000E+00 -0.18250000000E+03  0.18250000000E+03  0.00000000000E+00 0. -1.
         23    2    1    2    0    0 -0.36317873754E+02 -0.62682454864E+02  0.26545349480E+02  0.11874016663E+03  0.90257927581E+02 0.  0.
        -11    1    1    2    0    0 -0.52312953085E+02  0.12539999172E+03 -0.79897603098E+01  0.13610892423E+03  0.00000000000E+00 0.  1.
         11    1    1    2    0    0  0.88630826839E+02 -0.62717536857E+02 -0.18555589170E+02  0.11015090914E+03  0.00000000000E+00 0. -1.
        -15    1    3    3    0    0 -0.46716628033E+02 -0.56751742803E+02 -0.15366055079E+02  0.75116423129E+02  0.17770000000E+01 0. -1.
         15    1    3    3    0    0  0.10398754280E+02 -0.59307120606E+01  0.41911404559E+02  0.43623743503E+02  0.17770000000E+01 0.  1.
</event>
<event>
 7    1  0.3728665E-007  0.1340484E+03  0.7546771E-02  0.1115284E+00
        -11   -1    0    0    0    0  0.00000000000E+00  0.00000000000E+00  0.18250000000E+03  0.18250000000E+03  0.00000000000E+00 0. -1.
         11   -1    0    0    0    0 -0.00000000000E+00 -0.00000000000E+00 -0.18250000000E+03  0.18250000000E+03  0.00000000000E+00 0.  1.
         23    2    1    2    0    0  0.48804260500E+02 -0.12063484301E+02  0.42883192557E+02  0.88880081871E+02  0.59441713073E+02 0.  0.
        -11    1    1    2    0    0 -0.37654686230E+02 -0.32581855174E+02  0.10770466194E+03  0.11865810922E+03  0.00000000000E+00 0. -1.
         11    1    1    2    0    0 -0.11149574270E+02  0.44645339476E+02 -0.15058785449E+03  0.15746180891E+03  0.00000000000E+00 0.  1.
        -15    1    3    3    0    0  0.86179537156E+01  0.18858730316E+02  0.30036922956E+02  0.36541692696E+02  0.17770000000E+01 0. -1.
         15    1    3    3    0    0  0.40186306785E+02 -0.30922214617E+02  0.12846269600E+02  0.52338389175E+02  0.17770000000E+01 0.  1.
</event>
<event>
 7    1  0.3165060E-007  0.2047294E+03  0.7546771E-02  0.1052020E+00
        -11   -1    0    0    0    0  0.00000000000E+00  0.00000000000E+00  0.18250000000E+03  0.18250000000E+03  0.00000000000E+00 0. -1.
         11   -1    0    0    0    0 -0.00000000000E+00 -0.00000000000E+00 -0.18250000000E+03  0.18250000000E+03  0.00000000000E+00 0.  1.
         23    2    1    2    0    0  0.46470892921E+02  0.23068493192E+02  0.26817890143E+02  0.10270122101E+03  0.84478649957E+02 0.  0.
        -11    1    1    2    0    0  0.86534721378E+02  0.36028687820E+02  0.40291715237E+02  0.10202816605E+03  0.00000000000E+00 0.  1.
         11    1    1    2    0    0 -0.13300561430E+03 -0.59097181012E+02 -0.67109605380E+02  0.16027061294E+03  0.00000000000E+00 0. -1.
        -15    1    3    3    0    0  0.59755913649E+02 -0.86035645210E+01  0.22576381303E+01  0.60440426847E+02  0.17770000000E+01 0. -1.
         15    1    3    3    0    0 -0.13285020728E+02  0.31672057713E+02  0.24560252013E+02  0.42260794165E+02  0.17770000000E+01 0.  1.
</event>
<event>
 7    1  0.4578064E-007  0.1260305E+03  0.7546771E-02  0.1125152E+00
        -11   -1    0    0    0    0  0.00000000000E+00  0.00000000000E+00  0.18250000000E+03  0.18250000000E+03  0.00000000000E+00 0. -1.
         11   -1    0    0    0    0 -0.00000000000E+00 -0.00000000000E+00 -0.18250000000E+03  0.18250000000E+03  0.00000000000E+00 0. -1.
         23    2    1    2    0    0  0.18180734183E+02 -0.11641396986E+02  0.57291399485E+02  0.10561008274E+03  0.86053029599E+02 0.  0.
        -11    1    1    2    0    0  0.10954094628E+03  0.30136444926E+02  0.96271825663E+01  0.11401801116E+03  0.00000000000E+00 0. -1.
         11    1    1    2    0    0 -0.12772168046E+03 -0.18495047939E+02 -0.66918582051E+02  0.14537190610E+03  0.00000000000E+00 0. -1.
        -15    1    3    3    0    0  0.54830885776E+01  0.33558712879E+02  0.35621368911E+01  0.34235917085E+02  0.17770000000E+01 0.  1.
         15    1    3    3    0    0  0.12697645606E+02 -0.45200109865E+02  0.53729262594E+02  0.71374165660E+02  0.17770000000E+01 0. -1.
</event>
<event>
 7    1  0.3165060E-007  0.1766771E+03  0.7546771E-02  0.1073187E+00
        -11   -1    0    0    0    0  0.00000000000E+00  0.00000000000E+00  0.18250000000E+03  0.18250000000E+03  0.00000000000E+00 0.  1.
         11   -1    0    0    0    0 -0.00000000000E+00 -0.00000000000E+00 -0.18250000000E+03  0.18250000000E+03  0.00000000000E+00 0. -1.
         23    2    1    2    0    0 -0.70868196650E+02  0.44993705271E+02 -0.11393448692E+03  0.16985778325E+03  0.93935426819E+02 0.  0.
        -11    1    1    2    0    0  0.94024872183E+02 -0.72046180236E+02  0.10532176042E+03  0.15850552638E+03  0.00000000000E+00 0.  1.
         11    1    1    2    0    0 -0.23156675533E+02  0.27052474965E+02  0.86127264999E+01  0.36636690370E+02  0.00000000000E+00 0. -1.
        -15    1    3    3    0    0 -0.93153000747E+02  0.43076578259E+02 -0.10077166953E+03  0.14384422217E+03  0.17770000000E+01 0.  1.
         15    1    3    3    0    0  0.22284804097E+02  0.19171270121E+01 -0.13162817388E+02  0.26013561083E+02  0.17770000000E+01 0. -1.
</event>
<event>
 6    1  0.3165060E-007  0.1401874E+03  0.7546771E-02  0.1108229E+00
        -11   -1    0    0    0    0  0.00000000000E+00  0.00000000000E+00  0.18250000000E+03  0.18250000000E+03  0.00000000000E+00 0. -1.
         11   -1    0    0    0    0 -0.00000000000E+00 -0.00000000000E+00 -0.18250000000E+03  0.18250000000E+03  0.00000000000E+00 0.  1.
        -11    1    1    2    0    0  0.60252865113E+02  0.98934720037E+02  0.72424981618E+02  0.13661575511E+03  0.00000000000E+00 0. -1.
         11    1    1    2    0    0 -0.76986106369E+01 -0.11991215944E+01  0.27517331640E+02  0.28599126541E+02  0.00000000000E+00 0.  1.
        -15    1    1    2    0    0 -0.45660838174E+02  0.19379411781E+01  0.14382180286E+02  0.47944474108E+02  0.17770000000E+01 0. -1.
         15    1    1    2    0    0 -0.68934163024E+01 -0.99673539620E+02 -0.11432449354E+03  0.15184064424E+03  0.17770000000E+01 0.  1.
</event>
<event>
 7    1  0.3165060E-007  0.1858108E+03  0.7546771E-02  0.1065850E+00
        -11   -1    0    0    0    0  0.00000000000E+00  0.00000000000E+00  0.18250000000E+03  0.18250000000E+03  0.00000000000E+00 0.  1.
         11   -1    0    0    0    0 -0.00000000000E+00 -0.00000000000E+00 -0.18250000000E+03  0.18250000000E+03  0.00000000000E+00 0. -1.
         23    2    1    2    0    0  0.59565296039E+02 -0.23830264911E+00 -0.14617944221E+03  0.18221247173E+03  0.91021284595E+02 0.  0.
        -11    1    1    2    0    0 -0.74227528249E+02  0.81614300995E+01  0.14824821272E+03  0.16599357658E+03  0.00000000000E+00 0.  1.
         11    1    1    2    0    0  0.14662232210E+02 -0.79231274504E+01 -0.20687705104E+01  0.16793951691E+02  0.00000000000E+00 0. -1.
        -15    1    3    3    0    0 -0.46893256127E+01 -0.35079737918E+02 -0.53362901705E+02  0.64057277451E+02  0.17770000000E+01 0.  1.
         15    1    3    3    0    0  0.64254621652E+02  0.34841435269E+02 -0.92816540503E+02  0.11815519428E+03  0.17770000000E+01 0. -1.
</event>
<event>
 7    1  0.3165060E-007  0.1386501E+03  0.7546771E-02  0.1109958E+00
        -11   -1    0    0    0    0  0.00000000000E+00  0.00000000000E+00  0.18250000000E+03  0.18250000000E+03  0.00000000000E+00 0.  1.
         11   -1    0    0    0    0 -0.00000000000E+00 -0.00000000000E+00 -0.18250000000E+03  0.18250000000E+03  0.00000000000E+00 0. -1.
         23    2    1    2    0    0  0.10037540875E+02  0.60443530129E+02 -0.69889031920E+02  0.13167385308E+03  0.93270328840E+02 0.  0.
        -11    1    1    2    0    0 -0.72085587269E+02  0.11996830122E+02  0.10817707586E+03  0.13054706265E+03  0.00000000000E+00 0.  1.
         11    1    1    2    0    0  0.62048046393E+02 -0.72440360251E+02 -0.38288043938E+02  0.10277908427E+03  0.00000000000E+00 0. -1.
        -15    1    3    3    0    0 -0.46534720174E+01 -0.23680959354E+02 -0.57918419956E+01  0.24882640544E+02  0.17770000000E+01 0. -1.
         15    1    3    3    0    0  0.14691012893E+02  0.84124489483E+02 -0.64097189924E+02  0.10679121254E+03  0.17770000000E+01 0.  1.
</event>
<event>
 7    1  0.3165060E-007  0.1395884E+03  0.7546771E-02  0.1108900E+00
        -11   -1    0    0    0    0  0.00000000000E+00  0.00000000000E+00  0.18250000000E+03  0.18250000000E+03  0.00000000000E+00 0.  1.
         11   -1    0    0    0    0 -0.00000000000E+00 -0.00000000000E+00 -0.18250000000E+03  0.18250000000E+03  0.00000000000E+00 0. -1.
         23    2    1    2    0    0 -0.89438638214E+02 -0.24084317979E+02 -0.46997574559E+02  0.13723965977E+03  0.89702997841E+02 0.  0.
        -11    1    1    2    0    0  0.36547271411E+02 -0.12491876229E+02  0.12258135291E+03  0.12852213078E+03  0.00000000000E+00 0.  1.
         11    1    1    2    0    0  0.52891366803E+02  0.36576194208E+02 -0.75583778350E+02  0.99238209449E+02  0.00000000000E+00 0. -1.
        -15    1    3    3    0    0 -0.77380563928E+02 -0.38123659118E+01  0.74736036492E+01  0.77854340201E+02  0.17770000000E+01 0. -1.
         15    1    3    3    0    0 -0.12058074286E+02 -0.20271952067E+02 -0.54471178208E+02  0.59385319570E+02  0.17770000000E+01 0.  1.
</event>
<event>
 7    1  0.3165060E-007  0.1719333E+03  0.7546771E-02  0.1077191E+00
        -11   -1    0    0    0    0  0.00000000000E+00  0.00000000000E+00  0.18250000000E+03  0.18250000000E+03  0.00000000000E+00 0.  1.
         11   -1    0    0    0    0 -0.00000000000E+00 -0.00000000000E+00 -0.18250000000E+03  0.18250000000E+03  0.00000000000E+00 0. -1.
         23    2    1    2    0    0 -0.24279037480E+02 -0.15185665258E+02  0.11754958192E+03  0.15472295544E+03  0.96442794648E+02 0.  0.
        -11    1    1    2    0    0  0.13954999390E+01 -0.27891618942E+02  0.38057130707E+02  0.47204184401E+02  0.00000000000E+00 0.  1.
         11    1    1    2    0    0  0.22883537541E+02  0.43077284200E+02 -0.15560671263E+03  0.16307286016E+03  0.00000000000E+00 0. -1.
        -15    1    3    3    0    0  0.76763883377E+01 -0.31663013994E+02  0.89538569838E+00  0.32640968700E+02  0.17770000000E+01 0.  1.
         15    1    3    3    0    0 -0.31955425818E+02  0.16477348737E+02  0.11665419623E+03  0.12208198674E+03  0.17770000000E+01 0. -1.
</event>
<event>
 7    1  0.3165060E-007  0.1667053E+03  0.7546771E-02  0.1081772E+00
        -11   -1    0    0    0    0  0.00000000000E+00  0.00000000000E+00  0.18250000000E+03  0.18250000000E+03  0.00000000000E+00 0.  1.
         11   -1    0    0    0    0 -0.00000000000E+00 -0.00000000000E+00 -0.18250000000E+03  0.18250000000E+03  0.00000000000E+00 0. -1.
         23    2    1    2    0    0  0.42690391323E+02 -0.11119558229E+03 -0.89599630185E+02  0.17544495788E+03  0.92552214906E+02 0.  0.
        -11    1    1    2    0    0 -0.24107235769E+01  0.79464852656E+02  0.10884336954E+03  0.13478632530E+03  0.00000000000E+00 0.  1.
         11    1    1    2    0    0 -0.40279667746E+02  0.31730729637E+02 -0.19243739357E+02  0.54768716814E+02  0.00000000000E+00 0. -1.
        -15    1    3    3    0    0  0.66440969977E+02 -0.60266868539E+02 -0.32806356202E+02  0.95529642893E+02  0.17770000000E+01 0.  1.
         15    1    3    3    0    0 -0.23750578654E+02 -0.50928713754E+02 -0.56793273983E+02  0.79915314989E+02  0.17770000000E+01 0. -1.
</event>
<event>
 7    1  0.3165060E-007  0.1644739E+03  0.7546771E-02  0.1083784E+00
        -11   -1    0    0    0    0  0.00000000000E+00  0.00000000000E+00  0.18250000000E+03  0.18250000000E+03  0.00000000000E+00 0. -1.
         11   -1    0    0    0    0 -0.00000000000E+00 -0.00000000000E+00 -0.18250000000E+03  0.18250000000E+03  0.00000000000E+00 0.  1.
         23    2    1    2    0    0 -0.29089736042E+02 -0.40440426869E+02 -0.11330163950E+03  0.15550325192E+03  0.94140102909E+02 0.  0.
        -11    1    1    2    0    0  0.49769651940E+02 -0.83068411035E+01  0.14098652676E+03  0.14974385661E+03  0.00000000000E+00 0. -1.
         11    1    1    2    0    0 -0.20679915897E+02  0.48747267972E+02 -0.27684887265E+02  0.59752891471E+02  0.00000000000E+00 0.  1.
        -15    1    3    3    0    0  0.22198999061E+02  0.67674010390E+01 -0.69170499524E+02  0.72981566231E+02  0.17770000000E+01 0.  1.
         15    1    3    3    0    0 -0.51288735103E+02 -0.47207827908E+02 -0.44131139976E+02  0.82521685688E+02  0.17770000000E+01 0. -1.
</event>
<event>
 7    1  0.3165060E-007  0.1762435E+03  0.7546771E-02  0.1073547E+00
        -11   -1    0    0    0    0  0.00000000000E+00  0.00000000000E+00  0.18250000000E+03  0.18250000000E+03  0.00000000000E+00 0.  1.
         11   -1    0    0    0    0 -0.00000000000E+00 -0.00000000000E+00 -0.18250000000E+03  0.18250000000E+03  0.00000000000E+00 0.  1.
         23    2    1    2    0    0 -0.11715415437E+02 -0.25130941972E+01  0.13723343142E+03  0.16504943342E+03  0.90910583374E+02 0.  0.
        -11    1    1    2    0    0 -0.22147526615E+01  0.25910338317E+02  0.24627157837E+02  0.35815466829E+02  0.00000000000E+00 0.  1.
         11    1    1    2    0    0  0.13930168099E+02 -0.23397244120E+02 -0.16186058926E+03  0.16413509975E+03  0.00000000000E+00 0.  1.
        -15    1    3    3    0    0 -0.46639304355E+02 -0.11409060365E+02  0.10937661349E+03  0.11946460846E+03  0.17770000000E+01 0. -1.
         15    1    3    3    0    0  0.34923888918E+02  0.88959661682E+01  0.27856817939E+02  0.45584824952E+02  0.17770000000E+01 0.  1.
</event>
<event>
 7    1  0.3165060E-007  0.1835919E+03  0.7546771E-02  0.1067589E+00
        -11   -1    0    0    0    0  0.00000000000E+00  0.00000000000E+00  0.18250000000E+03  0.18250000000E+03  0.00000000000E+00 0.  1.
         11   -1    0    0    0    0 -0.00000000000E+00 -0.00000000000E+00 -0.18250000000E+03  0.18250000000E+03  0.00000000000E+00 0. -1.
         23    2    1    2    0    0  0.48618925757E+02 -0.58184685005E+01  0.15180537137E+03  0.18371079670E+03  0.91143466743E+02 0.  0.
        -11    1    1    2    0    0  0.19448148098E+02 -0.47477489148E+01 -0.74843589109E+01  0.21372580858E+02  0.00000000000E+00 0.  1.
         11    1    1    2    0    0 -0.68067073855E+02  0.10566217415E+02 -0.14432101246E+03  0.15991662244E+03  0.00000000000E+00 0. -1.
        -15    1    3    3    0    0  0.43540047269E+02 -0.45740596824E+02  0.91754927454E+02  0.11140045940E+03  0.17770000000E+01 0.  1.
         15    1    3    3    0    0  0.50788784879E+01  0.39922128323E+02  0.60050443920E+02  0.72310337301E+02  0.17770000000E+01 0. -1.
</event>
<event>
 7    1  0.3165060E-007  0.1550083E+03  0.7546771E-02  0.1092723E+00
        -11   -1    0    0    0    0  0.00000000000E+00  0.00000000000E+00  0.18250000000E+03  0.18250000000E+03  0.00000000000E+00 0.  1.
         11   -1    0    0    0    0 -0.00000000000E+00 -0.00000000000E+00 -0.18250000000E+03  0.18250000000E+03  0.00000000000E+00 0. -1.
         23    2    1    2    0    0  0.79554186380E+02  0.38453706884E+02  0.42602057991E+02  0.13378577841E+03  0.90973309366E+02 0.  0.
        -11    1    1    2    0    0  0.55499453084E+02 -0.34323329561E+02  0.36374974476E+02  0.74708895139E+02  0.00000000000E+00 0.  1.
         11    1    1    2    0    0 -0.13505363946E+03 -0.41303773235E+01 -0.78977032467E+02  0.15650532645E+03  0.00000000000E+00 0. -1.
        -15    1    3    3    0    0  0.12429089160E+02  0.32994794538E+01  0.55415834875E+02  0.56916090044E+02  0.17770000000E+01 0.  1.
         15    1    3    3    0    0  0.67125097220E+02  0.35154227430E+02 -0.12813776884E+02  0.76869688370E+02  0.17770000000E+01 0. -1.
</event>
<event>
 7    1  0.3165060E-007  0.1895403E+03  0.7546771E-02  0.1062985E+00
        -11   -1    0    0    0    0  0.00000000000E+00  0.00000000000E+00  0.18250000000E+03  0.18250000000E+03  0.00000000000E+00 0. -1.
         11   -1    0    0    0    0 -0.00000000000E+00 -0.00000000000E+00 -0.18250000000E+03  0.18250000000E+03  0.00000000000E+00 0. -1.
         23    2    1    2    0    0 -0.63731502570E+02  0.25873664404E+02 -0.15250593059E+03  0.18954034832E+03  0.89086103571E+02 0.  0.
        -11    1    1    2    0    0  0.33919399215E+02 -0.26610833250E+02  0.13303126586E+03  0.13984269658E+03  0.00000000000E+00 0. -1.
         11    1    1    2    0    0  0.29812103355E+02  0.73716884607E+00  0.19474664723E+02  0.35616955098E+02  0.00000000000E+00 0. -1.
        -15    1    3    3    0    0 -0.22523137064E+01 -0.47769069814E+01 -0.10694424586E+03  0.10708931416E+03  0.17770000000E+01 0. -1.
         15    1    3    3    0    0 -0.61479188864E+02  0.30650571385E+02 -0.45561684728E+02  0.82451034159E+02  0.17770000000E+01 0.  1.
</event>
<event>
 7    1  0.3165060E-007  0.1422679E+03  0.7546771E-02  0.1105928E+00
        -11   -1    0    0    0    0  0.00000000000E+00  0.00000000000E+00  0.18250000000E+03  0.18250000000E+03  0.00000000000E+00 0. -1.
         11   -1    0    0    0    0 -0.00000000000E+00 -0.00000000000E+00 -0.18250000000E+03  0.18250000000E+03  0.00000000000E+00 0. -1.
         23    2    1    2    0    0  0.16055523620E+02  0.24749927735E+02 -0.98044992441E+02  0.13633291941E+03  0.90019473511E+02 0.  0.
        -11    1    1    2    0    0  0.48316770194E+02  0.42846098885E+02  0.11679477392E+03  0.13345904872E+03  0.00000000000E+00 0. -1.
         11    1    1    2    0    0 -0.64372293814E+02 -0.67596026620E+02 -0.18749781478E+02  0.95208031862E+02  0.00000000000E+00 0. -1.
        -15    1    3    3    0    0 -0.32651756344E+02  0.14526058180E+02 -0.71372663818E+02  0.79839579333E+02  0.17770000000E+01 0. -1.
         15    1    3    3    0    0  0.48707279964E+02  0.10223869555E+02 -0.26672328623E+02  0.56493340080E+02  0.17770000000E+01 0.  1.
</event>
<event>
 7    1  0.3165060E-007  0.1834146E+03  0.7546771E-02  0.1067729E+00
        -11   -1    0    0    0    0  0.00000000000E+00  0.00000000000E+00  0.18250000000E+03  0.18250000000E+03  0.00000000000E+00 0. -1.
         11   -1    0    0    0    0 -0.00000000000E+00 -0.00000000000E+00 -0.18250000000E+03  0.18250000000E+03  0.00000000000E+00 0.  1.
         23    2    1    2    0    0  0.10100712983E+02 -0.11482476775E+02 -0.16141277228E+03  0.18589105468E+03  0.90925956041E+02 0.  0.
        -11    1    1    2    0    0 -0.30443056161E+02  0.10614587845E+02  0.15415945441E+03  0.15749471905E+03  0.00000000000E+00 0. -1.
         11    1    1    2    0    0  0.20342343177E+02  0.86788893040E+00  0.72533178654E+01  0.21614226269E+02  0.00000000000E+00 0.  1.
        -15    1    3    3    0    0  0.25752580364E+02  0.18658128651E+02 -0.14438741586E+03  0.14785873240E+03  0.17770000000E+01 0.  1.
         15    1    3    3    0    0 -0.15651867380E+02 -0.30140605427E+02 -0.17025356416E+02  0.38032322280E+02  0.17770000000E+01 0. -1.
</event>
<event>
 7    1  0.3165060E-007  0.1253077E+03  0.7546771E-02  0.1126081E+00
        -11   -1    0    0    0    0  0.00000000000E+00  0.00000000000E+00  0.18250000000E+03  0.18250000000E+03  0.00000000000E+00 0.  1.
         11   -1    0    0    0    0 -0.00000000000E+00 -0.00000000000E+00 -0.18250000000E+03  0.18250000000E+03  0.00000000000E+00 0.  1.
         23    2    1    2    0    0  0.97815464863E+02  0.12519131397E+02 -0.30493654452E+02  0.12140857477E+03  0.63918582965E+02 0.  0.
        -11    1    1    2    0    0 -0.46792770113E+02 -0.21595252998E+02  0.12533389739E+03  0.13551569695E+03  0.00000000000E+00 0.  1.
         11    1    1    2    0    0 -0.51022694749E+02  0.90761216007E+01 -0.94840242935E+02  0.10807572828E+03  0.00000000000E+00 0.  1.
        -15    1    3    3    0    0  0.50646919819E+02 -0.21990418013E+02  0.46783347076E+00  0.55245502701E+02  0.17770000000E+01 0. -1.
         15    1    3    3    0    0  0.47168545044E+02  0.34509549410E+02 -0.30961487923E+02  0.66163072068E+02  0.17770000000E+01 0.  1.
</event>
<event>
 7    1  0.3165060E-007  0.1792508E+03  0.7546771E-02  0.1071071E+00
        -11   -1    0    0    0    0  0.00000000000E+00  0.00000000000E+00  0.18250000000E+03  0.18250000000E+03  0.00000000000E+00 0.  1.
         11   -1    0    0    0    0 -0.00000000000E+00 -0.00000000000E+00 -0.18250000000E+03  0.18250000000E+03  0.00000000000E+00 0. -1.
         23    2    1    2    0    0  0.90885152801E+02 -0.74882510467E+02 -0.10581163575E+03  0.18207239289E+03  0.89926373321E+02 0.  0.
        -11    1    1    2    0    0 -0.27537469952E+02 -0.49035602290E+01 -0.90478682431E+01  0.29397637219E+02  0.00000000000E+00 0. -1.
         11    1    1    2    0    0 -0.63347682848E+02  0.79786070696E+02  0.11485950399E+03  0.15352996989E+03  0.00000000000E+00 0.  1.
        -15    1    3    3    0    0  0.55346907043E+02 -0.73586912638E+02 -0.27607319677E+02  0.96143827985E+02  0.17770000000E+01 0.  1.
         15    1    3    3    0    0  0.35538245757E+02 -0.12955978294E+01 -0.78204316069E+02  0.85928564901E+02  0.17770000000E+01 0. -1.
</event>
<event>
 7    1  0.3165060E-007  0.2132722E+03  0.7546771E-02  0.1046298E+00
        -11   -1    0    0    0    0  0.00000000000E+00  0.00000000000E+00  0.18250000000E+03  0.18250000000E+03  0.00000000000E+00 0. -1.
         11   -1    0    0    0    0 -0.00000000000E+00 -0.00000000000E+00 -0.18250000000E+03  0.18250000000E+03  0.00000000000E+00 0.  1.
         23    2    1    2    0    0 -0.21270224328E+02 -0.22739944279E+01 -0.30536519330E+02  0.97701011927E+02  0.90307337604E+02 0.  0.
        -11    1    1    2    0    0  0.70571597075E+02  0.37113058132E+02  0.12908757134E+03  0.15172781707E+03  0.00000000000E+00 0. -1.
         11    1    1    2    0    0 -0.49301372747E+02 -0.34839063704E+02 -0.98551052012E+02  0.11557117100E+03  0.00000000000E+00 0.  1.
        -15    1    3    3    0    0  0.33916413948E+02 -0.13237809107E+02 -0.10269877983E+02  0.37870712270E+02  0.17770000000E+01 0.  1.
         15    1    3    3    0    0 -0.55186638276E+02  0.10963814679E+02 -0.20266641347E+02  0.59830299657E+02  0.17770000000E+01 0. -1.
</event>
<event>
 7    1  0.3165060E-007  0.1812768E+03  0.7546771E-02  0.1069433E+00
        -11   -1    0    0    0    0  0.00000000000E+00  0.00000000000E+00  0.18250000000E+03  0.18250000000E+03  0.00000000000E+00 0.  1.
         11   -1    0    0    0    0 -0.00000000000E+00 -0.00000000000E+00 -0.18250000000E+03  0.18250000000E+03  0.00000000000E+00 0. -1.
         23    2    1    2    0    0  0.55987254297E+02 -0.82323900811E+02  0.11626219996E+03  0.17854017208E+03  0.91912439955E+02 0.  0.
        -11    1    1    2    0    0 -0.15571887119E+02  0.82636565290E+01  0.19707026167E+02  0.26441228565E+02  0.00000000000E+00 0.  1.
         11    1    1    2    0    0 -0.40415367178E+02  0.74060244282E+02 -0.13596922612E+03  0.16001859936E+03  0.00000000000E+00 0. -1.
        -15    1    3    3    0    0  0.19338730287E+02 -0.56038010939E+02  0.11937655566E+03  0.13329728027E+03  0.17770000000E+01 0.  1.
         15    1    3    3    0    0  0.36648524010E+02 -0.26285889872E+02 -0.31143556987E+01  0.45242891805E+02  0.17770000000E+01 0. -1.
</event>
<event>
 7    1  0.3165060E-007  0.1927172E+03  0.7546771E-02  0.1060601E+00
        -11   -1    0    0    0    0  0.00000000000E+00  0.00000000000E+00  0.18250000000E+03  0.18250000000E+03  0.00000000000E+00 0.  1.
         11   -1    0    0    0    0 -0.00000000000E+00 -0.00000000000E+00 -0.18250000000E+03  0.18250000000E+03  0.00000000000E+00 0.  1.
         23    2    1    2    0    0  0.20578022609E+02 -0.10379704177E+02 -0.16909393736E+03  0.19271723332E+03  0.89532000381E+02 0.  0.
        -11    1    1    2    0    0 -0.20477618422E+02  0.14665369511E+02  0.16234626182E+03  0.16428851039E+03  0.00000000000E+00 0.  1.
         11    1    1    2    0    0 -0.10040418765E+00 -0.42856653335E+01  0.67476755409E+01  0.79942562854E+01  0.00000000000E+00 0.  1.
        -15    1    3    3    0    0  0.80734571068E+01  0.32299680518E+02 -0.12753933542E+03  0.13182522475E+03  0.17770000000E+01 0.  1.
         15    1    3    3    0    0  0.12504565503E+02 -0.42679384695E+02 -0.41554601942E+02  0.60892008572E+02  0.17770000000E+01 0. -1.
</event>
<event>
 7    1  0.3165060E-007  0.1292580E+03  0.7546771E-02  0.1121085E+00
        -11   -1    0    0    0    0  0.00000000000E+00  0.00000000000E+00  0.18250000000E+03  0.18250000000E+03  0.00000000000E+00 0.  1.
         11   -1    0    0    0    0 -0.00000000000E+00 -0.00000000000E+00 -0.18250000000E+03  0.18250000000E+03  0.00000000000E+00 0. -1.
         23    2    1    2    0    0 -0.82945310338E+02 -0.42210463458E+02  0.31296056077E+01  0.13040935368E+03  0.91297082991E+02 0.  0.
        -11    1    1    2    0    0  0.58165876912E+02 -0.12866557646E+02  0.99232043772E+02  0.11574029572E+03  0.00000000000E+00 0.  1.
         11    1    1    2    0    0  0.24779433426E+02  0.55077021104E+02 -0.10236164938E+03  0.11885035060E+03  0.00000000000E+00 0. -1.
        -15    1    3    3    0    0 -0.47659898214E+02 -0.69008631661E+02  0.13249389700E+02  0.84925621563E+02  0.17770000000E+01 0.  1.
         15    1    3    3    0    0 -0.35285412124E+02  0.26798168204E+02 -0.10119784092E+02  0.45483732113E+02  0.17770000000E+01 0. -1.
</event>
<event>
 7    1  0.3165060E-007  0.1362253E+03  0.7546771E-02  0.1112735E+00
        -11   -1    0    0    0    0  0.00000000000E+00  0.00000000000E+00  0.18250000000E+03  0.18250000000E+03  0.00000000000E+00 0.  1.
         11   -1    0    0    0    0 -0.00000000000E+00 -0.00000000000E+00 -0.18250000000E+03  0.18250000000E+03  0.00000000000E+00 0. -1.
         23    2    1    2    0    0 -0.23068786889E+02 -0.66452164720E+01 -0.53275258080E+02  0.11317219567E+03  0.96919373289E+02 0.  0.
        -11    1    1    2    0    0 -0.49585025363E+02  0.22711206411E+01  0.13414083445E+03  0.14303005347E+03  0.00000000000E+00 0.  1.
         11    1    1    2    0    0  0.72653812252E+02  0.43740958309E+01 -0.80865576373E+02  0.10879775086E+03  0.00000000000E+00 0. -1.
        -15    1    3    3    0    0  0.15353618047E+02  0.12075047484E+02  0.20197471286E+02  0.28153790761E+02  0.17770000000E+01 0.  1.
         15    1    3    3    0    0 -0.38422404936E+02 -0.18720263956E+02 -0.73472729366E+02  0.85018404908E+02  0.17770000000E+01 0. -1.
</event>
<event>
 7    1  0.3165060E-007  0.1774026E+03  0.7546771E-02  0.1072586E+00
        -11   -1    0    0    0    0  0.00000000000E+00  0.00000000000E+00  0.18250000000E+03  0.18250000000E+03  0.00000000000E+00 0.  1.
         11   -1    0    0    0    0 -0.00000000000E+00 -0.00000000000E+00 -0.18250000000E+03  0.18250000000E+03  0.00000000000E+00 0. -1.
         23    2    1    2    0    0  0.12763357072E+03 -0.66796711312E+02 -0.38539815960E+02  0.17369683033E+03  0.89068189807E+02 0.  0.
        -11    1    1    2    0    0 -0.11752395973E+03  0.97329940081E+02  0.43700326885E+02  0.15872843765E+03  0.00000000000E+00 0.  1.
         11    1    1    2    0    0 -0.10109610987E+02 -0.30533228769E+02 -0.51605109256E+01  0.32574732023E+02  0.00000000000E+00 0. -1.
        -15    1    3    3    0    0  0.11531972115E+03 -0.60006507673E+02  0.27531092463E+01  0.13003905716E+03  0.17770000000E+01 0. -1.
         15    1    3    3    0    0  0.12313849574E+02 -0.67902036394E+01 -0.41292925206E+02  0.43657773166E+02  0.17770000000E+01 0.  1.
</event>
<event>
 7    1  0.3165060E-007  0.1444167E+03  0.7546771E-02  0.1103596E+00
        -11   -1    0    0    0    0  0.00000000000E+00  0.00000000000E+00  0.18250000000E+03  0.18250000000E+03  0.00000000000E+00 0. -1.
         11   -1    0    0    0    0 -0.00000000000E+00 -0.00000000000E+00 -0.18250000000E+03  0.18250000000E+03  0.00000000000E+00 0.  1.
         23    2    1    2    0    0 -0.59132028316E+02  0.69988458556E+02  0.30872821079E+02  0.13574353441E+03  0.95279562070E+02 0.  0.
        -11    1    1    2    0    0  0.52132374838E+01 -0.36215493502E+02  0.87515050632E+02  0.94855805842E+02  0.00000000000E+00 0. -1.
         11    1    1    2    0    0  0.53918790832E+02 -0.33772965053E+02 -0.11838787171E+03  0.13440065975E+03  0.00000000000E+00 0.  1.
        -15    1    3    3    0    0 -0.22439160378E+01  0.73888155566E+02  0.83670210354E+01  0.74415451770E+02  0.17770000000E+01 0. -1.
         15    1    3    3    0    0 -0.56888112278E+02 -0.38996970107E+01  0.22505800043E+02  0.61328082637E+02  0.17770000000E+01 0.  1.
</event>
<event>
 7    1  0.3165060E-007  0.1667727E+03  0.7546771E-02  0.1081712E+00
        -11   -1    0    0    0    0  0.00000000000E+00  0.00000000000E+00  0.18250000000E+03  0.18250000000E+03  0.00000000000E+00 0. -1.
         11   -1    0    0    0    0 -0.00000000000E+00 -0.00000000000E+00 -0.18250000000E+03  0.18250000000E+03  0.00000000000E+00 0. -1.
         23    2    1    2    0    0  0.19323816893E+01  0.29791139855E+02 -0.11739506365E+03  0.15233270731E+03  0.92371027030E+02 0.  0.
        -11    1    1    2    0    0 -0.43514633712E+02 -0.55582498316E+02  0.14149286231E+03  0.15812389937E+03  0.00000000000E+00 0. -1.
         11    1    1    2    0    0  0.41582252023E+02  0.25791358460E+02 -0.24097798660E+02  0.54543393319E+02  0.00000000000E+00 0. -1.
        -15    1    3    3    0    0 -0.39217303134E+02 -0.81402001781E+01 -0.38479406474E+02  0.55570515344E+02  0.17770000000E+01 0.  1.
         15    1    3    3    0    0  0.41149684823E+02  0.37931340033E+02 -0.78915657178E+02  0.96762191969E+02  0.17770000000E+01 0. -1.
</event>
<event>
 7    1  0.3165060E-007  0.1688060E+03  0.7546771E-02  0.1079910E+00
        -11   -1    0    0    0    0  0.00000000000E+00  0.00000000000E+00  0.18250000000E+03  0.18250000000E+03  0.00000000000E+00 0. -1.
         11   -1    0    0    0    0 -0.00000000000E+00 -0.00000000000E+00 -0.18250000000E+03  0.18250000000E+03  0.00000000000E+00 0. -1.
         23    2    1    2    0    0  0.53055725444E+02  0.89919175295E+02 -0.10922854962E+03  0.17605104987E+03  0.90347816914E+02 0.  0.
        -11    1    1    2    0    0 -0.15660037649E+02 -0.60906725007E+02  0.12427811318E+03  0.13928357888E+03  0.00000000000E+00 0. -1.
         11    1    1    2    0    0 -0.37395687794E+02 -0.29012450288E+02 -0.15049563569E+02  0.49665371245E+02  0.00000000000E+00 0. -1.
        -15    1    3    3    0    0  0.69317547659E+02  0.67801779218E+02 -0.11228962296E+03  0.14837156342E+03  0.17770000000E+01 0. -1.
         15    1    3    3    0    0 -0.16261822215E+02  0.22117396077E+02  0.30610733455E+01  0.27679486448E+02  0.17770000000E+01 0.  1.
</event>
<event>
 7    1  0.3165060E-007  0.1467136E+03  0.7546771E-02  0.1101153E+00
        -11   -1    0    0    0    0  0.00000000000E+00  0.00000000000E+00  0.18250000000E+03  0.18250000000E+03  0.00000000000E+00 0.  1.
         11   -1    0    0    0    0 -0.00000000000E+00 -0.00000000000E+00 -0.18250000000E+03  0.18250000000E+03  0.00000000000E+00 0. -1.
         23    2    1    2    0    0  0.51040310698E+02 -0.29506201873E+01  0.82121553310E+02  0.13186555281E+03  0.89614479997E+02 0.  0.
        -11    1    1    2    0    0  0.47885896032E+01  0.84173457488E+02  0.24638241575E+02  0.87835895190E+02  0.00000000000E+00 0.  1.
         11    1    1    2    0    0 -0.55828900301E+02 -0.81222837301E+02 -0.10675979489E+03  0.14529855200E+03  0.00000000000E+00 0. -1.
        -15    1    3    3    0    0  0.61460696233E+02 -0.28886272261E+02  0.33476744315E+02  0.75734299003E+02  0.17770000000E+01 0.  1.
         15    1    3    3    0    0 -0.10420385535E+02  0.25935652073E+02  0.48644808996E+02  0.56131253811E+02  0.17770000000E+01 0. -1.
</event>
<event>
 7    1  0.3165060E-007  0.2176282E+03  0.7546771E-02  0.1043491E+00
        -11   -1    0    0    0    0  0.00000000000E+00  0.00000000000E+00  0.18250000000E+03  0.18250000000E+03  0.00000000000E+00 0.  1.
         11   -1    0    0    0    0 -0.00000000000E+00 -0.00000000000E+00 -0.18250000000E+03  0.18250000000E+03  0.00000000000E+00 0. -1.
         23    2    1    2    0    0  0.92422560627E+01  0.10481891391E+02 -0.24390547199E+02  0.96637777414E+02  0.92459028151E+02 0.  0.
        -11    1    1    2    0    0 -0.29216166402E+02 -0.93554933453E+02  0.11005610488E+03  0.14737182965E+03  0.00000000000E+00 0.  1.
         11    1    1    2    0    0  0.19973910339E+02  0.83073042062E+02 -0.85665557677E+02  0.12099039294E+03  0.00000000000E+00 0. -1.
        -15    1    3    3    0    0  0.19389124352E+02 -0.23264902211E+02 -0.46117185602E+02  0.55200963350E+02  0.17770000000E+01 0. -1.
         15    1    3    3    0    0 -0.10146868289E+02  0.33746793601E+02  0.21726638402E+02  0.41436814063E+02  0.17770000000E+01 0.  1.
</event>
<event>
 7    1  0.3165060E-007  0.1675019E+03  0.7546771E-02  0.1081063E+00
        -11   -1    0    0    0    0  0.00000000000E+00  0.00000000000E+00  0.18250000000E+03  0.18250000000E+03  0.00000000000E+00 0.  1.
         11   -1    0    0    0    0 -0.00000000000E+00 -0.00000000000E+00 -0.18250000000E+03  0.18250000000E+03  0.00000000000E+00 0. -1.
         23    2    1    2    0    0  0.63083307076E+02  0.58237513966E+02 -0.80689922113E+02  0.15166080121E+03  0.95493577946E+02 0.  0.
        -11    1    1    2    0    0 -0.11702437588E+03 -0.55747525706E+02  0.90983660419E+02  0.15836829745E+03  0.00000000000E+00 0.  1.
         11    1    1    2    0    0  0.53941068809E+02 -0.24899882595E+01 -0.10293738307E+02  0.54970901340E+02  0.00000000000E+00 0. -1.
        -15    1    3    3    0    0  0.49892309030E+02  0.64454888516E+02 -0.98959209338E+02  0.12821761968E+03  0.17770000000E+01 0.  1.
         15    1    3    3    0    0  0.13190998046E+02 -0.62173745504E+01  0.18269287225E+02  0.23443181535E+02  0.17770000000E+01 0. -1.
</event>
<event>
 7    1  0.3165060E-007  0.1816342E+03  0.7546771E-02  0.1069146E+00
        -11   -1    0    0    0    0  0.00000000000E+00  0.00000000000E+00  0.18250000000E+03  0.18250000000E+03  0.00000000000E+00 0.  1.
         11   -1    0    0    0    0 -0.00000000000E+00 -0.00000000000E+00 -0.18250000000E+03  0.18250000000E+03  0.00000000000E+00 0.  1.
         23    2    1    2    0    0  0.16791665724E+02  0.10078726538E+01 -0.16279657679E+03  0.18624011461E+03  0.88880138548E+02 0.  0.
        -11    1    1    2    0    0 -0.96066940178E+01  0.19849838820E+02  0.15306984576E+03  0.15465019350E+03  0.00000000000E+00 0.  1.
         11    1    1    2    0    0 -0.71849717065E+01 -0.20857711474E+02  0.97267310355E+01  0.24109691889E+02  0.00000000000E+00 0.  1.
        -15    1    3    3    0    0 -0.19453619019E+02 -0.56642940924E+01 -0.10801905267E+01  0.20367917446E+02  0.17770000000E+01 0. -1.
         15    1    3    3    0    0  0.36245284743E+02  0.66721667461E+01 -0.16171638627E+03  0.16587219716E+03  0.17770000000E+01 0.  1.
</event>
<event>
 7    1  0.3165060E-007  0.1465691E+03  0.7546771E-02  0.1101305E+00
        -11   -1    0    0    0    0  0.00000000000E+00  0.00000000000E+00  0.18250000000E+03  0.18250000000E+03  0.00000000000E+00 0.  1.
         11   -1    0    0    0    0 -0.00000000000E+00 -0.00000000000E+00 -0.18250000000E+03  0.18250000000E+03  0.00000000000E+00 0.  1.
         23    2    1    2    0    0 -0.15568414808E+02  0.14752792544E+02  0.51981050344E+02  0.11939643010E+03  0.10532548361E+03 0.  0.
        -11    1    1    2    0    0 -0.21469912127E+02 -0.32259170604E+02  0.89916198902E+02  0.97910847406E+02  0.00000000000E+00 0.  1.
         11    1    1    2    0    0  0.37038326935E+02  0.17506378060E+02 -0.14189724925E+03  0.14769272250E+03  0.00000000000E+00 0.  1.
        -15    1    3    3    0    0  0.12025680693E+02  0.74076102401E+01  0.78863612141E+02  0.80138110376E+02  0.17770000000E+01 0.  1.
         15    1    3    3    0    0 -0.27594095501E+02  0.73451823043E+01 -0.26882561797E+02  0.39258319722E+02  0.17770000000E+01 0. -1.
</event>
<event>
 7    1  0.3165060E-007  0.1767721E+03  0.7546771E-02  0.1073108E+00
        -11   -1    0    0    0    0  0.00000000000E+00  0.00000000000E+00  0.18250000000E+03  0.18250000000E+03  0.00000000000E+00 0. -1.
         11   -1    0    0    0    0 -0.00000000000E+00 -0.00000000000E+00 -0.18250000000E+03  0.18250000000E+03  0.00000000000E+00 0.  1.
         23    2    1    2    0    0 -0.77620704836E+02 -0.57913574721E+02 -0.12090339367E+03  0.17953709155E+03  0.90757813361E+02 0.  0.
        -11    1    1    2    0    0  0.99742556362E+02  0.62061980251E+02  0.94487049389E+02  0.15075831468E+03  0.00000000000E+00 0. -1.
         11    1    1    2    0    0 -0.22121851526E+02 -0.41484055302E+01  0.26416344282E+02  0.34704593768E+02  0.00000000000E+00 0.  1.
        -15    1    3    3    0    0 -0.58654673128E+02 -0.49165848549E+02 -0.13435162062E+03  0.15463236090E+03  0.17770000000E+01 0.  1.
         15    1    3    3    0    0 -0.18966031708E+02 -0.87477261724E+01  0.13448226952E+02  0.24904730657E+02  0.17770000000E+01 0. -1.
</event>
<event>
 7    1  0.3165060E-007  0.1476925E+03  0.7546771E-02  0.1100127E+00
        -11   -1    0    0    0    0  0.00000000000E+00  0.00000000000E+00  0.18250000000E+03  0.18250000000E+03  0.00000000000E+00 0.  1.
         11   -1    0    0    0    0 -0.00000000000E+00 -0.00000000000E+00 -0.18250000000E+03  0.18250000000E+03  0.00000000000E+00 0.  1.
         23    2    1    2    0    0 -0.10122464990E+03 -0.10207305527E+03 -0.51421807698E+02  0.17662890013E+03  0.88815695090E+02 0.  0.
        -11    1    1    2    0    0  0.76233054581E+02  0.21177187728E+02  0.65282684706E+02  0.10257573209E+03  0.00000000000E+00 0.  1.
         11    1    1    2    0    0  0.24991595316E+02  0.80895867543E+02 -0.13860877008E+02  0.85795367786E+02  0.00000000000E+00 0.  1.
        -15    1    3    3    0    0 -0.40481259211E+02 -0.67042607357E+02  0.15304516177E+02  0.79817476112E+02  0.17770000000E+01 0. -1.
         15    1    3    3    0    0 -0.60743390685E+02 -0.35030447914E+02 -0.66726323875E+02  0.96811424015E+02  0.17770000000E+01 0.  1.
</event>
<event>
 7    1  0.3165060E-007  0.1397997E+03  0.7546771E-02  0.1108663E+00
        -11   -1    0    0    0    0  0.00000000000E+00  0.00000000000E+00  0.18250000000E+03  0.18250000000E+03  0.00000000000E+00 0.  1.
         11   -1    0    0    0    0 -0.00000000000E+00 -0.00000000000E+00 -0.18250000000E+03  0.18250000000E+03  0.00000000000E+00 0. -1.
         23    2    1    2    0    0 -0.69722427368E+01  0.84607912649E+01 -0.85164416909E+02  0.12511873182E+03  0.91002868009E+02 0.  0.
        -11    1    1    2    0    0  0.71769850765E+02 -0.84162820027E+02  0.86196608494E+02  0.14022890954E+03  0.00000000000E+00 0.  1.
         11    1    1    2    0    0 -0.64797608029E+02  0.75702028762E+02 -0.10321915844E+01  0.99652358649E+02  0.00000000000E+00 0. -1.
        -15    1    3    3    0    0  0.11605283854E+02  0.44238904560E+01  0.17031831840E+02  0.21154064501E+02  0.17770000000E+01 0.  1.
         15    1    3    3    0    0 -0.18577526591E+02  0.40369008089E+01 -0.10219624875E+03  0.10396466731E+03  0.17770000000E+01 0. -1.
</event>
<event>
 7    1  0.3165060E-007  0.1441353E+03  0.7546771E-02  0.1103899E+00
        -11   -1    0    0    0    0  0.00000000000E+00  0.00000000000E+00  0.18250000000E+03  0.18250000000E+03  0.00000000000E+00 0.  1.
         11   -1    0    0    0    0 -0.00000000000E+00 -0.00000000000E+00 -0.18250000000E+03  0.18250000000E+03  0.00000000000E+00 0. -1.
         23    2    1    2    0    0 -0.28371187752E+02 -0.35717250520E+01  0.98082984899E+02  0.13672107217E+03  0.90855369320E+02 0.  0.
        -11    1    1    2    0    0 -0.65651125484E+02  0.62308045640E+02 -0.20042040924E+02  0.92704078838E+02  0.00000000000E+00 0.  1.
         11    1    1    2    0    0  0.94022313237E+02 -0.58736320588E+02 -0.78040943975E+02  0.13557484899E+03  0.00000000000E+00 0. -1.
        -15    1    3    3    0    0  0.26251805010E+02 -0.15595098498E+02  0.64689072319E+02  0.71555560021E+02  0.17770000000E+01 0.  1.
         15    1    3    3    0    0 -0.54622992762E+02  0.12023373446E+02  0.33393912580E+02  0.65165512149E+02  0.17770000000E+01 0. -1.
</event>
<event>
 7    1  0.3165060E-007  0.1739861E+03  0.7546771E-02  0.1075441E+00
        -11   -1    0    0    0    0  0.00000000000E+00  0.00000000000E+00  0.18250000000E+03  0.18250000000E+03  0.00000000000E+00 0. -1.
         11   -1    0    0    0    0 -0.00000000000E+00 -0.00000000000E+00 -0.18250000000E+03  0.18250000000E+03  0.00000000000E+00 0. -1.
         23    2    1    2    0    0 -0.60937532670E+02 -0.41056748618E+02 -0.11905059018E+03  0.16720982461E+03  0.91580800004E+02 0.  0.
        -11    1    1    2    0    0  0.82007729170E+02  0.97316227046E+01  0.13382103085E+03  0.15725151962E+03  0.00000000000E+00 0. -1.
         11    1    1    2    0    0 -0.21070196500E+02  0.31325125914E+02 -0.14770440676E+02  0.40538655772E+02  0.00000000000E+00 0. -1.
        -15    1    3    3    0    0 -0.20628343306E+02 -0.14907635508E+02 -0.11628348194E+03  0.11904945210E+03  0.17770000000E+01 0. -1.
         15    1    3    3    0    0 -0.40309189364E+02 -0.26149113110E+02 -0.27671082399E+01  0.48160372513E+02  0.17770000000E+01 0.  1.
</event>
<event>
 7    1  0.3165060E-007  0.1629833E+03  0.7546771E-02  0.1085147E+00
        -11   -1    0    0    0    0  0.00000000000E+00  0.00000000000E+00  0.18250000000E+03  0.18250000000E+03  0.00000000000E+00 0. -1.
         11   -1    0    0    0    0 -0.00000000000E+00 -0.00000000000E+00 -0.18250000000E+03  0.18250000000E+03  0.00000000000E+00 0. -1.
         23    2    1    2    0    0  0.49490530393E+01 -0.27020043367E+02 -0.13924346594E+03  0.16859107139E+03  0.90992475928E+02 0.  0.
        -11    1    1    2    0    0  0.49401310471E+02  0.44213002505E+02  0.11842886835E+03  0.13572279073E+03  0.00000000000E+00 0. -1.
         11    1    1    2    0    0 -0.54350363510E+02 -0.17192959137E+02  0.20814597592E+02  0.60686137878E+02  0.00000000000E+00 0. -1.
        -15    1    3    3    0    0  0.40942880517E+02 -0.17001853961E+02 -0.31156348049E+02  0.54214926505E+02  0.17770000000E+01 0. -1.
         15    1    3    3    0    0 -0.35993827478E+02 -0.10018189406E+02 -0.10808711789E+03  0.11437614488E+03  0.17770000000E+01 0.  1.
</event>
<event>
 7    1  0.3165060E-007  0.1524721E+03  0.7546771E-02  0.1095238E+00
        -11   -1    0    0    0    0  0.00000000000E+00  0.00000000000E+00  0.18250000000E+03  0.18250000000E+03  0.00000000000E+00 0. -1.
         11   -1    0    0    0    0 -0.00000000000E+00 -0.00000000000E+00 -0.18250000000E+03  0.18250000000E+03  0.00000000000E+00 0.  1.
         23    2    1    2    0    0  0.22967010040E+02  0.95162633429E+01  0.80305670550E+02  0.12347865454E+03  0.90442990808E+02 0.  0.
        -11    1    1    2    0    0  0.19369462689E+02  0.92507566281E+01  0.75753582444E+02  0.78736000890E+02  0.00000000000E+00 0. -1.
         11    1    1    2    0    0 -0.42336472730E+02 -0.18767019971E+02 -0.15605925299E+03  0.16278534457E+03  0.00000000000E+00 0.  1.
        -15    1    3    3    0    0  0.47401365251E+02 -0.13358771592E+01  0.83953509499E+02  0.96436629357E+02  0.17770000000E+01 0. -1.
         15    1    3    3    0    0 -0.24434355210E+02  0.10852140502E+02 -0.36478389499E+01  0.27042025183E+02  0.17770000000E+01 0.  1.
</event>
<event>
 7    1  0.3165060E-007  0.1601104E+03  0.7546771E-02  0.1087820E+00
        -11   -1    0    0    0    0  0.00000000000E+00  0.00000000000E+00  0.18250000000E+03  0.18250000000E+03  0.00000000000E+00 0. -1.
         11   -1    0    0    0    0 -0.00000000000E+00 -0.00000000000E+00 -0.18250000000E+03  0.18250000000E+03  0.00000000000E+00 0.  1.
         23    2    1    2    0    0 -0.18259775296E+02  0.39000163734E+02  0.97077102547E+02  0.14096170683E+03  0.92691999588E+02 0.  0.
        -11    1    1    2    0    0  0.41640419978E+02  0.57087749594E+01  0.51879975747E+02  0.66768604680E+02  0.00000000000E+00 0. -1.
         11    1    1    2    0    0 -0.23380644682E+02 -0.44708938693E+02 -0.14895707829E+03  0.15726968849E+03  0.00000000000E+00 0.  1.
        -15    1    3    3    0    0  0.22558900372E+02  0.25628235428E+02 -0.65218327673E+00  0.34194933969E+02  0.17770000000E+01 0.  1.
         15    1    3    3    0    0 -0.40818675668E+02  0.13371928306E+02  0.97729285824E+02  0.10676677286E+03  0.17770000000E+01 0. -1.
</event>
<event>
 7    1  0.3165060E-007  0.1358501E+03  0.7546771E-02  0.1113171E+00
        -11   -1    0    0    0    0  0.00000000000E+00  0.00000000000E+00  0.18250000000E+03  0.18250000000E+03  0.00000000000E+00 0. -1.
         11   -1    0    0    0    0 -0.00000000000E+00 -0.00000000000E+00 -0.18250000000E+03  0.18250000000E+03  0.00000000000E+00 0. -1.
         23    2    1    2    0    0  0.29271849775E+02 -0.99355263020E+01 -0.25961492658E+02  0.90317430170E+02  0.80794079111E+02 0.  0.
        -11    1    1    2    0    0  0.17147472488E+02 -0.16859824085E+02  0.14349966185E+03  0.14550066127E+03  0.00000000000E+00 0. -1.
         11    1    1    2    0    0 -0.46419322263E+02  0.26795350387E+02 -0.11753816919E+03  0.12918190856E+03  0.00000000000E+00 0. -1.
        -15    1    3    3    0    0  0.33179293058E+02  0.28451169841E+02  0.60889038371E-01  0.43743525117E+02  0.17770000000E+01 0.  1.
         15    1    3    3    0    0 -0.39074432835E+01 -0.38386696143E+02 -0.26022381696E+02  0.46573905053E+02  0.17770000000E+01 0. -1.
</event>
<event>
 7    1  0.3165060E-007  0.1208130E+03  0.7546771E-02  0.1132021E+00
        -11   -1    0    0    0    0  0.00000000000E+00  0.00000000000E+00  0.18250000000E+03  0.18250000000E+03  0.00000000000E+00 0.  1.
         11   -1    0    0    0    0 -0.00000000000E+00 -0.00000000000E+00 -0.18250000000E+03  0.18250000000E+03  0.00000000000E+00 0. -1.
         23    2    1    2    0    0 -0.98925711902E+01  0.64437800319E+02 -0.21124833633E+02  0.11384368623E+03  0.90906728150E+02 0.  0.
        -11    1    1    2    0    0  0.11705563492E+03  0.11277688756E+02  0.23497474629E+02  0.11992222164E+03  0.00000000000E+00 0.  1.
         11    1    1    2    0    0 -0.10716306372E+03 -0.75715489076E+02 -0.23726409959E+01  0.13123409213E+03  0.00000000000E+00 0. -1.
        -15    1    3    3    0    0 -0.37139793261E+02  0.34493176438E+02  0.21448486859E+02  0.55066675783E+02  0.17770000000E+01 0.  1.
         15    1    3    3    0    0  0.27247222071E+02  0.29944623882E+02 -0.42573320492E+02  0.58777010444E+02  0.17770000000E+01 0. -1.
</event>
<event>
 7    1  0.3165060E-007  0.1513233E+03  0.7546771E-02  0.1096395E+00
        -11   -1    0    0    0    0  0.00000000000E+00  0.00000000000E+00  0.18250000000E+03  0.18250000000E+03  0.00000000000E+00 0. -1.
         11   -1    0    0    0    0 -0.00000000000E+00 -0.00000000000E+00 -0.18250000000E+03  0.18250000000E+03  0.00000000000E+00 0. -1.
         23    2    1    2    0    0  0.39945288837E+02  0.17418045908E+02  0.12838258969E+03  0.16187122026E+03  0.88437481822E+02 0.  0.
        -11    1    1    2    0    0 -0.63087859855E+02 -0.73407882124E+02 -0.76797293626E+02  0.12355816253E+03  0.00000000000E+00 0. -1.
         11    1    1    2    0    0  0.23142571018E+02  0.55989836216E+02 -0.51585296064E+02  0.79570617207E+02  0.00000000000E+00 0. -1.
        -15    1    3    3    0    0 -0.24052473755E+02  0.19958725890E+02  0.62880510676E+02  0.70242356059E+02  0.17770000000E+01 0.  1.
         15    1    3    3    0    0  0.63997762592E+02 -0.25406799816E+01  0.65502079014E+02  0.91628864206E+02  0.17770000000E+01 0. -1.
</event>
<event>
 7    1  0.3165060E-007  0.1562601E+03  0.7546771E-02  0.1091501E+00
        -11   -1    0    0    0    0  0.00000000000E+00  0.00000000000E+00  0.18250000000E+03  0.18250000000E+03  0.00000000000E+00 0.  1.
         11   -1    0    0    0    0 -0.00000000000E+00 -0.00000000000E+00 -0.18250000000E+03  0.18250000000E+03  0.00000000000E+00 0. -1.
         23    2    1    2    0    0 -0.27204016365E+02 -0.39280792712E+02 -0.88108602677E+02  0.13572834177E+03  0.91520586269E+02 0.  0.
        -11    1    1    2    0    0  0.62651476300E+02  0.72879851323E+01  0.14313494738E+03  0.15641590511E+03  0.00000000000E+00 0.  1.
         11    1    1    2    0    0 -0.35447459935E+02  0.31992807580E+02 -0.55026344698E+02  0.72855753126E+02  0.00000000000E+00 0. -1.
        -15    1    3    3    0    0 -0.35412216932E+02 -0.65662997278E+02 -0.55800722356E+02  0.93180108736E+02  0.17770000000E+01 0.  1.
         15    1    3    3    0    0  0.82082005676E+01  0.26382204566E+02 -0.32307880321E+02  0.42548233033E+02  0.17770000000E+01 0. -1.
</event>
<event>
 7    1  0.3165060E-007  0.1937320E+03  0.7546771E-02  0.1059850E+00
        -11   -1    0    0    0    0  0.00000000000E+00  0.00000000000E+00  0.18250000000E+03  0.18250000000E+03  0.00000000000E+00 0.  1.
         11   -1    0    0    0    0 -0.00000000000E+00 -0.00000000000E+00 -0.18250000000E+03  0.18250000000E+03  0.00000000000E+00 0. -1.
         23    2    1    2    0    0 -0.92003073293E+02  0.11092757598E+01 -0.14294503142E+03  0.19373201001E+03  0.92914012435E+02 0.  0.
        -11    1    1    2    0    0  0.75631165984E+02 -0.58149629899E+01  0.12703632105E+03  0.14795983891E+03  0.00000000000E+00 0.  1.
         11    1    1    2    0    0  0.16371907309E+02  0.47056872301E+01  0.15908710370E+02  0.23308151083E+02  0.00000000000E+00 0. -1.
        -15    1    3    3    0    0 -0.68243091619E+02  0.28407079697E+02 -0.13879472865E+03  0.15726161694E+03  0.17770000000E+01 0. -1.
         15    1    3    3    0    0 -0.23759981674E+02 -0.27297803937E+02 -0.41503027678E+01  0.36470393074E+02  0.17770000000E+01 0.  1.
</event>
<event>
 7    1  0.3165060E-007  0.1784080E+03  0.7546771E-02  0.1071759E+00
        -11   -1    0    0    0    0  0.00000000000E+00  0.00000000000E+00  0.18250000000E+03  0.18250000000E+03  0.00000000000E+00 0.  1.
         11   -1    0    0    0    0 -0.00000000000E+00 -0.00000000000E+00 -0.18250000000E+03  0.18250000000E+03  0.00000000000E+00 0. -1.
         23    2    1    2    0    0 -0.81216340398E+02 -0.12767771856E+03  0.48612115403E+02  0.18313448789E+03  0.90980267775E+02 0.  0.
        -11    1    1    2    0    0  0.65850218909E+02  0.11389059935E+03 -0.72565405346E+02  0.15024332932E+03  0.00000000000E+00 0. -1.
         11    1    1    2    0    0  0.15366121489E+02  0.13787119214E+02  0.23953289943E+02  0.31622182798E+02  0.00000000000E+00 0.  1.
        -15    1    3    3    0    0 -0.90266430211E+02 -0.12769011677E+03  0.60854243896E+02  0.16780700543E+03  0.17770000000E+01 0.  1.
         15    1    3    3    0    0  0.90500898124E+01  0.12398204413E-01 -0.12242128493E+02  0.15327482454E+02  0.17770000000E+01 0. -1.
</event>
<event>
 7    1  0.3165060E-007  0.1555908E+03  0.7546771E-02  0.1092153E+00
        -11   -1    0    0    0    0  0.00000000000E+00  0.00000000000E+00  0.18250000000E+03  0.18250000000E+03  0.00000000000E+00 0. -1.
         11   -1    0    0    0    0 -0.00000000000E+00 -0.00000000000E+00 -0.18250000000E+03  0.18250000000E+03  0.00000000000E+00 0.  1.
         23    2    1    2    0    0 -0.94115905732E+02 -0.10133855369E+03  0.52255748840E+00  0.16559176094E+03  0.91066195984E+02 0.  0.
        -11    1    1    2    0    0  0.46240315103E+02  0.67134345851E+00  0.57460003532E+02  0.73758182250E+02  0.00000000000E+00 0. -1.
         11    1    1    2    0    0  0.47875590628E+02  0.10066721023E+03 -0.57982561020E+02  0.12565005681E+03  0.00000000000E+00 0.  1.
        -15    1    3    3    0    0 -0.95949668869E+02 -0.50554981880E+02  0.21514833208E+02  0.11058115086E+03  0.17770000000E+01 0. -1.
         15    1    3    3    0    0  0.18337631373E+01 -0.50783571806E+02 -0.20992275719E+02  0.55010610081E+02  0.17770000000E+01 0.  1.
</event>
<event>
 7    1  0.3165060E-007  0.1419499E+03  0.7546771E-02  0.1106277E+00
        -11   -1    0    0    0    0  0.00000000000E+00  0.00000000000E+00  0.18250000000E+03  0.18250000000E+03  0.00000000000E+00 0. -1.
         11   -1    0    0    0    0 -0.00000000000E+00 -0.00000000000E+00 -0.18250000000E+03  0.18250000000E+03  0.00000000000E+00 0.  1.
         23    2    1    2    0    0 -0.32498470514E+02 -0.99418818125E+02  0.26007088866E+02  0.14129637278E+03  0.91367632705E+02 0.  0.
        -11    1    1    2    0    0  0.11529492105E+01  0.45689315784E+02  0.84970156891E+02  0.96481969460E+02  0.00000000000E+00 0. -1.
         11    1    1    2    0    0  0.31345521303E+02  0.53729502341E+02 -0.11097724576E+03  0.12722165776E+03  0.00000000000E+00 0.  1.
        -15    1    3    3    0    0  0.23430158618E+02 -0.65213429375E+02  0.30131911012E+02  0.75583420761E+02  0.17770000000E+01 0.  1.
         15    1    3    3    0    0 -0.55928629132E+02 -0.34205388750E+02 -0.41248221460E+01  0.65712952017E+02  0.17770000000E+01 0. -1.
</event>
<event>
 7    1  0.3165060E-007  0.2073916E+03  0.7546771E-02  0.1050205E+00
        -11   -1    0    0    0    0  0.00000000000E+00  0.00000000000E+00  0.18250000000E+03  0.18250000000E+03  0.00000000000E+00 0.  1.
         11   -1    0    0    0    0 -0.00000000000E+00 -0.00000000000E+00 -0.18250000000E+03  0.18250000000E+03  0.00000000000E+00 0. -1.
         23    2    1    2    0    0 -0.20360406544E+02 -0.39438042003E+02  0.46112779435E+02  0.11249433807E+03  0.92513146958E+02 0.  0.
        -11    1    1    2    0    0 -0.34569808984E+02 -0.73368935321E+02  0.49268870063E+02  0.94897280892E+02  0.00000000000E+00 0.  1.
         11    1    1    2    0    0  0.54930215529E+02  0.11280697732E+03 -0.95381649498E+02  0.15760838103E+03  0.00000000000E+00 0. -1.
        -15    1    3    3    0    0  0.36269612336E+02 -0.17857870906E+02  0.28031095069E+02  0.49226906789E+02  0.17770000000E+01 0.  1.
         15    1    3    3    0    0 -0.56630018880E+02 -0.21580171097E+02  0.18081684366E+02  0.63267431285E+02  0.17770000000E+01 0. -1.
</event>
<event>
 7    1  0.3165060E-007  0.1714258E+03  0.7546771E-02  0.1077628E+00
        -11   -1    0    0    0    0  0.00000000000E+00  0.00000000000E+00  0.18250000000E+03  0.18250000000E+03  0.00000000000E+00 0.  1.
         11   -1    0    0    0    0 -0.00000000000E+00 -0.00000000000E+00 -0.18250000000E+03  0.18250000000E+03  0.00000000000E+00 0. -1.
         23    2    1    2    0    0  0.43479588810E+02  0.61516591941E+02 -0.11518842840E+03  0.16513631115E+03  0.91251638319E+02 0.  0.
        -11    1    1    2    0    0 -0.76597781177E+01 -0.85765047821E+02  0.12843240099E+03  0.15462599151E+03  0.00000000000E+00 0.  1.
         11    1    1    2    0    0 -0.35819810692E+02  0.24248455880E+02 -0.13243972590E+02  0.45237697339E+02  0.00000000000E+00 0. -1.
        -15    1    3    3    0    0  0.22257234486E+01 -0.12451176401E+02  0.84105325952E+01  0.15293149649E+02  0.17770000000E+01 0. -1.
         15    1    3    3    0    0  0.41253865361E+02  0.73967768342E+02 -0.12359896099E+03  0.14984316150E+03  0.17770000000E+01 0.  1.
</event>
<event>
 7    1  0.3165060E-007  0.1785567E+03  0.7546771E-02  0.1071638E+00
        -11   -1    0    0    0    0  0.00000000000E+00  0.00000000000E+00  0.18250000000E+03  0.18250000000E+03  0.00000000000E+00 0.  1.
         11   -1    0    0    0    0 -0.00000000000E+00 -0.00000000000E+00 -0.18250000000E+03  0.18250000000E+03  0.00000000000E+00 0. -1.
         23    2    1    2    0    0  0.22525816132E+02  0.92811743162E+02 -0.13343710739E+03  0.18356499967E+03  0.82275241811E+02 0.  0.
        -11    1    1    2    0    0  0.76875544973E+01 -0.25663333752E+02 -0.24281253169E+01  0.26899832453E+02  0.00000000000E+00 0. -1.
         11    1    1    2    0    0 -0.30213370629E+02 -0.67148409410E+02  0.13586523271E+03  0.15453516787E+03  0.00000000000E+00 0.  1.
        -15    1    3    3    0    0  0.11454387010E+02  0.10669019602E+03 -0.10603535261E+03  0.15086634694E+03  0.17770000000E+01 0. -1.
         15    1    3    3    0    0  0.11071429122E+02 -0.13878452853E+02 -0.27401754778E+02  0.32698652730E+02  0.17770000000E+01 0.  1.
</event>
<event>
 7    1  0.3165060E-007  0.2085877E+03  0.7546771E-02  0.1049399E+00
        -11   -1    0    0    0    0  0.00000000000E+00  0.00000000000E+00  0.18250000000E+03  0.18250000000E+03  0.00000000000E+00 0. -1.
         11   -1    0    0    0    0 -0.00000000000E+00 -0.00000000000E+00 -0.18250000000E+03  0.18250000000E+03  0.00000000000E+00 0.  1.
         23    2    1    2    0    0  0.14729547384E+02  0.15439584614E+01  0.52364662692E+02  0.10467421877E+03  0.89416390005E+02 0.  0.
        -11    1    1    2    0    0  0.56246967015E+02 -0.10723167577E+02  0.86713979366E+02  0.10391353059E+03  0.00000000000E+00 0. -1.
         11    1    1    2    0    0 -0.70976514399E+02  0.91792091160E+01 -0.13907864206E+03  0.15641225065E+03  0.00000000000E+00 0.  1.
        -15    1    3    3    0    0  0.35108315568E+02 -0.22868301799E+01 -0.11853163975E+02  0.37168247733E+02  0.17770000000E+01 0.  1.
         15    1    3    3    0    0 -0.20378768184E+02  0.38307886413E+01  0.64217826667E+02  0.67505971033E+02  0.17770000000E+01 0. -1.
</event>
<event>
 7    1  0.3165060E-007  0.1362898E+03  0.7546771E-02  0.1112661E+00
        -11   -1    0    0    0    0  0.00000000000E+00  0.00000000000E+00  0.18250000000E+03  0.18250000000E+03  0.00000000000E+00 0.  1.
         11   -1    0    0    0    0 -0.00000000000E+00 -0.00000000000E+00 -0.18250000000E+03  0.18250000000E+03  0.00000000000E+00 0. -1.
         23    2    1    2    0    0 -0.56188471099E+01 -0.29349840738E+02 -0.51350853768E+02  0.11402814895E+03  0.97326892359E+02 0.  0.
        -11    1    1    2    0    0 -0.63208853912E+02 -0.84638226979E+01  0.12688553186E+03  0.14201032956E+03  0.00000000000E+00 0.  1.
         11    1    1    2    0    0  0.68827701022E+02  0.37813663436E+02 -0.75534678090E+02  0.10896152149E+03  0.00000000000E+00 0. -1.
        -15    1    3    3    0    0 -0.32733775823E+02  0.15732905443E+02 -0.49417907242E+02  0.61353986655E+02  0.17770000000E+01 0.  1.
         15    1    3    3    0    0  0.27114928713E+02 -0.45082746181E+02 -0.19329465266E+01  0.52674162296E+02  0.17770000000E+01 0. -1.
</event>
<event>
 7    1  0.3165060E-007  0.2135233E+03  0.7546771E-02  0.1046134E+00
        -11   -1    0    0    0    0  0.00000000000E+00  0.00000000000E+00  0.18250000000E+03  0.18250000000E+03  0.00000000000E+00 0.  1.
         11   -1    0    0    0    0 -0.00000000000E+00 -0.00000000000E+00 -0.18250000000E+03  0.18250000000E+03  0.00000000000E+00 0. -1.
         23    2    1    2    0    0  0.17758854821E+02  0.16180723755E+02 -0.63332646865E+02  0.11481084204E+03  0.92700121599E+02 0.  0.
        -11    1    1    2    0    0 -0.10029677838E+03  0.43551084966E+01  0.11343179728E+03  0.15147667595E+03  0.00000000000E+00 0.  1.
         11    1    1    2    0    0  0.82537923558E+02 -0.20535832251E+02 -0.50099150419E+02  0.98712482008E+02  0.00000000000E+00 0. -1.
        -15    1    3    3    0    0 -0.12725258910E+02 -0.28469015424E+02  0.37482754487E+00  0.31236441510E+02  0.17770000000E+01 0.  1.
         15    1    3    3    0    0  0.30484113731E+02  0.44649739179E+02 -0.63707474410E+02  0.83574400527E+02  0.17770000000E+01 0. -1.
</event>
<event>
 7    1  0.3165060E-007  0.1557345E+03  0.7546771E-02  0.1092013E+00
        -11   -1    0    0    0    0  0.00000000000E+00  0.00000000000E+00  0.18250000000E+03  0.18250000000E+03  0.00000000000E+00 0.  1.
         11   -1    0    0    0    0 -0.00000000000E+00 -0.00000000000E+00 -0.18250000000E+03  0.18250000000E+03  0.00000000000E+00 0.  1.
         23    2    1    2    0    0 -0.16257698333E+02  0.48771617364E+02 -0.10573947542E+03  0.14517452519E+03  0.85157634340E+02 0.  0.
        -11    1    1    2    0    0 -0.18657008349E+02  0.65832318060E+02  0.16359497537E+02  0.70353473413E+02  0.00000000000E+00 0.  1.
         11    1    1    2    0    0  0.34914706682E+02 -0.11460393542E+03  0.89379977879E+02  0.14947200140E+03  0.00000000000E+00 0.  1.
        -15    1    3    3    0    0 -0.47474719852E+02  0.82384724204E+01 -0.53889519373E+02  0.72311544584E+02  0.17770000000E+01 0.  1.
         15    1    3    3    0    0  0.31217021519E+02  0.40533144943E+02 -0.51849956042E+02  0.72862980601E+02  0.17770000000E+01 0. -1.
</event>
<event>
 7    1  0.3165060E-007  0.1681841E+03  0.7546771E-02  0.1080458E+00
        -11   -1    0    0    0    0  0.00000000000E+00  0.00000000000E+00  0.18250000000E+03  0.18250000000E+03  0.00000000000E+00 0.  1.
         11   -1    0    0    0    0 -0.00000000000E+00 -0.00000000000E+00 -0.18250000000E+03  0.18250000000E+03  0.00000000000E+00 0. -1.
         23    2    1    2    0    0  0.57755284716E+02 -0.76268591120E+02 -0.75406166786E+02  0.15497486183E+03  0.95804733205E+02 0.  0.
        -11    1    1    2    0    0 -0.10954691213E+03  0.68207037677E+02  0.87904032733E+02  0.15614046534E+03  0.00000000000E+00 0.  1.
         11    1    1    2    0    0  0.51791627409E+02  0.80615534427E+01 -0.12497865947E+02  0.53884672838E+02  0.00000000000E+00 0. -1.
        -15    1    3    3    0    0  0.34011792630E+02 -0.45313550102E+02  0.13149016850E+02  0.58190843213E+02  0.17770000000E+01 0. -1.
         15    1    3    3    0    0  0.23743492086E+02 -0.30955041018E+02 -0.88555183636E+02  0.96784018612E+02  0.17770000000E+01 0.  1.
</event>
<event>
 7    1  0.3165060E-007  0.1718469E+03  0.7546771E-02  0.1077266E+00
        -11   -1    0    0    0    0  0.00000000000E+00  0.00000000000E+00  0.18250000000E+03  0.18250000000E+03  0.00000000000E+00 0.  1.
         11   -1    0    0    0    0 -0.00000000000E+00 -0.00000000000E+00 -0.18250000000E+03  0.18250000000E+03  0.00000000000E+00 0.  1.
         23    2    1    2    0    0 -0.52182364358E+02 -0.65740147805E+02  0.10586885424E+03  0.16306080939E+03  0.91300860219E+02 0.  0.
        -11    1    1    2    0    0 -0.17447320190E+02 -0.39275096237E+02 -0.11417659892E+02  0.44466899191E+02  0.00000000000E+00 0.  1.
         11    1    1    2    0    0  0.69629684547E+02  0.10501524404E+03 -0.94451194350E+02  0.15747229142E+03  0.00000000000E+00 0.  1.
        -15    1    3    3    0    0 -0.36513604226E+01 -0.54698120490E+02  0.11038971190E+02  0.55948489095E+02  0.17770000000E+01 0. -1.
         15    1    3    3    0    0 -0.48531003935E+02 -0.11042027315E+02  0.94829883051E+02  0.10711232029E+03  0.17770000000E+01 0.  1.
</event>
<event>
 7    1  0.3165060E-007  0.1706797E+03  0.7546771E-02  0.1078273E+00
        -11   -1    0    0    0    0  0.00000000000E+00  0.00000000000E+00  0.18250000000E+03  0.18250000000E+03  0.00000000000E+00 0.  1.
         11   -1    0    0    0    0 -0.00000000000E+00 -0.00000000000E+00 -0.18250000000E+03  0.18250000000E+03  0.00000000000E+00 0. -1.
         23    2    1    2    0    0  0.69221266843E+02 -0.16331607347E+02  0.10640992490E+03  0.15521712468E+03  0.87812177378E+02 0.  0.
        -11    1    1    2    0    0  0.71266577675E+01  0.19316151504E+02  0.39801313633E+02  0.44811243307E+02  0.00000000000E+00 0.  1.
         11    1    1    2    0    0 -0.76347924611E+02 -0.29845441569E+01 -0.14621123853E+03  0.16497163201E+03  0.00000000000E+00 0. -1.
        -15    1    3    3    0    0  0.68783840159E+02 -0.36048454802E+02  0.42996179761E+02  0.88783652570E+02  0.17770000000E+01 0. -1.
         15    1    3    3    0    0  0.43742668478E+00  0.19716847455E+02  0.63413745136E+02  0.66433472112E+02  0.17770000000E+01 0.  1.
</event>
<event>
 7    1  0.3165060E-007  0.1868487E+03  0.7546771E-02  0.1065045E+00
        -11   -1    0    0    0    0  0.00000000000E+00  0.00000000000E+00  0.18250000000E+03  0.18250000000E+03  0.00000000000E+00 0. -1.
         11   -1    0    0    0    0 -0.00000000000E+00 -0.00000000000E+00 -0.18250000000E+03  0.18250000000E+03  0.00000000000E+00 0. -1.
         23    2    1    2    0    0 -0.12139414897E+02  0.29431210923E+02 -0.16207677926E+03  0.18684867770E+03  0.87349781996E+02 0.  0.
        -11    1    1    2    0    0  0.24758577296E+02 -0.42473553162E+02  0.78478957563E+02  0.92606353173E+02  0.00000000000E+00 0. -1.
         11    1    1    2    0    0 -0.12619162400E+02  0.13042342239E+02  0.83597821693E+02  0.85544969124E+02  0.00000000000E+00 0. -1.
        -15    1    3    3    0    0 -0.49566270641E+02  0.11309784109E+02 -0.98477833321E+02  0.11084118272E+03  0.17770000000E+01 0. -1.
         15    1    3    3    0    0  0.37426855744E+02  0.18121426814E+02 -0.63598945935E+02  0.76007494983E+02  0.17770000000E+01 0.  1.
</event>
<event>
 7    1  0.3165060E-007  0.1881655E+03  0.7546771E-02  0.1064032E+00
        -11   -1    0    0    0    0  0.00000000000E+00  0.00000000000E+00  0.18250000000E+03  0.18250000000E+03  0.00000000000E+00 0. -1.
         11   -1    0    0    0    0 -0.00000000000E+00 -0.00000000000E+00 -0.18250000000E+03  0.18250000000E+03  0.00000000000E+00 0. -1.
         23    2    1    2    0    0 -0.30475532229E+02 -0.38644327822E+02 -0.15809127509E+03  0.18816549514E+03  0.89393848596E+02 0.  0.
        -11    1    1    2    0    0 -0.17930562921E+02  0.86239010565E+01  0.62169154657E+02  0.65275420694E+02  0.00000000000E+00 0. -1.
         11    1    1    2    0    0  0.48406095150E+02  0.30020426766E+02  0.95922120431E+02  0.11155908416E+03  0.00000000000E+00 0. -1.
        -15    1    3    3    0    0 -0.14418072832E+02 -0.62310976776E+02 -0.66867559804E+02  0.92547106568E+02  0.17770000000E+01 0.  1.
         15    1    3    3    0    0 -0.16057459397E+02  0.23666648953E+02 -0.91223715283E+02  0.95618388577E+02  0.17770000000E+01 0. -1.
</event>
<event>
 7    1  0.3165060E-007  0.1754717E+03  0.7546771E-02  0.1074191E+00
        -11   -1    0    0    0    0  0.00000000000E+00  0.00000000000E+00  0.18250000000E+03  0.18250000000E+03  0.00000000000E+00 0. -1.
         11   -1    0    0    0    0 -0.00000000000E+00 -0.00000000000E+00 -0.18250000000E+03  0.18250000000E+03  0.00000000000E+00 0.  1.
         23    2    1    2    0    0  0.19196228920E+02 -0.46446795586E+02 -0.12892091157E+03  0.16800852479E+03  0.95291463081E+02 0.  0.
        -11    1    1    2    0    0 -0.24633911654E+02  0.16451788504E+02  0.15442820317E+03  0.15724363542E+03  0.00000000000E+00 0. -1.
         11    1    1    2    0    0  0.54376827343E+01  0.29995007082E+02 -0.25507291591E+02  0.39747839786E+02  0.00000000000E+00 0.  1.
        -15    1    3    3    0    0 -0.24573049380E+02  0.16092090586E+02 -0.22565555604E+02  0.37083044157E+02  0.17770000000E+01 0. -1.
         15    1    3    3    0    0  0.43769278299E+02 -0.62538886172E+02 -0.10635535597E+03  0.13092548063E+03  0.17770000000E+01 0.  1.
</event>
<event>
 7    1  0.3165060E-007  0.1570924E+03  0.7546771E-02  0.1090696E+00
        -11   -1    0    0    0    0  0.00000000000E+00  0.00000000000E+00  0.18250000000E+03  0.18250000000E+03  0.00000000000E+00 0.  1.
         11   -1    0    0    0    0 -0.00000000000E+00 -0.00000000000E+00 -0.18250000000E+03  0.18250000000E+03  0.00000000000E+00 0. -1.
         23    2    1    2    0    0  0.50556157305E+02  0.66404978752E+01 -0.77828422274E+02  0.13028888126E+03  0.91202565822E+02 0.  0.
        -11    1    1    2    0    0 -0.98972649705E+02 -0.17593830011E+02  0.12891759823E+03  0.16347744608E+03  0.00000000000E+00 0.  1.
         11    1    1    2    0    0  0.48416492400E+02  0.10953332135E+02 -0.51089175954E+02  0.71233672661E+02  0.00000000000E+00 0. -1.
        -15    1    3    3    0    0  0.49123045498E+02  0.40156583926E+02 -0.26143829917E+02  0.68646066189E+02  0.17770000000E+01 0.  1.
         15    1    3    3    0    0  0.14331118072E+01 -0.33516086050E+02 -0.51684592357E+02  0.61642815069E+02  0.17770000000E+01 0. -1.
</event>
<event>
 7    1  0.3165060E-007  0.1751568E+03  0.7546771E-02  0.1074455E+00
        -11   -1    0    0    0    0  0.00000000000E+00  0.00000000000E+00  0.18250000000E+03  0.18250000000E+03  0.00000000000E+00 0.  1.
         11   -1    0    0    0    0 -0.00000000000E+00 -0.00000000000E+00 -0.18250000000E+03  0.18250000000E+03  0.00000000000E+00 0.  1.
         23    2    1    2    0    0  0.42660594977E+02  0.76650000673E+02  0.10041936901E+03  0.16169488359E+03  0.91466041454E+02 0.  0.
        -11    1    1    2    0    0  0.31926519124E+02  0.11207500173E+02  0.17776557805E+02  0.38221939916E+02  0.00000000000E+00 0.  1.
         11    1    1    2    0    0 -0.74587114102E+02 -0.87857500846E+02 -0.11819592682E+03  0.16508317649E+03  0.00000000000E+00 0.  1.
        -15    1    3    3    0    0  0.25712970117E+02  0.90556996184E+02  0.49820463032E+02  0.10652212285E+03  0.17770000000E+01 0. -1.
         15    1    3    3    0    0  0.16947624860E+02 -0.13906995511E+02  0.50598905982E+02  0.55172760744E+02  0.17770000000E+01 0.  1.
</event>
<event>
 7    1  0.3165060E-007  0.1658318E+03  0.7546771E-02  0.1082556E+00
        -11   -1    0    0    0    0  0.00000000000E+00  0.00000000000E+00  0.18250000000E+03  0.18250000000E+03  0.00000000000E+00 0. -1.
         11   -1    0    0    0    0 -0.00000000000E+00 -0.00000000000E+00 -0.18250000000E+03  0.18250000000E+03  0.00000000000E+00 0. -1.
         23    2    1    2    0    0 -0.29509348948E+02  0.60374138970E+01 -0.14606628184E+03  0.17410228431E+03  0.89827583019E+02 0.  0.
        -11    1    1    2    0    0  0.31321342091E+02 -0.54603132016E+02  0.12057673716E+03  0.13601940318E+03  0.00000000000E+00 0. -1.
         11    1    1    2    0    0 -0.18119931428E+01  0.48565718119E+02  0.25489544676E+02  0.54878312505E+02  0.00000000000E+00 0. -1.
        -15    1    3    3    0    0 -0.38735064005E+02 -0.22694538948E+02 -0.13438179345E+03  0.14169358285E+03  0.17770000000E+01 0. -1.
         15    1    3    3    0    0  0.92257150575E+01  0.28731952845E+02 -0.11684488392E+02  0.32408701464E+02  0.17770000000E+01 0.  1.
</event>
<event>
 7    1  0.3165060E-007  0.1738448E+03  0.7546771E-02  0.1075561E+00
        -11   -1    0    0    0    0  0.00000000000E+00  0.00000000000E+00  0.18250000000E+03  0.18250000000E+03  0.00000000000E+00 0. -1.
         11   -1    0    0    0    0 -0.00000000000E+00 -0.00000000000E+00 -0.18250000000E+03  0.18250000000E+03  0.00000000000E+00 0. -1.
         23    2    1    2    0    0 -0.33946494343E+02  0.60316787682E+02  0.11373894407E+03  0.16071364878E+03  0.90010278025E+02 0.  0.
        -11    1    1    2    0    0  0.18000917908E+02  0.23989258958E+02  0.26407614052E+02  0.39960976850E+02  0.00000000000E+00 0. -1.
         11    1    1    2    0    0  0.15945576435E+02 -0.84306046639E+02 -0.14014655813E+03  0.16432537437E+03  0.00000000000E+00 0. -1.
        -15    1    3    3    0    0 -0.55557730665E+02  0.23750670331E+02  0.31561700049E+02  0.68191307487E+02  0.17770000000E+01 0. -1.
         15    1    3    3    0    0  0.21611236322E+02  0.36566117351E+02  0.82177244025E+02  0.92522341291E+02  0.17770000000E+01 0.  1.
</event>
<event>
 7    1  0.3165060E-007  0.1225858E+03  0.7546771E-02  0.1129644E+00
        -11   -1    0    0    0    0  0.00000000000E+00  0.00000000000E+00  0.18250000000E+03  0.18250000000E+03  0.00000000000E+00 0. -1.
         11   -1    0    0    0    0 -0.00000000000E+00 -0.00000000000E+00 -0.18250000000E+03  0.18250000000E+03  0.00000000000E+00 0. -1.
         23    2    1    2    0    0 -0.72741069713E+01  0.10713543815E+02 -0.63268303417E+02  0.11146568031E+03  0.90851675912E+02 0.  0.
        -11    1    1    2    0    0 -0.49925255985E+02  0.96856851737E+02  0.73242069756E+02  0.13129425614E+03  0.00000000000E+00 0. -1.
         11    1    1    2    0    0  0.57199362956E+02 -0.10757039555E+03 -0.99737663393E+01  0.12224006355E+03  0.00000000000E+00 0. -1.
        -15    1    3    3    0    0 -0.33694807578E+02 -0.27452938596E+02 -0.19603693448E+02  0.47712329864E+02  0.17770000000E+01 0. -1.
         15    1    3    3    0    0  0.26420700607E+02  0.38166482410E+02 -0.43664609968E+02  0.63753350444E+02  0.17770000000E+01 0.  1.
</event>
<event>
 7    1  0.3165060E-007  0.1834988E+03  0.7546771E-02  0.1067663E+00
        -11   -1    0    0    0    0  0.00000000000E+00  0.00000000000E+00  0.18250000000E+03  0.18250000000E+03  0.00000000000E+00 0.  1.
         11   -1    0    0    0    0 -0.00000000000E+00 -0.00000000000E+00 -0.18250000000E+03  0.18250000000E+03  0.00000000000E+00 0.  1.
         23    2    1    2    0    0 -0.14923629801E+02  0.58112906988E+02 -0.15093092557E+03  0.18630578066E+03  0.91268148484E+02 0.  0.
        -11    1    1    2    0    0  0.58648608875E+01 -0.38511960929E+02  0.15215867751E+03  0.15706632634E+03  0.00000000000E+00 0.  1.
         11    1    1    2    0    0  0.90587689131E+01 -0.19600946060E+02 -0.12277519393E+01  0.21627892997E+02  0.00000000000E+00 0.  1.
        -15    1    3    3    0    0 -0.10662630909E+02  0.79166203185E+02 -0.14207995607E+03  0.16300567803E+03  0.17770000000E+01 0.  1.
         15    1    3    3    0    0 -0.42609988920E+01 -0.21053296196E+02 -0.88509695010E+01  0.23300102626E+02  0.17770000000E+01 0. -1.
</event>
<event>
 7    1  0.3165060E-007  0.1784388E+03  0.7546771E-02  0.1071734E+00
        -11   -1    0    0    0    0  0.00000000000E+00  0.00000000000E+00  0.18250000000E+03  0.18250000000E+03  0.00000000000E+00 0.  1.
         11   -1    0    0    0    0 -0.00000000000E+00 -0.00000000000E+00 -0.18250000000E+03  0.18250000000E+03  0.00000000000E+00 0. -1.
         23    2    1    2    0    0  0.10757954676E+02 -0.47194248165E+01 -0.13513954667E+03  0.16873111915E+03  0.10034683320E+03 0.  0.
        -11    1    1    2    0    0 -0.42681380607E+02  0.86681276129E+01  0.15327461425E+03  0.15934222310E+03  0.00000000000E+00 0.  1.
         11    1    1    2    0    0  0.31923425931E+02 -0.39487027964E+01 -0.18135067580E+02  0.36926657757E+02  0.00000000000E+00 0. -1.
        -15    1    3    3    0    0 -0.37518929879E+02 -0.28365558060E+02 -0.68073345089E+02  0.82761180658E+02  0.17770000000E+01 0.  1.
         15    1    3    3    0    0  0.48276884555E+02  0.23646133244E+02 -0.67066201584E+02  0.85969938488E+02  0.17770000000E+01 0. -1.
</event>
<event>
 7    1  0.3165060E-007  0.1590519E+03  0.7546771E-02  0.1088821E+00
        -11   -1    0    0    0    0  0.00000000000E+00  0.00000000000E+00  0.18250000000E+03  0.18250000000E+03  0.00000000000E+00 0. -1.
         11   -1    0    0    0    0 -0.00000000000E+00 -0.00000000000E+00 -0.18250000000E+03  0.18250000000E+03  0.00000000000E+00 0. -1.
         23    2    1    2    0    0  0.20741175636E+02  0.67517471532E+02 -0.10544827005E+03  0.15597152509E+03  0.90658555318E+02 0.  0.
        -11    1    1    2    0    0 -0.31329470462E+02 -0.12123182200E+03  0.65959313053E+02  0.14152498494E+03  0.00000000000E+00 0. -1.
         11    1    1    2    0    0  0.10588294826E+02  0.53714350468E+02  0.39488956996E+02  0.67503489971E+02  0.00000000000E+00 0. -1.
        -15    1    3    3    0    0  0.10520495964E+01  0.78268702988E+02 -0.42425404338E+02  0.89051498236E+02  0.17770000000E+01 0. -1.
         15    1    3    3    0    0  0.19689126040E+02 -0.10751231457E+02 -0.63022865712E+02  0.66920026850E+02  0.17770000000E+01 0.  1.
</event>
<event>
 7    1  0.3165060E-007  0.2163976E+03  0.7546771E-02  0.1044277E+00
        -11   -1    0    0    0    0  0.00000000000E+00  0.00000000000E+00  0.18250000000E+03  0.18250000000E+03  0.00000000000E+00 0.  1.
         11   -1    0    0    0    0 -0.00000000000E+00 -0.00000000000E+00 -0.18250000000E+03  0.18250000000E+03  0.00000000000E+00 0. -1.
         23    2    1    2    0    0 -0.44029632394E+01  0.66639835167E+02 -0.21801337849E+02  0.11600787332E+03  0.92316166641E+02 0.  0.
        -11    1    1    2    0    0  0.48300517522E+02  0.72534998177E+02  0.49837984247E+02  0.10038969383E+03  0.00000000000E+00 0.  1.
         11    1    1    2    0    0 -0.43897554282E+02 -0.13917483334E+03 -0.28036646399E+02  0.14860243285E+03  0.00000000000E+00 0. -1.
        -15    1    3    3    0    0 -0.42261327514E+02  0.11444159998E+02  0.45475940824E+01  0.44054817469E+02  0.17770000000E+01 0.  1.
         15    1    3    3    0    0  0.37858364275E+02  0.55195675170E+02 -0.26348931931E+02  0.71953055848E+02  0.17770000000E+01 0. -1.
</event>
<event>
 7    1  0.3165060E-007  0.1921157E+03  0.7546771E-02  0.1061048E+00
        -11   -1    0    0    0    0  0.00000000000E+00  0.00000000000E+00  0.18250000000E+03  0.18250000000E+03  0.00000000000E+00 0. -1.
         11   -1    0    0    0    0 -0.00000000000E+00 -0.00000000000E+00 -0.18250000000E+03  0.18250000000E+03  0.00000000000E+00 0. -1.
         23    2    1    2    0    0 -0.99660776963E+01  0.63190449829E+01 -0.16855342836E+03  0.19211568468E+03  0.91427157098E+02 0.  0.
        -11    1    1    2    0    0  0.18990622374E+02 -0.46550962913E+01  0.15659334589E+03  0.15780934585E+03  0.00000000000E+00 0. -1.
         11    1    1    2    0    0 -0.90245446780E+01 -0.16639486916E+01  0.11960082465E+02  0.15074969468E+02  0.00000000000E+00 0. -1.
        -15    1    3    3    0    0  0.31521194730E+02  0.79759751739E+00 -0.13441769397E+03  0.13807786231E+03  0.17770000000E+01 0. -1.
         15    1    3    3    0    0 -0.41487272426E+02  0.55214474655E+01 -0.34135734392E+02  0.54037822374E+02  0.17770000000E+01 0.  1.
</event>
<event>
 7    1  0.3165060E-007  0.1367036E+03  0.7546771E-02  0.1112182E+00
        -11   -1    0    0    0    0  0.00000000000E+00  0.00000000000E+00  0.18250000000E+03  0.18250000000E+03  0.00000000000E+00 0.  1.
         11   -1    0    0    0    0 -0.00000000000E+00 -0.00000000000E+00 -0.18250000000E+03  0.18250000000E+03  0.00000000000E+00 0. -1.
         23    2    1    2    0    0 -0.16656587478E+02  0.18685837759E+02  0.71741035870E+02  0.11827158956E+03  0.90635479976E+02 0.  0.
        -11    1    1    2    0    0 -0.91264630404E+02 -0.47462876802E+02  0.16758543097E+02  0.10422478690E+03  0.00000000000E+00 0.  1.
         11    1    1    2    0    0  0.10792121788E+03  0.28777039043E+02 -0.88499578967E+02  0.14250362354E+03  0.00000000000E+00 0. -1.
        -15    1    3    3    0    0 -0.38071175743E+02  0.45697839473E+02  0.44707524257E+02  0.74428673300E+02  0.17770000000E+01 0. -1.
         15    1    3    3    0    0  0.21414588265E+02 -0.27012001714E+02  0.27033511613E+02  0.43842916261E+02  0.17770000000E+01 0.  1.
</event>
<event>
 7    1  0.3165060E-007  0.1556403E+03  0.7546771E-02  0.1092105E+00
        -11   -1    0    0    0    0  0.00000000000E+00  0.00000000000E+00  0.18250000000E+03  0.18250000000E+03  0.00000000000E+00 0.  1.
         11   -1    0    0    0    0 -0.00000000000E+00 -0.00000000000E+00 -0.18250000000E+03  0.18250000000E+03  0.00000000000E+00 0. -1.
         23    2    1    2    0    0 -0.74201914062E+02 -0.15119657518E+02  0.68341749306E+02  0.13704371015E+03  0.91519701158E+02 0.  0.
        -11    1    1    2    0    0 -0.31062383588E+02  0.56456972169E+02  0.36233073520E+02  0.73926294357E+02  0.00000000000E+00 0.  1.
         11    1    1    2    0    0  0.10526429765E+03 -0.41337314651E+02 -0.10457482283E+03  0.15402999549E+03  0.00000000000E+00 0. -1.
        -15    1    3    3    0    0 -0.87584260200E+02 -0.10157321158E+02  0.25425150943E+02  0.91781097386E+02  0.17770000000E+01 0.  1.
         15    1    3    3    0    0  0.13382346138E+02 -0.49623363602E+01  0.42916598363E+02  0.45262612765E+02  0.17770000000E+01 0. -1.
</event>
<event>
 7    1  0.3165060E-007  0.1441695E+03  0.7546771E-02  0.1103862E+00
        -11   -1    0    0    0    0  0.00000000000E+00  0.00000000000E+00  0.18250000000E+03  0.18250000000E+03  0.00000000000E+00 0.  1.
         11   -1    0    0    0    0 -0.00000000000E+00 -0.00000000000E+00 -0.18250000000E+03  0.18250000000E+03  0.00000000000E+00 0.  1.
         23    2    1    2    0    0  0.70862005679E+02 -0.10073589313E+02 -0.80323905302E+02  0.12697323594E+03  0.67434203716E+02 0.  0.
        -11    1    1    2    0    0 -0.92753621027E+02  0.87865832659E+02  0.90508026164E+02  0.15657375758E+03  0.00000000000E+00 0.  1.
         11    1    1    2    0    0  0.21891615348E+02 -0.77792243347E+02 -0.10184120862E+02  0.81453006484E+02  0.00000000000E+00 0.  1.
        -15    1    3    3    0    0  0.64544245477E+02 -0.13289443096E+02 -0.92011072325E+02  0.11318906344E+03  0.17770000000E+01 0.  1.
         15    1    3    3    0    0  0.63177602012E+01  0.32158537832E+01  0.11687167023E+02  0.13784172501E+02  0.17770000000E+01 0. -1.
</event>
<event>
 7    1  0.3165060E-007  0.1503245E+03  0.7546771E-02  0.1097410E+00
        -11   -1    0    0    0    0  0.00000000000E+00  0.00000000000E+00  0.18250000000E+03  0.18250000000E+03  0.00000000000E+00 0.  1.
         11   -1    0    0    0    0 -0.00000000000E+00 -0.00000000000E+00 -0.18250000000E+03  0.18250000000E+03  0.00000000000E+00 0. -1.
         23    2    1    2    0    0 -0.72891202383E+02 -0.35755641615E+00 -0.65909872187E+02  0.13470811634E+03  0.92135281647E+02 0.  0.
        -11    1    1    2    0    0  0.57810000090E+02  0.61645798028E+02  0.12026965250E+03  0.14699316255E+03  0.00000000000E+00 0.  1.
         11    1    1    2    0    0  0.15081202293E+02 -0.61288241612E+02 -0.54359780313E+02  0.83298721108E+02  0.00000000000E+00 0. -1.
        -15    1    3    3    0    0 -0.88563298094E+01 -0.19902061907E+02  0.17313306826E+02  0.27882520835E+02  0.17770000000E+01 0.  1.
         15    1    3    3    0    0 -0.64034872574E+02  0.19544505491E+02 -0.83223179014E+02  0.10682559550E+03  0.17770000000E+01 0. -1.
</event>
<event>
 7    1  0.3165060E-007  0.2128798E+03  0.7546771E-02  0.1046554E+00
        -11   -1    0    0    0    0  0.00000000000E+00  0.00000000000E+00  0.18250000000E+03  0.18250000000E+03  0.00000000000E+00 0.  1.
         11   -1    0    0    0    0 -0.00000000000E+00 -0.00000000000E+00 -0.18250000000E+03  0.18250000000E+03  0.00000000000E+00 0. -1.
         23    2    1    2    0    0 -0.34868197206E+02  0.41919651661E+01  0.23260923033E+02  0.99901156351E+02  0.90585908129E+02 0.  0.
        -11    1    1    2    0    0 -0.61154128303E+02  0.40493583468E+02  0.85933755693E+02  0.11297861779E+03  0.00000000000E+00 0.  1.
         11    1    1    2    0    0  0.96022325509E+02 -0.44685548634E+02 -0.10919467873E+03  0.15212022586E+03  0.00000000000E+00 0. -1.
        -15    1    3    3    0    0 -0.86903811170E+01  0.28464593860E+02 -0.25644401550E+02  0.39326185773E+02  0.17770000000E+01 0. -1.
         15    1    3    3    0    0 -0.26177816089E+02 -0.24272628694E+02  0.48905324583E+02  0.60574970578E+02  0.17770000000E+01 0.  1.
</event>
<event>
 7    1  0.3165060E-007  0.1778692E+03  0.7546771E-02  0.1072202E+00
        -11   -1    0    0    0    0  0.00000000000E+00  0.00000000000E+00  0.18250000000E+03  0.18250000000E+03  0.00000000000E+00 0.  1.
         11   -1    0    0    0    0 -0.00000000000E+00 -0.00000000000E+00 -0.18250000000E+03  0.18250000000E+03  0.00000000000E+00 0. -1.
         23    2    1    2    0    0 -0.86350106505E+02  0.41961100882E+02 -0.11356706661E+03  0.17376162923E+03  0.89880755972E+02 0.  0.
        -11    1    1    2    0    0  0.77486624448E+02 -0.22177155882E+02  0.13722896423E+03  0.15914707611E+03  0.00000000000E+00 0.  1.
         11    1    1    2    0    0  0.88634820571E+01 -0.19783945000E+02 -0.23661897621E+02  0.32091294660E+02  0.00000000000E+00 0. -1.
        -15    1    3    3    0    0 -0.79758856368E+02  0.57965059529E+02 -0.11990195030E+03  0.15524515680E+03  0.17770000000E+01 0.  1.
         15    1    3    3    0    0 -0.65912501375E+01 -0.16003958647E+02  0.63348836945E+01  0.18516472428E+02  0.17770000000E+01 0. -1.
</event>
<event>
 7    1  0.3165060E-007  0.1759762E+03  0.7546771E-02  0.1073770E+00
        -11   -1    0    0    0    0  0.00000000000E+00  0.00000000000E+00  0.18250000000E+03  0.18250000000E+03  0.00000000000E+00 0. -1.
         11   -1    0    0    0    0 -0.00000000000E+00 -0.00000000000E+00 -0.18250000000E+03  0.18250000000E+03  0.00000000000E+00 0.  1.
         23    2    1    2    0    0 -0.28535266033E+02 -0.19968449217E+02 -0.15216876020E+03  0.18083847549E+03  0.91291961659E+02 0.  0.
        -11    1    1    2    0    0  0.17360770395E+02  0.51414103589E+02  0.13728449293E+03  0.14762058933E+03  0.00000000000E+00 0. -1.
         11    1    1    2    0    0  0.11174495637E+02 -0.31445654372E+02  0.14884267276E+02  0.36540935182E+02  0.00000000000E+00 0.  1.
        -15    1    3    3    0    0 -0.11987583515E+02  0.32413795241E+02 -0.26210753518E+02  0.43411030965E+02  0.17770000000E+01 0. -1.
         15    1    3    3    0    0 -0.16547682518E+02 -0.52382244458E+02 -0.12595800668E+03  0.13742744452E+03  0.17770000000E+01 0.  1.
</event>
<event>
 7    1  0.3165060E-007  0.1645225E+03  0.7546771E-02  0.1083740E+00
        -11   -1    0    0    0    0  0.00000000000E+00  0.00000000000E+00  0.18250000000E+03  0.18250000000E+03  0.00000000000E+00 0. -1.
         11   -1    0    0    0    0 -0.00000000000E+00 -0.00000000000E+00 -0.18250000000E+03  0.18250000000E+03  0.00000000000E+00 0.  1.
         23    2    1    2    0    0 -0.32435999870E+02 -0.52935405942E+02  0.87096139667E+02  0.14174365894E+03  0.93012235841E+02 0.  0.
        -11    1    1    2    0    0 -0.28797581083E+02 -0.36755348814E+02  0.36104491643E+02  0.59023644919E+02  0.00000000000E+00 0. -1.
         11    1    1    2    0    0  0.61233580953E+02  0.89690754756E+02 -0.12320063131E+03  0.16423269614E+03  0.00000000000E+00 0.  1.
        -15    1    3    3    0    0 -0.28739683408E+02 -0.68424078606E+02  0.26119282106E+02  0.78696877715E+02  0.17770000000E+01 0.  1.
         15    1    3    3    0    0 -0.36963164626E+01  0.15488672664E+02  0.60976857561E+02  0.63046781229E+02  0.17770000000E+01 0. -1.
</event>
<event>
 7    1  0.3165060E-007  0.1726784E+03  0.7546771E-02  0.1076553E+00
        -11   -1    0    0    0    0  0.00000000000E+00  0.00000000000E+00  0.18250000000E+03  0.18250000000E+03  0.00000000000E+00 0. -1.
         11   -1    0    0    0    0 -0.00000000000E+00 -0.00000000000E+00 -0.18250000000E+03  0.18250000000E+03  0.00000000000E+00 0. -1.
         23    2    1    2    0    0 -0.31892602623E+02  0.67438967186E+02 -0.14247943168E+03  0.18528038864E+03  0.91996095384E+02 0.  0.
        -11    1    1    2    0    0 -0.75411341636E+00 -0.73758353299E+02  0.11479731232E+03  0.13645250560E+03  0.00000000000E+00 0. -1.
         11    1    1    2    0    0  0.32646716040E+02  0.63193861134E+01  0.27682119355E+02  0.43267105762E+02  0.00000000000E+00 0. -1.
        -15    1    3    3    0    0  0.63580939843E+01  0.61669755886E+02 -0.35399168943E+02  0.71413185344E+02  0.17770000000E+01 0.  1.
         15    1    3    3    0    0 -0.38250696607E+02  0.57692112997E+01 -0.10708026273E+03  0.11386720329E+03  0.17770000000E+01 0. -1.
</event>
<event>
 7    1  0.3165060E-007  0.1738227E+03  0.7546771E-02  0.1075580E+00
        -11   -1    0    0    0    0  0.00000000000E+00  0.00000000000E+00  0.18250000000E+03  0.18250000000E+03  0.00000000000E+00 0.  1.
         11   -1    0    0    0    0 -0.00000000000E+00 -0.00000000000E+00 -0.18250000000E+03  0.18250000000E+03  0.00000000000E+00 0. -1.
         23    2    1    2    0    0 -0.19110393119E+02  0.30422961000E+02 -0.15103872526E+03  0.17950199226E+03  0.90097197586E+02 0.  0.
        -11    1    1    2    0    0 -0.69144946366E+01 -0.55756017867E+02  0.13415907046E+03  0.14544827242E+03  0.00000000000E+00 0.  1.
         11    1    1    2    0    0  0.26024887756E+02  0.25333056868E+02  0.16879654806E+02  0.40049735322E+02  0.00000000000E+00 0. -1.
        -15    1    3    3    0    0  0.79950498943E+01 -0.27598279569E+02 -0.25052278036E+02  0.38162287953E+02  0.17770000000E+01 0. -1.
         15    1    3    3    0    0 -0.27105443014E+02  0.58021240569E+02 -0.12598644723E+03  0.14133970430E+03  0.17770000000E+01 0.  1.
</event>
<event>
 7    1  0.3165060E-007  0.1448008E+03  0.7546771E-02  0.1103184E+00
        -11   -1    0    0    0    0  0.00000000000E+00  0.00000000000E+00  0.18250000000E+03  0.18250000000E+03  0.00000000000E+00 0.  1.
         11   -1    0    0    0    0 -0.00000000000E+00 -0.00000000000E+00 -0.18250000000E+03  0.18250000000E+03  0.00000000000E+00 0.  1.
         23    2    1    2    0    0  0.18044934549E+02 -0.30708793594E+02 -0.10699724815E+03  0.14503252004E+03  0.91199622202E+02 0.  0.
        -11    1    1    2    0    0 -0.93733372133E+02 -0.16751274766E+02  0.85747758156E+02  0.12813753660E+03  0.00000000000E+00 0.  1.
         11    1    1    2    0    0  0.75688437584E+02  0.47460068359E+02  0.21249489993E+02  0.91829943361E+02  0.00000000000E+00 0.  1.
        -15    1    3    3    0    0 -0.25044960915E+02 -0.43707111542E+02 -0.40226551000E+02  0.64489493725E+02  0.17770000000E+01 0. -1.
         15    1    3    3    0    0  0.43089895463E+02  0.12998317949E+02 -0.66770697150E+02  0.80543026312E+02  0.17770000000E+01 0.  1.
</event>
<event>
 7    1  0.3165060E-007  0.1433945E+03  0.7546771E-02  0.1104700E+00
        -11   -1    0    0    0    0  0.00000000000E+00  0.00000000000E+00  0.18250000000E+03  0.18250000000E+03  0.00000000000E+00 0.  1.
         11   -1    0    0    0    0 -0.00000000000E+00 -0.00000000000E+00 -0.18250000000E+03  0.18250000000E+03  0.00000000000E+00 0.  1.
         23    2    1    2    0    0  0.79101167318E+02  0.13640578232E+02 -0.32492146781E+02  0.12617231885E+03  0.91764123684E+02 0.  0.
        -11    1    1    2    0    0  0.60193171772E+02 -0.18847248878E+02  0.70251393436E+02  0.94412366764E+02  0.00000000000E+00 0.  1.
         11    1    1    2    0    0 -0.13929433909E+03  0.52066706466E+01 -0.37759246656E+02  0.14441531439E+03  0.00000000000E+00 0.  1.
        -15    1    3    3    0    0  0.80487989307E+02  0.40596513404E+02 -0.94854509349E+01  0.90661595131E+02  0.17770000000E+01 0.  1.
         15    1    3    3    0    0 -0.13868219884E+01 -0.26955935172E+02 -0.23006695846E+02  0.35510723718E+02  0.17770000000E+01 0. -1.
</event>
<event>
 7    1  0.3165060E-007  0.1600018E+03  0.7546771E-02  0.1087923E+00
        -11   -1    0    0    0    0  0.00000000000E+00  0.00000000000E+00  0.18250000000E+03  0.18250000000E+03  0.00000000000E+00 0. -1.
         11   -1    0    0    0    0 -0.00000000000E+00 -0.00000000000E+00 -0.18250000000E+03  0.18250000000E+03  0.00000000000E+00 0. -1.
         23    2    1    2    0    0  0.22836690629E+02  0.65043026775E+02 -0.12222414941E+03  0.16838844496E+03  0.93079621436E+02 0.  0.
        -11    1    1    2    0    0  0.40562568478E+02  0.21026745729E+02  0.49252427738E+02  0.67180708805E+02  0.00000000000E+00 0. -1.
         11    1    1    2    0    0 -0.63399259107E+02 -0.86069772504E+02  0.72971721669E+02  0.12943084624E+03  0.00000000000E+00 0. -1.
        -15    1    3    3    0    0  0.10075835081E+02 -0.23798561246E+02 -0.31050819846E+02  0.40437669468E+02  0.17770000000E+01 0.  1.
         15    1    3    3    0    0  0.12760855549E+02  0.88841588021E+02 -0.91173329560E+02  0.12795077549E+03  0.17770000000E+01 0. -1.
</event>
<event>
 7    1  0.3165060E-007  0.1637321E+03  0.7546771E-02  0.1084460E+00
        -11   -1    0    0    0    0  0.00000000000E+00  0.00000000000E+00  0.18250000000E+03  0.18250000000E+03  0.00000000000E+00 0.  1.
         11   -1    0    0    0    0 -0.00000000000E+00 -0.00000000000E+00 -0.18250000000E+03  0.18250000000E+03  0.00000000000E+00 0. -1.
         23    2    1    2    0    0 -0.33024727179E+02 -0.39722895038E+02 -0.10276717125E+03  0.14732957706E+03  0.92067213468E+02 0.  0.
        -11    1    1    2    0    0  0.52311167369E+02  0.63817807679E+01  0.14867845453E+03  0.15774177696E+03  0.00000000000E+00 0.  1.
         11    1    1    2    0    0 -0.19286440191E+02  0.33341114270E+02 -0.45911283279E+02  0.59928645975E+02  0.00000000000E+00 0. -1.
        -15    1    3    3    0    0 -0.55350992144E+02 -0.36180776622E+02 -0.32911324171E+02  0.73885681401E+02  0.17770000000E+01 0.  1.
         15    1    3    3    0    0  0.22326264965E+02 -0.35421184162E+01 -0.69855847079E+02  0.73443895664E+02  0.17770000000E+01 0. -1.
</event>
<event>
 7    1  0.3165060E-007  0.1578911E+03  0.7546771E-02  0.1089928E+00
        -11   -1    0    0    0    0  0.00000000000E+00  0.00000000000E+00  0.18250000000E+03  0.18250000000E+03  0.00000000000E+00 0. -1.
         11   -1    0    0    0    0 -0.00000000000E+00 -0.00000000000E+00 -0.18250000000E+03  0.18250000000E+03  0.00000000000E+00 0. -1.
         23    2    1    2    0    0 -0.17722385464E+02  0.83119197188E+02  0.36190623409E+02  0.14813548512E+03  0.11580793082E+03 0.  0.
        -11    1    1    2    0    0  0.11313342580E+02 -0.26164936968E+02  0.81293089809E+02  0.86146167051E+02  0.00000000000E+00 0. -1.
         11    1    1    2    0    0  0.64090428833E+01 -0.56954260221E+02 -0.11748371322E+03  0.13071834783E+03  0.00000000000E+00 0. -1.
        -15    1    3    3    0    0  0.64927365624E+01  0.34965228292E+02  0.74102818360E+02  0.82213795895E+02  0.17770000000E+01 0. -1.
         15    1    3    3    0    0 -0.24215122026E+02  0.48153968896E+02 -0.37912194951E+02  0.65921689224E+02  0.17770000000E+01 0.  1.
</event>
<event>
 7    1  0.3165060E-007  0.1697569E+03  0.7546771E-02  0.1079076E+00
        -11   -1    0    0    0    0  0.00000000000E+00  0.00000000000E+00  0.18250000000E+03  0.18250000000E+03  0.00000000000E+00 0.  1.
         11   -1    0    0    0    0 -0.00000000000E+00 -0.00000000000E+00 -0.18250000000E+03  0.18250000000E+03  0.00000000000E+00 0.  1.
         23    2    1    2    0    0 -0.52132752201E+02  0.17532327913E+02 -0.11900930869E+03  0.16028794831E+03  0.92216074763E+02 0.  0.
        -11    1    1    2    0    0  0.10073857863E+03 -0.12139931157E+02  0.11823100351E+03  0.15580182715E+03  0.00000000000E+00 0.  1.
         11    1    1    2    0    0 -0.48605826428E+02 -0.53923967562E+01  0.77830517603E+00  0.48910224540E+02  0.00000000000E+00 0.  1.
        -15    1    3    3    0    0 -0.16680311582E+02  0.43098892076E+02 -0.16964202423E+02  0.49261437103E+02  0.17770000000E+01 0. -1.
         15    1    3    3    0    0 -0.35452440619E+02 -0.25566564163E+02 -0.10204510626E+03  0.11102651121E+03  0.17770000000E+01 0.  1.
</event>
<event>
 7    1  0.3165060E-007  0.1512473E+03  0.7546771E-02  0.1096472E+00
        -11   -1    0    0    0    0  0.00000000000E+00  0.00000000000E+00  0.18250000000E+03  0.18250000000E+03  0.00000000000E+00 0. -1.
         11   -1    0    0    0    0 -0.00000000000E+00 -0.00000000000E+00 -0.18250000000E+03  0.18250000000E+03  0.00000000000E+00 0. -1.
         23    2    1    2    0    0  0.61261910320E+02  0.50506506496E+02 -0.81362801610E+02  0.14546847180E+03  0.90759252675E+02 0.  0.
        -11    1    1    2    0    0  0.19062216381E+02  0.58636941338E+02  0.52491410605E+02  0.80975349151E+02  0.00000000000E+00 0. -1.
         11    1    1    2    0    0 -0.80324126701E+02 -0.10914344783E+03  0.28871391005E+02  0.13855617905E+03  0.00000000000E+00 0. -1.
        -15    1    3    3    0    0  0.57600887757E+02  0.24045948520E+02 -0.28411353367E+01  0.62508396953E+02  0.17770000000E+01 0.  1.
         15    1    3    3    0    0  0.36610225635E+01  0.26460557976E+02 -0.78521666273E+02  0.82960074843E+02  0.17770000000E+01 0. -1.
</event>
<event>
 7    1  0.5039374E-007  0.1735910E+03  0.7546771E-02  0.1075776E+00
        -11   -1    0    0    0    0  0.00000000000E+00  0.00000000000E+00  0.18250000000E+03  0.18250000000E+03  0.00000000000E+00 0. -1.
         11   -1    0    0    0    0 -0.00000000000E+00 -0.00000000000E+00 -0.18250000000E+03  0.18250000000E+03  0.00000000000E+00 0. -1.
         23    2    1    2    0    0 -0.13122216637E+02 -0.13653363774E+02  0.13428832847E+03  0.16370490951E+03  0.91691522642E+02 0.  0.
        -11    1    1    2    0    0  0.85022587556E+01 -0.36485983550E+02  0.17517442972E+02  0.41356694837E+02  0.00000000000E+00 0. -1.
         11    1    1    2    0    0  0.46199578817E+01  0.50139347325E+02 -0.15180577144E+03  0.15993839565E+03  0.00000000000E+00 0. -1.
        -15    1    3    3    0    0  0.20962786342E+02 -0.18116169013E+01  0.12449615649E+03  0.12627419007E+03  0.17770000000E+01 0.  1.
         15    1    3    3    0    0 -0.34085002979E+02 -0.11841746873E+02  0.97921719733E+01  0.37430719444E+02  0.17770000000E+01 0. -1.
</event>
<event>
 7    1  0.3165060E-007  0.1191529E+03  0.7546771E-02  0.1134287E+00
        -11   -1    0    0    0    0  0.00000000000E+00  0.00000000000E+00  0.18250000000E+03  0.18250000000E+03  0.00000000000E+00 0. -1.
         11   -1    0    0    0    0 -0.00000000000E+00 -0.00000000000E+00 -0.18250000000E+03  0.18250000000E+03  0.00000000000E+00 0. -1.
         23    2    1    2    0    0  0.25577469959E+02  0.20232119441E+02 -0.69388157114E+02  0.11466437731E+03  0.85262286207E+02 0.  0.
        -11    1    1    2    0    0  0.99231818955E+02  0.23232461393E+02  0.59013688354E+02  0.11776806260E+03  0.00000000000E+00 0. -1.
         11    1    1    2    0    0 -0.12480928891E+03 -0.43464580835E+02  0.10374468760E+02  0.13256756009E+03  0.00000000000E+00 0. -1.
        -15    1    3    3    0    0  0.12350654321E+01  0.39856189791E+02 -0.72938521933E+02  0.83145817466E+02  0.17770000000E+01 0. -1.
         15    1    3    3    0    0  0.24342404527E+02 -0.19624070350E+02  0.35503648184E+01  0.31518559843E+02  0.17770000000E+01 0.  1.
</event>
<event>
 7    1  0.3165060E-007  0.1811984E+03  0.7546771E-02  0.1069496E+00
        -11   -1    0    0    0    0  0.00000000000E+00  0.00000000000E+00  0.18250000000E+03  0.18250000000E+03  0.00000000000E+00 0.  1.
         11   -1    0    0    0    0 -0.00000000000E+00 -0.00000000000E+00 -0.18250000000E+03  0.18250000000E+03  0.00000000000E+00 0. -1.
         23    2    1    2    0    0  0.66420782605E+02  0.19374522333E+02 -0.12708689023E+03  0.17189811130E+03  0.92794345322E+02 0.  0.
        -11    1    1    2    0    0 -0.83525698264E+02 -0.60986110866E+01  0.14335075944E+03  0.16602161173E+03  0.00000000000E+00 0.  1.
         11    1    1    2    0    0  0.17104915659E+02 -0.13275911246E+02 -0.16263869214E+02  0.27080276973E+02  0.00000000000E+00 0. -1.
        -15    1    3    3    0    0  0.22094774233E+02 -0.18297671463E+01  0.11363360881E+02  0.24976204591E+02  0.17770000000E+01 0.  1.
         15    1    3    3    0    0  0.44326008372E+02  0.21204289479E+02 -0.13845025111E+03  0.14692190671E+03  0.17770000000E+01 0. -1.
</event>
<event>
 7    1  0.3165060E-007  0.1186339E+03  0.7546771E-02  0.1135004E+00
        -11   -1    0    0    0    0  0.00000000000E+00  0.00000000000E+00  0.18250000000E+03  0.18250000000E+03  0.00000000000E+00 0. -1.
         11   -1    0    0    0    0 -0.00000000000E+00 -0.00000000000E+00 -0.18250000000E+03  0.18250000000E+03  0.00000000000E+00 0.  1.
         23    2    1    2    0    0 -0.44637730644E+02 -0.29904064746E+02 -0.50173069521E+02  0.11660498114E+03  0.90513008111E+02 0.  0.
        -11    1    1    2    0    0 -0.54554647223E+02  0.86366631072E+02  0.80771179594E+02  0.13022821487E+03  0.00000000000E+00 0. -1.
         11    1    1    2    0    0  0.99192377867E+02 -0.56462566327E+02 -0.30598110072E+02  0.11816680398E+03  0.00000000000E+00 0.  1.
        -15    1    3    3    0    0 -0.10244379857E+02  0.15669555310E+02 -0.56107164639E+02  0.59174774483E+02  0.17770000000E+01 0.  1.
         15    1    3    3    0    0 -0.34393350787E+02 -0.45573620056E+02  0.59340951180E+01  0.57430206662E+02  0.17770000000E+01 0. -1.
</event>
<event>
 7    1  0.3165060E-007  0.1681046E+03  0.7546771E-02  0.1080528E+00
        -11   -1    0    0    0    0  0.00000000000E+00  0.00000000000E+00  0.18250000000E+03  0.18250000000E+03  0.00000000000E+00 0. -1.
         11   -1    0    0    0    0 -0.00000000000E+00 -0.00000000000E+00 -0.18250000000E+03  0.18250000000E+03  0.00000000000E+00 0.  1.
         23    2    1    2    0    0 -0.28133883914E+02 -0.10880083107E+03 -0.97115805643E+02  0.17190882820E+03  0.86556508941E+02 0.  0.
        -11    1    1    2    0    0 -0.20451025811E+02  0.10981375725E+03  0.91068847474E+02  0.14412092394E+03  0.00000000000E+00 0. -1.
         11    1    1    2    0    0  0.48584909725E+02 -0.10129261765E+01  0.60469581683E+01  0.48970247860E+02  0.00000000000E+00 0.  1.
        -15    1    3    3    0    0 -0.18230577576E+02 -0.12271494409E+03 -0.79789975902E+02  0.14751579389E+03  0.17770000000E+01 0.  1.
         15    1    3    3    0    0 -0.99033063384E+01  0.13914113021E+02 -0.17325829741E+02  0.24393034309E+02  0.17770000000E+01 0. -1.
</event>
<event>
 7    1  0.3165060E-007  0.1585017E+03  0.7546771E-02  0.1089344E+00
        -11   -1    0    0    0    0  0.00000000000E+00  0.00000000000E+00  0.18250000000E+03  0.18250000000E+03  0.00000000000E+00 0. -1.
         11   -1    0    0    0    0 -0.00000000000E+00 -0.00000000000E+00 -0.18250000000E+03  0.18250000000E+03  0.00000000000E+00 0. -1.
         23    2    1    2    0    0 -0.39940565942E+02  0.32338155816E+02 -0.14394059602E+03  0.17102841722E+03  0.76751672206E+02 0.  0.
        -11    1    1    2    0    0  0.82743762270E+02 -0.20423684189E+02  0.10139123096E+03  0.13245315695E+03  0.00000000000E+00 0. -1.
         11    1    1    2    0    0 -0.42803196327E+02 -0.11914471628E+02  0.42549365059E+02  0.61518425833E+02  0.00000000000E+00 0. -1.
        -15    1    3    3    0    0 -0.31110056217E+02  0.19700802462E+02 -0.14992834123E+03  0.15439437311E+03  0.17770000000E+01 0. -1.
         15    1    3    3    0    0 -0.88305097258E+01  0.12637353355E+02  0.59877452114E+01  0.16634044113E+02  0.17770000000E+01 0.  1.
</event>
<event>
 7    1  0.3165060E-007  0.1554778E+03  0.7546771E-02  0.1092263E+00
        -11   -1    0    0    0    0  0.00000000000E+00  0.00000000000E+00  0.18250000000E+03  0.18250000000E+03  0.00000000000E+00 0. -1.
         11   -1    0    0    0    0 -0.00000000000E+00 -0.00000000000E+00 -0.18250000000E+03  0.18250000000E+03  0.00000000000E+00 0.  1.
         23    2    1    2    0    0  0.73823167962E+02  0.12968991821E+02  0.10717960101E+03  0.15602738262E+03  0.85082444584E+02 0.  0.
        -11    1    1    2    0    0 -0.35423315551E+02  0.61179018333E+02  0.29624146423E+01  0.70756338722E+02  0.00000000000E+00 0. -1.
         11    1    1    2    0    0 -0.38399852411E+02 -0.74148010154E+02 -0.11014201565E+03  0.13821627866E+03  0.00000000000E+00 0.  1.
        -15    1    3    3    0    0 -0.44513983996E+01 -0.14255109565E+02  0.57396622297E+02  0.59334248765E+02  0.17770000000E+01 0.  1.
         15    1    3    3    0    0  0.78274566361E+02  0.27224101386E+02  0.49782978714E+02  0.96693133851E+02  0.17770000000E+01 0. -1.
</event>
<event>
 7    1  0.3165060E-007  0.1715885E+03  0.7546771E-02  0.1077488E+00
        -11   -1    0    0    0    0  0.00000000000E+00  0.00000000000E+00  0.18250000000E+03  0.18250000000E+03  0.00000000000E+00 0.  1.
         11   -1    0    0    0    0 -0.00000000000E+00 -0.00000000000E+00 -0.18250000000E+03  0.18250000000E+03  0.00000000000E+00 0. -1.
         23    2    1    2    0    0 -0.25176970028E+02 -0.26198246600E+02 -0.15587743733E+03  0.18407873751E+03  0.90922924445E+02 0.  0.
        -11    1    1    2    0    0  0.29553962983E+02  0.54301150562E+02  0.12132734802E+03  0.13617039714E+03  0.00000000000E+00 0.  1.
         11    1    1    2    0    0 -0.43769929551E+01 -0.28102903962E+02  0.34550089308E+02  0.44750865351E+02  0.00000000000E+00 0. -1.
        -15    1    3    3    0    0 -0.54913652025E+02 -0.36978506758E+02 -0.10444320303E+03  0.12367077072E+03  0.17770000000E+01 0.  1.
         15    1    3    3    0    0  0.29736681997E+02  0.10780260159E+02 -0.51434234296E+02  0.60407966792E+02  0.17770000000E+01 0. -1.
</event>
<event>
 7    1  0.3165060E-007  0.1619512E+03  0.7546771E-02  0.1086101E+00
        -11   -1    0    0    0    0  0.00000000000E+00  0.00000000000E+00  0.18250000000E+03  0.18250000000E+03  0.00000000000E+00 0. -1.
         11   -1    0    0    0    0 -0.00000000000E+00 -0.00000000000E+00 -0.18250000000E+03  0.18250000000E+03  0.00000000000E+00 0. -1.
         23    2    1    2    0    0  0.15452737363E+02  0.51969422836E+02 -0.12021035540E+03  0.16006015421E+03  0.90714471939E+02 0.  0.
        -11    1    1    2    0    0 -0.16420168036E+02 -0.10762074152E+03  0.92029047492E+02  0.14255241670E+03  0.00000000000E+00 0. -1.
         11    1    1    2    0    0  0.96743067238E+00  0.55651318684E+02  0.28181307907E+02  0.62387429092E+02  0.00000000000E+00 0. -1.
        -15    1    3    3    0    0 -0.26467616180E+02  0.39728749710E+02 -0.22060915872E+02  0.52618912929E+02  0.17770000000E+01 0.  1.
         15    1    3    3    0    0  0.41920353543E+02  0.12240673126E+02 -0.98149439527E+02  0.10744124128E+03  0.17770000000E+01 0. -1.
</event>
<event>
 7    1  0.3165060E-007  0.1905573E+03  0.7546771E-02  0.1062216E+00
        -11   -1    0    0    0    0  0.00000000000E+00  0.00000000000E+00  0.18250000000E+03  0.18250000000E+03  0.00000000000E+00 0. -1.
         11   -1    0    0    0    0 -0.00000000000E+00 -0.00000000000E+00 -0.18250000000E+03  0.18250000000E+03  0.00000000000E+00 0.  1.
         23    2    1    2    0    0  0.93786186760E+02  0.48517101851E+02 -0.13097260804E+03  0.19055733387E+03  0.89490309177E+02 0.  0.
        -11    1    1    2    0    0 -0.90976231723E+02 -0.32091019233E+02  0.98097198153E+02  0.13758476856E+03  0.00000000000E+00 0.  1.
         11    1    1    2    0    0 -0.28099550372E+01 -0.16426082618E+02  0.32875409892E+02  0.36857897567E+02  0.00000000000E+00 0. -1.
        -15    1    3    3    0    0  0.59118167520E+01 -0.18439214887E+02 -0.31929503189E+00  0.19447722264E+02  0.17770000000E+01 0.  1.
         15    1    3    3    0    0  0.87874370008E+02  0.66956316738E+02 -0.13065331301E+03  0.17110961161E+03  0.17770000000E+01 0. -1.
</event>
<event>
 7    1  0.3165060E-007  0.1650230E+03  0.7546771E-02  0.1083286E+00
        -11   -1    0    0    0    0  0.00000000000E+00  0.00000000000E+00  0.18250000000E+03  0.18250000000E+03  0.00000000000E+00 0.  1.
         11   -1    0    0    0    0 -0.00000000000E+00 -0.00000000000E+00 -0.18250000000E+03  0.18250000000E+03  0.00000000000E+00 0. -1.
         23    2    1    2    0    0 -0.13141974322E+03 -0.15035884066E+02 -0.75755399828E+02  0.17712735444E+03  0.90210821792E+02 0.  0.
        -11    1    1    2    0    0  0.91550886182E+02 -0.21842524627E+02  0.91561687136E+02  0.13130957008E+03  0.00000000000E+00 0.  1.
         11    1    1    2    0    0  0.39868857043E+02  0.36878408694E+02 -0.15806287309E+02  0.56563075484E+02  0.00000000000E+00 0. -1.
        -15    1    3    3    0    0  0.73233461191E+01  0.94635336510E+01  0.67447446376E+01  0.13850602036E+02  0.17770000000E+01 0.  1.
         15    1    3    3    0    0 -0.13874308934E+03 -0.24499417717E+02 -0.82500144465E+02  0.16327675240E+03  0.17770000000E+01 0. -1.
</event>
<event>
 7    1  0.3165060E-007  0.1486287E+03  0.7546771E-02  0.1099153E+00
        -11   -1    0    0    0    0  0.00000000000E+00  0.00000000000E+00  0.18250000000E+03  0.18250000000E+03  0.00000000000E+00 0. -1.
         11   -1    0    0    0    0 -0.00000000000E+00 -0.00000000000E+00 -0.18250000000E+03  0.18250000000E+03  0.00000000000E+00 0. -1.
         23    2    1    2    0    0 -0.86790808186E+02 -0.51465991622E+02 -0.68716958831E+02  0.15217132992E+03  0.90844375380E+02 0.  0.
        -11    1    1    2    0    0 -0.35707715639E+02  0.16994043916E+02  0.75672297783E+02  0.85382288190E+02  0.00000000000E+00 0. -1.
         11    1    1    2    0    0  0.12249852382E+03  0.34471947705E+02 -0.69553389524E+01  0.12744638189E+03  0.00000000000E+00 0. -1.
        -15    1    3    3    0    0 -0.96082809467E+02 -0.65384691638E+02 -0.48709924381E+02  0.12602729323E+03  0.17770000000E+01 0. -1.
         15    1    3    3    0    0  0.92920012810E+01  0.13918700017E+02 -0.20007034450E+02  0.26144036690E+02  0.17770000000E+01 0.  1.
</event>
<event>
 7    1  0.3165060E-007  0.1496253E+03  0.7546771E-02  0.1098126E+00
        -11   -1    0    0    0    0  0.00000000000E+00  0.00000000000E+00  0.18250000000E+03  0.18250000000E+03  0.00000000000E+00 0.  1.
         11   -1    0    0    0    0 -0.00000000000E+00 -0.00000000000E+00 -0.18250000000E+03  0.18250000000E+03  0.00000000000E+00 0.  1.
         23    2    1    2    0    0 -0.22465590819E+02  0.15969728347E+02 -0.14186924891E+03  0.16905529136E+03  0.87710163351E+02 0.  0.
        -11    1    1    2    0    0 -0.48958714589E+02 -0.66286136187E+01  0.10266595824E+03  0.11393503954E+03  0.00000000000E+00 0.  1.
         11    1    1    2    0    0  0.71424305408E+02 -0.93411147280E+01  0.39203290670E+02  0.82009669105E+02  0.00000000000E+00 0.  1.
        -15    1    3    3    0    0 -0.51179420370E+02  0.24607260949E+02 -0.63929377586E+02  0.85527617811E+02  0.17770000000E+01 0.  1.
         15    1    3    3    0    0  0.28713829551E+02 -0.86375326027E+01 -0.77939871325E+02  0.83527673547E+02  0.17770000000E+01 0. -1.
</event>
<event>
 7    1  0.3165060E-007  0.1729091E+03  0.7546771E-02  0.1076356E+00
        -11   -1    0    0    0    0  0.00000000000E+00  0.00000000000E+00  0.18250000000E+03  0.18250000000E+03  0.00000000000E+00 0. -1.
         11   -1    0    0    0    0 -0.00000000000E+00 -0.00000000000E+00 -0.18250000000E+03  0.18250000000E+03  0.00000000000E+00 0. -1.
         23    2    1    2    0    0 -0.20081832364E+02  0.98396676814E+01 -0.15132282032E+03  0.18027243005E+03  0.95391058467E+02 0.  0.
        -11    1    1    2    0    0  0.11936687901E+02 -0.48696553717E+02  0.13070536442E+03  0.13999189673E+03  0.00000000000E+00 0. -1.
         11    1    1    2    0    0  0.81451444623E+01  0.38856886036E+02  0.20617455895E+02  0.44735673218E+02  0.00000000000E+00 0. -1.
        -15    1    3    3    0    0 -0.43805935490E+02 -0.42943167390E+01 -0.14546226131E+03  0.15198627680E+03  0.17770000000E+01 0. -1.
         15    1    3    3    0    0  0.23724103126E+02  0.14133984420E+02 -0.58605590057E+01  0.28286153249E+02  0.17770000000E+01 0.  1.
</event>
<event>
 7    1  0.3165060E-007  0.1608003E+03  0.7546771E-02  0.1087173E+00
        -11   -1    0    0    0    0  0.00000000000E+00  0.00000000000E+00  0.18250000000E+03  0.18250000000E+03  0.00000000000E+00 0. -1.
         11   -1    0    0    0    0 -0.00000000000E+00 -0.00000000000E+00 -0.18250000000E+03  0.18250000000E+03  0.00000000000E+00 0.  1.
         23    2    1    2    0    0 -0.65613673743E+02 -0.19164950074E+02  0.10220064881E+03  0.15745777715E+03  0.98364269308E+02 0.  0.
        -11    1    1    2    0    0 -0.14917002314E+02  0.67238720160E+02 -0.59945021641E-01  0.68873551093E+02  0.00000000000E+00 0. -1.
         11    1    1    2    0    0  0.80530676057E+02 -0.48073770085E+02 -0.10214070378E+03  0.13866867175E+03  0.00000000000E+00 0.  1.
        -15    1    3    3    0    0  0.16074639454E+02 -0.25646998903E+02  0.55186235341E+02  0.62966982510E+02  0.17770000000E+01 0. -1.
         15    1    3    3    0    0 -0.81688313197E+02  0.64820488285E+01  0.47014413465E+02  0.94490794644E+02  0.17770000000E+01 0.  1.
</event>
<event>
 6    1  0.3165060E-007  0.1186875E+03  0.7546771E-02  0.1134930E+00
        -11   -1    0    0    0    0  0.00000000000E+00  0.00000000000E+00  0.18250000000E+03  0.18250000000E+03  0.00000000000E+00 0. -1.
         11   -1    0    0    0    0 -0.00000000000E+00 -0.00000000000E+00 -0.18250000000E+03  0.18250000000E+03  0.00000000000E+00 0.  1.
        -11    1    1    2    0    0  0.48348416040E+02 -0.26561797654E+02  0.11283137444E+03  0.12559465549E+03  0.00000000000E+00 0. -1.
         11    1    1    2    0    0 -0.64975958289E+00 -0.55526514773E+02 -0.11766257397E+03  0.13010802182E+03  0.00000000000E+00 0.  1.
        -15    1    1    2    0    0 -0.57950556097E+02  0.57297255883E+02 -0.20710642198E+01  0.81539496685E+02  0.17770000000E+01 0.  1.
         15    1    1    2    0    0  0.10251899640E+02  0.24791056544E+02  0.69022637451E+01  0.27757826007E+02  0.17770000000E+01 0. -1.
</event>
<event>
 7    1  0.3165060E-007  0.1543865E+03  0.7546771E-02  0.1093335E+00
        -11   -1    0    0    0    0  0.00000000000E+00  0.00000000000E+00  0.18250000000E+03  0.18250000000E+03  0.00000000000E+00 0. -1.
         11   -1    0    0    0    0 -0.00000000000E+00 -0.00000000000E+00 -0.18250000000E+03  0.18250000000E+03  0.00000000000E+00 0.  1.
         23    2    1    2    0    0 -0.61748766671E+02  0.73597117486E+02 -0.12340255797E+03  0.18018373586E+03  0.89490454621E+02 0.  0.
        -11    1    1    2    0    0  0.65964312337E+02 -0.94387373463E+01  0.34323347701E+02  0.74956470449E+02  0.00000000000E+00 0. -1.
         11    1    1    2    0    0 -0.42155456659E+01 -0.64158380139E+02  0.89079210268E+02  0.10985979369E+03  0.00000000000E+00 0.  1.
        -15    1    3    3    0    0 -0.15145604459E+02 -0.82612826998E+01  0.75065519074E+01  0.18898258565E+02  0.17770000000E+01 0. -1.
         15    1    3    3    0    0 -0.46603162213E+02  0.81858400186E+02 -0.13090910988E+03  0.16128547730E+03  0.17770000000E+01 0.  1.
</event>
<event>
 7    1  0.3165060E-007  0.1570170E+03  0.7546771E-02  0.1090769E+00
        -11   -1    0    0    0    0  0.00000000000E+00  0.00000000000E+00  0.18250000000E+03  0.18250000000E+03  0.00000000000E+00 0.  1.
         11   -1    0    0    0    0 -0.00000000000E+00 -0.00000000000E+00 -0.18250000000E+03  0.18250000000E+03  0.00000000000E+00 0. -1.
         23    2    1    2    0    0  0.38546230751E+02 -0.51042886167E+01  0.85123814528E+02  0.13216991980E+03  0.93332514334E+02 0.  0.
        -11    1    1    2    0    0  0.22553358877E+02  0.33519093530E+02  0.60282983353E+02  0.72568737826E+02  0.00000000000E+00 0.  1.
         11    1    1    2    0    0 -0.61099589628E+02 -0.28414804913E+02 -0.14540679788E+03  0.16026134238E+03  0.00000000000E+00 0. -1.
        -15    1    3    3    0    0 -0.25764147493E+02  0.19204676249E+02  0.30539422019E+02  0.44366934897E+02  0.17770000000E+01 0.  1.
         15    1    3    3    0    0  0.64310378244E+02 -0.24308964866E+02  0.54584392509E+02  0.87802984900E+02  0.17770000000E+01 0. -1.
</event>
<event>
 7    1  0.3165060E-007  0.1463499E+03  0.7546771E-02  0.1101537E+00
        -11   -1    0    0    0    0  0.00000000000E+00  0.00000000000E+00  0.18250000000E+03  0.18250000000E+03  0.00000000000E+00 0. -1.
         11   -1    0    0    0    0 -0.00000000000E+00 -0.00000000000E+00 -0.18250000000E+03  0.18250000000E+03  0.00000000000E+00 0.  1.
         23    2    1    2    0    0 -0.25907918307E+02 -0.64355999342E+02  0.40560460999E+02  0.12348647954E+03  0.93759504854E+02 0.  0.
        -11    1    1    2    0    0 -0.82330711229E+02 -0.36468276196E+02 -0.11720078074E+02  0.90805514206E+02  0.00000000000E+00 0. -1.
         11    1    1    2    0    0  0.10823862954E+03  0.10082427554E+03 -0.28840382925E+02  0.15070800625E+03  0.00000000000E+00 0.  1.
        -15    1    3    3    0    0  0.52326089896E+01 -0.74958568929E+02  0.54788846061E+01  0.75361416907E+02  0.17770000000E+01 0.  1.
         15    1    3    3    0    0 -0.31140527297E+02  0.10602569587E+02  0.35081576393E+02  0.48125062633E+02  0.17770000000E+01 0. -1.
</event>
<event>
 7    1  0.3165060E-007  0.1905872E+03  0.7546771E-02  0.1062194E+00
        -11   -1    0    0    0    0  0.00000000000E+00  0.00000000000E+00  0.18250000000E+03  0.18250000000E+03  0.00000000000E+00 0. -1.
         11   -1    0    0    0    0 -0.00000000000E+00 -0.00000000000E+00 -0.18250000000E+03  0.18250000000E+03  0.00000000000E+00 0.  1.
         23    2    1    2    0    0 -0.27283987726E+02 -0.64370795201E+02 -0.15400031584E+03  0.19212520874E+03  0.91148139261E+02 0.  0.
        -11    1    1    2    0    0  0.25053227410E+02  0.57790932076E+02  0.15348626393E+03  0.16590807470E+03  0.00000000000E+00 0. -1.
         11    1    1    2    0    0  0.22307603162E+01  0.65798631249E+01  0.51405190826E+00  0.69667165649E+01  0.00000000000E+00 0.  1.
        -15    1    3    3    0    0 -0.20547698555E+01 -0.24952398691E+02 -0.14142036626E+03  0.14363050513E+03  0.17770000000E+01 0.  1.
         15    1    3    3    0    0 -0.25229217871E+02 -0.39418396510E+02 -0.12579949580E+02  0.48494703610E+02  0.17770000000E+01 0. -1.
</event>
<event>
 7    1  0.3165060E-007  0.1210265E+03  0.7546771E-02  0.1131732E+00
        -11   -1    0    0    0    0  0.00000000000E+00  0.00000000000E+00  0.18250000000E+03  0.18250000000E+03  0.00000000000E+00 0.  1.
         11   -1    0    0    0    0 -0.00000000000E+00 -0.00000000000E+00 -0.18250000000E+03  0.18250000000E+03  0.00000000000E+00 0. -1.
         23    2    1    2    0    0  0.39857419989E+02 -0.20000990073E+02 -0.47224063996E+02  0.11438391682E+03  0.94153675838E+02 0.  0.
        -11    1    1    2    0    0  0.31230157846E+01 -0.89084543043E+02  0.89177240946E+02  0.12608881528E+03  0.00000000000E+00 0.  1.
         11    1    1    2    0    0 -0.42980435773E+02  0.10908553312E+03 -0.41953176950E+02  0.12452726790E+03  0.00000000000E+00 0. -1.
        -15    1    3    3    0    0  0.17389454949E+02 -0.27753418777E+02  0.23108667960E+02  0.40122483237E+02  0.17770000000E+01 0.  1.
         15    1    3    3    0    0  0.22467965039E+02  0.77524287036E+01 -0.70332731956E+02  0.74261433579E+02  0.17770000000E+01 0. -1.
</event>
<event>
 7    1  0.3165060E-007  0.1390277E+03  0.7546771E-02  0.1109531E+00
        -11   -1    0    0    0    0  0.00000000000E+00  0.00000000000E+00  0.18250000000E+03  0.18250000000E+03  0.00000000000E+00 0. -1.
         11   -1    0    0    0    0 -0.00000000000E+00 -0.00000000000E+00 -0.18250000000E+03  0.18250000000E+03  0.00000000000E+00 0. -1.
         23    2    1    2    0    0 -0.50581027657E+02  0.14198041890E+02 -0.32808300575E+02  0.11940183347E+03  0.10208030416E+03 0.  0.
        -11    1    1    2    0    0 -0.66591065964E+02  0.47860334032E+02  0.70076079066E+02  0.10786861683E+03  0.00000000000E+00 0. -1.
         11    1    1    2    0    0  0.11717209362E+03 -0.62058375922E+02 -0.37267778491E+02  0.13772954970E+03  0.00000000000E+00 0. -1.
        -15    1    3    3    0    0  0.16442101186E+01  0.50322958006E+02 -0.21944459482E+02  0.54952894013E+02  0.17770000000E+01 0.  1.
         15    1    3    3    0    0 -0.52225237776E+02 -0.36124916116E+02 -0.10863841092E+02  0.64448939459E+02  0.17770000000E+01 0. -1.
</event>
<event>
 7    1  0.3165060E-007  0.1915630E+03  0.7546771E-02  0.1061461E+00
        -11   -1    0    0    0    0  0.00000000000E+00  0.00000000000E+00  0.18250000000E+03  0.18250000000E+03  0.00000000000E+00 0. -1.
         11   -1    0    0    0    0 -0.00000000000E+00 -0.00000000000E+00 -0.18250000000E+03  0.18250000000E+03  0.00000000000E+00 0.  1.
         23    2    1    2    0    0 -0.61672659739E+02 -0.34551311567E+02 -0.15339512405E+03  0.19156299050E+03  0.90382548952E+02 0.  0.
        -11    1    1    2    0    0  0.43685979512E+02  0.27154806178E+02  0.14169063362E+03  0.15073846211E+03  0.00000000000E+00 0. -1.
         11    1    1    2    0    0  0.17986680227E+02  0.73965053894E+01  0.11704490433E+02  0.22698547396E+02  0.00000000000E+00 0.  1.
        -15    1    3    3    0    0  0.12601480844E+02 -0.22988176853E+02 -0.73264727536E+01  0.27277986115E+02  0.17770000000E+01 0. -1.
         15    1    3    3    0    0 -0.74274140583E+02 -0.11563134714E+02 -0.14606865130E+03  0.16428500438E+03  0.17770000000E+01 0.  1.
</event>
<event>
 7    1  0.3165060E-007  0.1508406E+03  0.7546771E-02  0.1096884E+00
        -11   -1    0    0    0    0  0.00000000000E+00  0.00000000000E+00  0.18250000000E+03  0.18250000000E+03  0.00000000000E+00 0. -1.
         11   -1    0    0    0    0 -0.00000000000E+00 -0.00000000000E+00 -0.18250000000E+03  0.18250000000E+03  0.00000000000E+00 0. -1.
         23    2    1    2    0    0 -0.27130912084E+02  0.43144121702E+02 -0.10435327310E+03  0.13873046644E+03  0.75888306628E+02 0.  0.
        -11    1    1    2    0    0 -0.28857665953E+02 -0.89335512221E+02  0.11965713555E+03  0.15209019928E+03  0.00000000000E+00 0. -1.
         11    1    1    2    0    0  0.55988578037E+02  0.46191390518E+02 -0.15303862451E+02  0.74179334282E+02  0.00000000000E+00 0. -1.
        -15    1    3    3    0    0 -0.97383929367E+00 -0.78075652794E+01 -0.72937861955E+02  0.73382531124E+02  0.17770000000E+01 0. -1.
         15    1    3    3    0    0 -0.26157072790E+02  0.50951686982E+02 -0.31415411148E+02  0.65347935314E+02  0.17770000000E+01 0.  1.
</event>
<event>
 7    1  0.3165060E-007  0.1923543E+03  0.7546771E-02  0.1060871E+00
        -11   -1    0    0    0    0  0.00000000000E+00  0.00000000000E+00  0.18250000000E+03  0.18250000000E+03  0.00000000000E+00 0. -1.
         11   -1    0    0    0    0 -0.00000000000E+00 -0.00000000000E+00 -0.18250000000E+03  0.18250000000E+03  0.00000000000E+00 0. -1.
         23    2    1    2    0    0 -0.49514306710E+02  0.59551962630E+02 -0.14672728523E+03  0.19235432860E+03  0.97330307097E+02 0.  0.
        -11    1    1    2    0    0  0.20786826083E+02 -0.49877579206E+02  0.12233503842E+03  0.13373752903E+03  0.00000000000E+00 0. -1.
         11    1    1    2    0    0  0.28727480627E+02 -0.96743834236E+01  0.24392246814E+02  0.38908142367E+02  0.00000000000E+00 0. -1.
        -15    1    3    3    0    0 -0.68390796435E+02  0.34130699001E+02 -0.52008494744E+02  0.92467545149E+02  0.17770000000E+01 0.  1.
         15    1    3    3    0    0  0.18876489725E+02  0.25421263629E+02 -0.94718790487E+02  0.99886783456E+02  0.17770000000E+01 0. -1.
</event>
<event>
 7    1  0.3165060E-007  0.1679183E+03  0.7546771E-02  0.1080693E+00
        -11   -1    0    0    0    0  0.00000000000E+00  0.00000000000E+00  0.18250000000E+03  0.18250000000E+03  0.00000000000E+00 0. -1.
         11   -1    0    0    0    0 -0.00000000000E+00 -0.00000000000E+00 -0.18250000000E+03  0.18250000000E+03  0.00000000000E+00 0. -1.
         23    2    1    2    0    0  0.37965323975E+02 -0.10427805132E+02 -0.14783610318E+03  0.17753748185E+03  0.90077406239E+02 0.  0.
        -11    1    1    2    0    0 -0.50904376727E+02 -0.31993302477E+02  0.12231553407E+03  0.13629349525E+03  0.00000000000E+00 0. -1.
         11    1    1    2    0    0  0.12939052753E+02  0.42421107609E+02  0.25520569105E+02  0.51169022898E+02  0.00000000000E+00 0. -1.
        -15    1    3    3    0    0 -0.18178521606E+02 -0.22433894987E+02 -0.14509849636E+02  0.32364050388E+02  0.17770000000E+01 0.  1.
         15    1    3    3    0    0  0.56143845581E+02  0.12006089855E+02 -0.13332625354E+03  0.14517343146E+03  0.17770000000E+01 0. -1.
</event>
<event>
 7    1  0.3165060E-007  0.1467364E+03  0.7546771E-02  0.1101129E+00
        -11   -1    0    0    0    0  0.00000000000E+00  0.00000000000E+00  0.18250000000E+03  0.18250000000E+03  0.00000000000E+00 0. -1.
         11   -1    0    0    0    0 -0.00000000000E+00 -0.00000000000E+00 -0.18250000000E+03  0.18250000000E+03  0.00000000000E+00 0. -1.
         23    2    1    2    0    0  0.11784052275E+02  0.31568932752E+02 -0.99927235361E+02  0.13951148004E+03  0.91337502123E+02 0.  0.
        -11    1    1    2    0    0 -0.22664134216E+02  0.53210298525E+02  0.12388449527E+03  0.13672003151E+03  0.00000000000E+00 0. -1.
         11    1    1    2    0    0  0.10880081941E+02 -0.84779231277E+02 -0.23957259904E+02  0.88768488446E+02  0.00000000000E+00 0. -1.
        -15    1    3    3    0    0  0.47114817098E+02  0.20480909818E+02 -0.85434311290E+02  0.99706834930E+02  0.17770000000E+01 0. -1.
         15    1    3    3    0    0 -0.35330764823E+02  0.11088022933E+02 -0.14492924071E+02  0.39804645114E+02  0.17770000000E+01 0.  1.
</event>
<event>
 7    1  0.3165060E-007  0.1514002E+03  0.7546771E-02  0.1096317E+00
        -11   -1    0    0    0    0  0.00000000000E+00  0.00000000000E+00  0.18250000000E+03  0.18250000000E+03  0.00000000000E+00 0. -1.
         11   -1    0    0    0    0 -0.00000000000E+00 -0.00000000000E+00 -0.18250000000E+03  0.18250000000E+03  0.00000000000E+00 0. -1.
         23    2    1    2    0    0  0.71936823046E+02  0.75419769259E+02 -0.22369690929E+02  0.14055268535E+03  0.91605710419E+02 0.  0.
        -11    1    1    2    0    0 -0.45051038614E+01  0.41889665840E+02  0.69408855818E+02  0.81195008042E+02  0.00000000000E+00 0. -1.
         11    1    1    2    0    0 -0.67431719185E+02 -0.11730943510E+03 -0.47039164888E+02  0.14325230661E+03  0.00000000000E+00 0. -1.
        -15    1    3    3    0    0  0.76136940901E+01 -0.20934124329E+02 -0.82934004273E+01  0.23835773928E+02  0.17770000000E+01 0.  1.
         15    1    3    3    0    0  0.64323128956E+02  0.96353893588E+02 -0.14076290502E+02  0.11671691142E+03  0.17770000000E+01 0. -1.
</event>
<event>
 7    1  0.3165060E-007  0.1354906E+03  0.7546771E-02  0.1113589E+00
        -11   -1    0    0    0    0  0.00000000000E+00  0.00000000000E+00  0.18250000000E+03  0.18250000000E+03  0.00000000000E+00 0. -1.
         11   -1    0    0    0    0 -0.00000000000E+00 -0.00000000000E+00 -0.18250000000E+03  0.18250000000E+03  0.00000000000E+00 0. -1.
         23    2    1    2    0    0  0.79582244571E+02 -0.25427046585E+01 -0.36898206308E+02  0.12635427910E+03  0.90907245152E+02 0.  0.
        -11    1    1    2    0    0 -0.70507546757E+02  0.10812762037E+03  0.29505468859E+02  0.13241400655E+03  0.00000000000E+00 0. -1.
         11    1    1    2    0    0 -0.90746978139E+01 -0.10558491571E+03  0.73927374485E+01  0.10623171435E+03  0.00000000000E+00 0. -1.
        -15    1    3    3    0    0 -0.18218068457E+02  0.12057124695E+02 -0.56516835692E+01  0.22635625248E+02  0.17770000000E+01 0. -1.
         15    1    3    3    0    0  0.97800313028E+02 -0.14599829353E+02 -0.31246522738E+02  0.10371865386E+03  0.17770000000E+01 0.  1.
</event>
<event>
 7    1  0.3165060E-007  0.2088328E+03  0.7546771E-02  0.1049234E+00
        -11   -1    0    0    0    0  0.00000000000E+00  0.00000000000E+00  0.18250000000E+03  0.18250000000E+03  0.00000000000E+00 0.  1.
         11   -1    0    0    0    0 -0.00000000000E+00 -0.00000000000E+00 -0.18250000000E+03  0.18250000000E+03  0.00000000000E+00 0. -1.
         23    2    1    2    0    0 -0.30688128901E+02 -0.11869733108E+02  0.66517700888E+02  0.11726208839E+03  0.90791745346E+02 0.  0.
        -11    1    1    2    0    0  0.21175288777E+02 -0.32893856172E+02  0.82793745762E+02  0.91570753879E+02  0.00000000000E+00 0.  1.
         11    1    1    2    0    0  0.95128401237E+01  0.44763589280E+02 -0.14931144665E+03  0.15616715773E+03  0.00000000000E+00 0. -1.
        -15    1    3    3    0    0 -0.24279351092E+02  0.24009440703E+02 -0.72592958139E+01  0.34954187690E+02  0.17770000000E+01 0. -1.
         15    1    3    3    0    0 -0.64087778083E+01 -0.35879173812E+02  0.73776996702E+02  0.82307900701E+02  0.17770000000E+01 0.  1.
</event>
<event>
 7    1  0.3165060E-007  0.1513922E+03  0.7546771E-02  0.1096325E+00
        -11   -1    0    0    0    0  0.00000000000E+00  0.00000000000E+00  0.18250000000E+03  0.18250000000E+03  0.00000000000E+00 0.  1.
         11   -1    0    0    0    0 -0.00000000000E+00 -0.00000000000E+00 -0.18250000000E+03  0.18250000000E+03  0.00000000000E+00 0. -1.
         23    2    1    2    0    0 -0.18780924480E+02  0.10717559359E+02  0.85608548848E+02  0.12848913343E+03  0.93343690578E+02 0.  0.
        -11    1    1    2    0    0 -0.17708181873E+02  0.68667061087E+02  0.41580095987E+02  0.82204923002E+02  0.00000000000E+00 0.  1.
         11    1    1    2    0    0  0.36489106352E+02 -0.79384620446E+02 -0.12718864483E+03  0.15430594357E+03  0.00000000000E+00 0. -1.
        -15    1    3    3    0    0 -0.34790575383E+02 -0.25372948874E+02  0.76695396291E+02  0.87974497505E+02  0.17770000000E+01 0.  1.
         15    1    3    3    0    0  0.16009650903E+02  0.36090508233E+02  0.89131525563E+01  0.40514635924E+02  0.17770000000E+01 0. -1.
</event>
<event>
 7    1  0.3165060E-007  0.1489917E+03  0.7546771E-02  0.1098778E+00
        -11   -1    0    0    0    0  0.00000000000E+00  0.00000000000E+00  0.18250000000E+03  0.18250000000E+03  0.00000000000E+00 0.  1.
         11   -1    0    0    0    0 -0.00000000000E+00 -0.00000000000E+00 -0.18250000000E+03  0.18250000000E+03  0.00000000000E+00 0.  1.
         23    2    1    2    0    0 -0.50400301896E+02  0.15040715019E+01 -0.68947678670E+02  0.13318176556E+03  0.10218193392E+03 0.  0.
        -11    1    1    2    0    0  0.10603804532E+01 -0.45608650239E+02  0.13245829667E+03  0.14009451716E+03  0.00000000000E+00 0.  1.
         11    1    1    2    0    0  0.49339921443E+02  0.44104578737E+02 -0.63510617996E+02  0.91723717281E+02  0.00000000000E+00 0.  1.
        -15    1    3    3    0    0  0.18156633016E+02  0.12515019215E+01  0.15796314519E+02  0.24164247576E+02  0.17770000000E+01 0. -1.
         15    1    3    3    0    0 -0.68556934912E+02  0.25256958032E+00 -0.84743993189E+02  0.10901751798E+03  0.17770000000E+01 0.  1.
</event>
<event>
 7    1  0.3165060E-007  0.1507764E+03  0.7546771E-02  0.1096950E+00
        -11   -1    0    0    0    0  0.00000000000E+00  0.00000000000E+00  0.18250000000E+03  0.18250000000E+03  0.00000000000E+00 0.  1.
         11   -1    0    0    0    0 -0.00000000000E+00 -0.00000000000E+00 -0.18250000000E+03  0.18250000000E+03  0.00000000000E+00 0. -1.
         23    2    1    2    0    0  0.35218322043E+02  0.68135603698E+02  0.60384324752E+02  0.13510389568E+03  0.93402383549E+02 0.  0.
        -11    1    1    2    0    0 -0.63402918590E+02  0.29855002190E+02  0.44980160877E+02  0.83273441829E+02  0.00000000000E+00 0.  1.
         11    1    1    2    0    0  0.28184596548E+02 -0.97990605888E+02 -0.10536448563E+03  0.14662266249E+03  0.00000000000E+00 0. -1.
        -15    1    3    3    0    0 -0.99975072743E+01 -0.15362950439E+02  0.30343070295E+02  0.35494084603E+02  0.17770000000E+01 0.  1.
         15    1    3    3    0    0  0.45215829317E+02  0.83498554137E+02  0.30041254457E+02  0.99609811074E+02  0.17770000000E+01 0. -1.
</event>
<event>
 7    1  0.3165060E-007  0.1476544E+03  0.7546771E-02  0.1100167E+00
        -11   -1    0    0    0    0  0.00000000000E+00  0.00000000000E+00  0.18250000000E+03  0.18250000000E+03  0.00000000000E+00 0.  1.
         11   -1    0    0    0    0 -0.00000000000E+00 -0.00000000000E+00 -0.18250000000E+03  0.18250000000E+03  0.00000000000E+00 0. -1.
         23    2    1    2    0    0 -0.70316177398E+02 -0.51757601000E+02 -0.65126997359E+02  0.14495767121E+03  0.95645107519E+02 0.  0.
        -11    1    1    2    0    0  0.37971894670E+02  0.12283982889E+03  0.20806872992E+02  0.13024751173E+03  0.00000000000E+00 0. -1.
         11    1    1    2    0    0  0.32344282728E+02 -0.71082227894E+02  0.44320124367E+02  0.89794817064E+02  0.00000000000E+00 0.  1.
        -15    1    3    3    0    0  0.97181052705E+01 -0.19782193905E+02 -0.53606182539E+02  0.57987561607E+02  0.17770000000E+01 0.  1.
         15    1    3    3    0    0 -0.80034282668E+02 -0.31975407094E+02 -0.11520814821E+02  0.86970109602E+02  0.17770000000E+01 0. -1.
</event>
<event>
 7    1  0.3165060E-007  0.1527511E+03  0.7546771E-02  0.1094959E+00
        -11   -1    0    0    0    0  0.00000000000E+00  0.00000000000E+00  0.18250000000E+03  0.18250000000E+03  0.00000000000E+00 0. -1.
         11   -1    0    0    0    0 -0.00000000000E+00 -0.00000000000E+00 -0.18250000000E+03  0.18250000000E+03  0.00000000000E+00 0.  1.
         23    2    1    2    0    0 -0.13165081325E+02  0.27342077288E+02 -0.14675771685E+03  0.17376124191E+03  0.87944489181E+02 0.  0.
        -11    1    1    2    0    0  0.48878708968E+02  0.22911937783E+02  0.10079187536E+03  0.11433760196E+03  0.00000000000E+00 0. -1.
         11    1    1    2    0    0 -0.35713627643E+02 -0.50254015071E+02  0.45965841489E+02  0.76901156129E+02  0.00000000000E+00 0.  1.
        -15    1    3    3    0    0 -0.90395203080E+01  0.37655449731E+02 -0.15067221760E+02  0.41591161590E+02  0.17770000000E+01 0.  1.
         15    1    3    3    0    0 -0.41255610169E+01 -0.10313372443E+02 -0.13169049509E+03  0.13217008032E+03  0.17770000000E+01 0. -1.
</event>
<event>
 7    1  0.3165060E-007  0.1663430E+03  0.7546771E-02  0.1082097E+00
        -11   -1    0    0    0    0  0.00000000000E+00  0.00000000000E+00  0.18250000000E+03  0.18250000000E+03  0.00000000000E+00 0. -1.
         11   -1    0    0    0    0 -0.00000000000E+00 -0.00000000000E+00 -0.18250000000E+03  0.18250000000E+03  0.00000000000E+00 0. -1.
         23    2    1    2    0    0  0.47085479319E+02  0.25668877491E+02 -0.11520379115E+03  0.15669352352E+03  0.91678858967E+02 0.  0.
        -11    1    1    2    0    0 -0.10165087424E+03 -0.19506316292E+02  0.11315782043E+03  0.15335608541E+03  0.00000000000E+00 0. -1.
         11    1    1    2    0    0  0.54565394917E+02 -0.61625611993E+01  0.20459707279E+01  0.54950391074E+02  0.00000000000E+00 0. -1.
        -15    1    3    3    0    0  0.32421904895E+02  0.43865002375E+02 -0.19174745375E+02  0.57845889565E+02  0.17770000000E+01 0.  1.
         15    1    3    3    0    0  0.14663574425E+02 -0.18196124883E+02 -0.96029045780E+02  0.98847633952E+02  0.17770000000E+01 0. -1.
</event>
<event>
 7    1  0.3165060E-007  0.1789896E+03  0.7546771E-02  0.1071284E+00
        -11   -1    0    0    0    0  0.00000000000E+00  0.00000000000E+00  0.18250000000E+03  0.18250000000E+03  0.00000000000E+00 0.  1.
         11   -1    0    0    0    0 -0.00000000000E+00 -0.00000000000E+00 -0.18250000000E+03  0.18250000000E+03  0.00000000000E+00 0. -1.
         23    2    1    2    0    0 -0.41594826642E+02 -0.99012041515E+02  0.82594687890E+02  0.16624173143E+03  0.96337515184E+02 0.  0.
        -11    1    1    2    0    0 -0.78966840409E+00 -0.13911557032E+02  0.30426099490E+02  0.33464944724E+02  0.00000000000E+00 0.  1.
         11    1    1    2    0    0  0.42384495046E+02  0.11292359855E+03 -0.11302078738E+03  0.16529332385E+03  0.00000000000E+00 0. -1.
        -15    1    3    3    0    0 -0.67481245143E+02 -0.40915531191E+02  0.58308170241E+02  0.98136637320E+02  0.17770000000E+01 0.  1.
         15    1    3    3    0    0  0.25886418502E+02 -0.58096510324E+02  0.24286517649E+02  0.68105094107E+02  0.17770000000E+01 0. -1.
</event>
<event>
 7    1  0.3165060E-007  0.1270126E+03  0.7546771E-02  0.1123900E+00
        -11   -1    0    0    0    0  0.00000000000E+00  0.00000000000E+00  0.18250000000E+03  0.18250000000E+03  0.00000000000E+00 0. -1.
         11   -1    0    0    0    0 -0.00000000000E+00 -0.00000000000E+00 -0.18250000000E+03  0.18250000000E+03  0.00000000000E+00 0.  1.
         23    2    1    2    0    0 -0.35771541503E+02  0.20749179544E+02  0.62914799766E+01  0.10755389498E+03  0.99086457060E+02 0.  0.
        -11    1    1    2    0    0  0.67420729974E+02  0.62254482870E+02  0.88532875526E+02  0.12751174658E+03  0.00000000000E+00 0. -1.
         11    1    1    2    0    0 -0.31649188472E+02 -0.83003662413E+02 -0.94824355503E+02  0.12993435843E+03  0.00000000000E+00 0.  1.
        -15    1    3    3    0    0  0.28744598764E+02 -0.70927205553E+01 -0.16145724370E+02  0.33769820660E+02  0.17770000000E+01 0. -1.
         15    1    3    3    0    0 -0.64516140266E+02  0.27841900099E+02  0.22437204347E+02  0.73784074324E+02  0.17770000000E+01 0.  1.
</event>
<event>
 7    1  0.3165060E-007  0.2179763E+03  0.7546771E-02  0.1043270E+00
        -11   -1    0    0    0    0  0.00000000000E+00  0.00000000000E+00  0.18250000000E+03  0.18250000000E+03  0.00000000000E+00 0.  1.
         11   -1    0    0    0    0 -0.00000000000E+00 -0.00000000000E+00 -0.18250000000E+03  0.18250000000E+03  0.00000000000E+00 0. -1.
         23    2    1    2    0    0  0.29491069945E+02 -0.17914390511E+02 -0.43793973391E+02  0.10740409648E+03  0.91799124410E+02 0.  0.
        -11    1    1    2    0    0 -0.83008816760E+02 -0.53763820165E+02  0.10878857693E+03  0.14702369363E+03  0.00000000000E+00 0.  1.
         11    1    1    2    0    0  0.53517746815E+02  0.71678210676E+02 -0.64994603537E+02  0.11057220989E+03  0.00000000000E+00 0. -1.
        -15    1    3    3    0    0  0.77243133965E+01 -0.40235297895E+01  0.28901983600E+02  0.30237992566E+02  0.17770000000E+01 0. -1.
         15    1    3    3    0    0  0.21766756548E+02 -0.13890860722E+02 -0.72695956991E+02  0.77166103919E+02  0.17770000000E+01 0.  1.
</event>
<event>
 6    1  0.3165060E-007  0.1878222E+03  0.7546771E-02  0.1064296E+00
        -11   -1    0    0    0    0  0.00000000000E+00  0.00000000000E+00  0.18250000000E+03  0.18250000000E+03  0.00000000000E+00 0. -1.
         11   -1    0    0    0    0 -0.00000000000E+00 -0.00000000000E+00 -0.18250000000E+03  0.18250000000E+03  0.00000000000E+00 0. -1.
        -11    1    1    2    0    0  0.70027874862E+00 -0.42120079763E+02  0.11284896198E+03  0.12045530179E+03  0.00000000000E+00 0. -1.
         11    1    1    2    0    0  0.47459433783E+02 -0.38238925979E+02  0.28699995581E+02  0.67366928543E+02  0.00000000000E+00 0. -1.
        -15    1    1    2    0    0 -0.38699434014E+02  0.65746443277E+02 -0.70113967379E+02  0.10363091791E+03  0.17770000000E+01 0.  1.
         15    1    1    2    0    0 -0.94602785174E+01  0.14612562465E+02 -0.71434990183E+02  0.73546851754E+02  0.17770000000E+01 0. -1.
</event>
<event>
 7    1  0.3165060E-007  0.1770761E+03  0.7546771E-02  0.1072856E+00
        -11   -1    0    0    0    0  0.00000000000E+00  0.00000000000E+00  0.18250000000E+03  0.18250000000E+03  0.00000000000E+00 0.  1.
         11   -1    0    0    0    0 -0.00000000000E+00 -0.00000000000E+00 -0.18250000000E+03  0.18250000000E+03  0.00000000000E+00 0.  1.
         23    2    1    2    0    0 -0.24335050721E+02  0.64866601779E+02 -0.14470123227E+03  0.18511718715E+03  0.92358300320E+02 0.  0.
        -11    1    1    2    0    0  0.50628385885E+02 -0.58475529821E+02  0.12252981179E+03  0.14490057220E+03  0.00000000000E+00 0.  1.
         11    1    1    2    0    0 -0.26293335164E+02 -0.63910719589E+01  0.22171420479E+02  0.34982240650E+02  0.00000000000E+00 0.  1.
        -15    1    3    3    0    0 -0.28842032766E+02  0.44426984057E+02 -0.16938186914E+02  0.55638832405E+02  0.17770000000E+01 0. -1.
         15    1    3    3    0    0  0.45069820454E+01  0.20439617723E+02 -0.12776304536E+03  0.12947835475E+03  0.17770000000E+01 0.  1.
</event>
<event>
 7    1  0.3165060E-007  0.1517315E+03  0.7546771E-02  0.1095982E+00
        -11   -1    0    0    0    0  0.00000000000E+00  0.00000000000E+00  0.18250000000E+03  0.18250000000E+03  0.00000000000E+00 0. -1.
         11   -1    0    0    0    0 -0.00000000000E+00 -0.00000000000E+00 -0.18250000000E+03  0.18250000000E+03  0.00000000000E+00 0.  1.
         23    2    1    2    0    0  0.69909973945E+02 -0.32065219194E+02  0.69968464903E+02  0.14140164144E+03  0.95829303359E+02 0.  0.
        -11    1    1    2    0    0 -0.31814954500E+02  0.40884502391E+02  0.64977557137E+02  0.83101244258E+02  0.00000000000E+00 0. -1.
         11    1    1    2    0    0 -0.38095019444E+02 -0.88192831971E+01 -0.13494602204E+03  0.14049711430E+03  0.00000000000E+00 0.  1.
        -15    1    3    3    0    0  0.32443576021E+02 -0.59990822686E+02  0.65245350441E+02  0.94401260133E+02  0.17770000000E+01 0. -1.
         15    1    3    3    0    0  0.37466397923E+02  0.27925603492E+02  0.47231144623E+01  0.47000381307E+02  0.17770000000E+01 0.  1.
</event>
<event>
 7    1  0.3165060E-007  0.1324879E+03  0.7546771E-02  0.1117144E+00
        -11   -1    0    0    0    0  0.00000000000E+00  0.00000000000E+00  0.18250000000E+03  0.18250000000E+03  0.00000000000E+00 0. -1.
         11   -1    0    0    0    0 -0.00000000000E+00 -0.00000000000E+00 -0.18250000000E+03  0.18250000000E+03  0.00000000000E+00 0.  1.
         23    2    1    2    0    0  0.54271859263E+02  0.42670983484E+02  0.82234718450E+00  0.11302891170E+03  0.89490843586E+02 0.  0.
        -11    1    1    2    0    0  0.57197530351E+02 -0.35404843437E+02  0.86931222038E+02  0.10991859616E+03  0.00000000000E+00 0. -1.
         11    1    1    2    0    0 -0.11146938961E+03 -0.72661400469E+01 -0.87753569222E+02  0.14205249214E+03  0.00000000000E+00 0.  1.
        -15    1    3    3    0    0  0.52992780613E+02  0.62369757481E+02 -0.20012433709E+02  0.84272633027E+02  0.17770000000E+01 0. -1.
         15    1    3    3    0    0  0.12790786495E+01 -0.19698773997E+02  0.20834780894E+02  0.28756278672E+02  0.17770000000E+01 0.  1.
</event>
<event>
 7    1  0.3165060E-007  0.1565551E+03  0.7546771E-02  0.1091215E+00
        -11   -1    0    0    0    0  0.00000000000E+00  0.00000000000E+00  0.18250000000E+03  0.18250000000E+03  0.00000000000E+00 0.  1.
         11   -1    0    0    0    0 -0.00000000000E+00 -0.00000000000E+00 -0.18250000000E+03  0.18250000000E+03  0.00000000000E+00 0. -1.
         23    2    1    2    0    0 -0.25752803093E+01  0.33596119417E+02 -0.10311924870E+03  0.13893928708E+03  0.86805614648E+02 0.  0.
        -11    1    1    2    0    0  0.62631953196E+02 -0.52642717917E+02  0.13313964965E+03  0.15626958636E+03  0.00000000000E+00 0.  1.
         11    1    1    2    0    0 -0.60056672887E+02  0.19046598499E+02 -0.30020400954E+02  0.69791126557E+02  0.00000000000E+00 0. -1.
        -15    1    3    3    0    0 -0.37532700900E+02  0.21189790105E+02 -0.89555659974E+02  0.99403645828E+02  0.17770000000E+01 0. -1.
         15    1    3    3    0    0  0.34957420591E+02  0.12406329312E+02 -0.13563588726E+02  0.39535641256E+02  0.17770000000E+01 0.  1.
</event>
<event>
 7    1  0.3165060E-007  0.1877497E+03  0.7546771E-02  0.1064351E+00
        -11   -1    0    0    0    0  0.00000000000E+00  0.00000000000E+00  0.18250000000E+03  0.18250000000E+03  0.00000000000E+00 0. -1.
         11   -1    0    0    0    0 -0.00000000000E+00 -0.00000000000E+00 -0.18250000000E+03  0.18250000000E+03  0.00000000000E+00 0. -1.
         23    2    1    2    0    0  0.61227459988E+01 -0.43248784538E+02 -0.15711866767E+03  0.18774969989E+03  0.93036168763E+02 0.  0.
        -11    1    1    2    0    0 -0.26835869498E+02  0.20595550385E+02  0.13561942696E+03  0.13977471000E+03  0.00000000000E+00 0. -1.
         11    1    1    2    0    0  0.20713123500E+02  0.22653234153E+02  0.21499240710E+02  0.37475590106E+02  0.00000000000E+00 0. -1.
        -15    1    3    3    0    0  0.26803122597E+02 -0.31524276734E+02 -0.15631651327E+02  0.44268427313E+02  0.17770000000E+01 0.  1.
         15    1    3    3    0    0 -0.20680376598E+02 -0.11724507804E+02 -0.14148701634E+03  0.14348127258E+03  0.17770000000E+01 0. -1.
</event>
<event>
 7    1  0.3165060E-007  0.2110096E+03  0.7546771E-02  0.1047785E+00
        -11   -1    0    0    0    0  0.00000000000E+00  0.00000000000E+00  0.18250000000E+03  0.18250000000E+03  0.00000000000E+00 0.  1.
         11   -1    0    0    0    0 -0.00000000000E+00 -0.00000000000E+00 -0.18250000000E+03  0.18250000000E+03  0.00000000000E+00 0. -1.
         23    2    1    2    0    0  0.35764199590E+02  0.74470007978E+01 -0.74257302137E+02  0.12067900235E+03  0.87833586363E+02 0.  0.
        -11    1    1    2    0    0 -0.31328125450E+02 -0.80124006043E+02  0.12771743775E+03  0.15399042728E+03  0.00000000000E+00 0.  1.
         11    1    1    2    0    0 -0.44360741395E+01  0.72677005246E+02 -0.53460135609E+02  0.90330570376E+02  0.00000000000E+00 0. -1.
        -15    1    3    3    0    0  0.11508666011E+02  0.16987020405E+02 -0.88540781764E+02  0.90904543450E+02  0.17770000000E+01 0.  1.
         15    1    3    3    0    0  0.24255533579E+02 -0.95400196068E+01  0.14283479626E+02  0.29774458896E+02  0.17770000000E+01 0. -1.
</event>
<event>
 7    1  0.3165060E-007  0.1447478E+03  0.7546771E-02  0.1103241E+00
        -11   -1    0    0    0    0  0.00000000000E+00  0.00000000000E+00  0.18250000000E+03  0.18250000000E+03  0.00000000000E+00 0.  1.
         11   -1    0    0    0    0 -0.00000000000E+00 -0.00000000000E+00 -0.18250000000E+03  0.18250000000E+03  0.00000000000E+00 0. -1.
         23    2    1    2    0    0 -0.47511953209E+02 -0.56444525217E+02 -0.55931551948E+02  0.13014136728E+03  0.91460739392E+02 0.  0.
        -11    1    1    2    0    0 -0.25236687396E+02  0.57958747819E+02 -0.66931684378E+02  0.92064961918E+02  0.00000000000E+00 0. -1.
         11    1    1    2    0    0  0.72748640605E+02 -0.15142226019E+01  0.12286323633E+03  0.14279367080E+03  0.00000000000E+00 0.  1.
        -15    1    3    3    0    0  0.10715355693E+02  0.83398605769E+01  0.13125188695E+02  0.18968406083E+02  0.17770000000E+01 0.  1.
         15    1    3    3    0    0 -0.58227308902E+02 -0.64784385794E+02 -0.69056740642E+02  0.11117296120E+03  0.17770000000E+01 0. -1.
</event>
<event>
 7    1  0.3165060E-007  0.1801881E+03  0.7546771E-02  0.1070310E+00
        -11   -1    0    0    0    0  0.00000000000E+00  0.00000000000E+00  0.18250000000E+03  0.18250000000E+03  0.00000000000E+00 0.  1.
         11   -1    0    0    0    0 -0.00000000000E+00 -0.00000000000E+00 -0.18250000000E+03  0.18250000000E+03  0.00000000000E+00 0. -1.
         23    2    1    2    0    0 -0.11632969509E+03  0.44271226982E+02 -0.92448945323E+02  0.17856700079E+03  0.88582316415E+02 0.  0.
        -11    1    1    2    0    0  0.11709276789E+03 -0.21318812661E+02  0.10633124423E+03  0.15959806254E+03  0.00000000000E+00 0.  1.
         11    1    1    2    0    0 -0.76307279816E+00 -0.22952414321E+02 -0.13882298906E+02  0.26834936672E+02  0.00000000000E+00 0. -1.
        -15    1    3    3    0    0 -0.12890405540E+03  0.45082383504E+02 -0.71757285968E+02  0.15427554122E+03  0.17770000000E+01 0. -1.
         15    1    3    3    0    0  0.12574360309E+02 -0.81115652168E+00 -0.20691659354E+02  0.24291459567E+02  0.17770000000E+01 0.  1.
</event>
<event>
 7    1  0.3165060E-007  0.1414147E+03  0.7546771E-02  0.1106866E+00
        -11   -1    0    0    0    0  0.00000000000E+00  0.00000000000E+00  0.18250000000E+03  0.18250000000E+03  0.00000000000E+00 0.  1.
         11   -1    0    0    0    0 -0.00000000000E+00 -0.00000000000E+00 -0.18250000000E+03  0.18250000000E+03  0.00000000000E+00 0. -1.
         23    2    1    2    0    0 -0.75590263058E+02  0.24048710044E+02  0.20181380508E+02  0.12266976015E+03  0.91369325330E+02 0.  0.
        -11    1    1    2    0    0 -0.25754731497E+02 -0.47827565377E+02  0.80759813099E+02  0.97328976241E+02  0.00000000000E+00 0.  1.
         11    1    1    2    0    0  0.10134499455E+03  0.23778855333E+02 -0.10094119361E+03  0.14500126361E+03  0.00000000000E+00 0. -1.
        -15    1    3    3    0    0 -0.74233370092E+02 -0.60831914571E+01 -0.15308704082E+02  0.76059927710E+02  0.17770000000E+01 0. -1.
         15    1    3    3    0    0 -0.13568929658E+01  0.30131901501E+02  0.35490084590E+02  0.46609832437E+02  0.17770000000E+01 0.  1.
</event>
<event>
 7    1  0.3165060E-007  0.1458114E+03  0.7546771E-02  0.1102107E+00
        -11   -1    0    0    0    0  0.00000000000E+00  0.00000000000E+00  0.18250000000E+03  0.18250000000E+03  0.00000000000E+00 0.  1.
         11   -1    0    0    0    0 -0.00000000000E+00 -0.00000000000E+00 -0.18250000000E+03  0.18250000000E+03  0.00000000000E+00 0. -1.
         23    2    1    2    0    0  0.56679310250E+02 -0.22155562144E+02 -0.53693194080E+02  0.12053707649E+03  0.89122469520E+02 0.  0.
        -11    1    1    2    0    0 -0.54182003662E+02  0.31869626001E+02  0.14215571468E+03  0.15543361863E+03  0.00000000000E+00 0.  1.
         11    1    1    2    0    0 -0.24973065882E+01 -0.97140638569E+01 -0.88462520603E+02  0.89029304885E+02  0.00000000000E+00 0. -1.
        -15    1    3    3    0    0  0.61422923093E+02 -0.28291950587E+02 -0.14220895787E+01  0.67663801379E+02  0.17770000000E+01 0.  1.
         15    1    3    3    0    0 -0.47436128427E+01  0.61363884432E+01 -0.52271104502E+02  0.52873275109E+02  0.17770000000E+01 0. -1.
</event>
<event>
 7    1  0.3165060E-007  0.1467181E+03  0.7546771E-02  0.1101148E+00
        -11   -1    0    0    0    0  0.00000000000E+00  0.00000000000E+00  0.18250000000E+03  0.18250000000E+03  0.00000000000E+00 0. -1.
         11   -1    0    0    0    0 -0.00000000000E+00 -0.00000000000E+00 -0.18250000000E+03  0.18250000000E+03  0.00000000000E+00 0. -1.
         23    2    1    2    0    0  0.82486240603E+01 -0.61882319913E+01 -0.14934256519E+03  0.17524849869E+03  0.91118058035E+02 0.  0.
        -11    1    1    2    0    0  0.42506828362E+02 -0.30413163954E+02  0.86515733149E+02  0.10107800493E+03  0.00000000000E+00 0. -1.
         11    1    1    2    0    0 -0.50755452422E+02  0.36601395945E+02  0.62826832042E+02  0.88673496380E+02  0.00000000000E+00 0. -1.
        -15    1    3    3    0    0 -0.18239322587E+02 -0.13019161006E+02  0.92747430601E+00  0.22498652833E+02  0.17770000000E+01 0.  1.
         15    1    3    3    0    0  0.26487946647E+02  0.68309290148E+01 -0.15027003950E+03  0.15274984585E+03  0.17770000000E+01 0. -1.
</event>
<event>
 7    1  0.3165060E-007  0.1400715E+03  0.7546771E-02  0.1108359E+00
        -11   -1    0    0    0    0  0.00000000000E+00  0.00000000000E+00  0.18250000000E+03  0.18250000000E+03  0.00000000000E+00 0.  1.
         11   -1    0    0    0    0 -0.00000000000E+00 -0.00000000000E+00 -0.18250000000E+03  0.18250000000E+03  0.00000000000E+00 0. -1.
         23    2    1    2    0    0 -0.60073033669E+02 -0.74615154862E+02  0.33830098447E+02  0.13625430052E+03  0.90799604296E+02 0.  0.
        -11    1    1    2    0    0 -0.93968701604E+01  0.63986393296E+02  0.75102174676E+02  0.99110525863E+02  0.00000000000E+00 0.  1.
         11    1    1    2    0    0  0.69469903830E+02  0.10628761566E+02 -0.10893227312E+03  0.12963517362E+03  0.00000000000E+00 0. -1.
        -15    1    3    3    0    0 -0.82177266862E+02 -0.54837631973E+02  0.12326749394E+02  0.99575978774E+02  0.17770000000E+01 0.  1.
         15    1    3    3    0    0  0.22104233192E+02 -0.19777522889E+02  0.21503349054E+02  0.36678321747E+02  0.17770000000E+01 0. -1.
</event>
<event>
 7    1  0.3165060E-007  0.1565610E+03  0.7546771E-02  0.1091209E+00
        -11   -1    0    0    0    0  0.00000000000E+00  0.00000000000E+00  0.18250000000E+03  0.18250000000E+03  0.00000000000E+00 0. -1.
         11   -1    0    0    0    0 -0.00000000000E+00 -0.00000000000E+00 -0.18250000000E+03  0.18250000000E+03  0.00000000000E+00 0.  1.
         23    2    1    2    0    0 -0.75229409255E+02 -0.99935694135E+02 -0.53064163189E+02  0.16271400351E+03  0.89517788980E+02 0.  0.
        -11    1    1    2    0    0  0.21494502303E+02  0.85033779997E+02  0.97381752008E+02  0.13105709822E+03  0.00000000000E+00 0. -1.
         11    1    1    2    0    0  0.53734906951E+02  0.14901914139E+02 -0.44317588819E+02  0.71228898270E+02  0.00000000000E+00 0.  1.
        -15    1    3    3    0    0 -0.80544720267E+02 -0.97389243278E+02 -0.18659862625E+02  0.12776331583E+03  0.17770000000E+01 0.  1.
         15    1    3    3    0    0  0.53153110126E+01 -0.25464508579E+01 -0.34404300564E+02  0.34950687682E+02  0.17770000000E+01 0. -1.
</event>
<event>
 7    1  0.3165060E-007  0.1885672E+03  0.7546771E-02  0.1063725E+00
        -11   -1    0    0    0    0  0.00000000000E+00  0.00000000000E+00  0.18250000000E+03  0.18250000000E+03  0.00000000000E+00 0.  1.
         11   -1    0    0    0    0 -0.00000000000E+00 -0.00000000000E+00 -0.18250000000E+03  0.18250000000E+03  0.00000000000E+00 0.  1.
         23    2    1    2    0    0 -0.16395183801E+02 -0.79733521733E+01 -0.16423861251E+03  0.18856724695E+03  0.90834510987E+02 0.  0.
        -11    1    1    2    0    0  0.32750471087E+02  0.20336055988E+02  0.13712190072E+03  0.14243793099E+03  0.00000000000E+00 0.  1.
         11    1    1    2    0    0 -0.16355287286E+02 -0.12362703815E+02  0.27116711797E+02  0.33994822054E+02  0.00000000000E+00 0.  1.
        -15    1    3    3    0    0 -0.18596834700E+02 -0.48479019305E+02 -0.96240020978E+02  0.10936798865E+03  0.17770000000E+01 0. -1.
         15    1    3    3    0    0  0.22016508990E+01  0.40505667132E+02 -0.67998591535E+02  0.79199258306E+02  0.17770000000E+01 0.  1.
</event>
<event>
 7    1  0.3165060E-007  0.1687924E+03  0.7546771E-02  0.1079922E+00
        -11   -1    0    0    0    0  0.00000000000E+00  0.00000000000E+00  0.18250000000E+03  0.18250000000E+03  0.00000000000E+00 0. -1.
         11   -1    0    0    0    0 -0.00000000000E+00 -0.00000000000E+00 -0.18250000000E+03  0.18250000000E+03  0.00000000000E+00 0. -1.
         23    2    1    2    0    0  0.17594547276E+02  0.38387818961E+02 -0.12839516603E+03  0.16389628689E+03  0.92701032679E+02 0.  0.
        -11    1    1    2    0    0 -0.58941658013E+02 -0.10048354405E+02  0.13769934548E+03  0.15012061225E+03  0.00000000000E+00 0. -1.
         11    1    1    2    0    0  0.41347110737E+02 -0.28339464556E+02 -0.93041794561E+01  0.50983100857E+02  0.00000000000E+00 0. -1.
        -15    1    3    3    0    0 -0.26627728911E+02  0.34137174597E+02 -0.10514312172E+03  0.11372166201E+03  0.17770000000E+01 0.  1.
         15    1    3    3    0    0  0.44222276187E+02  0.42506443640E+01 -0.23252044307E+02  0.50174624883E+02  0.17770000000E+01 0. -1.
</event>
<event>
 6    1  0.3165060E-007  0.1258507E+03  0.7546771E-02  0.1125383E+00
        -11   -1    0    0    0    0  0.00000000000E+00  0.00000000000E+00  0.18250000000E+03  0.18250000000E+03  0.00000000000E+00 0. -1.
         11   -1    0    0    0    0 -0.00000000000E+00 -0.00000000000E+00 -0.18250000000E+03  0.18250000000E+03  0.00000000000E+00 0. -1.
        -11    1    1    2    0    0 -0.37799057982E+02 -0.27235020668E+02  0.13733071120E+03  0.14501806568E+03  0.00000000000E+00 0. -1.
         11    1    1    2    0    0  0.10498386477E+02  0.87399494295E+02 -0.51053317729E+02  0.10176113685E+03  0.00000000000E+00 0. -1.
        -15    1    1    2    0    0  0.29455080299E+02 -0.38554194416E+02 -0.28099258499E+02  0.56095933183E+02  0.17770000000E+01 0.  1.
         15    1    1    2    0    0 -0.21544087934E+01 -0.21610279211E+02 -0.58178134972E+02  0.62124864287E+02  0.17770000000E+01 0. -1.
</event>
<event>
 7    1  0.3165060E-007  0.1498019E+03  0.7546771E-02  0.1097945E+00
        -11   -1    0    0    0    0  0.00000000000E+00  0.00000000000E+00  0.18250000000E+03  0.18250000000E+03  0.00000000000E+00 0. -1.
         11   -1    0    0    0    0 -0.00000000000E+00 -0.00000000000E+00 -0.18250000000E+03  0.18250000000E+03  0.00000000000E+00 0. -1.
         23    2    1    2    0    0  0.26554023200E+02  0.45598106522E+02 -0.11880939985E+03  0.15208053674E+03  0.78920926857E+02 0.  0.
        -11    1    1    2    0    0 -0.34693780477E+02  0.30779239781E+02  0.12744878047E+03  0.13562526184E+03  0.00000000000E+00 0. -1.
         11    1    1    2    0    0  0.81397572773E+01 -0.76377346303E+02 -0.86393806215E+01  0.77294201428E+02  0.00000000000E+00 0. -1.
        -15    1    3    3    0    0  0.25391117096E+02  0.57044897025E+02 -0.12437218450E+03  0.13917768180E+03  0.17770000000E+01 0. -1.
         15    1    3    3    0    0  0.11629061035E+01 -0.11446790503E+02  0.55627846565E+01  0.12902854938E+02  0.17770000000E+01 0.  1.
</event>
<event>
 7    1  0.3165060E-007  0.1508398E+03  0.7546771E-02  0.1096885E+00
        -11   -1    0    0    0    0  0.00000000000E+00  0.00000000000E+00  0.18250000000E+03  0.18250000000E+03  0.00000000000E+00 0.  1.
         11   -1    0    0    0    0 -0.00000000000E+00 -0.00000000000E+00 -0.18250000000E+03  0.18250000000E+03  0.00000000000E+00 0.  1.
         23    2    1    2    0    0  0.40317666967E+02  0.65018844001E+02 -0.55244214211E+02  0.13035842640E+03  0.89935709174E+02 0.  0.
        -11    1    1    2    0    0 -0.12094657552E+03 -0.69819270174E+02  0.63572984519E+02  0.15344161423E+03  0.00000000000E+00 0.  1.
         11    1    1    2    0    0  0.80628908555E+02  0.48004261727E+01 -0.83287703079E+01  0.81199959366E+02  0.00000000000E+00 0.  1.
        -15    1    3    3    0    0  0.47724758365E+02  0.48364616492E+02 -0.76478530941E+02  0.10231770186E+03  0.17770000000E+01 0.  1.
         15    1    3    3    0    0 -0.74070913975E+01  0.16654227509E+02  0.21234316730E+02  0.28040724543E+02  0.17770000000E+01 0. -1.
</event>
<event>
 7    1  0.3165060E-007  0.1907535E+03  0.7546771E-02  0.1062068E+00
        -11   -1    0    0    0    0  0.00000000000E+00  0.00000000000E+00  0.18250000000E+03  0.18250000000E+03  0.00000000000E+00 0. -1.
         11   -1    0    0    0    0 -0.00000000000E+00 -0.00000000000E+00 -0.18250000000E+03  0.18250000000E+03  0.00000000000E+00 0. -1.
         23    2    1    2    0    0 -0.20686340567E+02  0.10523663834E+02 -0.16315049099E+03  0.19075353490E+03  0.96073701798E+02 0.  0.
        -11    1    1    2    0    0 -0.72052018610E+01  0.18725036774E+02  0.42299863519E+02  0.46816881462E+02  0.00000000000E+00 0. -1.
         11    1    1    2    0    0  0.27891542428E+02 -0.29248700608E+02  0.12085062747E+03  0.12742958364E+03  0.00000000000E+00 0. -1.
        -15    1    3    3    0    0  0.19108025169E+02  0.37956225380E+02 -0.39758680933E+02  0.58221148301E+02  0.17770000000E+01 0.  1.
         15    1    3    3    0    0 -0.39794365736E+02 -0.27432561546E+02 -0.12339181006E+03  0.13253238659E+03  0.17770000000E+01 0. -1.
</event>
<event>
 7    1  0.3165060E-007  0.1564032E+03  0.7546771E-02  0.1091362E+00
        -11   -1    0    0    0    0  0.00000000000E+00  0.00000000000E+00  0.18250000000E+03  0.18250000000E+03  0.00000000000E+00 0. -1.
         11   -1    0    0    0    0 -0.00000000000E+00 -0.00000000000E+00 -0.18250000000E+03  0.18250000000E+03  0.00000000000E+00 0. -1.
         23    2    1    2    0    0 -0.73339531323E+01 -0.97080784325E+02 -0.60892909230E+02  0.15528711311E+03  0.10453552292E+03 0.  0.
        -11    1    1    2    0    0 -0.63865109233E+02  0.70258729843E+02  0.87493680500E+02  0.12911307224E+03  0.00000000000E+00 0. -1.
         11    1    1    2    0    0  0.71199062365E+02  0.26822054482E+02 -0.26600771270E+02  0.80599814643E+02  0.00000000000E+00 0. -1.
        -15    1    3    3    0    0  0.10534052705E+02 -0.54028954543E+02  0.22692407552E+02  0.59566746470E+02  0.17770000000E+01 0.  1.
         15    1    3    3    0    0 -0.17868005838E+02 -0.43051829781E+02 -0.83585316782E+02  0.95720366645E+02  0.17770000000E+01 0. -1.
</event>
<event>
 7    1  0.3165060E-007  0.1730504E+03  0.7546771E-02  0.1076236E+00
        -11   -1    0    0    0    0  0.00000000000E+00  0.00000000000E+00  0.18250000000E+03  0.18250000000E+03  0.00000000000E+00 0.  1.
         11   -1    0    0    0    0 -0.00000000000E+00 -0.00000000000E+00 -0.18250000000E+03  0.18250000000E+03  0.00000000000E+00 0. -1.
         23    2    1    2    0    0 -0.68206348160E+01  0.16509380711E+02 -0.13064350801E+03  0.16036621171E+03  0.91271654761E+02 0.  0.
        -11    1    1    2    0    0 -0.22348016844E+02 -0.29408729572E+02  0.15821826573E+03  0.16247254181E+03  0.00000000000E+00 0.  1.
         11    1    1    2    0    0  0.29168651660E+02  0.12899348861E+02 -0.27574757729E+02  0.42161246477E+02  0.00000000000E+00 0. -1.
        -15    1    3    3    0    0 -0.12064002201E+02 -0.88356599367E+01 -0.13342751028E+03  0.13427459649E+03  0.17770000000E+01 0. -1.
         15    1    3    3    0    0  0.52433673846E+01  0.25345040647E+02  0.27840022705E+01  0.26091615216E+02  0.17770000000E+01 0.  1.
</event>
<event>
 6    1  0.3165060E-007  0.1907359E+03  0.7546771E-02  0.1062082E+00
        -11   -1    0    0    0    0  0.00000000000E+00  0.00000000000E+00  0.18250000000E+03  0.18250000000E+03  0.00000000000E+00 0. -1.
         11   -1    0    0    0    0 -0.00000000000E+00 -0.00000000000E+00 -0.18250000000E+03  0.18250000000E+03  0.00000000000E+00 0.  1.
        -11    1    1    2    0    0 -0.23924153359E+02 -0.15661057761E+02  0.11297579947E+03  0.11653825599E+03  0.00000000000E+00 0. -1.
         11    1    1    2    0    0  0.52042109439E+02  0.29490215257E+02 -0.16367632208E+03  0.17426414537E+03  0.00000000000E+00 0.  1.
        -15    1    1    2    0    0  0.36930861550E+00  0.10864734400E+02  0.28157877993E+02  0.30235784503E+02  0.17770000000E+01 0. -1.
         15    1    1    2    0    0 -0.28487264696E+02 -0.24693891896E+02  0.22542644619E+02  0.43961814137E+02  0.17770000000E+01 0.  1.
</event>
<event>
 7    1  0.3165060E-007  0.1683732E+03  0.7546771E-02  0.1080291E+00
        -11   -1    0    0    0    0  0.00000000000E+00  0.00000000000E+00  0.18250000000E+03  0.18250000000E+03  0.00000000000E+00 0.  1.
         11   -1    0    0    0    0 -0.00000000000E+00 -0.00000000000E+00 -0.18250000000E+03  0.18250000000E+03  0.00000000000E+00 0. -1.
         23    2    1    2    0    0 -0.48317709108E+02  0.10341422609E+02 -0.11675013424E+03  0.15565008384E+03  0.90303979530E+02 0.  0.
        -11    1    1    2    0    0  0.28838172646E+02  0.15423144636E+02  0.15550114006E+03  0.15890285759E+03  0.00000000000E+00 0.  1.
         11    1    1    2    0    0  0.19479536462E+02 -0.25764567245E+02 -0.38751005819E+02  0.50447058567E+02  0.00000000000E+00 0. -1.
        -15    1    3    3    0    0  0.24696698677E+02 -0.97500708355E+01 -0.23426765189E+02  0.35453657964E+02  0.17770000000E+01 0.  1.
         15    1    3    3    0    0 -0.73014407784E+02  0.20091493445E+02 -0.93323369051E+02  0.12019642587E+03  0.17770000000E+01 0. -1.
</event>
<event>
 7    1  0.3165060E-007  0.1352812E+03  0.7546771E-02  0.1113834E+00
        -11   -1    0    0    0    0  0.00000000000E+00  0.00000000000E+00  0.18250000000E+03  0.18250000000E+03  0.00000000000E+00 0.  1.
         11   -1    0    0    0    0 -0.00000000000E+00 -0.00000000000E+00 -0.18250000000E+03  0.18250000000E+03  0.00000000000E+00 0. -1.
         23    2    1    2    0    0  0.22917818406E+02 -0.21908613400E+02 -0.61857532738E+02  0.11267330147E+03  0.88677532481E+02 0.  0.
        -11    1    1    2    0    0  0.21228419705E+02 -0.29308076512E+02  0.14253708794E+03  0.14705927577E+03  0.00000000000E+00 0.  1.
         11    1    1    2    0    0 -0.44146238110E+02  0.51216689912E+02 -0.80679555205E+02  0.10526742275E+03  0.00000000000E+00 0. -1.
        -15    1    3    3    0    0  0.49478453206E+02  0.99921668424E+01 -0.45631451223E+02  0.68068699117E+02  0.17770000000E+01 0.  1.
         15    1    3    3    0    0 -0.26560634800E+02 -0.31900780242E+02 -0.16226081515E+02  0.44604602356E+02  0.17770000000E+01 0. -1.
</event>
<event>
 7    1  0.3165060E-007  0.1443080E+03  0.7546771E-02  0.1103713E+00
        -11   -1    0    0    0    0  0.00000000000E+00  0.00000000000E+00  0.18250000000E+03  0.18250000000E+03  0.00000000000E+00 0.  1.
         11   -1    0    0    0    0 -0.00000000000E+00 -0.00000000000E+00 -0.18250000000E+03  0.18250000000E+03  0.00000000000E+00 0.  1.
         23    2    1    2    0    0 -0.15735568950E+02  0.26328751996E+02 -0.11302729220E+03  0.14805075501E+03  0.90570668346E+02 0.  0.
        -11    1    1    2    0    0  0.25679703916E+02 -0.88455670035E+02  0.53818612466E+01  0.92264929334E+02  0.00000000000E+00 0.  1.
         11    1    1    2    0    0 -0.99441349656E+01  0.62126918039E+02  0.10764543095E+03  0.12468431566E+03  0.00000000000E+00 0.  1.
        -15    1    3    3    0    0 -0.19019434036E+02  0.29191876838E+02 -0.12783690950E+03  0.13251165120E+03  0.17770000000E+01 0.  1.
         15    1    3    3    0    0  0.32838650856E+01 -0.28631248414E+01  0.14809617297E+02  0.15539103811E+02  0.17770000000E+01 0. -1.
</event>
<event>
 7    1  0.3165060E-007  0.1524428E+03  0.7546771E-02  0.1095267E+00
        -11   -1    0    0    0    0  0.00000000000E+00  0.00000000000E+00  0.18250000000E+03  0.18250000000E+03  0.00000000000E+00 0.  1.
         11   -1    0    0    0    0 -0.00000000000E+00 -0.00000000000E+00 -0.18250000000E+03  0.18250000000E+03  0.00000000000E+00 0. -1.
         23    2    1    2    0    0  0.13175585083E+03  0.15553009069E+02 -0.68359562804E+02  0.17594544528E+03  0.93178696961E+02 0.  0.
        -11    1    1    2    0    0 -0.57280497351E+02  0.26368371130E+01  0.92367576415E+02  0.10871879994E+03  0.00000000000E+00 0.  1.
         11    1    1    2    0    0 -0.74475353478E+02 -0.18189846182E+02 -0.24008013611E+02  0.80335754788E+02  0.00000000000E+00 0. -1.
        -15    1    3    3    0    0  0.13595548972E+03  0.90940789892E+01 -0.82820148161E+02  0.15946451683E+03  0.17770000000E+01 0. -1.
         15    1    3    3    0    0 -0.41996388881E+01  0.64589300798E+01  0.14460585357E+02  0.16480928446E+02  0.17770000000E+01 0.  1.
</event>
<event>
 7    1  0.3165060E-007  0.1269274E+03  0.7546771E-02  0.1124008E+00
        -11   -1    0    0    0    0  0.00000000000E+00  0.00000000000E+00  0.18250000000E+03  0.18250000000E+03  0.00000000000E+00 0.  1.
         11   -1    0    0    0    0 -0.00000000000E+00 -0.00000000000E+00 -0.18250000000E+03  0.18250000000E+03  0.00000000000E+00 0. -1.
         23    2    1    2    0    0  0.22985061985E+02  0.19827748313E+02 -0.43720660199E+02  0.10562532480E+03  0.91234644916E+02 0.  0.
        -11    1    1    2    0    0 -0.61834108970E+02  0.86421088466E+02  0.87918102755E+02  0.13791901376E+03  0.00000000000E+00 0.  1.
         11    1    1    2    0    0  0.38849046984E+02 -0.10624883678E+03 -0.44197442556E+02  0.12145566144E+03  0.00000000000E+00 0. -1.
        -15    1    3    3    0    0 -0.11414436737E+01  0.15135639633E+01  0.27806972169E+02  0.27928107701E+02  0.17770000000E+01 0. -1.
         15    1    3    3    0    0  0.24126505659E+02  0.18314184349E+02 -0.71527632368E+02  0.77697217098E+02  0.17770000000E+01 0.  1.
</event>
<event>
 7    1  0.3165060E-007  0.2139286E+03  0.7546771E-02  0.1045870E+00
        -11   -1    0    0    0    0  0.00000000000E+00  0.00000000000E+00  0.18250000000E+03  0.18250000000E+03  0.00000000000E+00 0.  1.
         11   -1    0    0    0    0 -0.00000000000E+00 -0.00000000000E+00 -0.18250000000E+03  0.18250000000E+03  0.00000000000E+00 0. -1.
         23    2    1    2    0    0  0.28611173386E+02  0.64814393661E+01  0.25786532876E+02  0.10173330630E+03  0.93936744856E+02 0.  0.
        -11    1    1    2    0    0  0.78654071440E+02  0.30693004542E+02  0.73886860864E+02  0.11219532829E+03  0.00000000000E+00 0.  1.
         11    1    1    2    0    0 -0.10726524483E+03 -0.37174443908E+02 -0.99673393739E+02  0.15107136541E+03  0.00000000000E+00 0. -1.
        -15    1    3    3    0    0 -0.12849848579E+02 -0.20687825528E+02  0.42815907435E+02  0.49289597199E+02  0.17770000000E+01 0.  1.
         15    1    3    3    0    0  0.41461021965E+02  0.27169264894E+02 -0.17029374559E+02  0.52443709100E+02  0.17770000000E+01 0. -1.
</event>
<event>
 7    1  0.3165060E-007  0.1396937E+03  0.7546771E-02  0.1108781E+00
        -11   -1    0    0    0    0  0.00000000000E+00  0.00000000000E+00  0.18250000000E+03  0.18250000000E+03  0.00000000000E+00 0. -1.
         11   -1    0    0    0    0 -0.00000000000E+00 -0.00000000000E+00 -0.18250000000E+03  0.18250000000E+03  0.00000000000E+00 0. -1.
         23    2    1    2    0    0 -0.59468544463E+02  0.14121332069E+02  0.25213172532E+02  0.12998361350E+03  0.11191119653E+03 0.  0.
        -11    1    1    2    0    0  0.46978336438E+02 -0.99874289310E+02  0.49155277346E+02  0.12082251053E+03  0.00000000000E+00 0. -1.
         11    1    1    2    0    0  0.12490208025E+02  0.85752957241E+02 -0.74368449878E+02  0.11419387597E+03  0.00000000000E+00 0. -1.
        -15    1    3    3    0    0  0.13462241059E+01 -0.43509277072E+02  0.56843120951E+01  0.43935619304E+02  0.17770000000E+01 0. -1.
         15    1    3    3    0    0 -0.60814768569E+02  0.57630609140E+02  0.19528860437E+02  0.86047994195E+02  0.17770000000E+01 0.  1.
</event>
<event>
 7    1  0.3165060E-007  0.1807512E+03  0.7546771E-02  0.1069855E+00
        -11   -1    0    0    0    0  0.00000000000E+00  0.00000000000E+00  0.18250000000E+03  0.18250000000E+03  0.00000000000E+00 0.  1.
         11   -1    0    0    0    0 -0.00000000000E+00 -0.00000000000E+00 -0.18250000000E+03  0.18250000000E+03  0.00000000000E+00 0.  1.
         23    2    1    2    0    0  0.51654496620E+02  0.15102880411E+02 -0.15483195931E+03  0.18757373085E+03  0.91184893836E+02 0.  0.
        -11    1    1    2    0    0 -0.67558477871E+02 -0.80714851206E+01  0.13405216754E+03  0.15033057050E+03  0.00000000000E+00 0.  1.
         11    1    1    2    0    0  0.15903981252E+02 -0.70313952899E+01  0.20779791765E+02  0.27095698647E+02  0.00000000000E+00 0.  1.
        -15    1    3    3    0    0  0.10659153704E+02 -0.39823000209E+01 -0.13922885293E+03  0.13970435744E+03  0.17770000000E+01 0.  1.
         15    1    3    3    0    0  0.40995342916E+02  0.19085180431E+02 -0.15603106380E+02  0.47869373409E+02  0.17770000000E+01 0. -1.
</event>
<event>
 7    1  0.3165060E-007  0.1829769E+03  0.7546771E-02  0.1068076E+00
        -11   -1    0    0    0    0  0.00000000000E+00  0.00000000000E+00  0.18250000000E+03  0.18250000000E+03  0.00000000000E+00 0. -1.
         11   -1    0    0    0    0 -0.00000000000E+00 -0.00000000000E+00 -0.18250000000E+03  0.18250000000E+03  0.00000000000E+00 0. -1.
         23    2    1    2    0    0 -0.51395639884E+02 -0.93185838524E+01 -0.14162322429E+03  0.17699988931E+03  0.92430922057E+02 0.  0.
        -11    1    1    2    0    0  0.72173705804E+02  0.90955068457E+00  0.14802782275E+03  0.16468790909E+03  0.00000000000E+00 0. -1.
         11    1    1    2    0    0 -0.20778065920E+02  0.84090331678E+01 -0.64045984609E+01  0.23312201605E+02  0.00000000000E+00 0. -1.
        -15    1    3    3    0    0 -0.40018162097E+02  0.62668966673E+00 -0.15289977365E+03  0.15806120507E+03  0.17770000000E+01 0. -1.
         15    1    3    3    0    0 -0.11377477787E+02 -0.99452735191E+01  0.11276549359E+02  0.18938684236E+02  0.17770000000E+01 0.  1.
</event>
<event>
 7    1  0.3165060E-007  0.1437912E+03  0.7546771E-02  0.1104271E+00
        -11   -1    0    0    0    0  0.00000000000E+00  0.00000000000E+00  0.18250000000E+03  0.18250000000E+03  0.00000000000E+00 0.  1.
         11   -1    0    0    0    0 -0.00000000000E+00 -0.00000000000E+00 -0.18250000000E+03  0.18250000000E+03  0.00000000000E+00 0. -1.
         23    2    1    2    0    0 -0.71516326104E+01 -0.98863893503E+01 -0.94431103965E+02  0.13204249319E+03  0.91482785634E+02 0.  0.
        -11    1    1    2    0    0  0.68159816558E+02  0.80798402264E+02  0.90786283490E+02  0.13934235419E+03  0.00000000000E+00 0.  1.
         11    1    1    2    0    0 -0.61008183948E+02 -0.70912012914E+02  0.36448204751E+01  0.93615152622E+02  0.00000000000E+00 0. -1.
        -15    1    3    3    0    0 -0.20863802447E+02  0.25631973876E+02 -0.87170385096E+02  0.93242319277E+02  0.17770000000E+01 0. -1.
         15    1    3    3    0    0  0.13712169836E+02 -0.35518363227E+02 -0.72607188694E+01  0.38800173910E+02  0.17770000000E+01 0.  1.
</event>
<event>
 7    1  0.3165060E-007  0.2092092E+03  0.7546771E-02  0.1048982E+00
        -11   -1    0    0    0    0  0.00000000000E+00  0.00000000000E+00  0.18250000000E+03  0.18250000000E+03  0.00000000000E+00 0. -1.
         11   -1    0    0    0    0 -0.00000000000E+00 -0.00000000000E+00 -0.18250000000E+03  0.18250000000E+03  0.00000000000E+00 0.  1.
         23    2    1    2    0    0 -0.21923639370E+02 -0.42106405312E+02 -0.24140682174E+02  0.10482240883E+03  0.90284935203E+02 0.  0.
        -11    1    1    2    0    0  0.52892986483E+02  0.10846351073E+03  0.98533116747E+02  0.15579080934E+03  0.00000000000E+00 0. -1.
         11    1    1    2    0    0 -0.30969347113E+02 -0.66357105419E+02 -0.74392434572E+02  0.10438678183E+03  0.00000000000E+00 0.  1.
        -15    1    3    3    0    0 -0.33570288344E+02 -0.62560859721E+01 -0.48913742304E+02  0.59680941567E+02  0.17770000000E+01 0.  1.
         15    1    3    3    0    0  0.11646648974E+02 -0.35850319340E+02  0.24773060129E+02  0.45141467258E+02  0.17770000000E+01 0. -1.
</event>
<event>
 7    1  0.3165060E-007  0.1664812E+03  0.7546771E-02  0.1081973E+00
        -11   -1    0    0    0    0  0.00000000000E+00  0.00000000000E+00  0.18250000000E+03  0.18250000000E+03  0.00000000000E+00 0. -1.
         11   -1    0    0    0    0 -0.00000000000E+00 -0.00000000000E+00 -0.18250000000E+03  0.18250000000E+03  0.00000000000E+00 0. -1.
         23    2    1    2    0    0  0.13012525741E+03 -0.46904636628E+01 -0.55026500541E+02  0.18078446575E+03  0.11269660256E+03 0.  0.
        -11    1    1    2    0    0 -0.17263900532E+02 -0.21783143832E+02  0.62139819001E+02  0.68072789881E+02  0.00000000000E+00 0. -1.
         11    1    1    2    0    0 -0.11286135688E+03  0.26473607494E+02 -0.71133184594E+01  0.11614274437E+03  0.00000000000E+00 0. -1.
        -15    1    3    3    0    0  0.12451918451E+02  0.17476508860E+02  0.27809269936E+02  0.35170895047E+02  0.17770000000E+01 0.  1.
         15    1    3    3    0    0  0.11767333896E+03 -0.22166972523E+02 -0.82835770478E+02  0.14561357070E+03  0.17770000000E+01 0. -1.
</event>
<event>
 7    1  0.3165060E-007  0.1207291E+03  0.7546771E-02  0.1132134E+00
        -11   -1    0    0    0    0  0.00000000000E+00  0.00000000000E+00  0.18250000000E+03  0.18250000000E+03  0.00000000000E+00 0.  1.
         11   -1    0    0    0    0 -0.00000000000E+00 -0.00000000000E+00 -0.18250000000E+03  0.18250000000E+03  0.00000000000E+00 0. -1.
         23    2    1    2    0    0  0.37558296059E+02  0.19304806395E+02  0.50788579316E+02  0.11467060150E+03  0.93736683886E+02 0.  0.
        -11    1    1    2    0    0 -0.12027480071E+03  0.37538240678E+02  0.19914909074E+02  0.12756077298E+03  0.00000000000E+00 0.  1.
         11    1    1    2    0    0  0.82716504654E+02 -0.56843047072E+02 -0.70703488389E+02  0.12276862552E+03  0.00000000000E+00 0. -1.
        -15    1    3    3    0    0 -0.24240018564E+02 -0.18283145841E+02  0.13538111331E+02  0.33290991412E+02  0.17770000000E+01 0.  1.
         15    1    3    3    0    0  0.61798314622E+02  0.37587952235E+02  0.37250467985E+02  0.81379610085E+02  0.17770000000E+01 0. -1.
</event>
<event>
 7    1  0.3165060E-007  0.1861440E+03  0.7546771E-02  0.1065591E+00
        -11   -1    0    0    0    0  0.00000000000E+00  0.00000000000E+00  0.18250000000E+03  0.18250000000E+03  0.00000000000E+00 0.  1.
         11   -1    0    0    0    0 -0.00000000000E+00 -0.00000000000E+00 -0.18250000000E+03  0.18250000000E+03  0.00000000000E+00 0. -1.
         23    2    1    2    0    0 -0.45940913172E+02  0.13067072510E+02 -0.14873391284E+03  0.18435493844E+03  0.97896121543E+02 0.  0.
        -11    1    1    2    0    0  0.53839647923E+02 -0.31382970112E+02  0.14811254314E+03  0.16068890421E+03  0.00000000000E+00 0.  1.
         11    1    1    2    0    0 -0.78987347513E+01  0.18315897602E+02  0.62136970232E+00  0.19956157344E+02  0.00000000000E+00 0. -1.
        -15    1    3    3    0    0  0.24021242372E+02 -0.72210717371E+00 -0.86165712442E+02  0.89471946740E+02  0.17770000000E+01 0.  1.
         15    1    3    3    0    0 -0.69962155544E+02  0.13789179684E+02 -0.62568200398E+02  0.94882991705E+02  0.17770000000E+01 0. -1.
</event>
<event>
 7    1  0.3165060E-007  0.1253273E+03  0.7546771E-02  0.1126056E+00
        -11   -1    0    0    0    0  0.00000000000E+00  0.00000000000E+00  0.18250000000E+03  0.18250000000E+03  0.00000000000E+00 0.  1.
         11   -1    0    0    0    0 -0.00000000000E+00 -0.00000000000E+00 -0.18250000000E+03  0.18250000000E+03  0.00000000000E+00 0.  1.
         23    2    1    2    0    0  0.59457236895E+00  0.12680388335E+03  0.10016535600E+02  0.14418317308E+03  0.67888718257E+02 0.  0.
        -11    1    1    2    0    0 -0.72719312601E+02 -0.65919168346E+02  0.48791304002E+02  0.10960851485E+03  0.00000000000E+00 0.  1.
         11    1    1    2    0    0  0.72124740232E+02 -0.60884715003E+02 -0.58807839602E+02  0.11120831207E+03  0.00000000000E+00 0.  1.
        -15    1    3    3    0    0  0.84769851611E+01  0.11448069552E+03  0.30649197149E+02  0.11882853167E+03  0.17770000000E+01 0.  1.
         15    1    3    3    0    0 -0.78824127922E+01  0.12323187832E+02 -0.20632661549E+02  0.25354641417E+02  0.17770000000E+01 0. -1.
</event>
<event>
 7    1  0.3165060E-007  0.1406207E+03  0.7546771E-02  0.1107746E+00
        -11   -1    0    0    0    0  0.00000000000E+00  0.00000000000E+00  0.18250000000E+03  0.18250000000E+03  0.00000000000E+00 0. -1.
         11   -1    0    0    0    0 -0.00000000000E+00 -0.00000000000E+00 -0.18250000000E+03  0.18250000000E+03  0.00000000000E+00 0.  1.
         23    2    1    2    0    0  0.55012107097E+02 -0.69418720990E+02 -0.22489196160E+02  0.12956017273E+03  0.91841078291E+02 0.  0.
        -11    1    1    2    0    0 -0.78650118559E+01  0.82807237270E+02  0.10833725631E+03  0.13658644904E+03  0.00000000000E+00 0. -1.
         11    1    1    2    0    0 -0.47147095241E+02 -0.13388516281E+02 -0.85848060149E+02  0.98853378238E+02  0.00000000000E+00 0.  1.
        -15    1    3    3    0    0  0.32922275500E+02 -0.89736438568E+02 -0.73110140681E+01  0.95880724271E+02  0.17770000000E+01 0. -1.
         15    1    3    3    0    0  0.22089831597E+02  0.20317717579E+02 -0.15178182092E+02  0.33679448454E+02  0.17770000000E+01 0.  1.
</event>
<event>
 7    1  0.3165060E-007  0.1672162E+03  0.7546771E-02  0.1081317E+00
        -11   -1    0    0    0    0  0.00000000000E+00  0.00000000000E+00  0.18250000000E+03  0.18250000000E+03  0.00000000000E+00 0. -1.
         11   -1    0    0    0    0 -0.00000000000E+00 -0.00000000000E+00 -0.18250000000E+03  0.18250000000E+03  0.00000000000E+00 0. -1.
         23    2    1    2    0    0  0.17962686714E+02  0.13425897228E+02 -0.13718339334E+03  0.16649790359E+03  0.91647998676E+02 0.  0.
        -11    1    1    2    0    0  0.33051552709E+02 -0.28905390144E+02  0.13837855913E+03  0.14517765786E+03  0.00000000000E+00 0. -1.
         11    1    1    2    0    0 -0.51014239423E+02  0.15479492916E+02 -0.11951657906E+01  0.53324438545E+02  0.00000000000E+00 0. -1.
        -15    1    3    3    0    0 -0.30423661134E+02  0.64385543730E+01 -0.10087821689E+03  0.10557758527E+03  0.17770000000E+01 0. -1.
         15    1    3    3    0    0  0.48386347848E+02  0.69873428547E+01 -0.36305176447E+02  0.60920318319E+02  0.17770000000E+01 0.  1.
</event>
<event>
 7    1  0.3165060E-007  0.1626759E+03  0.7546771E-02  0.1085430E+00
        -11   -1    0    0    0    0  0.00000000000E+00  0.00000000000E+00  0.18250000000E+03  0.18250000000E+03  0.00000000000E+00 0.  1.
         11   -1    0    0    0    0 -0.00000000000E+00 -0.00000000000E+00 -0.18250000000E+03  0.18250000000E+03  0.00000000000E+00 0.  1.
         23    2    1    2    0    0 -0.14202816442E+02 -0.23178235529E+02 -0.13558867813E+03  0.16599167720E+03  0.91815013292E+02 0.  0.
        -11    1    1    2    0    0 -0.46877739169E+02  0.20014800244E+02  0.12750271436E+03  0.13731371682E+03  0.00000000000E+00 0.  1.
         11    1    1    2    0    0  0.61080555611E+02  0.31634352857E+01  0.80859637791E+01  0.61694605978E+02  0.00000000000E+00 0.  1.
        -15    1    3    3    0    0 -0.22544698884E+01  0.23902971017E+02 -0.10684252935E+03  0.10952131512E+03  0.17770000000E+01 0.  1.
         15    1    3    3    0    0 -0.11948346554E+02 -0.47081206547E+02 -0.28746148781E+02  0.56470362085E+02  0.17770000000E+01 0. -1.
</event>
<event>
 7    1  0.3165060E-007  0.2166182E+03  0.7546771E-02  0.1044136E+00
        -11   -1    0    0    0    0  0.00000000000E+00  0.00000000000E+00  0.18250000000E+03  0.18250000000E+03  0.00000000000E+00 0.  1.
         11   -1    0    0    0    0 -0.00000000000E+00 -0.00000000000E+00 -0.18250000000E+03  0.18250000000E+03  0.00000000000E+00 0. -1.
         23    2    1    2    0    0 -0.12174112855E+02 -0.26670570805E+01  0.48579530671E+02  0.10276443291E+03  0.89695237628E+02 0.  0.
        -11    1    1    2    0    0  0.49086776971E+02  0.60623342366E+02  0.82933548441E+02  0.11385374289E+03  0.00000000000E+00 0.  1.
         11    1    1    2    0    0 -0.36912664116E+02 -0.57956285285E+02 -0.13151307911E+03  0.14838182420E+03  0.00000000000E+00 0. -1.
        -15    1    3    3    0    0  0.27063255415E+02  0.51409849767E+01 -0.12036565304E+02  0.30114550528E+02  0.17770000000E+01 0. -1.
         15    1    3    3    0    0 -0.39237368270E+02 -0.78080420572E+01  0.60616095974E+02  0.72649882379E+02  0.17770000000E+01 0.  1.
</event>
<event>
 7    1  0.3165060E-007  0.1511603E+03  0.7546771E-02  0.1096560E+00
        -11   -1    0    0    0    0  0.00000000000E+00  0.00000000000E+00  0.18250000000E+03  0.18250000000E+03  0.00000000000E+00 0. -1.
         11   -1    0    0    0    0 -0.00000000000E+00 -0.00000000000E+00 -0.18250000000E+03  0.18250000000E+03  0.00000000000E+00 0. -1.
         23    2    1    2    0    0 -0.52810937921E+02 -0.52322475882E+02 -0.56898009648E+02  0.15272826175E+03  0.12067270524E+03 0.  0.
        -11    1    1    2    0    0 -0.26993486867E+02  0.11792221740E+02  0.10611383520E+03  0.11012652200E+03  0.00000000000E+00 0. -1.
         11    1    1    2    0    0  0.79804424788E+02  0.40530254142E+02 -0.49215825555E+02  0.10214521624E+03  0.00000000000E+00 0. -1.
        -15    1    3    3    0    0 -0.72026726555E+02 -0.43145251628E+02 -0.83621376467E+02  0.11851183235E+03  0.17770000000E+01 0.  1.
         15    1    3    3    0    0  0.19215788634E+02 -0.91772242537E+01  0.26723366818E+02  0.34216429401E+02  0.17770000000E+01 0. -1.
</event>
<event>
 7    1  0.3165060E-007  0.1854854E+03  0.7546771E-02  0.1066103E+00
        -11   -1    0    0    0    0  0.00000000000E+00  0.00000000000E+00  0.18250000000E+03  0.18250000000E+03  0.00000000000E+00 0.  1.
         11   -1    0    0    0    0 -0.00000000000E+00 -0.00000000000E+00 -0.18250000000E+03  0.18250000000E+03  0.00000000000E+00 0. -1.
         23    2    1    2    0    0  0.21126345435E+02 -0.45151223151E+01 -0.16094530675E+03  0.18548536954E+03  0.89636609414E+02 0.  0.
        -11    1    1    2    0    0 -0.50250940727E+02  0.23280587662E+01  0.10160212077E+03  0.11337357649E+03  0.00000000000E+00 0.  1.
         11    1    1    2    0    0  0.29124595292E+02  0.21870635489E+01  0.59343185979E+02  0.66141053968E+02  0.00000000000E+00 0. -1.
        -15    1    3    3    0    0  0.35203985583E+02 -0.18167653820E+02 -0.22393445130E+02  0.45541281932E+02  0.17770000000E+01 0.  1.
         15    1    3    3    0    0 -0.14077640148E+02  0.13652531505E+02 -0.13855186162E+03  0.13994408761E+03  0.17770000000E+01 0. -1.
</event>
<event>
 7    1  0.3165060E-007  0.1675855E+03  0.7546771E-02  0.1080988E+00
        -11   -1    0    0    0    0  0.00000000000E+00  0.00000000000E+00  0.18250000000E+03  0.18250000000E+03  0.00000000000E+00 0. -1.
         11   -1    0    0    0    0 -0.00000000000E+00 -0.00000000000E+00 -0.18250000000E+03  0.18250000000E+03  0.00000000000E+00 0. -1.
         23    2    1    2    0    0  0.15646512809E+02  0.70698934094E+02 -0.10086516789E+03  0.15676346219E+03  0.95696647481E+02 0.  0.
        -11    1    1    2    0    0 -0.64372172251E+02 -0.61838429722E+02  0.12463534397E+03  0.15330276226E+03  0.00000000000E+00 0. -1.
         11    1    1    2    0    0  0.48725659442E+02 -0.88605043717E+01 -0.23770176079E+02  0.54933775554E+02  0.00000000000E+00 0. -1.
        -15    1    3    3    0    0  0.81319288255E+01 -0.21644439849E+02 -0.55851057870E+01  0.23852907128E+02  0.17770000000E+01 0.  1.
         15    1    3    3    0    0  0.75145839835E+01  0.92343373943E+02 -0.95280062099E+02  0.13291055506E+03  0.17770000000E+01 0. -1.
</event>
<event>
 7    1  0.3165060E-007  0.1693379E+03  0.7546771E-02  0.1079443E+00
        -11   -1    0    0    0    0  0.00000000000E+00  0.00000000000E+00  0.18250000000E+03  0.18250000000E+03  0.00000000000E+00 0.  1.
         11   -1    0    0    0    0 -0.00000000000E+00 -0.00000000000E+00 -0.18250000000E+03  0.18250000000E+03  0.00000000000E+00 0. -1.
         23    2    1    2    0    0  0.65389512921E+02 -0.24511726748E+02  0.10088815589E+03  0.15326676853E+03  0.91845899133E+02 0.  0.
        -11    1    1    2    0    0  0.20323539380E+02  0.26034640360E+02  0.36857005304E+02  0.49490277748E+02  0.00000000000E+00 0.  1.
         11    1    1    2    0    0 -0.85713052301E+02 -0.15229136117E+01 -0.13774516120E+03  0.16224295372E+03  0.00000000000E+00 0. -1.
        -15    1    3    3    0    0  0.33687943122E+02 -0.23490155673E+02  0.11224060901E+03  0.11953148943E+03  0.17770000000E+01 0.  1.
         15    1    3    3    0    0  0.31701569799E+02 -0.10215710757E+01 -0.11352453117E+02  0.33735279100E+02  0.17770000000E+01 0. -1.
</event>
<event>
 7    1  0.3165060E-007  0.1233381E+03  0.7546771E-02  0.1128650E+00
        -11   -1    0    0    0    0  0.00000000000E+00  0.00000000000E+00  0.18250000000E+03  0.18250000000E+03  0.00000000000E+00 0.  1.
         11   -1    0    0    0    0 -0.00000000000E+00 -0.00000000000E+00 -0.18250000000E+03  0.18250000000E+03  0.00000000000E+00 0. -1.
         23    2    1    2    0    0  0.40852589357E+02  0.45494045878E+02  0.68271884012E+01  0.11076709767E+03  0.92109158919E+02 0.  0.
        -11    1    1    2    0    0 -0.53316516721E+02  0.41479374455E+02  0.97009392706E+02  0.11821172418E+03  0.00000000000E+00 0.  1.
         11    1    1    2    0    0  0.12463927364E+02 -0.86973420333E+02 -0.10383658111E+03  0.13602117815E+03  0.00000000000E+00 0. -1.
        -15    1    3    3    0    0  0.54198951740E+02  0.40689220167E+02 -0.27823443506E+02  0.73283291036E+02  0.17770000000E+01 0. -1.
         15    1    3    3    0    0 -0.13346362383E+02  0.48048257106E+01  0.34650631908E+02  0.37483806631E+02  0.17770000000E+01 0.  1.
</event>
<event>
 7    1  0.3165060E-007  0.1930983E+03  0.7546771E-02  0.1060318E+00
        -11   -1    0    0    0    0  0.00000000000E+00  0.00000000000E+00  0.18250000000E+03  0.18250000000E+03  0.00000000000E+00 0.  1.
         11   -1    0    0    0    0 -0.00000000000E+00 -0.00000000000E+00 -0.18250000000E+03  0.18250000000E+03  0.00000000000E+00 0.  1.
         23    2    1    2    0    0 -0.46746462863E+01  0.12829495149E+02 -0.16996304819E+03  0.19309831729E+03  0.90626012418E+02 0.  0.
        -11    1    1    2    0    0  0.67050423059E+01 -0.14896596970E+02  0.16685398603E+03  0.16765177854E+03  0.00000000000E+00 0.  1.
         11    1    1    2    0    0 -0.20303960195E+01  0.20671018212E+01  0.31090621637E+01  0.42499041722E+01  0.00000000000E+00 0.  1.
        -15    1    3    3    0    0 -0.11885046257E+02  0.50243272999E+02 -0.11632635212E+03  0.12728165120E+03  0.17770000000E+01 0.  1.
         15    1    3    3    0    0  0.72103999705E+01 -0.37413777850E+02 -0.53636696075E+02  0.65816666093E+02  0.17770000000E+01 0. -1.
</event>
<event>
 7    1  0.3165060E-007  0.1399536E+03  0.7546771E-02  0.1108490E+00
        -11   -1    0    0    0    0  0.00000000000E+00  0.00000000000E+00  0.18250000000E+03  0.18250000000E+03  0.00000000000E+00 0.  1.
         11   -1    0    0    0    0 -0.00000000000E+00 -0.00000000000E+00 -0.18250000000E+03  0.18250000000E+03  0.00000000000E+00 0. -1.
         23    2    1    2    0    0 -0.30362838878E+02 -0.11093271717E+02 -0.84028071123E+02  0.12761934615E+03  0.90448980719E+02 0.  0.
        -11    1    1    2    0    0 -0.58987685611E+02  0.33636267434E+02  0.12046736726E+03  0.13828713648E+03  0.00000000000E+00 0.  1.
         11    1    1    2    0    0  0.89350524489E+02 -0.22542995717E+02 -0.36439296136E+02  0.99093517372E+02  0.00000000000E+00 0. -1.
        -15    1    3    3    0    0 -0.59340371587E+02 -0.23840402091E+02 -0.61342664227E+02  0.88632525945E+02  0.17770000000E+01 0.  1.
         15    1    3    3    0    0  0.28977532709E+02  0.12747130374E+02 -0.22685406896E+02  0.38986820205E+02  0.17770000000E+01 0. -1.
</event>
<event>
 7    1  0.3165060E-007  0.1536023E+03  0.7546771E-02  0.1094111E+00
        -11   -1    0    0    0    0  0.00000000000E+00  0.00000000000E+00  0.18250000000E+03  0.18250000000E+03  0.00000000000E+00 0. -1.
         11   -1    0    0    0    0 -0.00000000000E+00 -0.00000000000E+00 -0.18250000000E+03  0.18250000000E+03  0.00000000000E+00 0.  1.
         23    2    1    2    0    0 -0.11146784575E+03  0.98939370658E+02 -0.47475374602E+02  0.17963365115E+03  0.88319067755E+02 0.  0.
        -11    1    1    2    0    0  0.32292710654E+02 -0.24769296576E+02  0.63780205649E+02  0.75658785656E+02  0.00000000000E+00 0. -1.
         11    1    1    2    0    0  0.79175135096E+02 -0.74170074082E+02 -0.16304831047E+02  0.10970756320E+03  0.00000000000E+00 0.  1.
        -15    1    3    3    0    0 -0.97329923487E+02  0.37660620908E+02 -0.65545940601E+01  0.10458277490E+03  0.17770000000E+01 0. -1.
         15    1    3    3    0    0 -0.14137922263E+02  0.61278749750E+02 -0.40920780542E+02  0.75050876251E+02  0.17770000000E+01 0.  1.
</event>
<event>
 7    1  0.3165060E-007  0.1387179E+03  0.7546771E-02  0.1109881E+00
        -11   -1    0    0    0    0  0.00000000000E+00  0.00000000000E+00  0.18250000000E+03  0.18250000000E+03  0.00000000000E+00 0.  1.
         11   -1    0    0    0    0 -0.00000000000E+00 -0.00000000000E+00 -0.18250000000E+03  0.18250000000E+03  0.00000000000E+00 0. -1.
         23    2    1    2    0    0 -0.29854129912E+02  0.73081921898E+02  0.12086638709E+02  0.12105996670E+03  0.90979076278E+02 0.  0.
        -11    1    1    2    0    0 -0.63722447599E+02 -0.13580502972E+02  0.77595930992E+02  0.10132180859E+03  0.00000000000E+00 0.  1.
         11    1    1    2    0    0  0.93576577511E+02 -0.59501418925E+02 -0.89682569701E+02  0.14261822472E+03  0.00000000000E+00 0. -1.
        -15    1    3    3    0    0 -0.62223540990E+02  0.53435494163E+02  0.13425833391E+02  0.83129608570E+02  0.17770000000E+01 0. -1.
         15    1    3    3    0    0  0.32369411078E+02  0.19646427734E+02 -0.13391946820E+01  0.37930358127E+02  0.17770000000E+01 0.  1.
</event>
<event>
 7    1  0.3165060E-007  0.1566331E+03  0.7546771E-02  0.1091140E+00
        -11   -1    0    0    0    0  0.00000000000E+00  0.00000000000E+00  0.18250000000E+03  0.18250000000E+03  0.00000000000E+00 0.  1.
         11   -1    0    0    0    0 -0.00000000000E+00 -0.00000000000E+00 -0.18250000000E+03  0.18250000000E+03  0.00000000000E+00 0. -1.
         23    2    1    2    0    0  0.15306001239E+03  0.29556240991E+02 -0.39649400488E+01  0.18093923306E+03  0.91773343282E+02 0.  0.
        -11    1    1    2    0    0 -0.47479288977E+02 -0.37626441494E+02  0.39555309308E+02  0.72350912059E+02  0.00000000000E+00 0.  1.
         11    1    1    2    0    0 -0.10558072341E+03  0.80702005035E+01 -0.35590369259E+02  0.11170985488E+03  0.00000000000E+00 0. -1.
        -15    1    3    3    0    0  0.50986129410E+02  0.53485232915E+02 -0.15268677250E+02  0.75475464663E+02  0.17770000000E+01 0.  1.
         15    1    3    3    0    0  0.10207388298E+03 -0.23928991924E+02  0.11303737202E+02  0.10546376840E+03  0.17770000000E+01 0. -1.
</event>
<event>
 7    1  0.3165060E-007  0.1641911E+03  0.7546771E-02  0.1084041E+00
        -11   -1    0    0    0    0  0.00000000000E+00  0.00000000000E+00  0.18250000000E+03  0.18250000000E+03  0.00000000000E+00 0. -1.
         11   -1    0    0    0    0 -0.00000000000E+00 -0.00000000000E+00 -0.18250000000E+03  0.18250000000E+03  0.00000000000E+00 0. -1.
         23    2    1    2    0    0  0.11174718719E+03  0.25143121746E+02 -0.28143592622E+02  0.14993113100E+03  0.92561718976E+02 0.  0.
        -11    1    1    2    0    0  0.43820295102E+02 -0.30894362937E+02  0.25503752276E+02  0.59372731992E+02  0.00000000000E+00 0. -1.
         11    1    1    2    0    0 -0.15556748229E+03  0.57512411908E+01  0.26398403465E+01  0.15569613701E+03  0.00000000000E+00 0. -1.
        -15    1    3    3    0    0 -0.10344818372E+02 -0.14975971845E+02  0.31724797051E+00  0.18290800287E+02  0.17770000000E+01 0.  1.
         15    1    3    3    0    0  0.12209200556E+03  0.40119093592E+02 -0.28460840593E+02  0.13164033071E+03  0.17770000000E+01 0. -1.
</event>
<event>
 7    1  0.3165060E-007  0.2056617E+03  0.7546771E-02  0.1051381E+00
        -11   -1    0    0    0    0  0.00000000000E+00  0.00000000000E+00  0.18250000000E+03  0.18250000000E+03  0.00000000000E+00 0.  1.
         11   -1    0    0    0    0 -0.00000000000E+00 -0.00000000000E+00 -0.18250000000E+03  0.18250000000E+03  0.00000000000E+00 0.  1.
         23    2    1    2    0    0 -0.13621971712E+02 -0.10173543932E+02  0.66112498515E+02  0.11378120426E+03  0.91028791452E+02 0.  0.
        -11    1    1    2    0    0 -0.34049671931E+02 -0.21374332738E+02  0.82618280901E+02  0.91880479960E+02  0.00000000000E+00 0.  1.
         11    1    1    2    0    0  0.47671643644E+02  0.31547876670E+02 -0.14873077942E+03  0.15933831578E+03  0.00000000000E+00 0.  1.
        -15    1    3    3    0    0  0.27055868370E+02 -0.23718131750E+02  0.60626413179E+02  0.70521553379E+02  0.17770000000E+01 0.  1.
         15    1    3    3    0    0 -0.40677840083E+02  0.13544587818E+02  0.54860853361E+01  0.43259650880E+02  0.17770000000E+01 0. -1.
</event>
<event>
 7    1  0.3165060E-007  0.1762977E+03  0.7546771E-02  0.1073502E+00
        -11   -1    0    0    0    0  0.00000000000E+00  0.00000000000E+00  0.18250000000E+03  0.18250000000E+03  0.00000000000E+00 0. -1.
         11   -1    0    0    0    0 -0.00000000000E+00 -0.00000000000E+00 -0.18250000000E+03  0.18250000000E+03  0.00000000000E+00 0.  1.
         23    2    1    2    0    0 -0.56003384349E+02  0.33902583840E+02 -0.12953877504E+03  0.17137209441E+03  0.91117156751E+02 0.  0.
        -11    1    1    2    0    0  0.91329349679E+02 -0.29871126637E+02  0.12517770983E+03  0.15780618922E+03  0.00000000000E+00 0. -1.
         11    1    1    2    0    0 -0.35325965330E+02 -0.40314572031E+01  0.43610652155E+01  0.35821716368E+02  0.00000000000E+00 0.  1.
        -15    1    3    3    0    0 -0.58474426339E+02  0.55940165396E+02 -0.12460130800E+03  0.14858399754E+03  0.17770000000E+01 0.  1.
         15    1    3    3    0    0  0.24710419901E+01 -0.22037581556E+02 -0.49374670427E+01  0.22788096875E+02  0.17770000000E+01 0. -1.
</event>
<event>
 7    1  0.3165060E-007  0.1433781E+03  0.7546771E-02  0.1104718E+00
        -11   -1    0    0    0    0  0.00000000000E+00  0.00000000000E+00  0.18250000000E+03  0.18250000000E+03  0.00000000000E+00 0.  1.
         11   -1    0    0    0    0 -0.00000000000E+00 -0.00000000000E+00 -0.18250000000E+03  0.18250000000E+03  0.00000000000E+00 0. -1.
         23    2    1    2    0    0 -0.38545808762E+02  0.29388528612E+02 -0.41793788376E+02  0.12544636537E+03  0.10789163475E+03 0.  0.
        -11    1    1    2    0    0  0.23015156664E+02  0.25318737532E+02  0.13009768358E+03  0.13452190594E+03  0.00000000000E+00 0.  1.
         11    1    1    2    0    0  0.15530652098E+02 -0.54707266145E+02 -0.88303895202E+02  0.10503172869E+03  0.00000000000E+00 0. -1.
        -15    1    3    3    0    0 -0.49671865111E+02  0.63027141204E+01 -0.70778318308E+02  0.86716471679E+02  0.17770000000E+01 0. -1.
         15    1    3    3    0    0  0.11126056349E+02  0.23085814492E+02  0.28984529933E+02  0.38729893688E+02  0.17770000000E+01 0.  1.
</event>
<event>
 7    1  0.3165060E-007  0.1669638E+03  0.7546771E-02  0.1081541E+00
        -11   -1    0    0    0    0  0.00000000000E+00  0.00000000000E+00  0.18250000000E+03  0.18250000000E+03  0.00000000000E+00 0. -1.
         11   -1    0    0    0    0 -0.00000000000E+00 -0.00000000000E+00 -0.18250000000E+03  0.18250000000E+03  0.00000000000E+00 0. -1.
         23    2    1    2    0    0  0.11953306289E+02  0.97046611997E+02  0.24468681705E+02  0.14733313392E+03  0.10745887370E+03 0.  0.
        -11    1    1    2    0    0 -0.30586839346E+02  0.44813733096E+02  0.32970227976E+02  0.63489064790E+02  0.00000000000E+00 0. -1.
         11    1    1    2    0    0  0.18633533057E+02 -0.14186034509E+03 -0.57438909681E+02  0.15417780129E+03  0.00000000000E+00 0. -1.
        -15    1    3    3    0    0  0.10992695184E+02  0.41184061799E+02  0.65375795930E+02  0.78064836618E+02  0.17770000000E+01 0. -1.
         15    1    3    3    0    0  0.96061110437E+00  0.55862550199E+02 -0.40907114226E+02  0.69268297306E+02  0.17770000000E+01 0.  1.
</event>
<event>
 7    1  0.3165060E-007  0.1402926E+03  0.7546771E-02  0.1108112E+00
        -11   -1    0    0    0    0  0.00000000000E+00  0.00000000000E+00  0.18250000000E+03  0.18250000000E+03  0.00000000000E+00 0. -1.
         11   -1    0    0    0    0 -0.00000000000E+00 -0.00000000000E+00 -0.18250000000E+03  0.18250000000E+03  0.00000000000E+00 0. -1.
         23    2    1    2    0    0  0.65303248907E+02  0.47089786630E+02 -0.59173773852E+02  0.13642269143E+03  0.92885159755E+02 0.  0.
        -11    1    1    2    0    0 -0.63597646270E+02  0.42598933054E+02  0.10332964974E+03  0.12859372545E+03  0.00000000000E+00 0. -1.
         11    1    1    2    0    0 -0.17056026371E+01 -0.89688719684E+02 -0.44155875888E+02  0.99983583124E+02  0.00000000000E+00 0. -1.
        -15    1    3    3    0    0  0.50396317401E+02  0.32594599472E+02  0.12877713454E+02  0.61410015104E+02  0.17770000000E+01 0.  1.
         15    1    3    3    0    0  0.14906931506E+02  0.14495187158E+02 -0.72051487306E+02  0.75012676327E+02  0.17770000000E+01 0. -1.
</event>
<event>
 7    1  0.3165060E-007  0.1621324E+03  0.7546771E-02  0.1085933E+00
        -11   -1    0    0    0    0  0.00000000000E+00  0.00000000000E+00  0.18250000000E+03  0.18250000000E+03  0.00000000000E+00 0.  1.
         11   -1    0    0    0    0 -0.00000000000E+00 -0.00000000000E+00 -0.18250000000E+03  0.18250000000E+03  0.00000000000E+00 0. -1.
         23    2    1    2    0    0 -0.48245716463E+02  0.46943927977E+02 -0.93290057682E+02  0.14392796865E+03  0.86491871103E+02 0.  0.
        -11    1    1    2    0    0  0.77329867191E+02 -0.22818925608E+02  0.13965556684E+03  0.16125845427E+03  0.00000000000E+00 0.  1.
         11    1    1    2    0    0 -0.29084150727E+02 -0.24125002369E+02 -0.46365509158E+02  0.59813577074E+02  0.00000000000E+00 0. -1.
        -15    1    3    3    0    0  0.18943477057E+02  0.23904625779E+02 -0.55739900888E+02  0.63563989308E+02  0.17770000000E+01 0.  1.
         15    1    3    3    0    0 -0.67189193521E+02  0.23039302198E+02 -0.37550156793E+02  0.80363979344E+02  0.17770000000E+01 0. -1.
</event>
<event>
 7    1  0.3165060E-007  0.1656995E+03  0.7546771E-02  0.1082675E+00
        -11   -1    0    0    0    0  0.00000000000E+00  0.00000000000E+00  0.18250000000E+03  0.18250000000E+03  0.00000000000E+00 0.  1.
         11   -1    0    0    0    0 -0.00000000000E+00 -0.00000000000E+00 -0.18250000000E+03  0.18250000000E+03  0.00000000000E+00 0.  1.
         23    2    1    2    0    0 -0.94237642994E+02  0.17723940004E+02 -0.68730286099E+02  0.14834887252E+03  0.89937002085E+02 0.  0.
        -11    1    1    2    0    0  0.12426710278E+03 -0.61944857677E+02  0.82423577911E+02  0.16147174496E+03  0.00000000000E+00 0.  1.
         11    1    1    2    0    0 -0.30029459783E+02  0.44220917673E+02 -0.13693291813E+02  0.55179382521E+02  0.00000000000E+00 0.  1.
        -15    1    3    3    0    0 -0.12510082332E+02  0.24319079526E+02  0.14918297353E+02  0.31203094620E+02  0.17770000000E+01 0.  1.
         15    1    3    3    0    0 -0.81727560661E+02 -0.65951395220E+01 -0.83648583452E+02  0.11714577790E+03  0.17770000000E+01 0. -1.
</event>
<event>
 7    1  0.3165060E-007  0.1573076E+03  0.7546771E-02  0.1090488E+00
        -11   -1    0    0    0    0  0.00000000000E+00  0.00000000000E+00  0.18250000000E+03  0.18250000000E+03  0.00000000000E+00 0. -1.
         11   -1    0    0    0    0 -0.00000000000E+00 -0.00000000000E+00 -0.18250000000E+03  0.18250000000E+03  0.00000000000E+00 0.  1.
         23    2    1    2    0    0 -0.11248324256E+02 -0.97143315411E+02 -0.52650732973E+02  0.14435236356E+03  0.92207139935E+02 0.  0.
        -11    1    1    2    0    0 -0.72299494664E+01 -0.50901975234E+02  0.49576315937E+02  0.71421945884E+02  0.00000000000E+00 0.  1.
         11    1    1    2    0    0  0.18478273722E+02  0.14804529064E+03  0.30744170366E+01  0.14922569056E+03  0.00000000000E+00 0. -1.
        -15    1    3    3    0    0  0.16705903884E+02 -0.82863577063E+01 -0.47479881914E+02  0.51041628737E+02  0.17770000000E+01 0. -1.
         15    1    3    3    0    0 -0.27954228140E+02 -0.88856957705E+02 -0.51708510596E+01  0.93310734822E+02  0.17770000000E+01 0.  1.
</event>
<event>
 7    1  0.3165060E-007  0.2105218E+03  0.7546771E-02  0.1048108E+00
        -11   -1    0    0    0    0  0.00000000000E+00  0.00000000000E+00  0.18250000000E+03  0.18250000000E+03  0.00000000000E+00 0.  1.
         11   -1    0    0    0    0 -0.00000000000E+00 -0.00000000000E+00 -0.18250000000E+03  0.18250000000E+03  0.00000000000E+00 0.  1.
         23    2    1    2    0    0  0.63008245928E+01  0.59163876012E+01 -0.84965036898E+02  0.11829900120E+03  0.81858977251E+02 0.  0.
        -11    1    1    2    0    0  0.55826360740E+02 -0.53547738314E+02  0.13371451589E+03  0.15447820102E+03  0.00000000000E+00 0.  1.
         11    1    1    2    0    0 -0.62127185332E+02  0.47631350713E+02 -0.48749478991E+02  0.92222797778E+02  0.00000000000E+00 0.  1.
        -15    1    3    3    0    0 -0.12807461484E+02  0.34489396293E+01 -0.95387559942E+02  0.96321703550E+02  0.17770000000E+01 0.  1.
         15    1    3    3    0    0  0.19108286077E+02  0.24674479719E+01  0.10422523044E+02  0.21977297648E+02  0.17770000000E+01 0. -1.
</event>
<event>
 7    1  0.3165060E-007  0.1724155E+03  0.7546771E-02  0.1076778E+00
        -11   -1    0    0    0    0  0.00000000000E+00  0.00000000000E+00  0.18250000000E+03  0.18250000000E+03  0.00000000000E+00 0. -1.
         11   -1    0    0    0    0 -0.00000000000E+00 -0.00000000000E+00 -0.18250000000E+03  0.18250000000E+03  0.00000000000E+00 0.  1.
         23    2    1    2    0    0  0.46863740593E+02  0.48132286561E+01 -0.15151307838E+03  0.18355170636E+03  0.92280218014E+02 0.  0.
        -11    1    1    2    0    0 -0.19222621155E+01 -0.35854174424E+02  0.25300559712E+02  0.43924198764E+02  0.00000000000E+00 0.  1.
         11    1    1    2    0    0 -0.44941478478E+02  0.31040945768E+02  0.12621251867E+03  0.13752409487E+03  0.00000000000E+00 0. -1.
        -15    1    3    3    0    0 -0.13723297321E+02  0.33718675000E+02 -0.54501953333E+02  0.65565986451E+02  0.17770000000E+01 0. -1.
         15    1    3    3    0    0  0.60587037915E+02 -0.28905446344E+02 -0.97011125047E+02  0.11798571991E+03  0.17770000000E+01 0.  1.
</event>
<event>
 7    1  0.3165060E-007  0.1468938E+03  0.7546771E-02  0.1100964E+00
        -11   -1    0    0    0    0  0.00000000000E+00  0.00000000000E+00  0.18250000000E+03  0.18250000000E+03  0.00000000000E+00 0. -1.
         11   -1    0    0    0    0 -0.00000000000E+00 -0.00000000000E+00 -0.18250000000E+03  0.18250000000E+03  0.00000000000E+00 0. -1.
         23    2    1    2    0    0 -0.38752515653E+02  0.11903906612E+02 -0.82504433665E+02  0.12694159126E+03  0.87542707038E+02 0.  0.
        -11    1    1    2    0    0  0.11396086017E+03  0.28474257931E+02  0.95914837251E+02  0.15164932252E+03  0.00000000000E+00 0. -1.
         11    1    1    2    0    0 -0.75208344518E+02 -0.40378164543E+02 -0.13410403586E+02  0.86409086220E+02  0.00000000000E+00 0. -1.
        -15    1    3    3    0    0 -0.13352708641E+00 -0.25323394238E+02 -0.66120947969E+02  0.70826757759E+02  0.17770000000E+01 0. -1.
         15    1    3    3    0    0 -0.38618988566E+02  0.37227300850E+02 -0.16383485696E+02  0.56114833503E+02  0.17770000000E+01 0.  1.
</event>
<event>
 7    1  0.3165060E-007  0.1357345E+03  0.7546771E-02  0.1113305E+00
        -11   -1    0    0    0    0  0.00000000000E+00  0.00000000000E+00  0.18250000000E+03  0.18250000000E+03  0.00000000000E+00 0. -1.
         11   -1    0    0    0    0 -0.00000000000E+00 -0.00000000000E+00 -0.18250000000E+03  0.18250000000E+03  0.00000000000E+00 0. -1.
         23    2    1    2    0    0 -0.16971462531E+02 -0.16013924103E+02 -0.10452605313E+03  0.13984392522E+03  0.89923030049E+02 0.  0.
        -11    1    1    2    0    0  0.18479778460E+02 -0.90758959331E+02  0.50073668647E+02  0.10529037564E+03  0.00000000000E+00 0. -1.
         11    1    1    2    0    0 -0.15083159289E+01  0.10677288343E+03  0.54452384483E+02  0.11986569914E+03  0.00000000000E+00 0. -1.
        -15    1    3    3    0    0 -0.44213308585E+02 -0.30812147806E+02 -0.36634296913E+02  0.65187687088E+02  0.17770000000E+01 0. -1.
         15    1    3    3    0    0  0.27241846055E+02  0.14798223704E+02 -0.67891756217E+02  0.74656238135E+02  0.17770000000E+01 0.  1.
</event>
<event>
 7    1  0.3165060E-007  0.1855727E+03  0.7546771E-02  0.1066035E+00
        -11   -1    0    0    0    0  0.00000000000E+00  0.00000000000E+00  0.18250000000E+03  0.18250000000E+03  0.00000000000E+00 0.  1.
         11   -1    0    0    0    0 -0.00000000000E+00 -0.00000000000E+00 -0.18250000000E+03  0.18250000000E+03  0.00000000000E+00 0.  1.
         23    2    1    2    0    0  0.18189354205E+01 -0.21633876556E+02 -0.15859783398E+03  0.18557270110E+03  0.93875562905E+02 0.  0.
        -11    1    1    2    0    0  0.28163779156E+02 -0.60860245299E+01  0.11939081645E+03  0.12281858656E+03  0.00000000000E+00 0.  1.
         11    1    1    2    0    0 -0.29982714577E+02  0.27719901086E+02  0.39207017523E+02  0.56608712339E+02  0.00000000000E+00 0.  1.
        -15    1    3    3    0    0  0.90737303117E+01 -0.30802320273E+02 -0.62440838599E+01  0.32760675027E+02  0.17770000000E+01 0. -1.
         15    1    3    3    0    0 -0.72547948912E+01  0.91684437167E+01 -0.15235375012E+03  0.15281202607E+03  0.17770000000E+01 0.  1.
</event>
<event>
 7    1  0.3165060E-007  0.1698534E+03  0.7546771E-02  0.1078992E+00
        -11   -1    0    0    0    0  0.00000000000E+00  0.00000000000E+00  0.18250000000E+03  0.18250000000E+03  0.00000000000E+00 0.  1.
         11   -1    0    0    0    0 -0.00000000000E+00 -0.00000000000E+00 -0.18250000000E+03  0.18250000000E+03  0.00000000000E+00 0. -1.
         23    2    1    2    0    0 -0.31147406193E+02  0.53965458934E+02 -0.14638352621E+03  0.18445746077E+03  0.93348735485E+02 0.  0.
        -11    1    1    2    0    0  0.12377810951E+01 -0.45568648392E+02  0.18933583020E+02  0.49361061418E+02  0.00000000000E+00 0. -1.
         11    1    1    2    0    0  0.29909625098E+02 -0.83968105421E+01  0.12744994319E+03  0.13118147781E+03  0.00000000000E+00 0.  1.
        -15    1    3    3    0    0 -0.52663092817E+02  0.68328370067E+02 -0.11390971844E+03  0.14290118678E+03  0.17770000000E+01 0. -1.
         15    1    3    3    0    0  0.21515686624E+02 -0.14362911133E+02 -0.32473807776E+02  0.41556273986E+02  0.17770000000E+01 0.  1.
</event>
<event>
 7    1  0.3165060E-007  0.1844868E+03  0.7546771E-02  0.1066884E+00
        -11   -1    0    0    0    0  0.00000000000E+00  0.00000000000E+00  0.18250000000E+03  0.18250000000E+03  0.00000000000E+00 0.  1.
         11   -1    0    0    0    0 -0.00000000000E+00 -0.00000000000E+00 -0.18250000000E+03  0.18250000000E+03  0.00000000000E+00 0. -1.
         23    2    1    2    0    0 -0.82244043049E+01 -0.11389870759E+01 -0.16387118727E+03  0.18618951033E+03  0.87999031941E+02 0.  0.
        -11    1    1    2    0    0  0.18330906085E+02  0.15140400954E+02  0.15913999202E+03  0.16090615563E+03  0.00000000000E+00 0.  1.
         11    1    1    2    0    0 -0.10106501780E+02 -0.14001413878E+02  0.47311952525E+01  0.17904334037E+02  0.00000000000E+00 0. -1.
        -15    1    3    3    0    0 -0.21639341159E+02 -0.21146137795E+02 -0.15859652660E+03  0.16146651729E+03  0.17770000000E+01 0. -1.
         15    1    3    3    0    0  0.13414936854E+02  0.20007150719E+02 -0.52746606774E+01  0.24722993042E+02  0.17770000000E+01 0.  1.
</event>
<event>
 7    1  0.3165060E-007  0.1674930E+03  0.7546771E-02  0.1081070E+00
        -11   -1    0    0    0    0  0.00000000000E+00  0.00000000000E+00  0.18250000000E+03  0.18250000000E+03  0.00000000000E+00 0.  1.
         11   -1    0    0    0    0 -0.00000000000E+00 -0.00000000000E+00 -0.18250000000E+03  0.18250000000E+03  0.00000000000E+00 0. -1.
         23    2    1    2    0    0 -0.47403424303E+02 -0.33864583943E+02 -0.11484709404E+03  0.15798889059E+03  0.91524531458E+02 0.  0.
        -11    1    1    2    0    0  0.61959518280E+02 -0.95949717042E+01  0.14095060173E+03  0.15426638491E+03  0.00000000000E+00 0.  1.
         11    1    1    2    0    0 -0.14556093977E+02  0.43459555647E+02 -0.26103507687E+02  0.52744724499E+02  0.00000000000E+00 0. -1.
        -15    1    3    3    0    0 -0.50335307720E+02 -0.49490610005E+02 -0.39392868754E+02  0.80857402380E+02  0.17770000000E+01 0.  1.
         15    1    3    3    0    0  0.29318834167E+01  0.15626026063E+02 -0.75454225284E+02  0.77131488207E+02  0.17770000000E+01 0. -1.
</event>
<event>
 7    1  0.3165060E-007  0.1681864E+03  0.7546771E-02  0.1080456E+00
        -11   -1    0    0    0    0  0.00000000000E+00  0.00000000000E+00  0.18250000000E+03  0.18250000000E+03  0.00000000000E+00 0. -1.
         11   -1    0    0    0    0 -0.00000000000E+00 -0.00000000000E+00 -0.18250000000E+03  0.18250000000E+03  0.00000000000E+00 0. -1.
         23    2    1    2    0    0 -0.16219739954E+02  0.22607756878E+02 -0.11572599766E+03  0.15094423293E+03  0.92830298313E+02 0.  0.
        -11    1    1    2    0    0  0.52374106451E+02 -0.43933108362E+02  0.14672928147E+03  0.16187231721E+03  0.00000000000E+00 0. -1.
         11    1    1    2    0    0 -0.36154366496E+02  0.21325351484E+02 -0.31003283810E+02  0.52183449863E+02  0.00000000000E+00 0. -1.
        -15    1    3    3    0    0 -0.43345424989E+02  0.46534423201E+01 -0.16734524479E+02  0.46729887989E+02  0.17770000000E+01 0.  1.
         15    1    3    3    0    0  0.27125685034E+02  0.17954314557E+02 -0.98991473182E+02  0.10421434494E+03  0.17770000000E+01 0. -1.
</event>
<event>
 7    1  0.3165060E-007  0.1895081E+03  0.7546771E-02  0.1063009E+00
        -11   -1    0    0    0    0  0.00000000000E+00  0.00000000000E+00  0.18250000000E+03  0.18250000000E+03  0.00000000000E+00 0.  1.
         11   -1    0    0    0    0 -0.00000000000E+00 -0.00000000000E+00 -0.18250000000E+03  0.18250000000E+03  0.00000000000E+00 0. -1.
         23    2    1    2    0    0 -0.61552798919E+02 -0.21261323379E+02 -0.15086230573E+03  0.18950812286E+03  0.94409228435E+02 0.  0.
        -11    1    1    2    0    0  0.15358762983E+02  0.34168298176E+02  0.40561700155E+02  0.55214270982E+02  0.00000000000E+00 0. -1.
         11    1    1    2    0    0  0.46194035936E+02 -0.12906974797E+02  0.11030060557E+03  0.12027760616E+03  0.00000000000E+00 0.  1.
        -15    1    3    3    0    0 -0.13936522662E+02 -0.37252446538E+02 -0.11623677480E+02  0.41475764540E+02  0.17770000000E+01 0.  1.
         15    1    3    3    0    0 -0.47616276257E+02  0.15991123159E+02 -0.13923862825E+03  0.14803235832E+03  0.17770000000E+01 0. -1.
</event>
<event>
 7    1  0.3165060E-007  0.1688146E+03  0.7546771E-02  0.1079902E+00
        -11   -1    0    0    0    0  0.00000000000E+00  0.00000000000E+00  0.18250000000E+03  0.18250000000E+03  0.00000000000E+00 0.  1.
         11   -1    0    0    0    0 -0.00000000000E+00 -0.00000000000E+00 -0.18250000000E+03  0.18250000000E+03  0.00000000000E+00 0. -1.
         23    2    1    2    0    0  0.63295658099E+02  0.44718281382E+02 -0.10088595298E+03  0.15565217712E+03  0.89685894707E+02 0.  0.
        -11    1    1    2    0    0 -0.78630404555E+02 -0.16669697926E+02  0.13840840752E+03  0.16005469884E+03  0.00000000000E+00 0.  1.
         11    1    1    2    0    0  0.15334746456E+02 -0.28048583455E+02 -0.37522454540E+02  0.49293124038E+02  0.00000000000E+00 0. -1.
        -15    1    3    3    0    0 -0.19503737836E+02  0.10383796338E+02 -0.44570961127E+02  0.49778984730E+02  0.17770000000E+01 0. -1.
         15    1    3    3    0    0  0.82799395935E+02  0.34334485044E+02 -0.56314991853E+02  0.10587319239E+03  0.17770000000E+01 0.  1.
</event>
<event>
 7    1  0.3165060E-007  0.1598715E+03  0.7546771E-02  0.1088046E+00
        -11   -1    0    0    0    0  0.00000000000E+00  0.00000000000E+00  0.18250000000E+03  0.18250000000E+03  0.00000000000E+00 0. -1.
         11   -1    0    0    0    0 -0.00000000000E+00 -0.00000000000E+00 -0.18250000000E+03  0.18250000000E+03  0.00000000000E+00 0. -1.
         23    2    1    2    0    0 -0.43992855686E+02  0.35747036010E+02 -0.13323974756E+03  0.17071475416E+03  0.90429392470E+02 0.  0.
        -11    1    1    2    0    0 -0.13849360096E+02 -0.59826544127E+02  0.11271012131E+03  0.12835338563E+03  0.00000000000E+00 0. -1.
         11    1    1    2    0    0  0.57842215782E+02  0.24079508117E+02  0.20529626249E+02  0.65931860217E+02  0.00000000000E+00 0. -1.
        -15    1    3    3    0    0 -0.62895719744E+02  0.44843905287E+02 -0.70714961088E+02  0.10474068385E+03  0.17770000000E+01 0. -1.
         15    1    3    3    0    0  0.18902864058E+02 -0.90968692771E+01 -0.62524786469E+02  0.65974070302E+02  0.17770000000E+01 0.  1.
</event>
<event>
 7    1  0.3165060E-007  0.1715245E+03  0.7546771E-02  0.1077543E+00
        -11   -1    0    0    0    0  0.00000000000E+00  0.00000000000E+00  0.18250000000E+03  0.18250000000E+03  0.00000000000E+00 0.  1.
         11   -1    0    0    0    0 -0.00000000000E+00 -0.00000000000E+00 -0.18250000000E+03  0.18250000000E+03  0.00000000000E+00 0.  1.
         23    2    1    2    0    0 -0.58768432389E+01  0.12188846049E+02 -0.11657838413E+03  0.15408852684E+03  0.99848130693E+02 0.  0.
        -11    1    1    2    0    0 -0.16312274909E+02 -0.31807945537E+02  0.15687746945E+03  0.16089865174E+03  0.00000000000E+00 0.  1.
         11    1    1    2    0    0  0.22189118148E+02  0.19619099487E+02 -0.40299085319E+02  0.50012821420E+02  0.00000000000E+00 0.  1.
        -15    1    3    3    0    0  0.13508292791E+01 -0.39953564737E+02 -0.81534435591E+02  0.90824743276E+02  0.17770000000E+01 0.  1.
         15    1    3    3    0    0 -0.72276725179E+01  0.52142410786E+02 -0.35043948537E+02  0.63263783563E+02  0.17770000000E+01 0. -1.
</event>
<event>
 7    1  0.3165060E-007  0.1609587E+03  0.7546771E-02  0.1087025E+00
        -11   -1    0    0    0    0  0.00000000000E+00  0.00000000000E+00  0.18250000000E+03  0.18250000000E+03  0.00000000000E+00 0. -1.
         11   -1    0    0    0    0 -0.00000000000E+00 -0.00000000000E+00 -0.18250000000E+03  0.18250000000E+03  0.00000000000E+00 0.  1.
         23    2    1    2    0    0 -0.31708842598E+00  0.55787981489E+02 -0.11055065881E+03  0.15466192227E+03  0.92663167516E+02 0.  0.
        -11    1    1    2    0    0  0.62666354273E+02 -0.41999202176E+02  0.12394012240E+03  0.14509362109E+03  0.00000000000E+00 0. -1.
         11    1    1    2    0    0 -0.62349265847E+02 -0.13788779313E+02 -0.13389463593E+02  0.65244456638E+02  0.00000000000E+00 0.  1.
        -15    1    3    3    0    0 -0.14255347381E+01  0.80704595038E+02 -0.69178679594E+02  0.10632079406E+03  0.17770000000E+01 0.  1.
         15    1    3    3    0    0  0.11084463122E+01 -0.24916613549E+02 -0.41371979212E+02  0.48341128212E+02  0.17770000000E+01 0. -1.
</event>
<event>
 7    1  0.3165060E-007  0.1406988E+03  0.7546771E-02  0.1107659E+00
        -11   -1    0    0    0    0  0.00000000000E+00  0.00000000000E+00  0.18250000000E+03  0.18250000000E+03  0.00000000000E+00 0.  1.
         11   -1    0    0    0    0 -0.00000000000E+00 -0.00000000000E+00 -0.18250000000E+03  0.18250000000E+03  0.00000000000E+00 0. -1.
         23    2    1    2    0    0  0.14102544600E+02  0.23176687506E+02 -0.76946625841E+02  0.12183197589E+03  0.90477657538E+02 0.  0.
        -11    1    1    2    0    0  0.68743077773E+02 -0.10092214933E+02  0.12752575441E+03  0.14522493443E+03  0.00000000000E+00 0.  1.
         11    1    1    2    0    0 -0.82845622373E+02 -0.13084472573E+02 -0.50579128565E+02  0.97943089676E+02  0.00000000000E+00 0. -1.
        -15    1    3    3    0    0  0.30502000510E+02  0.33445226971E+02 -0.30270124328E+01  0.45401275043E+02  0.17770000000E+01 0. -1.
         15    1    3    3    0    0 -0.16399455910E+02 -0.10268539466E+02 -0.73919613408E+02  0.76430700849E+02  0.17770000000E+01 0.  1.
</event>
<event>
 7    1  0.3165060E-007  0.1148267E+03  0.7546771E-02  0.1140391E+00
        -11   -1    0    0    0    0  0.00000000000E+00  0.00000000000E+00  0.18250000000E+03  0.18250000000E+03  0.00000000000E+00 0.  1.
         11   -1    0    0    0    0 -0.00000000000E+00 -0.00000000000E+00 -0.18250000000E+03  0.18250000000E+03  0.00000000000E+00 0.  1.
         23    2    1    2    0    0 -0.79630287501E+02  0.46311550047E+02 -0.23227583774E+02  0.11647253005E+03  0.67383879763E+02 0.  0.
        -11    1    1    2    0    0  0.35677723799E+02  0.13663472403E+02  0.12031648995E+03  0.12623647733E+03  0.00000000000E+00 0.  1.
         11    1    1    2    0    0  0.43952563701E+02 -0.59975022450E+02 -0.97088906181E+02  0.12229099263E+03  0.00000000000E+00 0.  1.
        -15    1    3    3    0    0 -0.56570888788E+02  0.61028022688E+02 -0.29579361591E+02  0.88333353681E+02  0.17770000000E+01 0.  1.
         15    1    3    3    0    0 -0.23059398713E+02 -0.14716472641E+02  0.63517778179E+01  0.28139176364E+02  0.17770000000E+01 0. -1.
</event>
<event>
 7    1  0.3165060E-007  0.1707469E+03  0.7546771E-02  0.1078215E+00
        -11   -1    0    0    0    0  0.00000000000E+00  0.00000000000E+00  0.18250000000E+03  0.18250000000E+03  0.00000000000E+00 0.  1.
         11   -1    0    0    0    0 -0.00000000000E+00 -0.00000000000E+00 -0.18250000000E+03  0.18250000000E+03  0.00000000000E+00 0. -1.
         23    2    1    2    0    0 -0.89954236045E+02  0.12359134742E+03 -0.27199630205E+02  0.18214222206E+03  0.95233310533E+02 0.  0.
        -11    1    1    2    0    0  0.18036460353E+02 -0.11619412338E+02  0.43775866387E+02  0.48750908946E+02  0.00000000000E+00 0.  1.
         11    1    1    2    0    0  0.71917775692E+02 -0.11197193508E+03 -0.16576236182E+02  0.13410686899E+03  0.00000000000E+00 0. -1.
        -15    1    3    3    0    0 -0.46692652888E+02  0.94634160855E+02  0.24933067573E+02  0.10844650212E+03  0.17770000000E+01 0.  1.
         15    1    3    3    0    0 -0.43261583157E+02  0.28957186560E+02 -0.52132697778E+02  0.73695719939E+02  0.17770000000E+01 0. -1.
</event>
<event>
 7    1  0.3165060E-007  0.1628979E+03  0.7546771E-02  0.1085226E+00
        -11   -1    0    0    0    0  0.00000000000E+00  0.00000000000E+00  0.18250000000E+03  0.18250000000E+03  0.00000000000E+00 0.  1.
         11   -1    0    0    0    0 -0.00000000000E+00 -0.00000000000E+00 -0.18250000000E+03  0.18250000000E+03  0.00000000000E+00 0. -1.
         23    2    1    2    0    0  0.71058737563E+01  0.42586279126E+02  0.94861078914E+02  0.13864068645E+03  0.91425002242E+02 0.  0.
        -11    1    1    2    0    0  0.29275786893E+01  0.26497686632E+02  0.54953615670E+02  0.61078621375E+02  0.00000000000E+00 0.  1.
         11    1    1    2    0    0 -0.10033452446E+02 -0.69083965758E+02 -0.14981469458E+03  0.16528069218E+03  0.00000000000E+00 0. -1.
        -15    1    3    3    0    0  0.35550152621E+02  0.39872644301E+00  0.58163562083E+01  0.36068823972E+02  0.17770000000E+01 0. -1.
         15    1    3    3    0    0 -0.28444278865E+02  0.42187552683E+02  0.89044722705E+02  0.10257186248E+03  0.17770000000E+01 0.  1.
</event>
<event>
 7    1  0.3542752E-007  0.1819194E+03  0.7546771E-02  0.1068918E+00
        -11   -1    0    0    0    0  0.00000000000E+00  0.00000000000E+00  0.18250000000E+03  0.18250000000E+03  0.00000000000E+00 0.  1.
         11   -1    0    0    0    0 -0.00000000000E+00 -0.00000000000E+00 -0.18250000000E+03  0.18250000000E+03  0.00000000000E+00 0.  1.
         23    2    1    2    0    0  0.43331451962E+01 -0.28001632166E+02  0.14582287789E+03  0.17291671382E+03  0.88504297362E+02 0.  0.
        -11    1    1    2    0    0  0.12964893123E+02 -0.50670616173E+01  0.18738635839E+02  0.23343094059E+02  0.00000000000E+00 0.  1.
         11    1    1    2    0    0 -0.17298038320E+02  0.33068693783E+02 -0.16456151372E+03  0.16874019212E+03  0.00000000000E+00 0.  1.
        -15    1    3    3    0    0  0.34709322371E+02 -0.14195117397E+02  0.19608677095E+02  0.42354413746E+02  0.17770000000E+01 0. -1.
         15    1    3    3    0    0 -0.30376177175E+02 -0.13806514769E+02  0.12621420079E+03  0.13056230007E+03  0.17770000000E+01 0.  1.
</event>
<event>
 7    1  0.3165060E-007  0.1582944E+03  0.7546771E-02  0.1089542E+00
        -11   -1    0    0    0    0  0.00000000000E+00  0.00000000000E+00  0.18250000000E+03  0.18250000000E+03  0.00000000000E+00 0. -1.
         11   -1    0    0    0    0 -0.00000000000E+00 -0.00000000000E+00 -0.18250000000E+03  0.18250000000E+03  0.00000000000E+00 0. -1.
         23    2    1    2    0    0  0.11389444140E+02 -0.35976643143E+02 -0.13348146317E+03  0.16611423474E+03  0.91392558147E+02 0.  0.
        -11    1    1    2    0    0 -0.62442234271E+02  0.62446585254E+02  0.94917417459E+02  0.12964538082E+03  0.00000000000E+00 0. -1.
         11    1    1    2    0    0  0.51052790131E+02 -0.26469942111E+02  0.38564045710E+02  0.69240384438E+02  0.00000000000E+00 0. -1.
        -15    1    3    3    0    0  0.37815456158E+02 -0.21991287912E+02 -0.12849732008E+03  0.13575103854E+03  0.17770000000E+01 0. -1.
         15    1    3    3    0    0 -0.26426012019E+02 -0.13985355230E+02 -0.49841430880E+01  0.30363196199E+02  0.17770000000E+01 0.  1.
</event>
<event>
 7    1  0.3165060E-007  0.1865386E+03  0.7546771E-02  0.1065285E+00
        -11   -1    0    0    0    0  0.00000000000E+00  0.00000000000E+00  0.18250000000E+03  0.18250000000E+03  0.00000000000E+00 0. -1.
         11   -1    0    0    0    0 -0.00000000000E+00 -0.00000000000E+00 -0.18250000000E+03  0.18250000000E+03  0.00000000000E+00 0.  1.
         23    2    1    2    0    0 -0.17436368640E+02  0.68061488441E+02 -0.14633259782E+03  0.18653858237E+03  0.91907673051E+02 0.  0.
        -11    1    1    2    0    0 -0.20833966988E+02 -0.58296589001E+02  0.78577308885E+02  0.10003469369E+03  0.00000000000E+00 0.  1.
         11    1    1    2    0    0  0.38270335628E+02 -0.97648994392E+01  0.67755288936E+02  0.78426723946E+02  0.00000000000E+00 0. -1.
        -15    1    3    3    0    0 -0.23098982536E+02  0.88498349483E+02 -0.13300682032E+03  0.16142952901E+03  0.17770000000E+01 0.  1.
         15    1    3    3    0    0  0.56626138960E+01 -0.20436861042E+02 -0.13325777497E+02  0.25109053353E+02  0.17770000000E+01 0. -1.
</event>
<event>
 7    1  0.3165060E-007  0.1575330E+03  0.7546771E-02  0.1090272E+00
        -11   -1    0    0    0    0  0.00000000000E+00  0.00000000000E+00  0.18250000000E+03  0.18250000000E+03  0.00000000000E+00 0.  1.
         11   -1    0    0    0    0 -0.00000000000E+00 -0.00000000000E+00 -0.18250000000E+03  0.18250000000E+03  0.00000000000E+00 0. -1.
         23    2    1    2    0    0 -0.39672186977E+02 -0.75181874631E+02  0.13171181184E+03  0.18117766795E+03  0.90835837068E+02 0.  0.
        -11    1    1    2    0    0  0.58003554547E+02  0.17483805255E+02 -0.96050688033E+02  0.11355981005E+03  0.00000000000E+00 0.  1.
         11    1    1    2    0    0 -0.18331367570E+02  0.57698069376E+02 -0.35661123803E+02  0.70262521998E+02  0.00000000000E+00 0. -1.
        -15    1    3    3    0    0 -0.20952696338E+02 -0.92904385895E+02  0.84385141810E+02  0.12725663161E+03  0.17770000000E+01 0.  1.
         15    1    3    3    0    0 -0.18719490638E+02  0.17722511265E+02  0.47326670026E+02  0.53921036341E+02  0.17770000000E+01 0. -1.
</event>
<event>
 7    1  0.3165060E-007  0.1534040E+03  0.7546771E-02  0.1094308E+00
        -11   -1    0    0    0    0  0.00000000000E+00  0.00000000000E+00  0.18250000000E+03  0.18250000000E+03  0.00000000000E+00 0.  1.
         11   -1    0    0    0    0 -0.00000000000E+00 -0.00000000000E+00 -0.18250000000E+03  0.18250000000E+03  0.00000000000E+00 0.  1.
         23    2    1    2    0    0 -0.36289563162E+02 -0.19785484951E+02 -0.11867986383E+03  0.15615402312E+03  0.92686412432E+02 0.  0.
        -11    1    1    2    0    0  0.75651418823E+02  0.73255438864E+02  0.76950579059E+02  0.13042579542E+03  0.00000000000E+00 0.  1.
         11    1    1    2    0    0 -0.39361855661E+02 -0.53469953913E+02  0.41729284771E+02  0.78420181459E+02  0.00000000000E+00 0.  1.
        -15    1    3    3    0    0 -0.47604493809E+01  0.17351079643E+02  0.84804447050E+01  0.19969915234E+02  0.17770000000E+01 0. -1.
         15    1    3    3    0    0 -0.31529113781E+02 -0.37136564593E+02 -0.12716030853E+03  0.13618410789E+03  0.17770000000E+01 0.  1.
</event>
<event>
 7    1  0.3165060E-007  0.1469586E+03  0.7546771E-02  0.1100895E+00
        -11   -1    0    0    0    0  0.00000000000E+00  0.00000000000E+00  0.18250000000E+03  0.18250000000E+03  0.00000000000E+00 0.  1.
         11   -1    0    0    0    0 -0.00000000000E+00 -0.00000000000E+00 -0.18250000000E+03  0.18250000000E+03  0.00000000000E+00 0. -1.
         23    2    1    2    0    0 -0.64750152166E+02  0.27604740378E+02 -0.61229791744E+02  0.14367116677E+03  0.10925984105E+03 0.  0.
        -11    1    1    2    0    0 -0.22402102788E+02  0.54268826545E+02  0.81090561066E+02  0.10011313020E+03  0.00000000000E+00 0.  1.
         11    1    1    2    0    0  0.87152254954E+02 -0.81873566923E+02 -0.19860769323E+02  0.12121570304E+03  0.00000000000E+00 0. -1.
        -15    1    3    3    0    0 -0.60537003713E+02  0.24328322414E+02  0.15217366223E+02  0.67017326519E+02  0.17770000000E+01 0.  1.
         15    1    3    3    0    0 -0.42131484526E+01  0.32764179638E+01 -0.76447157967E+02  0.76653840248E+02  0.17770000000E+01 0. -1.
</event>
<event>
 7    1  0.3165060E-007  0.1439138E+03  0.7546771E-02  0.1104138E+00
        -11   -1    0    0    0    0  0.00000000000E+00  0.00000000000E+00  0.18250000000E+03  0.18250000000E+03  0.00000000000E+00 0. -1.
         11   -1    0    0    0    0 -0.00000000000E+00 -0.00000000000E+00 -0.18250000000E+03  0.18250000000E+03  0.00000000000E+00 0. -1.
         23    2    1    2    0    0 -0.78023435384E+02  0.48188733068E+02  0.60747305091E+02  0.14238981374E+03  0.90414675336E+02 0.  0.
        -11    1    1    2    0    0  0.56999189881E+01 -0.82923757681E+02  0.41287666953E+02  0.92808997984E+02  0.00000000000E+00 0. -1.
         11    1    1    2    0    0  0.72323516396E+02  0.34735024612E+02 -0.10203497204E+03  0.12980118828E+03  0.00000000000E+00 0. -1.
        -15    1    3    3    0    0 -0.54569589407E+02  0.75000165543E+02  0.39129069338E+02  0.10068319977E+03  0.17770000000E+01 0. -1.
         15    1    3    3    0    0 -0.23453845977E+02 -0.26811432475E+02  0.21618235753E+02  0.41706613967E+02  0.17770000000E+01 0.  1.
</event>
<event>
 7    1  0.3165060E-007  0.1467451E+03  0.7546771E-02  0.1101120E+00
        -11   -1    0    0    0    0  0.00000000000E+00  0.00000000000E+00  0.18250000000E+03  0.18250000000E+03  0.00000000000E+00 0.  1.
         11   -1    0    0    0    0 -0.00000000000E+00 -0.00000000000E+00 -0.18250000000E+03  0.18250000000E+03  0.00000000000E+00 0. -1.
         23    2    1    2    0    0 -0.10057086432E+03  0.91350685480E+02  0.46972821256E+02  0.16982924843E+03  0.90421685436E+02 0.  0.
        -11    1    1    2    0    0  0.33687507176E+02 -0.10101963121E+03  0.97606291134E+01  0.10693495178E+03  0.00000000000E+00 0.  1.
         11    1    1    2    0    0  0.66883357146E+02  0.96689457345E+01 -0.56733450369E+02  0.88235799795E+02  0.00000000000E+00 0. -1.
        -15    1    3    3    0    0 -0.23464166432E+02 -0.11684526426E+02 -0.11235069581E+02  0.28574110339E+02  0.17770000000E+01 0. -1.
         15    1    3    3    0    0 -0.77106697890E+02  0.10303521191E+03  0.58207890837E+02  0.14125513809E+03  0.17770000000E+01 0.  1.
</event>
<event>
 7    1  0.3165060E-007  0.2230203E+03  0.7546771E-02  0.1040115E+00
        -11   -1    0    0    0    0  0.00000000000E+00  0.00000000000E+00  0.18250000000E+03  0.18250000000E+03  0.00000000000E+00 0.  1.
         11   -1    0    0    0    0 -0.00000000000E+00 -0.00000000000E+00 -0.18250000000E+03  0.18250000000E+03  0.00000000000E+00 0. -1.
         23    2    1    2    0    0 -0.55191924237E+01 -0.10840160052E+02 -0.19976647536E+02  0.98444110679E+02  0.95625341441E+02 0.  0.
        -11    1    1    2    0    0  0.72608437523E+02 -0.19666609272E+02  0.12041372212E+03  0.14197966473E+03  0.00000000000E+00 0.  1.
         11    1    1    2    0    0 -0.67089245100E+02  0.30506769324E+02 -0.10043707459E+03  0.12457622459E+03  0.00000000000E+00 0. -1.
        -15    1    3    3    0    0 -0.44329649482E+02 -0.10540433533E+02  0.13072315824E+02  0.47436923723E+02  0.17770000000E+01 0.  1.
         15    1    3    3    0    0  0.38810457058E+02 -0.29972651849E+00 -0.33048963360E+02  0.51007186957E+02  0.17770000000E+01 0. -1.
</event>
<event>
 7    1  0.3165060E-007  0.1427848E+03  0.7546771E-02  0.1105363E+00
        -11   -1    0    0    0    0  0.00000000000E+00  0.00000000000E+00  0.18250000000E+03  0.18250000000E+03  0.00000000000E+00 0. -1.
         11   -1    0    0    0    0 -0.00000000000E+00 -0.00000000000E+00 -0.18250000000E+03  0.18250000000E+03  0.00000000000E+00 0. -1.
         23    2    1    2    0    0  0.58459048110E+02  0.12277856340E+03 -0.39310806773E+02  0.16785437586E+03  0.90209290150E+02 0.  0.
        -11    1    1    2    0    0 -0.27891128154E+02 -0.35144649015E+02  0.83163774646E+02  0.94494840058E+02  0.00000000000E+00 0. -1.
         11    1    1    2    0    0 -0.30567919956E+02 -0.87633914387E+02 -0.43852967873E+02  0.10265078408E+03  0.00000000000E+00 0. -1.
        -15    1    3    3    0    0 -0.14630321053E+01  0.55365788815E+02  0.21086924282E+02  0.59290194288E+02  0.17770000000E+01 0. -1.
         15    1    3    3    0    0  0.59922080215E+02  0.67412774587E+02 -0.60397731056E+02  0.10856418157E+03  0.17770000000E+01 0.  1.
</event>
<event>
 7    1  0.3165060E-007  0.1745294E+03  0.7546771E-02  0.1074983E+00
        -11   -1    0    0    0    0  0.00000000000E+00  0.00000000000E+00  0.18250000000E+03  0.18250000000E+03  0.00000000000E+00 0. -1.
         11   -1    0    0    0    0 -0.00000000000E+00 -0.00000000000E+00 -0.18250000000E+03  0.18250000000E+03  0.00000000000E+00 0. -1.
         23    2    1    2    0    0  0.18095256641E+02  0.46180764654E+01 -0.13829761263E+03  0.16637721907E+03  0.90589096603E+02 0.  0.
        -11    1    1    2    0    0 -0.47037993231E+02  0.17849474188E+02  0.15153235142E+03  0.15966599533E+03  0.00000000000E+00 0. -1.
         11    1    1    2    0    0  0.28942736590E+02 -0.22467550653E+02 -0.13234738788E+02  0.38956785602E+02  0.00000000000E+00 0. -1.
        -15    1    3    3    0    0  0.35495191437E+02 -0.25949025237E+02 -0.11751752655E+03  0.12548620363E+03  0.17770000000E+01 0. -1.
         15    1    3    3    0    0 -0.17399934796E+02  0.30567101702E+02 -0.20780086082E+02  0.40891015443E+02  0.17770000000E+01 0.  1.
</event>
<event>
 7    1  0.3165060E-007  0.1408961E+03  0.7546771E-02  0.1107440E+00
        -11   -1    0    0    0    0  0.00000000000E+00  0.00000000000E+00  0.18250000000E+03  0.18250000000E+03  0.00000000000E+00 0. -1.
         11   -1    0    0    0    0 -0.00000000000E+00 -0.00000000000E+00 -0.18250000000E+03  0.18250000000E+03  0.00000000000E+00 0.  1.
         23    2    1    2    0    0 -0.63871094854E+02 -0.16076577589E+02 -0.39765969102E+02  0.12115272726E+03  0.93587808601E+02 0.  0.
        -11    1    1    2    0    0  0.68494805414E+02 -0.43045447919E+02  0.11960428362E+03  0.14439402209E+03  0.00000000000E+00 0. -1.
         11    1    1    2    0    0 -0.46237105604E+01  0.59122025508E+02 -0.79838314519E+02  0.99453250649E+02  0.00000000000E+00 0.  1.
        -15    1    3    3    0    0 -0.86203361668E+02 -0.19005208141E+02 -0.43210612468E+02  0.98298180340E+02  0.17770000000E+01 0.  1.
         15    1    3    3    0    0  0.22332266814E+02  0.29286305515E+01  0.34446433653E+01  0.22854546919E+02  0.17770000000E+01 0. -1.
</event>
<event>
 7    1  0.3165060E-007  0.1629388E+03  0.7546771E-02  0.1085188E+00
        -11   -1    0    0    0    0  0.00000000000E+00  0.00000000000E+00  0.18250000000E+03  0.18250000000E+03  0.00000000000E+00 0. -1.
         11   -1    0    0    0    0 -0.00000000000E+00 -0.00000000000E+00 -0.18250000000E+03  0.18250000000E+03  0.00000000000E+00 0.  1.
         23    2    1    2    0    0  0.17531719008E+02  0.40038122109E+02 -0.10417708978E+03  0.14639895780E+03  0.93109486176E+02 0.  0.
        -11    1    1    2    0    0 -0.14979933156E+02 -0.59258828313E+01  0.15582317823E+03  0.15665368607E+03  0.00000000000E+00 0. -1.
         11    1    1    2    0    0 -0.25517858515E+01 -0.34112239278E+02 -0.51646088455E+02  0.61947356137E+02  0.00000000000E+00 0.  1.
        -15    1    3    3    0    0  0.89244380439E+01 -0.85247331230E+01  0.13749931187E+02  0.18561654179E+02  0.17770000000E+01 0. -1.
         15    1    3    3    0    0  0.86072809641E+01  0.48562855232E+02 -0.11792702096E+03  0.12783730362E+03  0.17770000000E+01 0.  1.
</event>
<event>
 7    1  0.6007431E-007  0.1856842E+03  0.7546771E-02  0.1065948E+00
        -11   -1    0    0    0    0  0.00000000000E+00  0.00000000000E+00  0.18250000000E+03  0.18250000000E+03  0.00000000000E+00 0. -1.
         11   -1    0    0    0    0 -0.00000000000E+00 -0.00000000000E+00 -0.18250000000E+03  0.18250000000E+03  0.00000000000E+00 0.  1.
         23    2    1    2    0    0  0.78370879361E+01  0.65937042378E+02  0.11829477902E+03  0.17632411346E+03  0.11263846918E+03 0.  0.
        -11    1    1    2    0    0  0.99672604331E+01  0.27375778196E+02  0.84016082449E+01  0.30321057592E+02  0.00000000000E+00 0. -1.
         11    1    1    2    0    0 -0.17804348369E+02 -0.93312820574E+02 -0.12669638727E+03  0.15835482895E+03  0.00000000000E+00 0.  1.
        -15    1    3    3    0    0  0.55339905410E+02  0.29419455115E+02  0.90878257975E+02  0.11040844611E+03  0.17770000000E+01 0. -1.
         15    1    3    3    0    0 -0.47502817474E+02  0.36517587263E+02  0.27416521047E+02  0.65915667355E+02  0.17770000000E+01 0.  1.
</event>
<event>
 7    1  0.3165060E-007  0.1665435E+03  0.7546771E-02  0.1081917E+00
        -11   -1    0    0    0    0  0.00000000000E+00  0.00000000000E+00  0.18250000000E+03  0.18250000000E+03  0.00000000000E+00 0.  1.
         11   -1    0    0    0    0 -0.00000000000E+00 -0.00000000000E+00 -0.18250000000E+03  0.18250000000E+03  0.00000000000E+00 0. -1.
         23    2    1    2    0    0 -0.69191439883E+01 -0.51767866520E+02 -0.10537778749E+03  0.15020774114E+03  0.93435008665E+02 0.  0.
        -11    1    1    2    0    0 -0.27654104030E+02  0.49441627981E+02  0.14881146573E+03  0.15922963411E+03  0.00000000000E+00 0.  1.
         11    1    1    2    0    0  0.34573248018E+02  0.23262385391E+01 -0.43433678239E+02  0.55562624755E+02  0.00000000000E+00 0. -1.
        -15    1    3    3    0    0 -0.23863322779E+02  0.15905761381E+02 -0.69686843875E+01  0.29566394949E+02  0.17770000000E+01 0.  1.
         15    1    3    3    0    0  0.16944178791E+02 -0.67673627901E+02 -0.98409103099E+02  0.12064134619E+03  0.17770000000E+01 0. -1.
</event>
<event>
 7    1  0.3165060E-007  0.1886761E+03  0.7546771E-02  0.1063642E+00
        -11   -1    0    0    0    0  0.00000000000E+00  0.00000000000E+00  0.18250000000E+03  0.18250000000E+03  0.00000000000E+00 0.  1.
         11   -1    0    0    0    0 -0.00000000000E+00 -0.00000000000E+00 -0.18250000000E+03  0.18250000000E+03  0.00000000000E+00 0.  1.
         23    2    1    2    0    0  0.23480817169E+01  0.52328727453E+02 -0.15251354947E+03  0.18867613601E+03  0.97951479448E+02 0.  0.
        -11    1    1    2    0    0 -0.68642232124E+01 -0.62979995905E+02  0.76008097960E+02  0.98948614948E+02  0.00000000000E+00 0.  1.
         11    1    1    2    0    0  0.45161414955E+01  0.10651268452E+02  0.76505451506E+02  0.77375249038E+02  0.00000000000E+00 0.  1.
        -15    1    3    3    0    0  0.25907981230E+01  0.75564367964E+02 -0.14608452853E+03  0.16450086062E+03  0.17770000000E+01 0.  1.
         15    1    3    3    0    0 -0.24271640614E+00 -0.23235640511E+02 -0.64290209395E+01  0.24175275395E+02  0.17770000000E+01 0. -1.
</event>
<event>
 7    1  0.3165060E-007  0.1187868E+03  0.7546771E-02  0.1134792E+00
        -11   -1    0    0    0    0  0.00000000000E+00  0.00000000000E+00  0.18250000000E+03  0.18250000000E+03  0.00000000000E+00 0. -1.
         11   -1    0    0    0    0 -0.00000000000E+00 -0.00000000000E+00 -0.18250000000E+03  0.18250000000E+03  0.00000000000E+00 0.  1.
         23    2    1    2    0    0 -0.70011809150E+02 -0.10594242379E+02 -0.12088711616E+02  0.11680399967E+03  0.92103995565E+02 0.  0.
        -11    1    1    2    0    0 -0.40662928681E+01  0.41341375164E+02  0.11235998506E+03  0.11979319798E+03  0.00000000000E+00 0. -1.
         11    1    1    2    0    0  0.74078102019E+02 -0.30747132785E+02 -0.10027127345E+03  0.12840280235E+03  0.00000000000E+00 0.  1.
        -15    1    3    3    0    0 -0.16349444918E+02  0.38319779653E+02 -0.14453724373E+02  0.44133635008E+02  0.17770000000E+01 0. -1.
         15    1    3    3    0    0 -0.53662364232E+02 -0.48914022031E+02  0.23650127569E+01  0.72670364666E+02  0.17770000000E+01 0.  1.
</event>
<event>
 7    1  0.3165060E-007  0.2118708E+03  0.7546771E-02  0.1047216E+00
        -11   -1    0    0    0    0  0.00000000000E+00  0.00000000000E+00  0.18250000000E+03  0.18250000000E+03  0.00000000000E+00 0.  1.
         11   -1    0    0    0    0 -0.00000000000E+00 -0.00000000000E+00 -0.18250000000E+03  0.18250000000E+03  0.00000000000E+00 0.  1.
         23    2    1    2    0    0  0.21548963207E+02  0.36254649652E+02  0.44512311689E+02  0.10596337335E+03  0.86418361262E+02 0.  0.
        -11    1    1    2    0    0 -0.26885487174E+02  0.73772518860E+01  0.10217210338E+03  0.10590746893E+03  0.00000000000E+00 0.  1.
         11    1    1    2    0    0  0.53365239669E+01 -0.43631901538E+02 -0.14668441507E+03  0.15312915772E+03  0.00000000000E+00 0.  1.
        -15    1    3    3    0    0 -0.26082500353E+01  0.10292477783E+02  0.64381219097E+02  0.65275088423E+02  0.17770000000E+01 0.  1.
         15    1    3    3    0    0  0.24157213242E+02  0.25962171869E+02 -0.19868907408E+02  0.40688284928E+02  0.17770000000E+01 0. -1.
</event>
<event>
 7    1  0.3165060E-007  0.1376665E+03  0.7546771E-02  0.1111077E+00
        -11   -1    0    0    0    0  0.00000000000E+00  0.00000000000E+00  0.18250000000E+03  0.18250000000E+03  0.00000000000E+00 0. -1.
         11   -1    0    0    0    0 -0.00000000000E+00 -0.00000000000E+00 -0.18250000000E+03  0.18250000000E+03  0.00000000000E+00 0.  1.
         23    2    1    2    0    0 -0.19329378482E+02 -0.11053992358E+03  0.12045123253E+02  0.14481638280E+03  0.90741391632E+02 0.  0.
        -11    1    1    2    0    0 -0.55117155428E+02  0.59618508373E+02  0.63065865101E+02  0.10280841748E+03  0.00000000000E+00 0. -1.
         11    1    1    2    0    0  0.74446533910E+02  0.50921415210E+02 -0.75110988354E+02  0.11737519972E+03  0.00000000000E+00 0.  1.
        -15    1    3    3    0    0 -0.45285110859E+02 -0.94282355294E+02 -0.12733243506E+02  0.10538119853E+03  0.17770000000E+01 0.  1.
         15    1    3    3    0    0  0.25955732377E+02 -0.16257568288E+02  0.24778366759E+02  0.39435184267E+02  0.17770000000E+01 0. -1.
</event>
<event>
 7    1  0.3165060E-007  0.1374869E+03  0.7546771E-02  0.1111282E+00
        -11   -1    0    0    0    0  0.00000000000E+00  0.00000000000E+00  0.18250000000E+03  0.18250000000E+03  0.00000000000E+00 0.  1.
         11   -1    0    0    0    0 -0.00000000000E+00 -0.00000000000E+00 -0.18250000000E+03  0.18250000000E+03  0.00000000000E+00 0. -1.
         23    2    1    2    0    0 -0.11791520416E+02 -0.27251846009E+02 -0.94856438176E+02  0.13473424143E+03  0.90960809615E+02 0.  0.
        -11    1    1    2    0    0  0.76111216466E+02 -0.53064960716E+02  0.86797449155E+02  0.12705354976E+03  0.00000000000E+00 0.  1.
         11    1    1    2    0    0 -0.64319696051E+02  0.80316806725E+02  0.80589890205E+01  0.10321220881E+03  0.00000000000E+00 0. -1.
        -15    1    3    3    0    0 -0.27856161958E+02  0.27045995953E+02 -0.42523423680E+02  0.57609469244E+02  0.17770000000E+01 0. -1.
         15    1    3    3    0    0  0.16064641542E+02 -0.54297841962E+02 -0.52333014496E+02  0.77124772187E+02  0.17770000000E+01 0.  1.
</event>
<event>
 7    1  0.3165060E-007  0.1884200E+03  0.7546771E-02  0.1063838E+00
        -11   -1    0    0    0    0  0.00000000000E+00  0.00000000000E+00  0.18250000000E+03  0.18250000000E+03  0.00000000000E+00 0.  1.
         11   -1    0    0    0    0 -0.00000000000E+00 -0.00000000000E+00 -0.18250000000E+03  0.18250000000E+03  0.00000000000E+00 0.  1.
         23    2    1    2    0    0 -0.18851082395E+02  0.14819900361E+02 -0.16257085406E+03  0.18841996933E+03  0.92183564139E+02 0.  0.
        -11    1    1    2    0    0 -0.10904561425E+02 -0.12566498546E+02  0.13477812741E+03  0.13580121492E+03  0.00000000000E+00 0.  1.
         11    1    1    2    0    0  0.29755643819E+02 -0.22534018158E+01  0.27792726651E+02  0.40778815745E+02  0.00000000000E+00 0.  1.
        -15    1    3    3    0    0  0.19199330808E+02 -0.28869619775E+02 -0.40897375750E+02  0.53645338303E+02  0.17770000000E+01 0. -1.
         15    1    3    3    0    0 -0.38050413202E+02  0.43689520136E+02 -0.12167347831E+03  0.13477463103E+03  0.17770000000E+01 0.  1.
</event>
<event>
 7    1  0.3165060E-007  0.1705563E+03  0.7546771E-02  0.1078381E+00
        -11   -1    0    0    0    0  0.00000000000E+00  0.00000000000E+00  0.18250000000E+03  0.18250000000E+03  0.00000000000E+00 0.  1.
         11   -1    0    0    0    0 -0.00000000000E+00 -0.00000000000E+00 -0.18250000000E+03  0.18250000000E+03  0.00000000000E+00 0. -1.
         23    2    1    2    0    0 -0.52238197904E+02 -0.78781243213E+02 -0.12515352499E+03  0.18159728843E+03  0.91536095313E+02 0.  0.
        -11    1    1    2    0    0  0.47784332483E+02  0.31982569796E+02  0.12365347399E+03  0.13636865047E+03  0.00000000000E+00 0.  1.
         11    1    1    2    0    0  0.44538654211E+01  0.46798673416E+02  0.15000510066E+01  0.47034061102E+02  0.00000000000E+00 0. -1.
        -15    1    3    3    0    0 -0.60731522936E+02 -0.13057409779E+02 -0.40929274808E+02  0.74412210648E+02  0.17770000000E+01 0.  1.
         15    1    3    3    0    0  0.84933250315E+01 -0.65723833433E+02 -0.84224250184E+02  0.10718507778E+03  0.17770000000E+01 0. -1.
</event>
<event>
 7    1  0.3165060E-007  0.1559513E+03  0.7546771E-02  0.1091802E+00
        -11   -1    0    0    0    0  0.00000000000E+00  0.00000000000E+00  0.18250000000E+03  0.18250000000E+03  0.00000000000E+00 0. -1.
         11   -1    0    0    0    0 -0.00000000000E+00 -0.00000000000E+00 -0.18250000000E+03  0.18250000000E+03  0.00000000000E+00 0. -1.
         23    2    1    2    0    0 -0.64831912103E+02  0.83884921297E+00 -0.94107330606E+02  0.15339574786E+03  0.10232392336E+03 0.  0.
        -11    1    1    2    0    0 -0.16483660717E+01  0.26637032753E+02  0.12894505196E+03  0.13167792165E+03  0.00000000000E+00 0. -1.
         11    1    1    2    0    0  0.66480278174E+02 -0.27475881966E+02 -0.34837721359E+02  0.79926330489E+02  0.00000000000E+00 0. -1.
        -15    1    3    3    0    0 -0.86390374572E+02 -0.95477628400E+01 -0.43113313755E+02  0.97037993312E+02  0.17770000000E+01 0.  1.
         15    1    3    3    0    0  0.21558462470E+02  0.10386612053E+02 -0.50994016851E+02  0.56357754547E+02  0.17770000000E+01 0. -1.
</event>
<event>
 7    1  0.3165060E-007  0.2154822E+03  0.7546771E-02  0.1044865E+00
        -11   -1    0    0    0    0  0.00000000000E+00  0.00000000000E+00  0.18250000000E+03  0.18250000000E+03  0.00000000000E+00 0. -1.
         11   -1    0    0    0    0 -0.00000000000E+00 -0.00000000000E+00 -0.18250000000E+03  0.18250000000E+03  0.00000000000E+00 0.  1.
         23    2    1    2    0    0 -0.38490476702E+02 -0.32907054853E+02 -0.44445796935E+02  0.11297466939E+03  0.90683272999E+02 0.  0.
        -11    1    1    2    0    0  0.10857268087E+03 -0.15295460635E+02  0.10165422737E+03  0.14951775844E+03  0.00000000000E+00 0. -1.
         11    1    1    2    0    0 -0.70082204168E+02  0.48202515488E+02 -0.57208430433E+02  0.10250757217E+03  0.00000000000E+00 0.  1.
        -15    1    3    3    0    0  0.16901982566E+01 -0.83856653708E+01 -0.62068581079E+02  0.62680480534E+02  0.17770000000E+01 0.  1.
         15    1    3    3    0    0 -0.40180674958E+02 -0.24521389482E+02  0.17622784144E+02  0.50294188851E+02  0.17770000000E+01 0. -1.
</event>
<event>
 7    1  0.3165060E-007  0.1337554E+03  0.7546771E-02  0.1115631E+00
        -11   -1    0    0    0    0  0.00000000000E+00  0.00000000000E+00  0.18250000000E+03  0.18250000000E+03  0.00000000000E+00 0.  1.
         11   -1    0    0    0    0 -0.00000000000E+00 -0.00000000000E+00 -0.18250000000E+03  0.18250000000E+03  0.00000000000E+00 0. -1.
         23    2    1    2    0    0 -0.63334853247E+02 -0.84368661024E+02 -0.20744226571E+02  0.14023538263E+03  0.90034798870E+02 0.  0.
        -11    1    1    2    0    0  0.54270661963E+02 -0.60064422802E+01  0.93576257274E+02  0.10834158031E+03  0.00000000000E+00 0.  1.
         11    1    1    2    0    0  0.90641912843E+01  0.90375103304E+02 -0.72832030703E+02  0.11642303706E+03  0.00000000000E+00 0. -1.
        -15    1    3    3    0    0  0.18815522219E+02 -0.39879202839E+02  0.16017334743E+01  0.44159913661E+02  0.17770000000E+01 0. -1.
         15    1    3    3    0    0 -0.82150375466E+02 -0.44489458185E+02 -0.22345960045E+02  0.96075468972E+02  0.17770000000E+01 0.  1.
</event>
<event>
 7    1  0.3165060E-007  0.1395621E+03  0.7546771E-02  0.1108929E+00
        -11   -1    0    0    0    0  0.00000000000E+00  0.00000000000E+00  0.18250000000E+03  0.18250000000E+03  0.00000000000E+00 0. -1.
         11   -1    0    0    0    0 -0.00000000000E+00 -0.00000000000E+00 -0.18250000000E+03  0.18250000000E+03  0.00000000000E+00 0.  1.
         23    2    1    2    0    0  0.44319136287E+02  0.12309978840E+03 -0.41245808805E+02  0.16470428074E+03  0.91151190922E+02 0.  0.
        -11    1    1    2    0    0 -0.45706780389E+02 -0.32079360170E+02  0.83087867417E+02  0.10010888489E+03  0.00000000000E+00 0. -1.
         11    1    1    2    0    0  0.13876441027E+01 -0.91020428228E+02 -0.41842058612E+02  0.10018683436E+03  0.00000000000E+00 0.  1.
        -15    1    3    3    0    0  0.45063913352E+00  0.10608480359E+03 -0.49196620306E+02  0.11695150195E+03  0.17770000000E+01 0. -1.
         15    1    3    3    0    0  0.43868497153E+02  0.17014984807E+02  0.79508115013E+01  0.47752778799E+02  0.17770000000E+01 0.  1.
</event>
<event>
 7    1  0.3165060E-007  0.1555080E+03  0.7546771E-02  0.1092234E+00
        -11   -1    0    0    0    0  0.00000000000E+00  0.00000000000E+00  0.18250000000E+03  0.18250000000E+03  0.00000000000E+00 0.  1.
         11   -1    0    0    0    0 -0.00000000000E+00 -0.00000000000E+00 -0.18250000000E+03  0.18250000000E+03  0.00000000000E+00 0. -1.
         23    2    1    2    0    0 -0.10858623872E+02 -0.39875593978E+02  0.79806541919E+02  0.12829905924E+03  0.91561955857E+02 0.  0.
        -11    1    1    2    0    0 -0.28581169446E+02 -0.30374924450E+02  0.61342356700E+02  0.74178190917E+02  0.00000000000E+00 0.  1.
         11    1    1    2    0    0  0.39439793318E+02  0.70250518428E+02 -0.14114889862E+03  0.16252274985E+03  0.00000000000E+00 0. -1.
        -15    1    3    3    0    0 -0.17284048779E+02 -0.66889970027E+01  0.90815425647E+02  0.92704262510E+02  0.17770000000E+01 0.  1.
         15    1    3    3    0    0  0.64254249070E+01 -0.33186596975E+02 -0.11008883728E+02  0.35594796726E+02  0.17770000000E+01 0. -1.
</event>
<event>
 7    1  0.3165060E-007  0.1751438E+03  0.7546771E-02  0.1074466E+00
        -11   -1    0    0    0    0  0.00000000000E+00  0.00000000000E+00  0.18250000000E+03  0.18250000000E+03  0.00000000000E+00 0. -1.
         11   -1    0    0    0    0 -0.00000000000E+00 -0.00000000000E+00 -0.18250000000E+03  0.18250000000E+03  0.00000000000E+00 0.  1.
         23    2    1    2    0    0  0.13660689800E+02  0.11033167163E+03 -0.96576959273E+02  0.17497603129E+03  0.94497673262E+02 0.  0.
        -11    1    1    2    0    0 -0.27795180205E+02 -0.82944072728E+02  0.12196592336E+03  0.15009323004E+03  0.00000000000E+00 0. -1.
         11    1    1    2    0    0  0.14134490405E+02 -0.27387598906E+02 -0.25388964091E+02  0.39930738666E+02  0.00000000000E+00 0.  1.
        -15    1    3    3    0    0 -0.59641758902E+01 -0.12942107595E+02  0.37238328571E+01  0.14835572224E+02  0.17770000000E+01 0. -1.
         15    1    3    3    0    0  0.19624865690E+02  0.12327377923E+03 -0.10030079213E+03  0.16014045907E+03  0.17770000000E+01 0.  1.
</event>
<event>
 7    1  0.3165060E-007  0.1588688E+03  0.7546771E-02  0.1088995E+00
        -11   -1    0    0    0    0  0.00000000000E+00  0.00000000000E+00  0.18250000000E+03  0.18250000000E+03  0.00000000000E+00 0.  1.
         11   -1    0    0    0    0 -0.00000000000E+00 -0.00000000000E+00 -0.18250000000E+03  0.18250000000E+03  0.00000000000E+00 0. -1.
         23    2    1    2    0    0  0.65118380622E+02 -0.62369280168E+02 -0.58124597702E+02  0.13918370867E+03  0.88675280078E+02 0.  0.
        -11    1    1    2    0    0 -0.75253657695E+01 -0.62773127943E+02 -0.21405941189E+02  0.66748116377E+02  0.00000000000E+00 0. -1.
         11    1    1    2    0    0 -0.57593014853E+02  0.12514240811E+03  0.79530538891E+02  0.15906817496E+03  0.00000000000E+00 0.  1.
        -15    1    3    3    0    0  0.49462034479E+02 -0.81832795018E+02 -0.61810435515E+02  0.11387180012E+03  0.17770000000E+01 0. -1.
         15    1    3    3    0    0  0.15656346143E+02  0.19463514850E+02  0.36858378127E+01  0.25311908546E+02  0.17770000000E+01 0.  1.
</event>
<event>
 7    1  0.3165060E-007  0.1456294E+03  0.7546771E-02  0.1102300E+00
        -11   -1    0    0    0    0  0.00000000000E+00  0.00000000000E+00  0.18250000000E+03  0.18250000000E+03  0.00000000000E+00 0. -1.
         11   -1    0    0    0    0 -0.00000000000E+00 -0.00000000000E+00 -0.18250000000E+03  0.18250000000E+03  0.00000000000E+00 0. -1.
         23    2    1    2    0    0  0.37822773749E+02 -0.87705909351E+02 -0.91979792360E+02  0.16093338372E+03  0.91194205102E+02 0.  0.
        -11    1    1    2    0    0 -0.26949356314E+02 -0.23047335324E+00  0.11033547587E+03  0.11357921535E+03  0.00000000000E+00 0. -1.
         11    1    1    2    0    0 -0.10873417436E+02  0.87936382704E+02 -0.18355683511E+02  0.90487400930E+02  0.00000000000E+00 0. -1.
        -15    1    3    3    0    0  0.66344928932E+02 -0.73421323903E+02 -0.60052100308E+02  0.11576594007E+03  0.17770000000E+01 0. -1.
         15    1    3    3    0    0 -0.28522155183E+02 -0.14284585448E+02 -0.31927692051E+02  0.45167443656E+02  0.17770000000E+01 0.  1.
</event>
<event>
 7    1  0.3165060E-007  0.1862378E+03  0.7546771E-02  0.1065518E+00
        -11   -1    0    0    0    0  0.00000000000E+00  0.00000000000E+00  0.18250000000E+03  0.18250000000E+03  0.00000000000E+00 0.  1.
         11   -1    0    0    0    0 -0.00000000000E+00 -0.00000000000E+00 -0.18250000000E+03  0.18250000000E+03  0.00000000000E+00 0. -1.
         23    2    1    2    0    0  0.50740459540E+02  0.28912336332E+02 -0.14786777950E+03  0.18414022302E+03  0.92909763170E+02 0.  0.
        -11    1    1    2    0    0 -0.67010786986E+02 -0.33191586348E+02  0.14586564986E+03  0.16391740233E+03  0.00000000000E+00 0.  1.
         11    1    1    2    0    0  0.16270327446E+02  0.42792500162E+01  0.20021296418E+01  0.16942374657E+02  0.00000000000E+00 0. -1.
        -15    1    3    3    0    0  0.68092952464E+02  0.48194972199E+02 -0.11828440057E+03  0.14475414559E+03  0.17770000000E+01 0. -1.
         15    1    3    3    0    0 -0.17352492924E+02 -0.19282635867E+02 -0.29583378934E+02  0.39386077424E+02  0.17770000000E+01 0.  1.
</event>
<event>
 7    1  0.3165060E-007  0.1543616E+03  0.7546771E-02  0.1093359E+00
        -11   -1    0    0    0    0  0.00000000000E+00  0.00000000000E+00  0.18250000000E+03  0.18250000000E+03  0.00000000000E+00 0. -1.
         11   -1    0    0    0    0 -0.00000000000E+00 -0.00000000000E+00 -0.18250000000E+03  0.18250000000E+03  0.00000000000E+00 0.  1.
         23    2    1    2    0    0 -0.10088240315E+03 -0.39016218735E+02 -0.71215763738E+02  0.15664286694E+03  0.88123652718E+02 0.  0.
        -11    1    1    2    0    0  0.70560211763E+02 -0.14253644927E+02  0.11313760818E+03  0.13409708521E+03  0.00000000000E+00 0. -1.
         11    1    1    2    0    0  0.30322191392E+02  0.53269863662E+02 -0.41921844439E+02  0.74260047849E+02  0.00000000000E+00 0.  1.
        -15    1    3    3    0    0 -0.92264436656E+02 -0.61223233070E+02 -0.73080249968E+02  0.13268342475E+03  0.17770000000E+01 0.  1.
         15    1    3    3    0    0 -0.86179664991E+01  0.22207014335E+02  0.18644862298E+01  0.23959442192E+02  0.17770000000E+01 0. -1.
</event>
<event>
 7    1  0.3183006E-007  0.1640985E+03  0.7546771E-02  0.1084126E+00
        -11   -1    0    0    0    0  0.00000000000E+00  0.00000000000E+00  0.18250000000E+03  0.18250000000E+03  0.00000000000E+00 0.  1.
         11   -1    0    0    0    0 -0.00000000000E+00 -0.00000000000E+00 -0.18250000000E+03  0.18250000000E+03  0.00000000000E+00 0. -1.
         23    2    1    2    0    0 -0.60427558095E+02 -0.10154656737E+01  0.94001106291E+02  0.14884561034E+03  0.98317276132E+02 0.  0.
        -11    1    1    2    0    0  0.19051483542E+02  0.32959562752E+02  0.50066796751E+02  0.62896549499E+02  0.00000000000E+00 0.  1.
         11    1    1    2    0    0  0.41376074553E+02 -0.31944097078E+02 -0.14406790304E+03  0.15325784016E+03  0.00000000000E+00 0. -1.
        -15    1    3    3    0    0 -0.50428054754E+01  0.21185676753E+02  0.85861438907E+02  0.88598009045E+02  0.17770000000E+01 0.  1.
         15    1    3    3    0    0 -0.55384752620E+02 -0.22201142427E+02  0.81396673840E+01  0.60247601296E+02  0.17770000000E+01 0. -1.
</event>
<event>
 7    1  0.3165060E-007  0.1674764E+03  0.7546771E-02  0.1081085E+00
        -11   -1    0    0    0    0  0.00000000000E+00  0.00000000000E+00  0.18250000000E+03  0.18250000000E+03  0.00000000000E+00 0.  1.
         11   -1    0    0    0    0 -0.00000000000E+00 -0.00000000000E+00 -0.18250000000E+03  0.18250000000E+03  0.00000000000E+00 0. -1.
         23    2    1    2    0    0 -0.49471341285E+02 -0.22125699820E+02 -0.10375681978E+03  0.14815641859E+03  0.90817875534E+02 0.  0.
        -11    1    1    2    0    0  0.81424134063E+02  0.51196183706E+02  0.13339609258E+03  0.16445502835E+03  0.00000000000E+00 0.  1.
         11    1    1    2    0    0 -0.31952792777E+02 -0.29070483886E+02 -0.29639272804E+02  0.52388553062E+02  0.00000000000E+00 0. -1.
        -15    1    3    3    0    0 -0.56118007624E+02 -0.19274411259E+02 -0.11799616842E+03  0.13208704403E+03  0.17770000000E+01 0. -1.
         15    1    3    3    0    0  0.66466663389E+01 -0.28512885613E+01  0.14239348643E+02  0.16069374557E+02  0.17770000000E+01 0.  1.
</event>
<event>
 7    1  0.3165060E-007  0.2081743E+03  0.7546771E-02  0.1049677E+00
        -11   -1    0    0    0    0  0.00000000000E+00  0.00000000000E+00  0.18250000000E+03  0.18250000000E+03  0.00000000000E+00 0.  1.
         11   -1    0    0    0    0 -0.00000000000E+00 -0.00000000000E+00 -0.18250000000E+03  0.18250000000E+03  0.00000000000E+00 0. -1.
         23    2    1    2    0    0  0.29699154964E+01 -0.38323411034E+02  0.50948793472E+02  0.11172386054E+03  0.91700257505E+02 0.  0.
        -11    1    1    2    0    0 -0.27660263384E+02 -0.34611961248E+02  0.85671534783E+02  0.96450453104E+02  0.00000000000E+00 0.  1.
         11    1    1    2    0    0  0.24690347887E+02  0.72935372282E+02 -0.13662032825E+03  0.15682568636E+03  0.00000000000E+00 0. -1.
        -15    1    3    3    0    0  0.14063351251E+02 -0.29901828342E+02 -0.20487791667E+02  0.38920489758E+02  0.17770000000E+01 0. -1.
         15    1    3    3    0    0 -0.11093435755E+02 -0.84215826920E+01  0.71436585139E+02  0.72803370782E+02  0.17770000000E+01 0.  1.
</event>
<event>
 7    1  0.3165060E-007  0.1906416E+03  0.7546771E-02  0.1062153E+00
        -11   -1    0    0    0    0  0.00000000000E+00  0.00000000000E+00  0.18250000000E+03  0.18250000000E+03  0.00000000000E+00 0. -1.
         11   -1    0    0    0    0 -0.00000000000E+00 -0.00000000000E+00 -0.18250000000E+03  0.18250000000E+03  0.00000000000E+00 0. -1.
         23    2    1    2    0    0  0.28762348611E+02  0.12217852503E+02 -0.16196568716E+03  0.18989939339E+03  0.94086912868E+02 0.  0.
        -11    1    1    2    0    0 -0.66361877098E+01  0.46802820821E+01 -0.23414590020E+01  0.84514175110E+01  0.00000000000E+00 0. -1.
         11    1    1    2    0    0 -0.22126160901E+02 -0.16898134585E+02  0.16430714616E+03  0.16664918910E+03  0.00000000000E+00 0. -1.
        -15    1    3    3    0    0  0.57915184971E+02  0.28923752802E+02 -0.95265624246E+02  0.11519309449E+03  0.17770000000E+01 0. -1.
         15    1    3    3    0    0 -0.29152836360E+02 -0.16705900299E+02 -0.66700062915E+02  0.74706298895E+02  0.17770000000E+01 0.  1.
</event>
<event>
 7    1  0.3165060E-007  0.1370430E+03  0.7546771E-02  0.1111792E+00
        -11   -1    0    0    0    0  0.00000000000E+00  0.00000000000E+00  0.18250000000E+03  0.18250000000E+03  0.00000000000E+00 0.  1.
         11   -1    0    0    0    0 -0.00000000000E+00 -0.00000000000E+00 -0.18250000000E+03  0.18250000000E+03  0.00000000000E+00 0. -1.
         23    2    1    2    0    0  0.90603360184E+02 -0.40275483747E+01 -0.29337183478E+02  0.13165921585E+03  0.90820090069E+02 0.  0.
        -11    1    1    2    0    0  0.16162846612E+02  0.27972538291E+02  0.98657305136E+02  0.10381215905E+03  0.00000000000E+00 0.  1.
         11    1    1    2    0    0 -0.10676620680E+03 -0.23944989916E+02 -0.69320121658E+02  0.12952862511E+03  0.00000000000E+00 0. -1.
        -15    1    3    3    0    0  0.17184261043E+02 -0.17527281209E+02  0.28173200042E+02  0.37408439473E+02  0.17770000000E+01 0.  1.
         15    1    3    3    0    0  0.73419099141E+02  0.13499732834E+02 -0.57510383520E+02  0.94250776373E+02  0.17770000000E+01 0. -1.
</event>
<event>
 7    1  0.3165060E-007  0.1282354E+03  0.7546771E-02  0.1122359E+00
        -11   -1    0    0    0    0  0.00000000000E+00  0.00000000000E+00  0.18250000000E+03  0.18250000000E+03  0.00000000000E+00 0. -1.
         11   -1    0    0    0    0 -0.00000000000E+00 -0.00000000000E+00 -0.18250000000E+03  0.18250000000E+03  0.00000000000E+00 0.  1.
         23    2    1    2    0    0 -0.20040282923E+02  0.63419559783E+01  0.35782047990E+02  0.10519347604E+03  0.96661673361E+02 0.  0.
        -11    1    1    2    0    0  0.95877379415E+02 -0.72602726591E+02  0.47320309378E+02  0.12923946561E+03  0.00000000000E+00 0. -1.
         11    1    1    2    0    0 -0.75837096492E+02  0.66260770613E+02 -0.83102357368E+02  0.13056705835E+03  0.00000000000E+00 0.  1.
        -15    1    3    3    0    0 -0.58531612978E+02  0.96799710008E+01  0.28484265330E+02  0.65834357723E+02  0.17770000000E+01 0.  1.
         15    1    3    3    0    0  0.38491330055E+02 -0.33380150225E+01  0.72977826604E+01  0.39359118314E+02  0.17770000000E+01 0. -1.
</event>
<event>
 7    1  0.3165060E-007  0.1420064E+03  0.7546771E-02  0.1106215E+00
        -11   -1    0    0    0    0  0.00000000000E+00  0.00000000000E+00  0.18250000000E+03  0.18250000000E+03  0.00000000000E+00 0. -1.
         11   -1    0    0    0    0 -0.00000000000E+00 -0.00000000000E+00 -0.18250000000E+03  0.18250000000E+03  0.00000000000E+00 0. -1.
         23    2    1    2    0    0 -0.97134091500E+02  0.79774246316E+02 -0.66666386135E+02  0.16935773389E+03  0.91862249498E+02 0.  0.
        -11    1    1    2    0    0  0.12757513381E+02 -0.94307142669E+02  0.17036721754E+02  0.96679062854E+02  0.00000000000E+00 0. -1.
         11    1    1    2    0    0  0.84376578118E+02  0.14532896353E+02  0.49629664381E+02  0.98963203252E+02  0.00000000000E+00 0. -1.
        -15    1    3    3    0    0 -0.99107248501E+02  0.26935111300E+02 -0.41748519175E+02  0.11087760598E+03  0.17770000000E+01 0. -1.
         15    1    3    3    0    0  0.19731570010E+01  0.52839135016E+02 -0.24917866960E+02  0.58480127912E+02  0.17770000000E+01 0.  1.
</event>
<event>
 7    1  0.3165060E-007  0.1803486E+03  0.7546771E-02  0.1070180E+00
        -11   -1    0    0    0    0  0.00000000000E+00  0.00000000000E+00  0.18250000000E+03  0.18250000000E+03  0.00000000000E+00 0.  1.
         11   -1    0    0    0    0 -0.00000000000E+00 -0.00000000000E+00 -0.18250000000E+03  0.18250000000E+03  0.00000000000E+00 0.  1.
         23    2    1    2    0    0  0.33419706086E+02 -0.38204592912E+02 -0.13903265417E+03  0.17308146794E+03  0.89725403000E+02 0.  0.
        -11    1    1    2    0    0 -0.34883852725E+02  0.20742199419E+02  0.15972645558E+03  0.16480188904E+03  0.00000000000E+00 0.  1.
         11    1    1    2    0    0  0.14641466389E+01  0.17462393493E+02 -0.20693801411E+02  0.27116643021E+02  0.00000000000E+00 0.  1.
        -15    1    3    3    0    0 -0.19867145339E+02 -0.23050661145E+02 -0.10190765133E+03  0.10636899723E+03  0.17770000000E+01 0.  1.
         15    1    3    3    0    0  0.53286851426E+02 -0.15153931767E+02 -0.37125002838E+02  0.66712470705E+02  0.17770000000E+01 0. -1.
</event>
<event>
 7    1  0.3165060E-007  0.1537073E+03  0.7546771E-02  0.1094007E+00
        -11   -1    0    0    0    0  0.00000000000E+00  0.00000000000E+00  0.18250000000E+03  0.18250000000E+03  0.00000000000E+00 0. -1.
         11   -1    0    0    0    0 -0.00000000000E+00 -0.00000000000E+00 -0.18250000000E+03  0.18250000000E+03  0.00000000000E+00 0. -1.
         23    2    1    2    0    0 -0.63697613788E+02 -0.37269998163E+02  0.23516816304E+02  0.13195519091E+03  0.10683020638E+03 0.  0.
        -11    1    1    2    0    0 -0.23934451091E+02 -0.11890424646E+02  0.82652985973E+02  0.86866312444E+02  0.00000000000E+00 0. -1.
         11    1    1    2    0    0  0.87632064879E+02  0.49160422809E+02 -0.10616980228E+03  0.14617849664E+03  0.00000000000E+00 0. -1.
        -15    1    3    3    0    0 -0.73648691163E+02 -0.53654367441E+02 -0.11634403523E+02  0.91877298229E+02  0.17770000000E+01 0.  1.
         15    1    3    3    0    0  0.99510773746E+01  0.16384369278E+02  0.35151219827E+02  0.40077892683E+02  0.17770000000E+01 0. -1.
</event>
<event>
 7    1  0.3165060E-007  0.1911766E+03  0.7546771E-02  0.1061751E+00
        -11   -1    0    0    0    0  0.00000000000E+00  0.00000000000E+00  0.18250000000E+03  0.18250000000E+03  0.00000000000E+00 0. -1.
         11   -1    0    0    0    0 -0.00000000000E+00 -0.00000000000E+00 -0.18250000000E+03  0.18250000000E+03  0.00000000000E+00 0. -1.
         23    2    1    2    0    0  0.16710743074E+02 -0.16881577861E+02 -0.16670188598E+03  0.19117664425E+03  0.90524880067E+02 0.  0.
        -11    1    1    2    0    0 -0.22804162779E+02  0.27593701089E+02  0.13840231345E+03  0.14295678560E+03  0.00000000000E+00 0. -1.
         11    1    1    2    0    0  0.60934197052E+01 -0.10712123229E+02  0.28299572529E+02  0.30866570154E+02  0.00000000000E+00 0. -1.
        -15    1    3    3    0    0  0.12592561860E+02  0.24600192637E+02 -0.10694522845E+02  0.29686236539E+02  0.17770000000E+01 0.  1.
         15    1    3    3    0    0  0.41181812140E+01 -0.41481770498E+02 -0.15600736314E+03  0.16149040771E+03  0.17770000000E+01 0. -1.
</event>
<event>
 7    1  0.3165060E-007  0.1694550E+03  0.7546771E-02  0.1079340E+00
        -11   -1    0    0    0    0  0.00000000000E+00  0.00000000000E+00  0.18250000000E+03  0.18250000000E+03  0.00000000000E+00 0.  1.
         11   -1    0    0    0    0 -0.00000000000E+00 -0.00000000000E+00 -0.18250000000E+03  0.18250000000E+03  0.00000000000E+00 0.  1.
         23    2    1    2    0    0 -0.17649915904E+02  0.52428581196E+02 -0.13126126749E+03  0.17302616718E+03  0.98225549268E+02 0.  0.
        -11    1    1    2    0    0  0.22780166684E+02 -0.94440816002E+02  0.99461485562E+02  0.13903449511E+03  0.00000000000E+00 0.  1.
         11    1    1    2    0    0 -0.51302507795E+01  0.42012234807E+02  0.31799781923E+02  0.52939337707E+02  0.00000000000E+00 0.  1.
        -15    1    3    3    0    0  0.12816905341E+01 -0.19872174465E+02 -0.79801764620E+02  0.82268009663E+02  0.17770000000E+01 0. -1.
         15    1    3    3    0    0 -0.18931606438E+02  0.72300755660E+02 -0.51459502866E+02  0.90758157516E+02  0.17770000000E+01 0.  1.
</event>
<event>
 7    1  0.3165060E-007  0.1844514E+03  0.7546771E-02  0.1066912E+00
        -11   -1    0    0    0    0  0.00000000000E+00  0.00000000000E+00  0.18250000000E+03  0.18250000000E+03  0.00000000000E+00 0. -1.
         11   -1    0    0    0    0 -0.00000000000E+00 -0.00000000000E+00 -0.18250000000E+03  0.18250000000E+03  0.00000000000E+00 0.  1.
         23    2    1    2    0    0  0.46462140003E+02 -0.20448915562E+02 -0.15687681995E+03  0.18754316094E+03  0.89360013295E+02 0.  0.
        -11    1    1    2    0    0 -0.31567238473E+02  0.30850968053E+02  0.15251397774E+03  0.15877275012E+03  0.00000000000E+00 0. -1.
         11    1    1    2    0    0 -0.14894901530E+02 -0.10402052491E+02  0.43628422060E+01  0.18684088945E+02  0.00000000000E+00 0.  1.
        -15    1    3    3    0    0  0.70186433402E+02 -0.30932329921E+02 -0.11451181915E+03  0.13783707383E+03  0.17770000000E+01 0.  1.
         15    1    3    3    0    0 -0.23724293399E+02  0.10483414359E+02 -0.42365000791E+02  0.49706087101E+02  0.17770000000E+01 0. -1.
</event>
<event>
 7    1  0.3165060E-007  0.2112800E+03  0.7546771E-02  0.1047606E+00
        -11   -1    0    0    0    0  0.00000000000E+00  0.00000000000E+00  0.18250000000E+03  0.18250000000E+03  0.00000000000E+00 0. -1.
         11   -1    0    0    0    0 -0.00000000000E+00 -0.00000000000E+00 -0.18250000000E+03  0.18250000000E+03  0.00000000000E+00 0. -1.
         23    2    1    2    0    0  0.19599964148E+02  0.18937479414E+02 -0.97031315404E+01  0.81521597653E+02  0.76215703113E+02 0.  0.
        -11    1    1    2    0    0 -0.47656766462E+02 -0.95381156227E+02  0.11072992874E+03  0.15372003601E+03  0.00000000000E+00 0. -1.
         11    1    1    2    0    0  0.28056802313E+02  0.76443676813E+02 -0.10102679720E+03  0.12975836633E+03  0.00000000000E+00 0. -1.
        -15    1    3    3    0    0 -0.26126269960E+02 -0.72084602291E+01  0.29503243480E+01  0.27320432347E+02  0.17770000000E+01 0.  1.
         15    1    3    3    0    0  0.45726234108E+02  0.26145939643E+02 -0.12653455888E+02  0.54201165306E+02  0.17770000000E+01 0. -1.
</event>
<event>
 7    1  0.3165060E-007  0.1799553E+03  0.7546771E-02  0.1070499E+00
        -11   -1    0    0    0    0  0.00000000000E+00  0.00000000000E+00  0.18250000000E+03  0.18250000000E+03  0.00000000000E+00 0.  1.
         11   -1    0    0    0    0 -0.00000000000E+00 -0.00000000000E+00 -0.18250000000E+03  0.18250000000E+03  0.00000000000E+00 0. -1.
         23    2    1    2    0    0  0.42677891283E+01 -0.43581427365E+02 -0.15584491418E+03  0.18447281718E+03  0.88459189272E+02 0.  0.
        -11    1    1    2    0    0  0.99646329108E+01  0.60863618873E+02  0.14034099225E+03  0.15329471001E+03  0.00000000000E+00 0.  1.
         11    1    1    2    0    0 -0.14232422039E+02 -0.17282191508E+02  0.15503921923E+02  0.27232472811E+02  0.00000000000E+00 0. -1.
        -15    1    3    3    0    0  0.19395566725E+02  0.11265582293E+01  0.20953520505E+01  0.19621553741E+02  0.17770000000E+01 0.  1.
         15    1    3    3    0    0 -0.15127777596E+02 -0.44707985594E+02 -0.15794026623E+03  0.16485126343E+03  0.17770000000E+01 0. -1.
</event>
<event>
 7    1  0.3165060E-007  0.2080424E+03  0.7546771E-02  0.1049765E+00
        -11   -1    0    0    0    0  0.00000000000E+00  0.00000000000E+00  0.18250000000E+03  0.18250000000E+03  0.00000000000E+00 0. -1.
         11   -1    0    0    0    0 -0.00000000000E+00 -0.00000000000E+00 -0.18250000000E+03  0.18250000000E+03  0.00000000000E+00 0. -1.
         23    2    1    2    0    0  0.50962214878E+02  0.28582162689E+02  0.24348135380E+02  0.11006073042E+03  0.90035800180E+02 0.  0.
        -11    1    1    2    0    0 -0.14713883881E+03 -0.35059028731E+02 -0.41912998150E+02  0.15695755094E+03  0.00000000000E+00 0. -1.
         11    1    1    2    0    0  0.96176623933E+02  0.64768660424E+01  0.17564862770E+02  0.97981718646E+02  0.00000000000E+00 0. -1.
        -15    1    3    3    0    0 -0.16669746500E+02 -0.15687310155E+02  0.17597491562E+02  0.28927522994E+02  0.17770000000E+01 0.  1.
         15    1    3    3    0    0  0.67631961379E+02  0.44269472844E+02  0.67506438178E+01  0.81133207423E+02  0.17770000000E+01 0. -1.
</event>
<event>
 7    1  0.3165060E-007  0.1469938E+03  0.7546771E-02  0.1100858E+00
        -11   -1    0    0    0    0  0.00000000000E+00  0.00000000000E+00  0.18250000000E+03  0.18250000000E+03  0.00000000000E+00 0.  1.
         11   -1    0    0    0    0 -0.00000000000E+00 -0.00000000000E+00 -0.18250000000E+03  0.18250000000E+03  0.00000000000E+00 0. -1.
         23    2    1    2    0    0  0.12039716837E+02  0.86176678000E+01 -0.76955946983E+02  0.11785767869E+03  0.88028379913E+02 0.  0.
        -11    1    1    2    0    0  0.12118225111E+02 -0.72543931138E+01  0.16001169793E+03  0.16063381050E+03  0.00000000000E+00 0.  1.
         11    1    1    2    0    0 -0.24157941948E+02 -0.13632746862E+01 -0.83055750951E+02  0.86508510813E+02  0.00000000000E+00 0. -1.
        -15    1    3    3    0    0  0.20276409859E+02  0.53349518937E+01 -0.95198795155E+02  0.97496476021E+02  0.17770000000E+01 0.  1.
         15    1    3    3    0    0 -0.82366930219E+01  0.32827159062E+01  0.18242848172E+02  0.20361202668E+02  0.17770000000E+01 0. -1.
</event>
<event>
 7    1  0.3165060E-007  0.1662790E+03  0.7546771E-02  0.1082154E+00
        -11   -1    0    0    0    0  0.00000000000E+00  0.00000000000E+00  0.18250000000E+03  0.18250000000E+03  0.00000000000E+00 0. -1.
         11   -1    0    0    0    0 -0.00000000000E+00 -0.00000000000E+00 -0.18250000000E+03  0.18250000000E+03  0.00000000000E+00 0. -1.
         23    2    1    2    0    0 -0.10587939269E+02  0.32293206349E+02  0.13098505732E+03  0.16496082890E+03  0.94339992560E+02 0.  0.
        -11    1    1    2    0    0  0.58276552994E+02 -0.18745540182E+01 -0.13109307236E+03  0.14347496019E+03  0.00000000000E+00 0. -1.
         11    1    1    2    0    0 -0.47688613725E+02 -0.30418652331E+02  0.10801503578E+00  0.56564210911E+02  0.00000000000E+00 0. -1.
        -15    1    3    3    0    0  0.76191538791E+01  0.63093506096E+02  0.93905560971E+02  0.11340306049E+03  0.17770000000E+01 0. -1.
         15    1    3    3    0    0 -0.18207093148E+02 -0.30800299747E+02  0.37079496348E+02  0.51557768414E+02  0.17770000000E+01 0.  1.
</event>
<event>
 7    1  0.3165060E-007  0.2150909E+03  0.7546771E-02  0.1045117E+00
        -11   -1    0    0    0    0  0.00000000000E+00  0.00000000000E+00  0.18250000000E+03  0.18250000000E+03  0.00000000000E+00 0.  1.
         11   -1    0    0    0    0 -0.00000000000E+00 -0.00000000000E+00 -0.18250000000E+03  0.18250000000E+03  0.00000000000E+00 0. -1.
         23    2    1    2    0    0  0.34325192114E+02  0.17311736300E+02  0.12870509636E+02  0.10069083461E+03  0.92168753543E+02 0.  0.
        -11    1    1    2    0    0  0.71805340321E+02  0.16107049203E+02  0.87589577518E+02  0.11440007877E+03  0.00000000000E+00 0.  1.
         11    1    1    2    0    0 -0.10613053243E+03 -0.33418785503E+02 -0.10046008715E+03  0.14990908662E+03  0.00000000000E+00 0. -1.
        -15    1    3    3    0    0 -0.17119729967E+02  0.78047373053E+01  0.38139314586E+02  0.42564822620E+02  0.17770000000E+01 0.  1.
         15    1    3    3    0    0  0.51444922080E+02  0.95069989949E+01 -0.25268804950E+02  0.58126011994E+02  0.17770000000E+01 0. -1.
</event>
<event>
 7    1  0.3165060E-007  0.1310557E+03  0.7546771E-02  0.1118876E+00
        -11   -1    0    0    0    0  0.00000000000E+00  0.00000000000E+00  0.18250000000E+03  0.18250000000E+03  0.00000000000E+00 0.  1.
         11   -1    0    0    0    0 -0.00000000000E+00 -0.00000000000E+00 -0.18250000000E+03  0.18250000000E+03  0.00000000000E+00 0. -1.
         23    2    1    2    0    0  0.71603287442E+01  0.36933336905E+02  0.15548822332E+02  0.99746447548E+02  0.91061771561E+02 0.  0.
        -11    1    1    2    0    0 -0.70383878093E+02 -0.39377105747E+02  0.10303521446E+03  0.13084610109E+03  0.00000000000E+00 0.  1.
         11    1    1    2    0    0  0.63223549349E+02  0.24437688419E+01 -0.11858403679E+03  0.13440745136E+03  0.00000000000E+00 0. -1.
        -15    1    3    3    0    0  0.14247510024E+02 -0.82299010124E+01  0.43219038910E+02  0.46279216349E+02  0.17770000000E+01 0.  1.
         15    1    3    3    0    0 -0.70871812794E+01  0.45163237918E+02 -0.27670216578E+02  0.53467231200E+02  0.17770000000E+01 0. -1.
</event>
<event>
 7    1  0.3165060E-007  0.1894961E+03  0.7546771E-02  0.1063018E+00
        -11   -1    0    0    0    0  0.00000000000E+00  0.00000000000E+00  0.18250000000E+03  0.18250000000E+03  0.00000000000E+00 0.  1.
         11   -1    0    0    0    0 -0.00000000000E+00 -0.00000000000E+00 -0.18250000000E+03  0.18250000000E+03  0.00000000000E+00 0.  1.
         23    2    1    2    0    0  0.33548351779E+02 -0.81402897745E+01 -0.16332612462E+03  0.18949614822E+03  0.89675029874E+02 0.  0.
        -11    1    1    2    0    0 -0.32039589391E+02 -0.88789668845E+01  0.15052864595E+03  0.15415655871E+03  0.00000000000E+00 0.  1.
         11    1    1    2    0    0 -0.15087623877E+01  0.17019256659E+02  0.12797478664E+02  0.21347293068E+02  0.00000000000E+00 0.  1.
        -15    1    3    3    0    0  0.23401381255E+02  0.30253663404E+02 -0.13592590860E+03  0.14121586013E+03  0.17770000000E+01 0.  1.
         15    1    3    3    0    0  0.10146970524E+02 -0.38393953179E+02 -0.27400216020E+02  0.48280288094E+02  0.17770000000E+01 0. -1.
</event>
<event>
 7    1  0.3165060E-007  0.1774612E+03  0.7546771E-02  0.1072538E+00
        -11   -1    0    0    0    0  0.00000000000E+00  0.00000000000E+00  0.18250000000E+03  0.18250000000E+03  0.00000000000E+00 0.  1.
         11   -1    0    0    0    0 -0.00000000000E+00 -0.00000000000E+00 -0.18250000000E+03  0.18250000000E+03  0.00000000000E+00 0.  1.
         23    2    1    2    0    0 -0.52612451652E+02 -0.82215207804E+00 -0.12558071842E+03  0.16561930054E+03  0.94289394259E+02 0.  0.
        -11    1    1    2    0    0  0.84189798990E+02  0.52527944806E+01  0.14073293135E+03  0.16407703090E+03  0.00000000000E+00 0.  1.
         11    1    1    2    0    0 -0.31577347338E+02 -0.44306424025E+01 -0.15152212924E+02  0.35303668556E+02  0.00000000000E+00 0.  1.
        -15    1    3    3    0    0 -0.46811118149E+01  0.34511836380E+02 -0.89298694511E+02  0.95866543844E+02  0.17770000000E+01 0.  1.
         15    1    3    3    0    0 -0.47931339837E+02 -0.35333988459E+02 -0.36282023912E+02  0.69752756699E+02  0.17770000000E+01 0. -1.
</event>
<event>
 7    1  0.3165060E-007  0.1325382E+03  0.7546771E-02  0.1117083E+00
        -11   -1    0    0    0    0  0.00000000000E+00  0.00000000000E+00  0.18250000000E+03  0.18250000000E+03  0.00000000000E+00 0. -1.
         11   -1    0    0    0    0 -0.00000000000E+00 -0.00000000000E+00 -0.18250000000E+03  0.18250000000E+03  0.00000000000E+00 0. -1.
         23    2    1    2    0    0 -0.81826281857E+02 -0.39014814333E+02 -0.62322145734E+02  0.14267868847E+03  0.90859573827E+02 0.  0.
        -11    1    1    2    0    0  0.10621151767E+03 -0.15318072608E+02 -0.30926207787E+02  0.11167793051E+03  0.00000000000E+00 0. -1.
         11    1    1    2    0    0 -0.24385235813E+02  0.54332886941E+02  0.93248353521E+02  0.11064338102E+03  0.00000000000E+00 0. -1.
        -15    1    3    3    0    0  0.97945307841E+01 -0.16183196711E+02  0.12025532710E+02  0.22485547692E+02  0.17770000000E+01 0.  1.
         15    1    3    3    0    0 -0.91620812641E+02 -0.22831617622E+02 -0.74347678443E+02  0.12019314078E+03  0.17770000000E+01 0. -1.
</event>
<event>
 7    1  0.3165060E-007  0.1906893E+03  0.7546771E-02  0.1062117E+00
        -11   -1    0    0    0    0  0.00000000000E+00  0.00000000000E+00  0.18250000000E+03  0.18250000000E+03  0.00000000000E+00 0. -1.
         11   -1    0    0    0    0 -0.00000000000E+00 -0.00000000000E+00 -0.18250000000E+03  0.18250000000E+03  0.00000000000E+00 0.  1.
         23    2    1    2    0    0 -0.44343060581E+02 -0.31083256600E+02 -0.16155236457E+03  0.19068931831E+03  0.85619937844E+02 0.  0.
        -11    1    1    2    0    0  0.30367775839E+02  0.28172091953E+02  0.15094574081E+03  0.15652630847E+03  0.00000000000E+00 0. -1.
         11    1    1    2    0    0  0.13975284742E+02  0.29111646472E+01  0.10606623762E+02  0.17784373221E+02  0.00000000000E+00 0.  1.
        -15    1    3    3    0    0  0.24709741282E+02  0.15276304021E+01 -0.43355478308E+02  0.49957583980E+02  0.17770000000E+01 0. -1.
         15    1    3    3    0    0 -0.69052801862E+02 -0.32610887002E+02 -0.11819688626E+03  0.14073173433E+03  0.17770000000E+01 0.  1.
</event>
<event>
 7    1  0.3165060E-007  0.1582856E+03  0.7546771E-02  0.1089551E+00
        -11   -1    0    0    0    0  0.00000000000E+00  0.00000000000E+00  0.18250000000E+03  0.18250000000E+03  0.00000000000E+00 0.  1.
         11   -1    0    0    0    0 -0.00000000000E+00 -0.00000000000E+00 -0.18250000000E+03  0.18250000000E+03  0.00000000000E+00 0. -1.
         23    2    1    2    0    0 -0.12553790804E+03  0.18712846054E+02 -0.19832281658E+02  0.15705756464E+03  0.90353872367E+02 0.  0.
        -11    1    1    2    0    0  0.11479060432E+03  0.18268551730E+02  0.76700684995E+02  0.13926097049E+03  0.00000000000E+00 0.  1.
         11    1    1    2    0    0  0.10747303717E+02 -0.36981397785E+02 -0.56868403337E+02  0.68681464875E+02  0.00000000000E+00 0. -1.
        -15    1    3    3    0    0 -0.90069971680E+02  0.26310416529E+02 -0.53079314550E+02  0.10782119077E+03  0.17770000000E+01 0. -1.
         15    1    3    3    0    0 -0.35467936358E+02 -0.75975704745E+01  0.33247032892E+02  0.49236373869E+02  0.17770000000E+01 0.  1.
</event>
<event>
 7    1  0.3165060E-007  0.1262644E+03  0.7546771E-02  0.1124853E+00
        -11   -1    0    0    0    0  0.00000000000E+00  0.00000000000E+00  0.18250000000E+03  0.18250000000E+03  0.00000000000E+00 0. -1.
         11   -1    0    0    0    0 -0.00000000000E+00 -0.00000000000E+00 -0.18250000000E+03  0.18250000000E+03  0.00000000000E+00 0. -1.
         23    2    1    2    0    0  0.54618497649E+02  0.13625818488E+02 -0.24295839989E+02  0.10513478086E+03  0.85406036618E+02 0.  0.
        -11    1    1    2    0    0 -0.40569361305E+01 -0.83210506791E+01  0.13643047440E+03  0.13674418804E+03  0.00000000000E+00 0. -1.
         11    1    1    2    0    0 -0.50561561518E+02 -0.53047678087E+01 -0.11213463442E+03  0.12312103110E+03  0.00000000000E+00 0. -1.
        -15    1    3    3    0    0  0.54361908763E+02  0.40187801219E+02  0.20795542067E+01  0.67659136603E+02  0.17770000000E+01 0.  1.
         15    1    3    3    0    0  0.25658888586E+00 -0.26561982731E+02 -0.26375394195E+02  0.37475644257E+02  0.17770000000E+01 0. -1.
</event>
<event>
 7    1  0.3165060E-007  0.1641241E+03  0.7546771E-02  0.1084102E+00
        -11   -1    0    0    0    0  0.00000000000E+00  0.00000000000E+00  0.18250000000E+03  0.18250000000E+03  0.00000000000E+00 0. -1.
         11   -1    0    0    0    0 -0.00000000000E+00 -0.00000000000E+00 -0.18250000000E+03  0.18250000000E+03  0.00000000000E+00 0.  1.
         23    2    1    2    0    0  0.31080348616E+02 -0.18124001010E+02 -0.10739238622E+03  0.14549157566E+03  0.91324730977E+02 0.  0.
        -11    1    1    2    0    0 -0.48094023380E+02 -0.15481208994E+02  0.15255272104E+03  0.16070169760E+03  0.00000000000E+00 0. -1.
         11    1    1    2    0    0  0.17013674764E+02  0.33605210005E+02 -0.45160334815E+02  0.58806726733E+02  0.00000000000E+00 0.  1.
        -15    1    3    3    0    0  0.56838523250E+01  0.14473338408E+02 -0.10267676906E+03  0.10386269945E+03  0.17770000000E+01 0.  1.
         15    1    3    3    0    0  0.25396496291E+02 -0.32597339418E+02 -0.47156171590E+01  0.41628876218E+02  0.17770000000E+01 0. -1.
</event>
<event>
 7    1  0.3165060E-007  0.1470208E+03  0.7546771E-02  0.1100830E+00
        -11   -1    0    0    0    0  0.00000000000E+00  0.00000000000E+00  0.18250000000E+03  0.18250000000E+03  0.00000000000E+00 0.  1.
         11   -1    0    0    0    0 -0.00000000000E+00 -0.00000000000E+00 -0.18250000000E+03  0.18250000000E+03  0.00000000000E+00 0. -1.
         23    2    1    2    0    0  0.50576445477E+02  0.24099775941E+02 -0.82548242610E+02  0.13384523857E+03  0.89227571376E+02 0.  0.
        -11    1    1    2    0    0 -0.40039549546E+02 -0.11057860570E+03  0.83156898394E+02  0.14403424356E+03  0.00000000000E+00 0.  1.
         11    1    1    2    0    0 -0.10536895931E+02  0.86478829758E+02 -0.60865578360E+00  0.87120517870E+02  0.00000000000E+00 0. -1.
        -15    1    3    3    0    0  0.31009479541E+02  0.37642122779E+02 -0.95094053882E+02  0.10688570551E+03  0.17770000000E+01 0. -1.
         15    1    3    3    0    0  0.19566965936E+02 -0.13542346838E+02  0.12545811272E+02  0.26959533069E+02  0.17770000000E+01 0.  1.
</event>
<event>
 7    1  0.3165060E-007  0.1509987E+03  0.7546771E-02  0.1096724E+00
        -11   -1    0    0    0    0  0.00000000000E+00  0.00000000000E+00  0.18250000000E+03  0.18250000000E+03  0.00000000000E+00 0. -1.
         11   -1    0    0    0    0 -0.00000000000E+00 -0.00000000000E+00 -0.18250000000E+03  0.18250000000E+03  0.00000000000E+00 0.  1.
         23    2    1    2    0    0  0.14977248074E+02  0.55947182207E+02 -0.62618814454E+02  0.12596440086E+03  0.92690394348E+02 0.  0.
        -11    1    1    2    0    0 -0.58839562729E+02 -0.12491176834E+03  0.73769539079E+02  0.15654708208E+03  0.00000000000E+00 0. -1.
         11    1    1    2    0    0  0.43862314655E+02  0.68964586130E+02 -0.11150724624E+02  0.82488517059E+02  0.00000000000E+00 0.  1.
        -15    1    3    3    0    0 -0.78282266051E+01  0.52576142670E+02 -0.80674226458E+02  0.96628259083E+02  0.17770000000E+01 0. -1.
         15    1    3    3    0    0  0.22805474679E+02  0.33710395376E+01  0.18055412004E+02  0.29336141780E+02  0.17770000000E+01 0.  1.
</event>
<event>
 7    1  0.3165060E-007  0.1698659E+03  0.7546771E-02  0.1078981E+00
        -11   -1    0    0    0    0  0.00000000000E+00  0.00000000000E+00  0.18250000000E+03  0.18250000000E+03  0.00000000000E+00 0.  1.
         11   -1    0    0    0    0 -0.00000000000E+00 -0.00000000000E+00 -0.18250000000E+03  0.18250000000E+03  0.00000000000E+00 0.  1.
         23    2    1    2    0    0 -0.74011290865E+02 -0.60484049241E+02 -0.94601868091E+02  0.16049757614E+03  0.87601182144E+02 0.  0.
        -11    1    1    2    0    0  0.51219668881E+02  0.94352231439E+02  0.11629554756E+03  0.15827334722E+03  0.00000000000E+00 0.  1.
         11    1    1    2    0    0  0.22791621984E+02 -0.33868182198E+02 -0.21693679467E+02  0.46229076639E+02  0.00000000000E+00 0.  1.
        -15    1    3    3    0    0  0.11525799851E+02 -0.31599968147E+02 -0.48665515360E+02  0.59185236025E+02  0.17770000000E+01 0. -1.
         15    1    3    3    0    0 -0.85537090716E+02 -0.28884081095E+02 -0.45936352731E+02  0.10131234012E+03  0.17770000000E+01 0.  1.
</event>
<event>
 7    1  0.3165060E-007  0.1478006E+03  0.7546771E-02  0.1100014E+00
        -11   -1    0    0    0    0  0.00000000000E+00  0.00000000000E+00  0.18250000000E+03  0.18250000000E+03  0.00000000000E+00 0.  1.
         11   -1    0    0    0    0 -0.00000000000E+00 -0.00000000000E+00 -0.18250000000E+03  0.18250000000E+03  0.00000000000E+00 0.  1.
         23    2    1    2    0    0 -0.41462114684E+02  0.61365659707E+02  0.12208541349E+02  0.11900598626E+03  0.92350014279E+02 0.  0.
        -11    1    1    2    0    0 -0.65445949386E+02  0.44207037344E+02  0.37911447395E+02  0.87605435250E+02  0.00000000000E+00 0.  1.
         11    1    1    2    0    0  0.10690806407E+03 -0.10557269705E+03 -0.50119988745E+02  0.15838857849E+03  0.00000000000E+00 0.  1.
        -15    1    3    3    0    0 -0.30698331233E+02 -0.82874520711E+01  0.32640277539E+02  0.45602794313E+02  0.17770000000E+01 0. -1.
         15    1    3    3    0    0 -0.10763783451E+02  0.69653111778E+02 -0.20431736190E+02  0.73403191942E+02  0.17770000000E+01 0.  1.
</event>
<event>
 7    1  0.3165060E-007  0.1654065E+03  0.7546771E-02  0.1082939E+00
        -11   -1    0    0    0    0  0.00000000000E+00  0.00000000000E+00  0.18250000000E+03  0.18250000000E+03  0.00000000000E+00 0. -1.
         11   -1    0    0    0    0 -0.00000000000E+00 -0.00000000000E+00 -0.18250000000E+03  0.18250000000E+03  0.00000000000E+00 0.  1.
         23    2    1    2    0    0  0.79696581767E+01 -0.14272398007E+02 -0.12165130211E+03  0.15332969022E+03  0.91889813366E+02 0.  0.
        -11    1    1    2    0    0 -0.39404912626E+02 -0.25227712956E+02  0.14765049319E+03  0.15488658038E+03  0.00000000000E+00 0. -1.
         11    1    1    2    0    0  0.31435254449E+02  0.39500110963E+02 -0.25999191082E+02  0.56783729406E+02  0.00000000000E+00 0.  1.
        -15    1    3    3    0    0  0.28641714897E+02 -0.43985680600E+02 -0.94254822681E+02  0.10789910684E+03  0.17770000000E+01 0.  1.
         15    1    3    3    0    0 -0.20672056721E+02  0.29713282593E+02 -0.27396479431E+02  0.45430583374E+02  0.17770000000E+01 0. -1.
</event>
<event>
 7    1  0.3165060E-007  0.1909797E+03  0.7546771E-02  0.1061898E+00
        -11   -1    0    0    0    0  0.00000000000E+00  0.00000000000E+00  0.18250000000E+03  0.18250000000E+03  0.00000000000E+00 0.  1.
         11   -1    0    0    0    0 -0.00000000000E+00 -0.00000000000E+00 -0.18250000000E+03  0.18250000000E+03  0.00000000000E+00 0. -1.
         23    2    1    2    0    0 -0.18120750034E+02 -0.46289176950E+02 -0.16212299283E+03  0.19097968139E+03  0.87853994875E+02 0.  0.
        -11    1    1    2    0    0  0.17141652411E+02  0.53004410373E+02  0.13458748299E+03  0.14566088818E+03  0.00000000000E+00 0.  1.
         11    1    1    2    0    0  0.97909762278E+00 -0.67152334230E+01  0.27535509839E+02  0.28359430428E+02  0.00000000000E+00 0. -1.
        -15    1    3    3    0    0 -0.44880846624E+02 -0.73128500731E+01 -0.11725306115E+03  0.12577442605E+03  0.17770000000E+01 0. -1.
         15    1    3    3    0    0  0.26760096591E+02 -0.38976326877E+02 -0.44869931685E+02  0.65205255346E+02  0.17770000000E+01 0.  1.
</event>
<event>
 7    1  0.3165060E-007  0.1671443E+03  0.7546771E-02  0.1081381E+00
        -11   -1    0    0    0    0  0.00000000000E+00  0.00000000000E+00  0.18250000000E+03  0.18250000000E+03  0.00000000000E+00 0. -1.
         11   -1    0    0    0    0 -0.00000000000E+00 -0.00000000000E+00 -0.18250000000E+03  0.18250000000E+03  0.00000000000E+00 0.  1.
         23    2    1    2    0    0  0.48200510145E+02  0.43577856546E+02 -0.11142628013E+03  0.15775320007E+03  0.90818156049E+02 0.  0.
        -11    1    1    2    0    0 -0.85838334732E+01 -0.64122795522E+02  0.14002122384E+03  0.15424447552E+03  0.00000000000E+00 0. -1.
         11    1    1    2    0    0 -0.39616676672E+02  0.20544938976E+02 -0.28594943703E+02  0.53002324415E+02  0.00000000000E+00 0.  1.
        -15    1    3    3    0    0 -0.62971787158E+01 -0.14808061027E+02 -0.61391017642E+02  0.63489746474E+02  0.17770000000E+01 0.  1.
         15    1    3    3    0    0  0.54497688861E+02  0.58385917573E+02 -0.50035262491E+02  0.94263453595E+02  0.17770000000E+01 0. -1.
</event>
<event>
 7    1  0.3165060E-007  0.1414312E+03  0.7546771E-02  0.1106848E+00
        -11   -1    0    0    0    0  0.00000000000E+00  0.00000000000E+00  0.18250000000E+03  0.18250000000E+03  0.00000000000E+00 0.  1.
         11   -1    0    0    0    0 -0.00000000000E+00 -0.00000000000E+00 -0.18250000000E+03  0.18250000000E+03  0.00000000000E+00 0. -1.
         23    2    1    2    0    0 -0.79657165291E+02  0.26721585094E+02  0.81958193027E+01  0.12487899180E+03  0.92023279923E+02 0.  0.
        -11    1    1    2    0    0  0.93831542326E+02 -0.77439125059E+02  0.74076906949E+02  0.14243793234E+03  0.00000000000E+00 0.  1.
         11    1    1    2    0    0 -0.14174377035E+02  0.50717539965E+02 -0.82272726252E+02  0.97683075859E+02  0.00000000000E+00 0. -1.
        -15    1    3    3    0    0  0.17275507085E+02  0.93659570214E+01  0.16934460819E+02  0.26001884320E+02  0.17770000000E+01 0.  1.
         15    1    3    3    0    0 -0.96932672376E+02  0.17355628073E+02 -0.87386415164E+01  0.98877107484E+02  0.17770000000E+01 0. -1.
</event>
<event>
 7    1  0.3165060E-007  0.1420576E+03  0.7546771E-02  0.1106159E+00
        -11   -1    0    0    0    0  0.00000000000E+00  0.00000000000E+00  0.18250000000E+03  0.18250000000E+03  0.00000000000E+00 0.  1.
         11   -1    0    0    0    0 -0.00000000000E+00 -0.00000000000E+00 -0.18250000000E+03  0.18250000000E+03  0.00000000000E+00 0. -1.
         23    2    1    2    0    0 -0.11798660451E+03  0.44330885133E+02 -0.88647751463E+01  0.15560528987E+03  0.90820459023E+02 0.  0.
        -11    1    1    2    0    0  0.69010931786E+02 -0.19940304501E+02  0.87743660318E+02  0.11339785878E+03  0.00000000000E+00 0.  1.
         11    1    1    2    0    0  0.48975672728E+02 -0.24390580633E+02 -0.78878885171E+02  0.95996851348E+02  0.00000000000E+00 0. -1.
        -15    1    3    3    0    0 -0.48414882255E+02  0.62796496895E+02 -0.22237443624E+02  0.82371490662E+02  0.17770000000E+01 0.  1.
         15    1    3    3    0    0 -0.69571722259E+02 -0.18465611761E+02  0.13372668478E+02  0.73233799212E+02  0.17770000000E+01 0. -1.
</event>
<event>
 7    1  0.3165060E-007  0.1595357E+03  0.7546771E-02  0.1088363E+00
        -11   -1    0    0    0    0  0.00000000000E+00  0.00000000000E+00  0.18250000000E+03  0.18250000000E+03  0.00000000000E+00 0. -1.
         11   -1    0    0    0    0 -0.00000000000E+00 -0.00000000000E+00 -0.18250000000E+03  0.18250000000E+03  0.00000000000E+00 0. -1.
         23    2    1    2    0    0  0.15822955608E+02 -0.76595002799E+02 -0.88796559691E+02  0.14714497166E+03  0.87462296422E+02 0.  0.
        -11    1    1    2    0    0 -0.75773166685E+02  0.10136018549E+03  0.85850637414E+02  0.15292413785E+03  0.00000000000E+00 0. -1.
         11    1    1    2    0    0  0.59950211076E+02 -0.24765182688E+02  0.29459222767E+01  0.64930890489E+02  0.00000000000E+00 0. -1.
        -15    1    3    3    0    0  0.16758802405E+02 -0.92782779766E+02 -0.90553604553E+02  0.13073872688E+03  0.17770000000E+01 0. -1.
         15    1    3    3    0    0 -0.93584679631E+00  0.16187776967E+02  0.17570448626E+01  0.16406244787E+02  0.17770000000E+01 0.  1.
</event>
<event>
 7    1  0.3165060E-007  0.1919965E+03  0.7546771E-02  0.1061137E+00
        -11   -1    0    0    0    0  0.00000000000E+00  0.00000000000E+00  0.18250000000E+03  0.18250000000E+03  0.00000000000E+00 0.  1.
         11   -1    0    0    0    0 -0.00000000000E+00 -0.00000000000E+00 -0.18250000000E+03  0.18250000000E+03  0.00000000000E+00 0.  1.
         23    2    1    2    0    0 -0.11917195376E+02  0.43521365522E+01 -0.16867731107E+03  0.19199652428E+03  0.90827690861E+02 0.  0.
        -11    1    1    2    0    0  0.24589289915E+02 -0.20182417221E+01  0.12720700760E+03  0.12957750291E+03  0.00000000000E+00 0.  1.
         11    1    1    2    0    0 -0.12672094538E+02 -0.23338948301E+01  0.41470303469E+02  0.43425972814E+02  0.00000000000E+00 0.  1.
        -15    1    3    3    0    0  0.71955983721E+01  0.27023321657E+02 -0.15794495866E+03  0.16041135947E+03  0.17770000000E+01 0.  1.
         15    1    3    3    0    0 -0.19112793748E+02 -0.22671185105E+02 -0.10732352402E+02  0.31585164809E+02  0.17770000000E+01 0. -1.
</event>
<event>
 7    1  0.3165060E-007  0.1912623E+03  0.7546771E-02  0.1061686E+00
        -11   -1    0    0    0    0  0.00000000000E+00  0.00000000000E+00  0.18250000000E+03  0.18250000000E+03  0.00000000000E+00 0.  1.
         11   -1    0    0    0    0 -0.00000000000E+00 -0.00000000000E+00 -0.18250000000E+03  0.18250000000E+03  0.00000000000E+00 0.  1.
         23    2    1    2    0    0 -0.28332543862E+01 -0.14774364052E+01 -0.16910717026E+03  0.19126233288E+03  0.89296331379E+02 0.  0.
        -11    1    1    2    0    0 -0.14632477335E+02  0.11221163858E+02  0.10420267709E+03  0.10582165102E+03  0.00000000000E+00 0.  1.
         11    1    1    2    0    0  0.17465731721E+02 -0.97437274526E+01  0.64904493165E+02  0.67916016095E+02  0.00000000000E+00 0.  1.
        -15    1    3    3    0    0 -0.18082157631E+02 -0.80221937093E+01 -0.17299099867E+03  0.17412743427E+03  0.17770000000E+01 0.  1.
         15    1    3    3    0    0  0.15248903244E+02  0.65447573041E+01  0.38838284086E+01  0.17134898612E+02  0.17770000000E+01 0. -1.
</event>
<event>
 7    1  0.3165060E-007  0.1685317E+03  0.7546771E-02  0.1080151E+00
        -11   -1    0    0    0    0  0.00000000000E+00  0.00000000000E+00  0.18250000000E+03  0.18250000000E+03  0.00000000000E+00 0. -1.
         11   -1    0    0    0    0 -0.00000000000E+00 -0.00000000000E+00 -0.18250000000E+03  0.18250000000E+03  0.00000000000E+00 0. -1.
         23    2    1    2    0    0  0.10181067652E+03 -0.20804753494E+02 -0.94213635604E+02  0.16680326570E+03  0.90271084480E+02 0.  0.
        -11    1    1    2    0    0 -0.90743390733E+02 -0.23649374367E+02  0.11458076338E+03  0.14806217345E+03  0.00000000000E+00 0. -1.
         11    1    1    2    0    0 -0.11067285784E+02  0.44454127861E+02 -0.20367127772E+02  0.50134560856E+02  0.00000000000E+00 0. -1.
        -15    1    3    3    0    0 -0.71231953668E+01 -0.78033575404E+01  0.10594914938E+02  0.15067921312E+02  0.17770000000E+01 0.  1.
         15    1    3    3    0    0  0.10893387188E+03 -0.13001395953E+02 -0.10480855054E+03  0.15173534439E+03  0.17770000000E+01 0. -1.
</event>
<event>
 7    1  0.3165060E-007  0.1208845E+03  0.7546771E-02  0.1131924E+00
        -11   -1    0    0    0    0  0.00000000000E+00  0.00000000000E+00  0.18250000000E+03  0.18250000000E+03  0.00000000000E+00 0. -1.
         11   -1    0    0    0    0 -0.00000000000E+00 -0.00000000000E+00 -0.18250000000E+03  0.18250000000E+03  0.00000000000E+00 0. -1.
         23    2    1    2    0    0 -0.64628340397E+02  0.67351654784E+02 -0.33591394658E+02  0.12311055082E+03  0.72902387776E+02 0.  0.
        -11    1    1    2    0    0 -0.10914464503E+02 -0.35792297818E+02  0.11830384422E+03  0.12408067406E+03  0.00000000000E+00 0. -1.
         11    1    1    2    0    0  0.75542804900E+02 -0.31559356966E+02 -0.84712449561E+02  0.11780877512E+03  0.00000000000E+00 0. -1.
        -15    1    3    3    0    0  0.56026189685E+01  0.30643154625E+02  0.98521874042E+01  0.32720262687E+02  0.17770000000E+01 0.  1.
         15    1    3    3    0    0 -0.70230959365E+02  0.36708500159E+02 -0.43443582062E+02  0.90390288133E+02  0.17770000000E+01 0. -1.
</event>
<event>
 7    1  0.3165060E-007  0.1674686E+03  0.7546771E-02  0.1081092E+00
        -11   -1    0    0    0    0  0.00000000000E+00  0.00000000000E+00  0.18250000000E+03  0.18250000000E+03  0.00000000000E+00 0.  1.
         11   -1    0    0    0    0 -0.00000000000E+00 -0.00000000000E+00 -0.18250000000E+03  0.18250000000E+03  0.00000000000E+00 0. -1.
         23    2    1    2    0    0 -0.53933510938E+01  0.48721722699E+01 -0.12037344180E+03  0.15106362551E+03  0.90981466038E+02 0.  0.
        -11    1    1    2    0    0  0.22819962388E+02 -0.40696349295E+02  0.15455502030E+03  0.16144410125E+03  0.00000000000E+00 0.  1.
         11    1    1    2    0    0 -0.17426611295E+02  0.35824177025E+02 -0.34181578506E+02  0.52492273240E+02  0.00000000000E+00 0. -1.
        -15    1    3    3    0    0  0.21175873229E+02  0.38100875458E+02 -0.36031725428E+02  0.56582128663E+02  0.17770000000E+01 0.  1.
         15    1    3    3    0    0 -0.26569224323E+02 -0.33228703188E+02 -0.84341716368E+02  0.94481496843E+02  0.17770000000E+01 0. -1.
</event>
<event>
 7    1  0.3165060E-007  0.1409093E+03  0.7546771E-02  0.1107426E+00
        -11   -1    0    0    0    0  0.00000000000E+00  0.00000000000E+00  0.18250000000E+03  0.18250000000E+03  0.00000000000E+00 0.  1.
         11   -1    0    0    0    0 -0.00000000000E+00 -0.00000000000E+00 -0.18250000000E+03  0.18250000000E+03  0.00000000000E+00 0. -1.
         23    2    1    2    0    0 -0.62293444752E+02 -0.10794430368E+03  0.10014864480E+02  0.15431908899E+03  0.90452406056E+02 0.  0.
        -11    1    1    2    0    0 -0.40460562876E+02  0.83466032765E+02  0.30360318659E+02  0.97598077455E+02  0.00000000000E+00 0.  1.
         11    1    1    2    0    0  0.10275400763E+03  0.24478270913E+02 -0.40375183139E+02  0.11308283355E+03  0.00000000000E+00 0. -1.
        -15    1    3    3    0    0  0.80296709935E+01  0.61672294866E+01  0.17240549922E+02  0.20072484311E+02  0.17770000000E+01 0.  1.
         15    1    3    3    0    0 -0.70323115746E+02 -0.11411153317E+03 -0.72256854417E+01  0.13424660468E+03  0.17770000000E+01 0. -1.
</event>
<event>
 7    1  0.3165060E-007  0.1715515E+03  0.7546771E-02  0.1077520E+00
        -11   -1    0    0    0    0  0.00000000000E+00  0.00000000000E+00  0.18250000000E+03  0.18250000000E+03  0.00000000000E+00 0.  1.
         11   -1    0    0    0    0 -0.00000000000E+00 -0.00000000000E+00 -0.18250000000E+03  0.18250000000E+03  0.00000000000E+00 0. -1.
         23    2    1    2    0    0  0.79300607665E+02  0.43714588973E+02  0.10526385949E+03  0.16589711615E+03  0.90784477561E+02 0.  0.
        -11    1    1    2    0    0 -0.29800812618E+02  0.31381037542E+01  0.33230427395E+02  0.44745920850E+02  0.00000000000E+00 0.  1.
         11    1    1    2    0    0 -0.49499795047E+02 -0.46852692727E+02 -0.13849428689E+03  0.15435696300E+03  0.00000000000E+00 0. -1.
        -15    1    3    3    0    0  0.66230303784E+02  0.68107906801E+02  0.58658047602E+02  0.11166496490E+03  0.17770000000E+01 0. -1.
         15    1    3    3    0    0  0.13070303881E+02 -0.24393317828E+02  0.46605811893E+02  0.54232151252E+02  0.17770000000E+01 0.  1.
</event>
<event>
 7    1  0.3165060E-007  0.1580245E+03  0.7546771E-02  0.1089800E+00
        -11   -1    0    0    0    0  0.00000000000E+00  0.00000000000E+00  0.18250000000E+03  0.18250000000E+03  0.00000000000E+00 0.  1.
         11   -1    0    0    0    0 -0.00000000000E+00 -0.00000000000E+00 -0.18250000000E+03  0.18250000000E+03  0.00000000000E+00 0. -1.
         23    2    1    2    0    0  0.26096198662E+02 -0.71948632408E+02 -0.82032023792E+02  0.14660148345E+03  0.94366968440E+02 0.  0.
        -11    1    1    2    0    0  0.29451266088E+02  0.68353867403E+02  0.12675685805E+03  0.14699295672E+03  0.00000000000E+00 0.  1.
         11    1    1    2    0    0 -0.55547464749E+02  0.35947650046E+01 -0.44724834255E+02  0.71405559830E+02  0.00000000000E+00 0. -1.
        -15    1    3    3    0    0  0.79361364960E+01  0.76376744976E+01  0.15693227253E+02  0.19254907032E+02  0.17770000000E+01 0.  1.
         15    1    3    3    0    0  0.18160062166E+02 -0.79586306905E+02 -0.97725251045E+02  0.12734657642E+03  0.17770000000E+01 0. -1.
</event>
<event>
 7    1  0.3165060E-007  0.1487780E+03  0.7546771E-02  0.1098999E+00
        -11   -1    0    0    0    0  0.00000000000E+00  0.00000000000E+00  0.18250000000E+03  0.18250000000E+03  0.00000000000E+00 0.  1.
         11   -1    0    0    0    0 -0.00000000000E+00 -0.00000000000E+00 -0.18250000000E+03  0.18250000000E+03  0.00000000000E+00 0. -1.
         23    2    1    2    0    0  0.68468416105E+02  0.26305047747E+02 -0.86120098476E+02  0.14582621870E+03  0.92025730961E+02 0.  0.
        -11    1    1    2    0    0 -0.18039370161E-01 -0.70321477408E+02  0.11332106331E+03  0.13336706452E+03  0.00000000000E+00 0.  1.
         11    1    1    2    0    0 -0.68450376735E+02  0.44016429661E+02 -0.27200964833E+02  0.85806716772E+02  0.00000000000E+00 0. -1.
        -15    1    3    3    0    0  0.82473335786E+02  0.14189371725E+02 -0.33753324094E+02  0.90253166161E+02  0.17770000000E+01 0. -1.
         15    1    3    3    0    0 -0.14004919681E+02  0.12115676022E+02 -0.52366774383E+02  0.55573052543E+02  0.17770000000E+01 0.  1.
</event>
<event>
 7    1  0.3165060E-007  0.1407865E+03  0.7546771E-02  0.1107562E+00
        -11   -1    0    0    0    0  0.00000000000E+00  0.00000000000E+00  0.18250000000E+03  0.18250000000E+03  0.00000000000E+00 0.  1.
         11   -1    0    0    0    0 -0.00000000000E+00 -0.00000000000E+00 -0.18250000000E+03  0.18250000000E+03  0.00000000000E+00 0.  1.
         23    2    1    2    0    0 -0.15043478540E+02 -0.14205341927E+02 -0.99735862725E+02  0.13595203506E+03  0.90042298603E+02 0.  0.
        -11    1    1    2    0    0 -0.30714889357E+02 -0.71739395964E+02  0.10582916515E+03  0.13149052269E+03  0.00000000000E+00 0.  1.
         11    1    1    2    0    0  0.45758367897E+02  0.85944737891E+02 -0.60933024224E+01  0.97557442249E+02  0.00000000000E+00 0.  1.
        -15    1    3    3    0    0  0.88447203346E+01 -0.40403749261E+02 -0.14916899555E+02  0.44004132232E+02  0.17770000000E+01 0. -1.
         15    1    3    3    0    0 -0.23888198874E+02  0.26198407334E+02 -0.84818963170E+02  0.91947902829E+02  0.17770000000E+01 0.  1.
</event>
<event>
 7    1  0.3165060E-007  0.1396181E+03  0.7546771E-02  0.1108866E+00
        -11   -1    0    0    0    0  0.00000000000E+00  0.00000000000E+00  0.18250000000E+03  0.18250000000E+03  0.00000000000E+00 0. -1.
         11   -1    0    0    0    0 -0.00000000000E+00 -0.00000000000E+00 -0.18250000000E+03  0.18250000000E+03  0.00000000000E+00 0.  1.
         23    2    1    2    0    0 -0.12092540588E+01  0.14290609453E+02 -0.71080802333E+02  0.11654645452E+03  0.91240954552E+02 0.  0.
        -11    1    1    2    0    0  0.62740013165E+02  0.39979946501E+02  0.12838181564E+03  0.14837990417E+03  0.00000000000E+00 0. -1.
         11    1    1    2    0    0 -0.61530759106E+02 -0.54270555954E+02 -0.57301013303E+02  0.10007364131E+03  0.00000000000E+00 0.  1.
        -15    1    3    3    0    0 -0.27793034604E+01  0.16830282094E+02 -0.92891118575E+02  0.94461106082E+02  0.17770000000E+01 0.  1.
         15    1    3    3    0    0  0.15700494017E+01 -0.25396726404E+01  0.21810316241E+02  0.22085348442E+02  0.17770000000E+01 0. -1.
</event>
<event>
 7    1  0.3165060E-007  0.1195811E+03  0.7546771E-02  0.1133698E+00
        -11   -1    0    0    0    0  0.00000000000E+00  0.00000000000E+00  0.18250000000E+03  0.18250000000E+03  0.00000000000E+00 0.  1.
         11   -1    0    0    0    0 -0.00000000000E+00 -0.00000000000E+00 -0.18250000000E+03  0.18250000000E+03  0.00000000000E+00 0. -1.
         23    2    1    2    0    0  0.22833207502E+02  0.49387148212E+02  0.43828262357E+02  0.11584151096E+03  0.92400721357E+02 0.  0.
        -11    1    1    2    0    0  0.64097969712E+02 -0.83662696597E+02  0.50073114868E+02  0.11668467490E+03  0.00000000000E+00 0.  1.
         11    1    1    2    0    0 -0.86931177214E+02  0.34275548385E+02 -0.93901377224E+02  0.13247381414E+03  0.00000000000E+00 0. -1.
        -15    1    3    3    0    0 -0.32111776169E+01  0.63710994147E+02  0.54791331205E+02  0.84110939486E+02  0.17770000000E+01 0.  1.
         15    1    3    3    0    0  0.26044385118E+02 -0.14323845935E+02 -0.10963068849E+02  0.31730571475E+02  0.17770000000E+01 0. -1.
</event>
<event>
 7    1  0.3165060E-007  0.1490172E+03  0.7546771E-02  0.1098752E+00
        -11   -1    0    0    0    0  0.00000000000E+00  0.00000000000E+00  0.18250000000E+03  0.18250000000E+03  0.00000000000E+00 0.  1.
         11   -1    0    0    0    0 -0.00000000000E+00 -0.00000000000E+00 -0.18250000000E+03  0.18250000000E+03  0.00000000000E+00 0. -1.
         23    2    1    2    0    0 -0.23369471901E+02 -0.12143289790E+02 -0.76848167853E+02  0.12230650043E+03  0.91431107626E+02 0.  0.
        -11    1    1    2    0    0  0.11106496384E+02  0.62613097753E+02  0.14422496217E+03  0.15762167993E+03  0.00000000000E+00 0.  1.
         11    1    1    2    0    0  0.12262975517E+02 -0.50469807962E+02 -0.67376794314E+02  0.85071819637E+02  0.00000000000E+00 0. -1.
        -15    1    3    3    0    0 -0.52058468167E+02  0.13650137100E+02 -0.30172195440E+02  0.61724626021E+02  0.17770000000E+01 0. -1.
         15    1    3    3    0    0  0.28688996265E+02 -0.25793426891E+02 -0.46675972413E+02  0.60581874411E+02  0.17770000000E+01 0.  1.
</event>
<event>
 7    1  0.3165060E-007  0.1573875E+03  0.7546771E-02  0.1090412E+00
        -11   -1    0    0    0    0  0.00000000000E+00  0.00000000000E+00  0.18250000000E+03  0.18250000000E+03  0.00000000000E+00 0. -1.
         11   -1    0    0    0    0 -0.00000000000E+00 -0.00000000000E+00 -0.18250000000E+03  0.18250000000E+03  0.00000000000E+00 0.  1.
         23    2    1    2    0    0 -0.32710954287E+02  0.59804004132E+02  0.73278988540E+02  0.13767961062E+03  0.94548080775E+02 0.  0.
        -11    1    1    2    0    0 -0.25867877237E+02 -0.20990954727E+02  0.64534512249E+02  0.72625550080E+02  0.00000000000E+00 0. -1.
         11    1    1    2    0    0  0.58578831524E+02 -0.38813049405E+02 -0.13781350079E+03  0.15469483930E+03  0.00000000000E+00 0.  1.
        -15    1    3    3    0    0 -0.27540761127E+02  0.84195965879E+02  0.43213937495E+02  0.98580202458E+02  0.17770000000E+01 0. -1.
         15    1    3    3    0    0 -0.51701931594E+01 -0.24391961748E+02  0.30065051045E+02  0.39099408161E+02  0.17770000000E+01 0.  1.
</event>
<event>
 7    1  0.3165060E-007  0.1394280E+03  0.7546771E-02  0.1109080E+00
        -11   -1    0    0    0    0  0.00000000000E+00  0.00000000000E+00  0.18250000000E+03  0.18250000000E+03  0.00000000000E+00 0.  1.
         11   -1    0    0    0    0 -0.00000000000E+00 -0.00000000000E+00 -0.18250000000E+03  0.18250000000E+03  0.00000000000E+00 0.  1.
         23    2    1    2    0    0  0.46640556758E+02  0.66736227121E+02 -0.84734111269E+02  0.14873688077E+03  0.91179627901E+02 0.  0.
        -11    1    1    2    0    0 -0.86718738286E+02  0.24486253801E+02  0.72936721407E+02  0.11592877781E+03  0.00000000000E+00 0.  1.
         11    1    1    2    0    0  0.40078181528E+02 -0.91222480921E+02  0.11797389862E+02  0.10033434142E+03  0.00000000000E+00 0.  1.
        -15    1    3    3    0    0 -0.20911261237E+01  0.30703168016E+02  0.13215881783E+02  0.33539150183E+02  0.17770000000E+01 0. -1.
         15    1    3    3    0    0  0.48731682882E+02  0.36033059104E+02 -0.97949993052E+02  0.11519773059E+03  0.17770000000E+01 0.  1.
</event>
<event>
 7    1  0.3165060E-007  0.1820255E+03  0.7546771E-02  0.1068833E+00
        -11   -1    0    0    0    0  0.00000000000E+00  0.00000000000E+00  0.18250000000E+03  0.18250000000E+03  0.00000000000E+00 0. -1.
         11   -1    0    0    0    0 -0.00000000000E+00 -0.00000000000E+00 -0.18250000000E+03  0.18250000000E+03  0.00000000000E+00 0. -1.
         23    2    1    2    0    0 -0.41120868380E+01 -0.25902241195E+02 -0.15077914233E+03  0.17653395065E+03  0.87988923244E+02 0.  0.
        -11    1    1    2    0    0  0.11497510730E+02  0.46056505064E+02  0.15865313542E+03  0.16560257181E+03  0.00000000000E+00 0. -1.
         11    1    1    2    0    0 -0.73854238925E+01 -0.20154263868E+02 -0.78739930882E+01  0.22863477542E+02  0.00000000000E+00 0. -1.
        -15    1    3    3    0    0  0.29188571877E+02 -0.34958711178E+01 -0.11567949620E+02  0.31641255198E+02  0.17770000000E+01 0.  1.
         15    1    3    3    0    0 -0.33300658715E+02 -0.22406370078E+02 -0.13921119271E+03  0.14489269545E+03  0.17770000000E+01 0. -1.
</event>
<event>
 7    1  0.3165060E-007  0.1637578E+03  0.7546771E-02  0.1084437E+00
        -11   -1    0    0    0    0  0.00000000000E+00  0.00000000000E+00  0.18250000000E+03  0.18250000000E+03  0.00000000000E+00 0.  1.
         11   -1    0    0    0    0 -0.00000000000E+00 -0.00000000000E+00 -0.18250000000E+03  0.18250000000E+03  0.00000000000E+00 0.  1.
         23    2    1    2    0    0  0.87727440742E+02 -0.46733451084E+02 -0.10516802899E+03  0.17165936068E+03  0.92339062574E+02 0.  0.
        -11    1    1    2    0    0 -0.67252660691E+02 -0.88806351007E+01  0.11475583083E+03  0.13330673936E+03  0.00000000000E+00 0.  1.
         11    1    1    2    0    0 -0.20474780051E+02  0.55614086185E+02 -0.95878018422E+01  0.60033899961E+02  0.00000000000E+00 0.  1.
        -15    1    3    3    0    0  0.21973897981E+02  0.64026223488E+00 -0.85427961244E+02  0.88228999879E+02  0.17770000000E+01 0.  1.
         15    1    3    3    0    0  0.65753542761E+02 -0.47373713319E+02 -0.19740067745E+02  0.83430360798E+02  0.17770000000E+01 0. -1.
</event>
<event>
 7    1  0.3165060E-007  0.1643876E+03  0.7546771E-02  0.1083862E+00
        -11   -1    0    0    0    0  0.00000000000E+00  0.00000000000E+00  0.18250000000E+03  0.18250000000E+03  0.00000000000E+00 0. -1.
         11   -1    0    0    0    0 -0.00000000000E+00 -0.00000000000E+00 -0.18250000000E+03  0.18250000000E+03  0.00000000000E+00 0. -1.
         23    2    1    2    0    0 -0.85509384623E+01 -0.58333432923E+01 -0.11243129699E+03  0.14545371263E+03  0.91699724813E+02 0.  0.
        -11    1    1    2    0    0  0.11335746241E+02 -0.31400863141E+02  0.15751184514E+03  0.16101085277E+03  0.00000000000E+00 0. -1.
         11    1    1    2    0    0 -0.27848077787E+01  0.37234206434E+02 -0.45080548149E+02  0.58535434606E+02  0.00000000000E+00 0. -1.
        -15    1    3    3    0    0 -0.22140429579E+02  0.39211269551E+02 -0.51080108167E+02  0.68117967241E+02  0.17770000000E+01 0. -1.
         15    1    3    3    0    0  0.13589491116E+02 -0.45044612843E+02 -0.61351188826E+02  0.77335745386E+02  0.17770000000E+01 0.  1.
</event>
<event>
 7    1  0.3165060E-007  0.1286190E+03  0.7546771E-02  0.1121879E+00
        -11   -1    0    0    0    0  0.00000000000E+00  0.00000000000E+00  0.18250000000E+03  0.18250000000E+03  0.00000000000E+00 0. -1.
         11   -1    0    0    0    0 -0.00000000000E+00 -0.00000000000E+00 -0.18250000000E+03  0.18250000000E+03  0.00000000000E+00 0.  1.
         23    2    1    2    0    0 -0.36761905822E+02 -0.13733942003E+02 -0.20283429027E+02  0.10399643817E+03  0.94147664746E+02 0.  0.
        -11    1    1    2    0    0 -0.30360868919E+02 -0.52322195182E+02  0.11342548939E+03  0.12854857492E+03  0.00000000000E+00 0. -1.
         11    1    1    2    0    0  0.67122774742E+02  0.66056137186E+02 -0.93142060360E+02  0.13245498691E+03  0.00000000000E+00 0.  1.
        -15    1    3    3    0    0 -0.47011600391E+02  0.41387469288E+01 -0.49361371847E+02  0.68314878006E+02  0.17770000000E+01 0.  1.
         15    1    3    3    0    0  0.10249694569E+02 -0.17872688932E+02  0.29077942819E+02  0.35681560168E+02  0.17770000000E+01 0. -1.
</event>
<event>
 7    1  0.3165060E-007  0.1627394E+03  0.7546771E-02  0.1085372E+00
        -11   -1    0    0    0    0  0.00000000000E+00  0.00000000000E+00  0.18250000000E+03  0.18250000000E+03  0.00000000000E+00 0. -1.
         11   -1    0    0    0    0 -0.00000000000E+00 -0.00000000000E+00 -0.18250000000E+03  0.18250000000E+03  0.00000000000E+00 0.  1.
         23    2    1    2    0    0  0.12484801779E+03 -0.28043925062E+02 -0.12690870406E+02  0.15831746906E+03  0.92357314490E+02 0.  0.
        -11    1    1    2    0    0  0.14429056418E+02  0.58953366760E+02 -0.12075619783E+02  0.61883097164E+02  0.00000000000E+00 0.  1.
         11    1    1    2    0    0 -0.13927707421E+03 -0.30909441698E+02  0.24766490189E+02  0.14479943378E+03  0.00000000000E+00 0. -1.
        -15    1    3    3    0    0  0.10018001173E+03 -0.59837238335E+02 -0.16472790121E+02  0.11786025787E+03  0.17770000000E+01 0.  1.
         15    1    3    3    0    0  0.24668006062E+02  0.31793313273E+02  0.37819197143E+01  0.40457211195E+02  0.17770000000E+01 0. -1.
</event>
<event>
 7    1  0.3165060E-007  0.1534524E+03  0.7546771E-02  0.1094260E+00
        -11   -1    0    0    0    0  0.00000000000E+00  0.00000000000E+00  0.18250000000E+03  0.18250000000E+03  0.00000000000E+00 0.  1.
         11   -1    0    0    0    0 -0.00000000000E+00 -0.00000000000E+00 -0.18250000000E+03  0.18250000000E+03  0.00000000000E+00 0.  1.
         23    2    1    2    0    0 -0.50429264153E+02 -0.58606917122E+01  0.81522386571E+02  0.13217616200E+03  0.90813985155E+02 0.  0.
        -11    1    1    2    0    0 -0.41543655260E+02 -0.60106250735E+02  0.25170098070E+02  0.77279819530E+02  0.00000000000E+00 0.  1.
         11    1    1    2    0    0  0.91972919414E+02  0.65966942447E+02 -0.10669248464E+03  0.15554401846E+03  0.00000000000E+00 0.  1.
        -15    1    3    3    0    0  0.26282272688E+02 -0.36785598016E+01  0.27847312412E+02  0.38508702879E+02  0.17770000000E+01 0. -1.
         15    1    3    3    0    0 -0.76711536841E+02 -0.21821319106E+01  0.53675074159E+02  0.93667459126E+02  0.17770000000E+01 0.  1.
</event>
<event>
 7    1  0.3165060E-007  0.1660751E+03  0.7546771E-02  0.1082337E+00
        -11   -1    0    0    0    0  0.00000000000E+00  0.00000000000E+00  0.18250000000E+03  0.18250000000E+03  0.00000000000E+00 0.  1.
         11   -1    0    0    0    0 -0.00000000000E+00 -0.00000000000E+00 -0.18250000000E+03  0.18250000000E+03  0.00000000000E+00 0. -1.
         23    2    1    2    0    0 -0.49833522880E+01  0.95939612486E+00 -0.11305923221E+03  0.14614687923E+03  0.92470352442E+02 0.  0.
        -11    1    1    2    0    0  0.35610866126E+02  0.86800614958E+01  0.15879580759E+03  0.16297111942E+03  0.00000000000E+00 0.  1.
         11    1    1    2    0    0 -0.30627513838E+02 -0.96394576207E+01 -0.45736575389E+02  0.55882001355E+02  0.00000000000E+00 0. -1.
        -15    1    3    3    0    0 -0.20032016038E+02  0.38803915888E+02 -0.28227495081E+02  0.52028595622E+02  0.17770000000E+01 0.  1.
         15    1    3    3    0    0  0.15048663750E+02 -0.37844519763E+02 -0.84831737124E+02  0.94118283608E+02  0.17770000000E+01 0. -1.
</event>
<event>
 7    1  0.3165060E-007  0.1664008E+03  0.7546771E-02  0.1082045E+00
        -11   -1    0    0    0    0  0.00000000000E+00  0.00000000000E+00  0.18250000000E+03  0.18250000000E+03  0.00000000000E+00 0. -1.
         11   -1    0    0    0    0 -0.00000000000E+00 -0.00000000000E+00 -0.18250000000E+03  0.18250000000E+03  0.00000000000E+00 0. -1.
         23    2    1    2    0    0  0.31940963577E+02  0.16209777306E+02 -0.13780489535E+03  0.16894738172E+03  0.90939796433E+02 0.  0.
        -11    1    1    2    0    0  0.16951266903E+02 -0.39958569798E+02  0.13479864641E+03  0.14161464551E+03  0.00000000000E+00 0. -1.
         11    1    1    2    0    0 -0.48892230480E+02  0.23748792492E+02  0.30062489375E+01  0.54437972766E+02  0.00000000000E+00 0. -1.
        -15    1    3    3    0    0  0.19538132423E+01 -0.35576564542E+02 -0.34975067195E+02  0.49959207211E+02  0.17770000000E+01 0.  1.
         15    1    3    3    0    0  0.29987150335E+02  0.51786341848E+02 -0.10282982815E+03  0.11898817451E+03  0.17770000000E+01 0. -1.
</event>
<event>
 7    1  0.3165060E-007  0.1789047E+03  0.7546771E-02  0.1071353E+00
        -11   -1    0    0    0    0  0.00000000000E+00  0.00000000000E+00  0.18250000000E+03  0.18250000000E+03  0.00000000000E+00 0. -1.
         11   -1    0    0    0    0 -0.00000000000E+00 -0.00000000000E+00 -0.18250000000E+03  0.18250000000E+03  0.00000000000E+00 0. -1.
         23    2    1    2    0    0  0.13285413719E+03  0.21983889503E+01  0.45705658942E+02  0.16751452428E+03  0.91197883215E+02 0.  0.
        -11    1    1    2    0    0  0.18652329954E+02 -0.56636226613E+01  0.23796936093E+02  0.30761667734E+02  0.00000000000E+00 0. -1.
         11    1    1    2    0    0 -0.15150646715E+03  0.34652337110E+01 -0.69502595035E+02  0.16672380798E+03  0.00000000000E+00 0. -1.
        -15    1    3    3    0    0  0.14536384188E+03  0.81372129180E+01  0.48116098673E+02  0.15334659253E+03  0.17770000000E+01 0. -1.
         15    1    3    3    0    0 -0.12509704686E+02 -0.59388239677E+01 -0.24104397307E+01  0.14167931753E+02  0.17770000000E+01 0.  1.
</event>
<event>
 7    1  0.3165060E-007  0.1345964E+03  0.7546771E-02  0.1114637E+00
        -11   -1    0    0    0    0  0.00000000000E+00  0.00000000000E+00  0.18250000000E+03  0.18250000000E+03  0.00000000000E+00 0. -1.
         11   -1    0    0    0    0 -0.00000000000E+00 -0.00000000000E+00 -0.18250000000E+03  0.18250000000E+03  0.00000000000E+00 0. -1.
         23    2    1    2    0    0  0.32648742958E+02  0.18174028334E+02 -0.73317423912E+02  0.12416167198E+03  0.92975482881E+02 0.  0.
        -11    1    1    2    0    0 -0.85509869030E+02 -0.98177030120E+02  0.21868906885E+02  0.13201862002E+03  0.00000000000E+00 0. -1.
         11    1    1    2    0    0  0.52861126072E+02  0.80003001785E+02  0.51448517027E+02  0.10881970800E+03  0.00000000000E+00 0. -1.
        -15    1    3    3    0    0  0.17313800299E+02  0.16461966222E+00  0.20788098582E+02  0.27112682495E+02  0.17770000000E+01 0.  1.
         15    1    3    3    0    0  0.15334942659E+02  0.18009408672E+02 -0.94105522494E+02  0.97048989484E+02  0.17770000000E+01 0. -1.
</event>
<event>
 7    1  0.4025403E-007  0.1358418E+03  0.7546771E-02  0.1113180E+00
        -11   -1    0    0    0    0  0.00000000000E+00  0.00000000000E+00  0.18250000000E+03  0.18250000000E+03  0.00000000000E+00 0.  1.
         11   -1    0    0    0    0 -0.00000000000E+00 -0.00000000000E+00 -0.18250000000E+03  0.18250000000E+03  0.00000000000E+00 0. -1.
         23    2    1    2    0    0 -0.35940233031E+01 -0.97550796676E+01  0.70236729233E+02  0.11588454381E+03  0.91585756420E+02 0.  0.
        -11    1    1    2    0    0 -0.90453313767E+02 -0.52561393462E+02  0.17662073519E+02  0.10609642263E+03  0.00000000000E+00 0.  1.
         11    1    1    2    0    0  0.94047337070E+02  0.62316473130E+02 -0.87898802752E+02  0.14301903355E+03  0.00000000000E+00 0. -1.
        -15    1    3    3    0    0 -0.13102299409E+02  0.38109793380E+02  0.46594831974E+02  0.61630047030E+02  0.17770000000E+01 0. -1.
         15    1    3    3    0    0  0.95082761060E+01 -0.47864873048E+02  0.23641897259E+02  0.54254496785E+02  0.17770000000E+01 0.  1.
</event>
<event>
 7    1  0.3165060E-007  0.2151396E+03  0.7546771E-02  0.1045086E+00
        -11   -1    0    0    0    0  0.00000000000E+00  0.00000000000E+00  0.18250000000E+03  0.18250000000E+03  0.00000000000E+00 0.  1.
         11   -1    0    0    0    0 -0.00000000000E+00 -0.00000000000E+00 -0.18250000000E+03  0.18250000000E+03  0.00000000000E+00 0. -1.
         23    2    1    2    0    0  0.20127276494E+02 -0.11956080460E+01 -0.29856428069E+02  0.97748007357E+02  0.90866549992E+02 0.  0.
        -11    1    1    2    0    0 -0.11326946578E+03  0.41221863063E+02  0.89044467861E+02  0.14986037211E+03  0.00000000000E+00 0.  1.
         11    1    1    2    0    0  0.93142189290E+02 -0.40026255017E+02 -0.59188039792E+02  0.11739162053E+03  0.00000000000E+00 0. -1.
        -15    1    3    3    0    0 -0.10234754548E+01  0.16674681985E+02  0.28527180596E+02  0.33106650134E+02  0.17770000000E+01 0.  1.
         15    1    3    3    0    0  0.21150751949E+02 -0.17870290031E+02 -0.58383608666E+02  0.64641357223E+02  0.17770000000E+01 0. -1.
</event>
<event>
 7    1  0.3165060E-007  0.1563286E+03  0.7546771E-02  0.1091435E+00
        -11   -1    0    0    0    0  0.00000000000E+00  0.00000000000E+00  0.18250000000E+03  0.18250000000E+03  0.00000000000E+00 0.  1.
         11   -1    0    0    0    0 -0.00000000000E+00 -0.00000000000E+00 -0.18250000000E+03  0.18250000000E+03  0.00000000000E+00 0. -1.
         23    2    1    2    0    0 -0.27719782880E+02  0.99455110774E+02 -0.36256262865E+02  0.14187498017E+03  0.90301096226E+02 0.  0.
        -11    1    1    2    0    0  0.47332898677E+02  0.49656609932E+02  0.22056017908E+02  0.72060045331E+02  0.00000000000E+00 0.  1.
         11    1    1    2    0    0 -0.19613115796E+02 -0.14911172071E+03  0.14200244957E+02  0.15106497450E+03  0.00000000000E+00 0. -1.
        -15    1    3    3    0    0  0.19477292769E+01 -0.10957576501E+02 -0.24452152237E+02  0.26924479756E+02  0.17770000000E+01 0.  1.
         15    1    3    3    0    0 -0.29667512157E+02  0.11041268728E+03 -0.11804110628E+02  0.11495050042E+03  0.17770000000E+01 0. -1.
</event>
<event>
 7    1  0.3165060E-007  0.1656694E+03  0.7546771E-02  0.1082702E+00
        -11   -1    0    0    0    0  0.00000000000E+00  0.00000000000E+00  0.18250000000E+03  0.18250000000E+03  0.00000000000E+00 0. -1.
         11   -1    0    0    0    0 -0.00000000000E+00 -0.00000000000E+00 -0.18250000000E+03  0.18250000000E+03  0.00000000000E+00 0. -1.
         23    2    1    2    0    0 -0.27000533999E+02  0.33512203471E+02 -0.15820384341E+03  0.18065034675E+03  0.75855092746E+02 0.  0.
        -11    1    1    2    0    0 -0.11099066799E+02 -0.40640094748E+02  0.12932434735E+03  0.13601321039E+03  0.00000000000E+00 0. -1.
         11    1    1    2    0    0  0.38099600799E+02  0.71278912764E+01  0.28879496061E+02  0.48336442855E+02  0.00000000000E+00 0. -1.
        -15    1    3    3    0    0 -0.14040455706E+02  0.24956528786E+02 -0.16203628005E+03  0.16455660579E+03  0.17770000000E+01 0. -1.
         15    1    3    3    0    0 -0.12960078293E+02  0.85556746851E+01  0.38324366453E+01  0.16093740967E+02  0.17770000000E+01 0.  1.
</event>
<event>
 7    1  0.3165060E-007  0.2121568E+03  0.7546771E-02  0.1047028E+00
        -11   -1    0    0    0    0  0.00000000000E+00  0.00000000000E+00  0.18250000000E+03  0.18250000000E+03  0.00000000000E+00 0.  1.
         11   -1    0    0    0    0 -0.00000000000E+00 -0.00000000000E+00 -0.18250000000E+03  0.18250000000E+03  0.00000000000E+00 0. -1.
         23    2    1    2    0    0 -0.61843600141E+02  0.86943135456E+00  0.32766628924E+02  0.11710101856E+03  0.93880827580E+02 0.  0.
        -11    1    1    2    0    0 -0.53220898233E+02  0.66866032364E+02  0.41618213832E+02  0.95055804744E+02  0.00000000000E+00 0.  1.
         11    1    1    2    0    0  0.11506449837E+03 -0.67735463719E+02 -0.74384842756E+02  0.15284317670E+03  0.00000000000E+00 0. -1.
        -15    1    3    3    0    0 -0.67815495640E+01 -0.12119776677E+02 -0.29681987404E+02  0.32818539066E+02  0.17770000000E+01 0. -1.
         15    1    3    3    0    0 -0.55062050577E+02  0.12989208032E+02  0.62448616328E+02  0.84282479492E+02  0.17770000000E+01 0.  1.
</event>
<event>
 7    1  0.3165060E-007  0.1357820E+03  0.7546771E-02  0.1113250E+00
        -11   -1    0    0    0    0  0.00000000000E+00  0.00000000000E+00  0.18250000000E+03  0.18250000000E+03  0.00000000000E+00 0.  1.
         11   -1    0    0    0    0 -0.00000000000E+00 -0.00000000000E+00 -0.18250000000E+03  0.18250000000E+03  0.00000000000E+00 0. -1.
         23    2    1    2    0    0  0.93433708750E+02 -0.17973968177E+02  0.62379922301E+02  0.14523617854E+03  0.90273868799E+02 0.  0.
        -11    1    1    2    0    0 -0.80267305020E+02  0.78046538219E+02  0.23243843132E+02  0.11434324915E+03  0.00000000000E+00 0.  1.
         11    1    1    2    0    0 -0.13166403730E+02 -0.60072570042E+02 -0.85623765433E+02  0.10542057231E+03  0.00000000000E+00 0. -1.
        -15    1    3    3    0    0  0.91340609159E+02 -0.43184589266E+02  0.32726415802E+02  0.10621766168E+03  0.17770000000E+01 0. -1.
         15    1    3    3    0    0  0.20930995909E+01  0.25210621090E+02  0.29653506500E+02  0.39018516865E+02  0.17770000000E+01 0.  1.
</event>
<event>
 7    1  0.3165060E-007  0.1898079E+03  0.7546771E-02  0.1062782E+00
        -11   -1    0    0    0    0  0.00000000000E+00  0.00000000000E+00  0.18250000000E+03  0.18250000000E+03  0.00000000000E+00 0.  1.
         11   -1    0    0    0    0 -0.00000000000E+00 -0.00000000000E+00 -0.18250000000E+03  0.18250000000E+03  0.00000000000E+00 0. -1.
         23    2    1    2    0    0 -0.27807007195E+02  0.84005933059E+02 -0.14176872986E+03  0.18980791013E+03  0.89991352618E+02 0.  0.
        -11    1    1    2    0    0  0.57526868854E+01 -0.73556076208E+02  0.12638094984E+03  0.14634115702E+03  0.00000000000E+00 0.  1.
         11    1    1    2    0    0  0.22054320309E+02 -0.10449856851E+02  0.15387780013E+02  0.28850932848E+02  0.00000000000E+00 0. -1.
        -15    1    3    3    0    0 -0.27381573370E+02  0.10134377470E+03 -0.13519511413E+03  0.17117589738E+03  0.17770000000E+01 0. -1.
         15    1    3    3    0    0 -0.42543382505E+00 -0.17337841638E+02 -0.65736157275E+01  0.18632012755E+02  0.17770000000E+01 0.  1.
</event>
<event>
 7    1  0.3165060E-007  0.1765045E+03  0.7546771E-02  0.1073330E+00
        -11   -1    0    0    0    0  0.00000000000E+00  0.00000000000E+00  0.18250000000E+03  0.18250000000E+03  0.00000000000E+00 0.  1.
         11   -1    0    0    0    0 -0.00000000000E+00 -0.00000000000E+00 -0.18250000000E+03  0.18250000000E+03  0.00000000000E+00 0. -1.
         23    2    1    2    0    0  0.93100797198E+02 -0.23230417482E+02 -0.12252409835E+03  0.18011620232E+03  0.90676793763E+02 0.  0.
        -11    1    1    2    0    0 -0.69717501406E+02  0.49514901763E+02  0.12287538536E+03  0.14970175625E+03  0.00000000000E+00 0.  1.
         11    1    1    2    0    0 -0.23383295792E+02 -0.26284484282E+02 -0.35128700556E+00  0.35182041422E+02  0.00000000000E+00 0. -1.
        -15    1    3    3    0    0  0.93823778481E+02  0.13831559477E+02 -0.90393062997E+02  0.13102777191E+03  0.17770000000E+01 0. -1.
         15    1    3    3    0    0 -0.72298128291E+00 -0.37061976958E+02 -0.32131035355E+02  0.49088430409E+02  0.17770000000E+01 0.  1.
</event>
<event>
 7    1  0.3165060E-007  0.1413936E+03  0.7546771E-02  0.1106890E+00
        -11   -1    0    0    0    0  0.00000000000E+00  0.00000000000E+00  0.18250000000E+03  0.18250000000E+03  0.00000000000E+00 0. -1.
         11   -1    0    0    0    0 -0.00000000000E+00 -0.00000000000E+00 -0.18250000000E+03  0.18250000000E+03  0.00000000000E+00 0.  1.
         23    2    1    2    0    0  0.38356302578E+02 -0.15465666514E+02 -0.68346537669E+02  0.12056239559E+03  0.90297559382E+02 0.  0.
        -11    1    1    2    0    0 -0.15908197018E+02 -0.46314705466E+02  0.13933495841E+03  0.14769005827E+03  0.00000000000E+00 0. -1.
         11    1    1    2    0    0 -0.22448105560E+02  0.61780371980E+02 -0.70988420745E+02  0.96747546145E+02  0.00000000000E+00 0.  1.
        -15    1    3    3    0    0 -0.94369682425E+01 -0.77463582299E+01 -0.70981275837E+02  0.72045552839E+02  0.17770000000E+01 0.  1.
         15    1    3    3    0    0  0.47793270820E+02 -0.77193082842E+01  0.26347381680E+01  0.48516842749E+02  0.17770000000E+01 0. -1.
</event>
<event>
 7    1  0.3165060E-007  0.1844865E+03  0.7546771E-02  0.1066884E+00
        -11   -1    0    0    0    0  0.00000000000E+00  0.00000000000E+00  0.18250000000E+03  0.18250000000E+03  0.00000000000E+00 0. -1.
         11   -1    0    0    0    0 -0.00000000000E+00 -0.00000000000E+00 -0.18250000000E+03  0.18250000000E+03  0.00000000000E+00 0. -1.
         23    2    1    2    0    0  0.58004451299E+02 -0.21378586351E+02 -0.15920612751E+03  0.18448654016E+03  0.69764834536E+02 0.  0.
        -11    1    1    2    0    0 -0.34043732898E+02 -0.17419371908E+02  0.57536818948E+02  0.69086147685E+02  0.00000000000E+00 0. -1.
         11    1    1    2    0    0 -0.23960718401E+02  0.38797958258E+02  0.10166930856E+03  0.11142731216E+03  0.00000000000E+00 0. -1.
        -15    1    3    3    0    0  0.54823055212E+02  0.16242772506E+01 -0.14950346092E+03  0.15925654843E+03  0.17770000000E+01 0. -1.
         15    1    3    3    0    0  0.31813960870E+01 -0.23002863601E+02 -0.97026665865E+01  0.25229991732E+02  0.17770000000E+01 0.  1.
</event>
<event>
 7    1  0.3165060E-007  0.1259893E+03  0.7546771E-02  0.1125205E+00
        -11   -1    0    0    0    0  0.00000000000E+00  0.00000000000E+00  0.18250000000E+03  0.18250000000E+03  0.00000000000E+00 0. -1.
         11   -1    0    0    0    0 -0.00000000000E+00 -0.00000000000E+00 -0.18250000000E+03  0.18250000000E+03  0.00000000000E+00 0. -1.
         23    2    1    2    0    0  0.14160853744E+02  0.10212923948E+02 -0.53451028170E+02  0.10682367111E+03  0.90826486786E+02 0.  0.
        -11    1    1    2    0    0 -0.11397352562E+03  0.28537007418E+02  0.86749570254E+02  0.14604729807E+03  0.00000000000E+00 0. -1.
         11    1    1    2    0    0  0.99812671877E+02 -0.38749931366E+02 -0.33298542084E+02  0.11212903082E+03  0.00000000000E+00 0. -1.
        -15    1    3    3    0    0  0.32698299002E+02  0.19394811434E+02 -0.70394820725E+02  0.80024533627E+02  0.17770000000E+01 0. -1.
         15    1    3    3    0    0 -0.18537445258E+02 -0.91818874865E+01  0.16943792555E+02  0.26799137480E+02  0.17770000000E+01 0.  1.
</event>
<event>
 7    1  0.3165060E-007  0.1592908E+03  0.7546771E-02  0.1088594E+00
        -11   -1    0    0    0    0  0.00000000000E+00  0.00000000000E+00  0.18250000000E+03  0.18250000000E+03  0.00000000000E+00 0.  1.
         11   -1    0    0    0    0 -0.00000000000E+00 -0.00000000000E+00 -0.18250000000E+03  0.18250000000E+03  0.00000000000E+00 0. -1.
         23    2    1    2    0    0 -0.11631990954E+02 -0.17597861967E+02 -0.94454922080E+02  0.13332031752E+03  0.91692893934E+02 0.  0.
        -11    1    1    2    0    0  0.29292530965E+02  0.28578006835E+02  0.15883603883E+03  0.16402329736E+03  0.00000000000E+00 0.  1.
         11    1    1    2    0    0 -0.17660540010E+02 -0.10980144868E+02 -0.64381116748E+02  0.67656385127E+02  0.00000000000E+00 0. -1.
        -15    1    3    3    0    0 -0.23404067262E+02 -0.13353638137E+01 -0.10701866063E+03  0.10957045684E+03  0.17770000000E+01 0. -1.
         15    1    3    3    0    0  0.11772076307E+02 -0.16262498153E+02  0.12563738547E+02  0.23749860674E+02  0.17770000000E+01 0.  1.
</event>
<event>
 7    1  0.3165060E-007  0.1453687E+03  0.7546771E-02  0.1102578E+00
        -11   -1    0    0    0    0  0.00000000000E+00  0.00000000000E+00  0.18250000000E+03  0.18250000000E+03  0.00000000000E+00 0.  1.
         11   -1    0    0    0    0 -0.00000000000E+00 -0.00000000000E+00 -0.18250000000E+03  0.18250000000E+03  0.00000000000E+00 0. -1.
         23    2    1    2    0    0  0.81715255900E+02 -0.17387185404E+02 -0.64517465148E+02  0.13905267705E+03  0.90517658077E+02 0.  0.
        -11    1    1    2    0    0 -0.26166186407E+02  0.69927897372E+02  0.11298011993E+03  0.13542188760E+03  0.00000000000E+00 0.  1.
         11    1    1    2    0    0 -0.55549069492E+02 -0.52540711968E+02 -0.48462654783E+02  0.90525435344E+02  0.00000000000E+00 0. -1.
        -15    1    3    3    0    0  0.60481582596E+02  0.21129104751E+02 -0.69751319274E+02  0.94725208738E+02  0.17770000000E+01 0. -1.
         15    1    3    3    0    0  0.21233673304E+02 -0.38516290156E+02  0.52338541261E+01  0.44327468317E+02  0.17770000000E+01 0.  1.
</event>
<event>
 7    1  0.3165060E-007  0.1676822E+03  0.7546771E-02  0.1080902E+00
        -11   -1    0    0    0    0  0.00000000000E+00  0.00000000000E+00  0.18250000000E+03  0.18250000000E+03  0.00000000000E+00 0. -1.
         11   -1    0    0    0    0 -0.00000000000E+00 -0.00000000000E+00 -0.18250000000E+03  0.18250000000E+03  0.00000000000E+00 0.  1.
         23    2    1    2    0    0 -0.23606134452E+01  0.43160876117E+01 -0.14537516360E+03  0.17170203726E+03  0.91232945245E+02 0.  0.
        -11    1    1    2    0    0 -0.45482536333E+02 -0.20424244510E+02  0.13195867904E+03  0.14106347454E+03  0.00000000000E+00 0. -1.
         11    1    1    2    0    0  0.47843149778E+02  0.16108156898E+02  0.13416484560E+02  0.52234488198E+02  0.00000000000E+00 0.  1.
        -15    1    3    3    0    0  0.19637434384E+01  0.20287007303E+02  0.44649400502E+01  0.20940687006E+02  0.17770000000E+01 0.  1.
         15    1    3    3    0    0 -0.43243568835E+01 -0.15970919692E+02 -0.14984010365E+03  0.15076135025E+03  0.17770000000E+01 0. -1.
</event>
<event>
 7    1  0.3165060E-007  0.1435501E+03  0.7546771E-02  0.1104531E+00
        -11   -1    0    0    0    0  0.00000000000E+00  0.00000000000E+00  0.18250000000E+03  0.18250000000E+03  0.00000000000E+00 0.  1.
         11   -1    0    0    0    0 -0.00000000000E+00 -0.00000000000E+00 -0.18250000000E+03  0.18250000000E+03  0.00000000000E+00 0. -1.
         23    2    1    2    0    0 -0.33213683637E+02 -0.95648329970E+02 -0.24846389134E+02  0.13993734898E+03  0.93345416487E+02 0.  0.
        -11    1    1    2    0    0  0.87230765983E+02 -0.22434077501E+02  0.30486866654E+02  0.95089134004E+02  0.00000000000E+00 0. -1.
         11    1    1    2    0    0 -0.54017082346E+02  0.11808240747E+03 -0.56404775206E+01  0.12997351702E+03  0.00000000000E+00 0.  1.
        -15    1    3    3    0    0 -0.43920474349E+02 -0.98682776193E+02  0.48865620877E+01  0.10814034678E+03  0.17770000000E+01 0.  1.
         15    1    3    3    0    0  0.10706790713E+02  0.30344462229E+01 -0.29732951221E+02  0.31797002195E+02  0.17770000000E+01 0. -1.
</event>
<event>
 7    1  0.3165060E-007  0.1681945E+03  0.7546771E-02  0.1080449E+00
        -11   -1    0    0    0    0  0.00000000000E+00  0.00000000000E+00  0.18250000000E+03  0.18250000000E+03  0.00000000000E+00 0. -1.
         11   -1    0    0    0    0 -0.00000000000E+00 -0.00000000000E+00 -0.18250000000E+03  0.18250000000E+03  0.00000000000E+00 0. -1.
         23    2    1    2    0    0 -0.16390769150E+02  0.54386278972E+02 -0.12012334809E+03  0.16144871736E+03  0.91703570967E+02 0.  0.
        -11    1    1    2    0    0 -0.17761163238E+02  0.46870344069E+02  0.12015406836E+02  0.51542779069E+02  0.00000000000E+00 0. -1.
         11    1    1    2    0    0  0.34151932388E+02 -0.10125662304E+03  0.10810794125E+03  0.15200850357E+03  0.00000000000E+00 0. -1.
        -15    1    3    3    0    0 -0.50329344701E+02  0.14495851485E+02 -0.40969181760E+02  0.66519201975E+02  0.17770000000E+01 0.  1.
         15    1    3    3    0    0  0.33938575550E+02  0.39890427488E+02 -0.79154166328E+02  0.94929515387E+02  0.17770000000E+01 0. -1.
</event>
<event>
 7    1  0.3165060E-007  0.2176872E+03  0.7546771E-02  0.1043454E+00
        -11   -1    0    0    0    0  0.00000000000E+00  0.00000000000E+00  0.18250000000E+03  0.18250000000E+03  0.00000000000E+00 0. -1.
         11   -1    0    0    0    0 -0.00000000000E+00 -0.00000000000E+00 -0.18250000000E+03  0.18250000000E+03  0.00000000000E+00 0. -1.
         23    2    1    2    0    0 -0.63080173125E+01  0.39466729536E+02 -0.38396534507E+02  0.10959769835E+03  0.94551297184E+02 0.  0.
        -11    1    1    2    0    0  0.49405839591E+02 -0.25149988011E+02  0.13648297238E+03  0.14731279861E+03  0.00000000000E+00 0. -1.
         11    1    1    2    0    0 -0.43097822279E+02 -0.14316741525E+02 -0.98086437875E+02  0.10808950304E+03  0.00000000000E+00 0. -1.
        -15    1    3    3    0    0 -0.76233132479E+01  0.16770127212E+02  0.31246605973E+02  0.36316114680E+02  0.17770000000E+01 0.  1.
         15    1    3    3    0    0  0.13152959354E+01  0.22696602324E+02 -0.69643140480E+02  0.73281583671E+02  0.17770000000E+01 0. -1.
</event>
<event>
 7    1  0.3165060E-007  0.1362929E+03  0.7546771E-02  0.1112657E+00
        -11   -1    0    0    0    0  0.00000000000E+00  0.00000000000E+00  0.18250000000E+03  0.18250000000E+03  0.00000000000E+00 0.  1.
         11   -1    0    0    0    0 -0.00000000000E+00 -0.00000000000E+00 -0.18250000000E+03  0.18250000000E+03  0.00000000000E+00 0. -1.
         23    2    1    2    0    0 -0.17964902846E+02 -0.42208765904E+01 -0.96777922602E+02  0.13483120202E+03  0.92048537202E+02 0.  0.
        -11    1    1    2    0    0  0.10070669404E+03  0.51938727645E+02  0.51550055728E+02  0.12448645669E+03  0.00000000000E+00 0.  1.
         11    1    1    2    0    0 -0.82741791193E+02 -0.47717851054E+02  0.45227866875E+02  0.10568234129E+03  0.00000000000E+00 0. -1.
        -15    1    3    3    0    0 -0.18764656427E+02 -0.47203246674E+02 -0.53999677849E+02  0.74157816609E+02  0.17770000000E+01 0.  1.
         15    1    3    3    0    0  0.79975358119E+00  0.42982370084E+02 -0.42778244753E+02  0.60673385409E+02  0.17770000000E+01 0. -1.
</event>
<event>
 7    1  0.3165060E-007  0.1538154E+03  0.7546771E-02  0.1093899E+00
        -11   -1    0    0    0    0  0.00000000000E+00  0.00000000000E+00  0.18250000000E+03  0.18250000000E+03  0.00000000000E+00 0. -1.
         11   -1    0    0    0    0 -0.00000000000E+00 -0.00000000000E+00 -0.18250000000E+03  0.18250000000E+03  0.00000000000E+00 0.  1.
         23    2    1    2    0    0 -0.21286466737E+01 -0.95024614475E+02  0.15134073572E+02  0.13130329520E+03  0.89315769358E+02 0.  0.
        -11    1    1    2    0    0 -0.39789840390E+02 -0.56270477936E+02 -0.31646360604E+02  0.75835942830E+02  0.00000000000E+00 0.  1.
         11    1    1    2    0    0  0.41918487063E+02  0.15129509241E+03  0.16512287032E+02  0.15786076197E+03  0.00000000000E+00 0. -1.
        -15    1    3    3    0    0 -0.20905198600E+02 -0.42916257129E+02  0.47301991683E+02  0.67226993095E+02  0.17770000000E+01 0. -1.
         15    1    3    3    0    0  0.18776551926E+02 -0.52108357346E+02 -0.32167918110E+02  0.64076302110E+02  0.17770000000E+01 0.  1.
</event>
<event>
 7    1  0.3165060E-007  0.1316129E+03  0.7546771E-02  0.1118199E+00
        -11   -1    0    0    0    0  0.00000000000E+00  0.00000000000E+00  0.18250000000E+03  0.18250000000E+03  0.00000000000E+00 0.  1.
         11   -1    0    0    0    0 -0.00000000000E+00 -0.00000000000E+00 -0.18250000000E+03  0.18250000000E+03  0.00000000000E+00 0. -1.
         23    2    1    2    0    0 -0.40870979389E+02  0.72432664762E+02 -0.31836784690E+02  0.11932636142E+03  0.79424629610E+02 0.  0.
        -11    1    1    2    0    0  0.25795527666E+02 -0.40044933503E+02  0.13146787565E+03  0.13983135655E+03  0.00000000000E+00 0.  1.
         11    1    1    2    0    0  0.15075451724E+02 -0.32387731259E+02 -0.99631090958E+02  0.10584228203E+03  0.00000000000E+00 0. -1.
        -15    1    3    3    0    0 -0.33089075789E+02  0.20866434356E+02  0.21530666049E+02  0.44688055773E+02  0.17770000000E+01 0. -1.
         15    1    3    3    0    0 -0.77819036006E+01  0.51566230406E+02 -0.53367450739E+02  0.74638305643E+02  0.17770000000E+01 0.  1.
</event>
<event>
 7    1  0.3165060E-007  0.1602406E+03  0.7546771E-02  0.1087698E+00
        -11   -1    0    0    0    0  0.00000000000E+00  0.00000000000E+00  0.18250000000E+03  0.18250000000E+03  0.00000000000E+00 0.  1.
         11   -1    0    0    0    0 -0.00000000000E+00 -0.00000000000E+00 -0.18250000000E+03  0.18250000000E+03  0.00000000000E+00 0.  1.
         23    2    1    2    0    0  0.61496769730E+02 -0.13588913084E+02  0.87641282704E+02  0.14167178904E+03  0.91779028815E+02 0.  0.
        -11    1    1    2    0    0  0.65193816759E+02  0.88880590760E+01  0.54810209189E+01  0.66024790254E+02  0.00000000000E+00 0.  1.
         11    1    1    2    0    0 -0.12669058649E+03  0.47008540075E+01 -0.93122303623E+02  0.15730342070E+03  0.00000000000E+00 0.  1.
        -15    1    3    3    0    0  0.23929186148E+02 -0.44416800128E+02  0.12235910896E+02  0.51945484190E+02  0.17770000000E+01 0. -1.
         15    1    3    3    0    0  0.37567583582E+02  0.30827887044E+02  0.75405371808E+02  0.89726304852E+02  0.17770000000E+01 0.  1.
</event>
<event>
 7    1  0.3165060E-007  0.1561857E+03  0.7546771E-02  0.1091574E+00
        -11   -1    0    0    0    0  0.00000000000E+00  0.00000000000E+00  0.18250000000E+03  0.18250000000E+03  0.00000000000E+00 0. -1.
         11   -1    0    0    0    0 -0.00000000000E+00 -0.00000000000E+00 -0.18250000000E+03  0.18250000000E+03  0.00000000000E+00 0.  1.
         23    2    1    2    0    0 -0.39238922047E+02 -0.65272416447E+02  0.72663323208E+02  0.14259470716E+03  0.96193090278E+02 0.  0.
        -11    1    1    2    0    0 -0.50163859300E+02  0.39393261784E+02  0.40751403876E+02  0.75689621295E+02  0.00000000000E+00 0. -1.
         11    1    1    2    0    0  0.89402781346E+02  0.25879154662E+02 -0.11341472708E+03  0.14671567155E+03  0.00000000000E+00 0.  1.
        -15    1    3    3    0    0 -0.26035274281E+02 -0.46455608884E+02 -0.12194136453E+02  0.54660898241E+02  0.17770000000E+01 0.  1.
         15    1    3    3    0    0 -0.13203647765E+02 -0.18816807563E+02  0.84857459661E+02  0.87933808915E+02  0.17770000000E+01 0. -1.
</event>
<event>
 7    1  0.3165060E-007  0.1252731E+03  0.7546771E-02  0.1126126E+00
        -11   -1    0    0    0    0  0.00000000000E+00  0.00000000000E+00  0.18250000000E+03  0.18250000000E+03  0.00000000000E+00 0. -1.
         11   -1    0    0    0    0 -0.00000000000E+00 -0.00000000000E+00 -0.18250000000E+03  0.18250000000E+03  0.00000000000E+00 0. -1.
         23    2    1    2    0    0 -0.52616202465E+02 -0.78307878099E+01  0.36247527141E+02  0.10631663710E+03  0.84614171987E+02 0.  0.
        -11    1    1    2    0    0  0.78973382404E+02  0.10801878223E+03  0.28101373665E+02  0.13672797682E+03  0.00000000000E+00 0. -1.
         11    1    1    2    0    0 -0.26357179939E+02 -0.10018799442E+03 -0.64348900806E+02  0.12195538608E+03  0.00000000000E+00 0. -1.
        -15    1    3    3    0    0 -0.17742822405E+02  0.32770741225E+02  0.37298182008E+02  0.52754538548E+02  0.17770000000E+01 0.  1.
         15    1    3    3    0    0 -0.34873380060E+02 -0.40601529035E+02 -0.10506548672E+01  0.53562098553E+02  0.17770000000E+01 0. -1.
</event>
<event>
 7    1  0.3165060E-007  0.1348916E+03  0.7546771E-02  0.1114290E+00
        -11   -1    0    0    0    0  0.00000000000E+00  0.00000000000E+00  0.18250000000E+03  0.18250000000E+03  0.00000000000E+00 0.  1.
         11   -1    0    0    0    0 -0.00000000000E+00 -0.00000000000E+00 -0.18250000000E+03  0.18250000000E+03  0.00000000000E+00 0. -1.
         23    2    1    2    0    0 -0.93820958917E+01  0.11043102825E+02 -0.15238836066E+02  0.94398563994E+02  0.92026588093E+02 0.  0.
        -11    1    1    2    0    0 -0.95405618265E+02 -0.69373092297E+02  0.71704549644E+02  0.13804492157E+03  0.00000000000E+00 0.  1.
         11    1    1    2    0    0  0.10478771416E+03  0.58329989472E+02 -0.56465713577E+02  0.13255651444E+03  0.00000000000E+00 0. -1.
        -15    1    3    3    0    0 -0.30692527539E+02 -0.10727992690E+02 -0.42457947241E+02  0.53506598535E+02  0.17770000000E+01 0. -1.
         15    1    3    3    0    0  0.21310431647E+02  0.21771095515E+02  0.27219111175E+02  0.40891965458E+02  0.17770000000E+01 0.  1.
</event>
<event>
 7    1  0.3165060E-007  0.1564635E+03  0.7546771E-02  0.1091304E+00
        -11   -1    0    0    0    0  0.00000000000E+00  0.00000000000E+00  0.18250000000E+03  0.18250000000E+03  0.00000000000E+00 0. -1.
         11   -1    0    0    0    0 -0.00000000000E+00 -0.00000000000E+00 -0.18250000000E+03  0.18250000000E+03  0.00000000000E+00 0.  1.
         23    2    1    2    0    0 -0.16225225742E+01  0.93280021614E+02  0.44045136973E+02  0.13802556854E+03  0.91691267128E+02 0.  0.
        -11    1    1    2    0    0 -0.59104168312E+02  0.25591827326E+02  0.33501795466E+02  0.72598998872E+02  0.00000000000E+00 0. -1.
         11    1    1    2    0    0  0.60726690886E+02 -0.11887184894E+03 -0.77546932439E+02  0.15437543259E+03  0.00000000000E+00 0.  1.
        -15    1    3    3    0    0 -0.34112003784E+02  0.35535289244E+02 -0.12557193630E+02  0.50864785703E+02  0.17770000000E+01 0.  1.
         15    1    3    3    0    0  0.32489481209E+02  0.57744732371E+02  0.56602330603E+02  0.87160782835E+02  0.17770000000E+01 0. -1.
</event>
<event>
 7    1  0.3165060E-007  0.2142786E+03  0.7546771E-02  0.1045643E+00
        -11   -1    0    0    0    0  0.00000000000E+00  0.00000000000E+00  0.18250000000E+03  0.18250000000E+03  0.00000000000E+00 0.  1.
         11   -1    0    0    0    0 -0.00000000000E+00 -0.00000000000E+00 -0.18250000000E+03  0.18250000000E+03  0.00000000000E+00 0. -1.
         23    2    1    2    0    0  0.31519865321E+02  0.54547988429E+02 -0.28541383149E+02  0.11392078408E+03  0.90522646571E+02 0.  0.
        -11    1    1    2    0    0  0.74410320765E+01 -0.11065101315E+03  0.10206820837E+03  0.15072138146E+03  0.00000000000E+00 0.  1.
         11    1    1    2    0    0 -0.38960897398E+02  0.56103024721E+02 -0.73526825224E+02  0.10035783446E+03  0.00000000000E+00 0. -1.
        -15    1    3    3    0    0 -0.25473777187E+02  0.45389726002E+02 -0.18705365578E+02  0.55337048901E+02  0.17770000000E+01 0.  1.
         15    1    3    3    0    0  0.56993642508E+02  0.91582624275E+01 -0.98360175709E+01  0.58583735181E+02  0.17770000000E+01 0. -1.
</event>
<event>
 7    1  0.3165060E-007  0.1694399E+03  0.7546771E-02  0.1079354E+00
        -11   -1    0    0    0    0  0.00000000000E+00  0.00000000000E+00  0.18250000000E+03  0.18250000000E+03  0.00000000000E+00 0. -1.
         11   -1    0    0    0    0 -0.00000000000E+00 -0.00000000000E+00 -0.18250000000E+03  0.18250000000E+03  0.00000000000E+00 0. -1.
         23    2    1    2    0    0 -0.30886039103E+02 -0.24164891464E+02 -0.10830168328E+03  0.15248198775E+03  0.99918029382E+02 0.  0.
        -11    1    1    2    0    0  0.42826354854E+02 -0.43521801957E+01  0.15256796216E+03  0.15852451299E+03  0.00000000000E+00 0. -1.
         11    1    1    2    0    0 -0.11940315750E+02  0.28517071660E+02 -0.44266278878E+02  0.53993499257E+02  0.00000000000E+00 0. -1.
        -15    1    3    3    0    0 -0.25759908127E+02 -0.19381384726E+02  0.10123834696E+02  0.33835790201E+02  0.17770000000E+01 0.  1.
         15    1    3    3    0    0 -0.51261309763E+01 -0.47835067389E+01 -0.11842551798E+03  0.11864619755E+03  0.17770000000E+01 0. -1.
</event>
<event>
 7    1  0.3165060E-007  0.1504405E+03  0.7546771E-02  0.1097292E+00
        -11   -1    0    0    0    0  0.00000000000E+00  0.00000000000E+00  0.18250000000E+03  0.18250000000E+03  0.00000000000E+00 0.  1.
         11   -1    0    0    0    0 -0.00000000000E+00 -0.00000000000E+00 -0.18250000000E+03  0.18250000000E+03  0.00000000000E+00 0. -1.
         23    2    1    2    0    0  0.10399250278E+03 -0.94487081701E+02 -0.24061753119E+02  0.16956351309E+03  0.91818123292E+02 0.  0.
        -11    1    1    2    0    0 -0.22066477595E+01  0.59918005194E+02  0.57283189828E+02  0.82924064527E+02  0.00000000000E+00 0.  1.
         11    1    1    2    0    0 -0.10178585502E+03  0.34569076507E+02 -0.33221436709E+02  0.11251242238E+03  0.00000000000E+00 0. -1.
        -15    1    3    3    0    0  0.10449448738E+03 -0.10574483551E+03 -0.67464604046E+01  0.14882788915E+03  0.17770000000E+01 0.  1.
         15    1    3    3    0    0 -0.50198459919E+00  0.11257753814E+02 -0.17315292714E+02  0.20735623942E+02  0.17770000000E+01 0. -1.
</event>
<event>
 7    1  0.3165060E-007  0.1283183E+03  0.7546771E-02  0.1122255E+00
        -11   -1    0    0    0    0  0.00000000000E+00  0.00000000000E+00  0.18250000000E+03  0.18250000000E+03  0.00000000000E+00 0. -1.
         11   -1    0    0    0    0 -0.00000000000E+00 -0.00000000000E+00 -0.18250000000E+03  0.18250000000E+03  0.00000000000E+00 0. -1.
         23    2    1    2    0    0 -0.24353390927E+02 -0.21939302973E+02 -0.36750002526E+02  0.10368150465E+03  0.91240731341E+02 0.  0.
        -11    1    1    2    0    0 -0.29867121072E+02 -0.99953916849E+02  0.67705323416E+02  0.12436575587E+03  0.00000000000E+00 0. -1.
         11    1    1    2    0    0  0.54220511999E+02  0.12189321982E+03 -0.30955320890E+02  0.13695273948E+03  0.00000000000E+00 0. -1.
        -15    1    3    3    0    0  0.34316309634E+02 -0.13977614142E+01 -0.17473733993E+02  0.38575276442E+02  0.17770000000E+01 0. -1.
         15    1    3    3    0    0 -0.58669700562E+02 -0.20541541559E+02 -0.19276268533E+02  0.65106228206E+02  0.17770000000E+01 0.  1.
</event>
<event>
 7    1  0.3165060E-007  0.1854194E+03  0.7546771E-02  0.1066154E+00
        -11   -1    0    0    0    0  0.00000000000E+00  0.00000000000E+00  0.18250000000E+03  0.18250000000E+03  0.00000000000E+00 0. -1.
         11   -1    0    0    0    0 -0.00000000000E+00 -0.00000000000E+00 -0.18250000000E+03  0.18250000000E+03  0.00000000000E+00 0. -1.
         23    2    1    2    0    0  0.45363266589E+02 -0.53155989129E+02 -0.14447772393E+03  0.18360992049E+03  0.89193077383E+02 0.  0.
        -11    1    1    2    0    0 -0.60202332164E+02  0.45893297260E+02  0.14634425374E+03  0.16476394064E+03  0.00000000000E+00 0. -1.
         11    1    1    2    0    0  0.14839065576E+02  0.72626918686E+01 -0.18665298114E+01  0.16626138875E+02  0.00000000000E+00 0. -1.
        -15    1    3    3    0    0 -0.17759339060E+02 -0.23906730237E+02 -0.87667837413E+01  0.31095660479E+02  0.17770000000E+01 0.  1.
         15    1    3    3    0    0  0.63122605649E+02 -0.29249258892E+02 -0.13571094019E+03  0.15251426001E+03  0.17770000000E+01 0. -1.
</event>
<event>
 6    1  0.7333507E-007  0.1923887E+03  0.7546771E-02  0.1060845E+00
        -11   -1    0    0    0    0  0.00000000000E+00  0.00000000000E+00  0.18250000000E+03  0.18250000000E+03  0.00000000000E+00 0. -1.
         11   -1    0    0    0    0 -0.00000000000E+00 -0.00000000000E+00 -0.18250000000E+03  0.18250000000E+03  0.00000000000E+00 0. -1.
        -11    1    1    2    0    0 -0.16494341172E+02 -0.48851798868E+02  0.16473035986E+03  0.17261127716E+03  0.00000000000E+00 0. -1.
         11    1    1    2    0    0  0.19246848056E+02  0.38955073710E+02 -0.54934264120E+02  0.70040790274E+02  0.00000000000E+00 0. -1.
        -15    1    1    2    0    0 -0.23678712322E+02  0.18302372398E+02 -0.75799370486E+02  0.81512947117E+02  0.17770000000E+01 0. -1.
         15    1    1    2    0    0  0.20926205438E+02 -0.84056472404E+01 -0.33996725255E+02  0.40834985449E+02  0.17770000000E+01 0.  1.
</event>
<event>
 7    1  0.3165060E-007  0.1767737E+03  0.7546771E-02  0.1073107E+00
        -11   -1    0    0    0    0  0.00000000000E+00  0.00000000000E+00  0.18250000000E+03  0.18250000000E+03  0.00000000000E+00 0.  1.
         11   -1    0    0    0    0 -0.00000000000E+00 -0.00000000000E+00 -0.18250000000E+03  0.18250000000E+03  0.00000000000E+00 0. -1.
         23    2    1    2    0    0 -0.44617910923E+02  0.77537527711E+02 -0.12103573556E+03  0.17588170932E+03  0.91004946095E+02 0.  0.
        -11    1    1    2    0    0  0.12066448619E+02 -0.76563615583E+02  0.13340115679E+03  0.15428368367E+03  0.00000000000E+00 0.  1.
         11    1    1    2    0    0  0.32551462304E+02 -0.97391212773E+00 -0.12365421237E+02  0.34834607007E+02  0.00000000000E+00 0. -1.
        -15    1    3    3    0    0 -0.28439785635E+02  0.10303160041E+02  0.63185724163E+01  0.30952521710E+02  0.17770000000E+01 0.  1.
         15    1    3    3    0    0 -0.16178125288E+02  0.67234367670E+02 -0.12735430797E+03  0.14492918761E+03  0.17770000000E+01 0. -1.
</event>
<event>
 7    1  0.3165060E-007  0.1624968E+03  0.7546771E-02  0.1085596E+00
        -11   -1    0    0    0    0  0.00000000000E+00  0.00000000000E+00  0.18250000000E+03  0.18250000000E+03  0.00000000000E+00 0.  1.
         11   -1    0    0    0    0 -0.00000000000E+00 -0.00000000000E+00 -0.18250000000E+03  0.18250000000E+03  0.00000000000E+00 0.  1.
         23    2    1    2    0    0 -0.34332037596E+02  0.20481184198E+02 -0.12298653645E+03  0.15767227743E+03  0.90203609751E+02 0.  0.
        -11    1    1    2    0    0 -0.10249990240E+02  0.15044212892E+02  0.14506011867E+03  0.14619790925E+03  0.00000000000E+00 0.  1.
         11    1    1    2    0    0  0.44582027836E+02 -0.35525397090E+02 -0.22073582219E+02  0.61129813318E+02  0.00000000000E+00 0.  1.
        -15    1    3    3    0    0 -0.33915315761E+02 -0.31691894029E+02 -0.58938356587E+02  0.75043403417E+02  0.17770000000E+01 0.  1.
         15    1    3    3    0    0 -0.41672183518E+00  0.52173078227E+02 -0.64048179860E+02  0.82628874016E+02  0.17770000000E+01 0. -1.
</event>
<event>
 7    1  0.3165060E-007  0.1520056E+03  0.7546771E-02  0.1095706E+00
        -11   -1    0    0    0    0  0.00000000000E+00  0.00000000000E+00  0.18250000000E+03  0.18250000000E+03  0.00000000000E+00 0.  1.
         11   -1    0    0    0    0 -0.00000000000E+00 -0.00000000000E+00 -0.18250000000E+03  0.18250000000E+03  0.00000000000E+00 0. -1.
         23    2    1    2    0    0 -0.21057323751E+02  0.15619987706E+02 -0.12816017042E+03  0.15878473976E+03  0.90000941106E+02 0.  0.
        -11    1    1    2    0    0 -0.16273630878E+02 -0.78804320808E+02  0.98173350867E+02  0.12693683020E+03  0.00000000000E+00 0.  1.
         11    1    1    2    0    0  0.37330954630E+02  0.63184333103E+02  0.29986819551E+02  0.79278430042E+02  0.00000000000E+00 0. -1.
        -15    1    3    3    0    0  0.35675115509E+01 -0.92069266685E+01  0.11233307519E+02  0.15061193982E+02  0.17770000000E+01 0.  1.
         15    1    3    3    0    0 -0.24624835302E+02  0.24826914374E+02 -0.13939347794E+03  0.14372354578E+03  0.17770000000E+01 0. -1.
</event>
<event>
 7    1  0.3165060E-007  0.1428034E+03  0.7546771E-02  0.1105343E+00
        -11   -1    0    0    0    0  0.00000000000E+00  0.00000000000E+00  0.18250000000E+03  0.18250000000E+03  0.00000000000E+00 0. -1.
         11   -1    0    0    0    0 -0.00000000000E+00 -0.00000000000E+00 -0.18250000000E+03  0.18250000000E+03  0.00000000000E+00 0.  1.
         23    2    1    2    0    0  0.60913828694E+02 -0.35460107992E+02 -0.80556385973E+02  0.14236219338E+03  0.93860263147E+02 0.  0.
        -11    1    1    2    0    0  0.27031779472E+02  0.69314707411E+02  0.10174847059E+03  0.12604759828E+03  0.00000000000E+00 0. -1.
         11    1    1    2    0    0 -0.87945608166E+02 -0.33854599419E+02 -0.21192084613E+02  0.96590208343E+02  0.00000000000E+00 0.  1.
        -15    1    3    3    0    0 -0.76658458887E+01  0.22225248457E+02 -0.28743146886E+01  0.23751763642E+02  0.17770000000E+01 0.  1.
         15    1    3    3    0    0  0.68579674583E+02 -0.57685356450E+02 -0.77682071284E+02  0.11861042974E+03  0.17770000000E+01 0. -1.
</event>
<event>
 7    1  0.3165060E-007  0.1711096E+03  0.7546771E-02  0.1077901E+00
        -11   -1    0    0    0    0  0.00000000000E+00  0.00000000000E+00  0.18250000000E+03  0.18250000000E+03  0.00000000000E+00 0. -1.
         11   -1    0    0    0    0 -0.00000000000E+00 -0.00000000000E+00 -0.18250000000E+03  0.18250000000E+03  0.00000000000E+00 0. -1.
         23    2    1    2    0    0  0.31274380199E+02  0.27589724753E+02 -0.12482798256E+03  0.15924568254E+03  0.89654238103E+02 0.  0.
        -11    1    1    2    0    0 -0.21732049768E+02 -0.66836411287E+02  0.14460716133E+03  0.16078127679E+03  0.00000000000E+00 0. -1.
         11    1    1    2    0    0 -0.95423304301E+01  0.39246686534E+02 -0.19779178771E+02  0.44973040666E+02  0.00000000000E+00 0. -1.
        -15    1    3    3    0    0  0.44416295813E+02  0.42720695905E+02 -0.12471909903E+03  0.13912539878E+03  0.17770000000E+01 0. -1.
         15    1    3    3    0    0 -0.13141915614E+02 -0.15130971152E+02 -0.10888352180E+00  0.20120283761E+02  0.17770000000E+01 0.  1.
</event>
<event>
 7    1  0.3165060E-007  0.1619935E+03  0.7546771E-02  0.1086061E+00
        -11   -1    0    0    0    0  0.00000000000E+00  0.00000000000E+00  0.18250000000E+03  0.18250000000E+03  0.00000000000E+00 0. -1.
         11   -1    0    0    0    0 -0.00000000000E+00 -0.00000000000E+00 -0.18250000000E+03  0.18250000000E+03  0.00000000000E+00 0.  1.
         23    2    1    2    0    0 -0.29847490444E+01 -0.23403034717E+02 -0.10828229304E+03  0.14258554856E+03  0.89716068300E+02 0.  0.
        -11    1    1    2    0    0  0.29738815275E+02  0.66947114371E+02  0.14297218970E+03  0.16064669397E+03  0.00000000000E+00 0. -1.
         11    1    1    2    0    0 -0.26754066231E+02 -0.43544079654E+02 -0.34689896660E+02  0.61767757471E+02  0.00000000000E+00 0.  1.
        -15    1    3    3    0    0 -0.21531771195E+02  0.12537965151E+02 -0.97558791832E+02  0.10070597467E+03  0.17770000000E+01 0.  1.
         15    1    3    3    0    0  0.18547022151E+02 -0.35940999869E+02 -0.10723501207E+02  0.41879573892E+02  0.17770000000E+01 0. -1.
</event>
<event>
 7    1  0.3165060E-007  0.1808015E+03  0.7546771E-02  0.1069815E+00
        -11   -1    0    0    0    0  0.00000000000E+00  0.00000000000E+00  0.18250000000E+03  0.18250000000E+03  0.00000000000E+00 0.  1.
         11   -1    0    0    0    0 -0.00000000000E+00 -0.00000000000E+00 -0.18250000000E+03  0.18250000000E+03  0.00000000000E+00 0. -1.
         23    2    1    2    0    0  0.52371091343E+02  0.43669338988E+02 -0.13202276310E+03  0.17457678673E+03  0.91636794541E+02 0.  0.
        -11    1    1    2    0    0 -0.44288677251E+02 -0.67833568080E+02  0.14165438682E+03  0.16318347096E+03  0.00000000000E+00 0.  1.
         11    1    1    2    0    0 -0.80824140918E+01  0.24164229092E+02 -0.96316237195E+01  0.27239742301E+02  0.00000000000E+00 0. -1.
        -15    1    3    3    0    0 -0.23797681099E+02  0.26190152438E+02 -0.33004333958E+02  0.48422076570E+02  0.17770000000E+01 0.  1.
         15    1    3    3    0    0  0.76168772442E+02  0.17479186550E+02 -0.99018429142E+02  0.12615471016E+03  0.17770000000E+01 0. -1.
</event>
<event>
 7    1  0.3165060E-007  0.1769933E+03  0.7546771E-02  0.1072925E+00
        -11   -1    0    0    0    0  0.00000000000E+00  0.00000000000E+00  0.18250000000E+03  0.18250000000E+03  0.00000000000E+00 0. -1.
         11   -1    0    0    0    0 -0.00000000000E+00 -0.00000000000E+00 -0.18250000000E+03  0.18250000000E+03  0.00000000000E+00 0.  1.
         23    2    1    2    0    0  0.12229584756E+03 -0.30229344105E+02 -0.71883754209E+02  0.17074810239E+03  0.90097462647E+02 0.  0.
        -11    1    1    2    0    0 -0.12370799059E+03  0.13133301596E+02  0.10114545969E+03  0.16033263723E+03  0.00000000000E+00 0. -1.
         11    1    1    2    0    0  0.14121430291E+01  0.17096042509E+02 -0.29261705477E+02  0.33919260381E+02  0.00000000000E+00 0.  1.
        -15    1    3    3    0    0  0.12625283764E+03 -0.37307814095E+02 -0.83915541648E+02  0.15613016321E+03  0.17770000000E+01 0.  1.
         15    1    3    3    0    0 -0.39569900818E+01  0.70784699896E+01  0.12031787439E+02  0.14617939180E+02  0.17770000000E+01 0. -1.
</event>
<event>
 7    1  0.3165060E-007  0.1684682E+03  0.7546771E-02  0.1080207E+00
        -11   -1    0    0    0    0  0.00000000000E+00  0.00000000000E+00  0.18250000000E+03  0.18250000000E+03  0.00000000000E+00 0. -1.
         11   -1    0    0    0    0 -0.00000000000E+00 -0.00000000000E+00 -0.18250000000E+03  0.18250000000E+03  0.00000000000E+00 0.  1.
         23    2    1    2    0    0 -0.51218254791E+02  0.58292823388E+02 -0.12171754707E+03  0.17190169864E+03  0.93347039840E+02 0.  0.
        -11    1    1    2    0    0  0.22837860529E+01 -0.45517808746E+02  0.13358892229E+03  0.14114916490E+03  0.00000000000E+00 0. -1.
         11    1    1    2    0    0  0.48934468739E+02 -0.12775014642E+02 -0.11871375219E+02  0.51949136465E+02  0.00000000000E+00 0.  1.
        -15    1    3    3    0    0  0.51938750817E+01  0.31420450506E+02  0.33603601928E+01  0.32072898185E+02  0.17770000000E+01 0. -1.
         15    1    3    3    0    0 -0.56412129873E+02  0.26872372881E+02 -0.12507790727E+03  0.13982880045E+03  0.17770000000E+01 0.  1.
</event>
<event>
 7    1  0.3165060E-007  0.1744276E+03  0.7546771E-02  0.1075068E+00
        -11   -1    0    0    0    0  0.00000000000E+00  0.00000000000E+00  0.18250000000E+03  0.18250000000E+03  0.00000000000E+00 0. -1.
         11   -1    0    0    0    0 -0.00000000000E+00 -0.00000000000E+00 -0.18250000000E+03  0.18250000000E+03  0.00000000000E+00 0.  1.
         23    2    1    2    0    0 -0.14925641394E+03 -0.56178606767E+02 -0.64432523724E+01  0.18403220900E+03  0.91612365365E+02 0.  0.
        -11    1    1    2    0    0  0.13932616148E+03  0.18511781774E+02  0.14142752000E+02  0.14126033687E+03  0.00000000000E+00 0. -1.
         11    1    1    2    0    0  0.99302524607E+01  0.37666824993E+02 -0.76994996276E+01  0.39707454130E+02  0.00000000000E+00 0.  1.
        -15    1    3    3    0    0 -0.14143767315E+03 -0.76549391017E+02  0.12172271194E+01  0.16083862727E+03  0.17770000000E+01 0.  1.
         15    1    3    3    0    0 -0.78187407936E+01  0.20370784250E+02 -0.76604794918E+01  0.23193581733E+02  0.17770000000E+01 0. -1.
</event>
<event>
 7    1  0.3165060E-007  0.1689967E+03  0.7546771E-02  0.1079742E+00
        -11   -1    0    0    0    0  0.00000000000E+00  0.00000000000E+00  0.18250000000E+03  0.18250000000E+03  0.00000000000E+00 0.  1.
         11   -1    0    0    0    0 -0.00000000000E+00 -0.00000000000E+00 -0.18250000000E+03  0.18250000000E+03  0.00000000000E+00 0.  1.
         23    2    1    2    0    0 -0.25861435369E+01  0.10502303070E+02 -0.14830238252E+03  0.17468234209E+03  0.91669719480E+02 0.  0.
        -11    1    1    2    0    0 -0.11588215050E+01 -0.56291151476E+02  0.12849291438E+03  0.14028708296E+03  0.00000000000E+00 0.  1.
         11    1    1    2    0    0  0.37449650419E+01  0.45788848406E+02  0.19809468141E+02  0.50030574947E+02  0.00000000000E+00 0.  1.
        -15    1    3    3    0    0  0.24243413638E+02  0.15921884748E+01 -0.14398237196E+03  0.14602862504E+03  0.17770000000E+01 0.  1.
         15    1    3    3    0    0 -0.26829557175E+02  0.89101145952E+01 -0.43200105607E+01  0.28653717046E+02  0.17770000000E+01 0. -1.
</event>
<event>
 7    1  0.3165060E-007  0.1476777E+03  0.7546771E-02  0.1100142E+00
        -11   -1    0    0    0    0  0.00000000000E+00  0.00000000000E+00  0.18250000000E+03  0.18250000000E+03  0.00000000000E+00 0.  1.
         11   -1    0    0    0    0 -0.00000000000E+00 -0.00000000000E+00 -0.18250000000E+03  0.18250000000E+03  0.00000000000E+00 0. -1.
         23    2    1    2    0    0  0.22608441336E+02  0.10006343520E+03  0.36310092751E+02  0.14223444972E+03  0.91588116962E+02 0.  0.
        -11    1    1    2    0    0  0.41240659645E+02 -0.39112158451E+02  0.66355082064E+02  0.87370188637E+02  0.00000000000E+00 0.  1.
         11    1    1    2    0    0 -0.63849100980E+02 -0.60951276751E+02 -0.10266517482E+03  0.13539536164E+03  0.00000000000E+00 0. -1.
        -15    1    3    3    0    0 -0.14319228591E+01  0.34189851843E+02 -0.30122223109E+02  0.45623485467E+02  0.17770000000E+01 0. -1.
         15    1    3    3    0    0  0.24040364195E+02  0.65873583359E+02  0.66432315860E+02  0.96610964257E+02  0.17770000000E+01 0.  1.
</event>
<event>
 7    1  0.3165060E-007  0.1872219E+03  0.7546771E-02  0.1064757E+00
        -11   -1    0    0    0    0  0.00000000000E+00  0.00000000000E+00  0.18250000000E+03  0.18250000000E+03  0.00000000000E+00 0.  1.
         11   -1    0    0    0    0 -0.00000000000E+00 -0.00000000000E+00 -0.18250000000E+03  0.18250000000E+03  0.00000000000E+00 0.  1.
         23    2    1    2    0    0 -0.21648582793E+02  0.45250359457E+02 -0.16308215362E+03  0.18722193425E+03  0.77071445208E+02 0.  0.
        -11    1    1    2    0    0 -0.76040670714E+01  0.71375020250E+01  0.30966131876E+02  0.32675175509E+02  0.00000000000E+00 0.  1.
         11    1    1    2    0    0  0.29252649864E+02 -0.52387861482E+02  0.13211602175E+03  0.14510289024E+03  0.00000000000E+00 0.  1.
        -15    1    3    3    0    0 -0.38999419686E+02  0.54847034160E+02 -0.14681100352E+03  0.16151092958E+03  0.17770000000E+01 0.  1.
         15    1    3    3    0    0  0.17350836893E+02 -0.95966747033E+01 -0.16271150105E+02  0.25711004667E+02  0.17770000000E+01 0. -1.
</event>
<event>
 7    1  0.3165060E-007  0.1637617E+03  0.7546771E-02  0.1084433E+00
        -11   -1    0    0    0    0  0.00000000000E+00  0.00000000000E+00  0.18250000000E+03  0.18250000000E+03  0.00000000000E+00 0.  1.
         11   -1    0    0    0    0 -0.00000000000E+00 -0.00000000000E+00 -0.18250000000E+03  0.18250000000E+03  0.00000000000E+00 0. -1.
         23    2    1    2    0    0  0.42738157858E+02 -0.27584281224E+02 -0.12578755008E+03  0.16117103803E+03  0.86983636617E+02 0.  0.
        -11    1    1    2    0    0 -0.82543608508E+02 -0.13072774961E+02  0.12055561738E+03  0.14669015520E+03  0.00000000000E+00 0.  1.
         11    1    1    2    0    0  0.39805450650E+02  0.40657056185E+02  0.52319326969E+01  0.57138806768E+02  0.00000000000E+00 0. -1.
        -15    1    3    3    0    0  0.67088936974E+02 -0.15841678367E+02 -0.10996269736E+03  0.12979536501E+03  0.17770000000E+01 0. -1.
         15    1    3    3    0    0 -0.24350779116E+02 -0.11742602858E+02 -0.15824852717E+02  0.31375673027E+02  0.17770000000E+01 0.  1.
</event>
<event>
 7    1  0.3165060E-007  0.1264132E+03  0.7546771E-02  0.1124663E+00
        -11   -1    0    0    0    0  0.00000000000E+00  0.00000000000E+00  0.18250000000E+03  0.18250000000E+03  0.00000000000E+00 0. -1.
         11   -1    0    0    0    0 -0.00000000000E+00 -0.00000000000E+00 -0.18250000000E+03  0.18250000000E+03  0.00000000000E+00 0.  1.
         23    2    1    2    0    0  0.16106392598E+02  0.19395276330E+02 -0.42987284217E+02  0.10730902102E+03  0.95035397412E+02 0.  0.
        -11    1    1    2    0    0 -0.10754301120E+03  0.64988786471E+02  0.44373363502E+02  0.13325928490E+03  0.00000000000E+00 0. -1.
         11    1    1    2    0    0  0.91436618599E+02 -0.84384062801E+02 -0.13860792849E+01  0.12443169408E+03  0.00000000000E+00 0.  1.
        -15    1    3    3    0    0 -0.23176469151E+02 -0.30394730243E+01  0.19259755215E+02  0.30339463056E+02  0.17770000000E+01 0. -1.
         15    1    3    3    0    0  0.39282861750E+02  0.22434749354E+02 -0.62247039432E+02  0.76969557963E+02  0.17770000000E+01 0.  1.
</event>
<event>
 7    1  0.3165060E-007  0.1612921E+03  0.7546771E-02  0.1086713E+00
        -11   -1    0    0    0    0  0.00000000000E+00  0.00000000000E+00  0.18250000000E+03  0.18250000000E+03  0.00000000000E+00 0. -1.
         11   -1    0    0    0    0 -0.00000000000E+00 -0.00000000000E+00 -0.18250000000E+03  0.18250000000E+03  0.00000000000E+00 0. -1.
         23    2    1    2    0    0  0.22956726440E+02 -0.11368211036E+03 -0.25426503439E+02  0.14973036391E+03  0.91225222909E+02 0.  0.
        -11    1    1    2    0    0  0.48503148552E+02 -0.19338222203E+02  0.36740555073E+02  0.63846618113E+02  0.00000000000E+00 0. -1.
         11    1    1    2    0    0 -0.71459874992E+02  0.13302033256E+03 -0.11314051634E+02  0.15142301798E+03  0.00000000000E+00 0. -1.
        -15    1    3    3    0    0 -0.22069527092E+01 -0.67513820326E+02  0.29447032450E+02  0.73710732084E+02  0.17770000000E+01 0.  1.
         15    1    3    3    0    0  0.25163679149E+02 -0.46168290034E+02 -0.54873535889E+02  0.76019631826E+02  0.17770000000E+01 0. -1.
</event>
<event>
 7    1  0.3165060E-007  0.1744721E+03  0.7546771E-02  0.1075031E+00
        -11   -1    0    0    0    0  0.00000000000E+00  0.00000000000E+00  0.18250000000E+03  0.18250000000E+03  0.00000000000E+00 0.  1.
         11   -1    0    0    0    0 -0.00000000000E+00 -0.00000000000E+00 -0.18250000000E+03  0.18250000000E+03  0.00000000000E+00 0.  1.
         23    2    1    2    0    0 -0.88391047672E+01  0.34141177676E+02  0.12789292679E+03  0.16024214683E+03  0.89873216870E+02 0.  0.
        -11    1    1    2    0    0  0.16873378636E+02  0.18746249880E+02  0.29330260783E+02  0.38683290821E+02  0.00000000000E+00 0.  1.
         11    1    1    2    0    0 -0.80342738684E+01 -0.52887427556E+02 -0.15722318757E+03  0.16607456235E+03  0.00000000000E+00 0.  1.
        -15    1    3    3    0    0 -0.50794974437E+01 -0.22626965805E+02  0.35991099775E+01  0.23534914435E+02  0.17770000000E+01 0. -1.
         15    1    3    3    0    0 -0.37596073235E+01  0.56768143481E+02  0.12429381681E+03  0.13670723239E+03  0.17770000000E+01 0.  1.
</event>
<event>
 7    1  0.3165060E-007  0.1568137E+03  0.7546771E-02  0.1090965E+00
        -11   -1    0    0    0    0  0.00000000000E+00  0.00000000000E+00  0.18250000000E+03  0.18250000000E+03  0.00000000000E+00 0.  1.
         11   -1    0    0    0    0 -0.00000000000E+00 -0.00000000000E+00 -0.18250000000E+03  0.18250000000E+03  0.00000000000E+00 0. -1.
         23    2    1    2    0    0  0.60774270503E+02 -0.13447746943E+03 -0.71865125270E+02  0.17339065976E+03  0.55875065309E+02 0.  0.
        -11    1    1    2    0    0 -0.38372516345E+02  0.47850075576E+01  0.41133091461E+02  0.56455978612E+02  0.00000000000E+00 0.  1.
         11    1    1    2    0    0 -0.22401754158E+02  0.12969246187E+03  0.30732033809E+02  0.13515336162E+03  0.00000000000E+00 0. -1.
        -15    1    3    3    0    0  0.13873995648E+01 -0.70220431992E+02 -0.30482505396E+02  0.76584429298E+02  0.17770000000E+01 0. -1.
         15    1    3    3    0    0  0.59386870938E+02 -0.64257037440E+02 -0.41382619874E+02  0.96806230466E+02  0.17770000000E+01 0.  1.
</event>
<event>
 7    1  0.3165060E-007  0.1345722E+03  0.7546771E-02  0.1114666E+00
        -11   -1    0    0    0    0  0.00000000000E+00  0.00000000000E+00  0.18250000000E+03  0.18250000000E+03  0.00000000000E+00 0.  1.
         11   -1    0    0    0    0 -0.00000000000E+00 -0.00000000000E+00 -0.18250000000E+03  0.18250000000E+03  0.00000000000E+00 0. -1.
         23    2    1    2    0    0  0.18904032515E+02 -0.77980654316E+02 -0.87981018628E+02  0.14949091168E+03  0.90379910068E+02 0.  0.
        -11    1    1    2    0    0  0.39174575590E+02  0.10085195184E+03  0.68832766304E+00  0.10819536662E+03  0.00000000000E+00 0. -1.
         11    1    1    2    0    0 -0.58078608105E+02 -0.22871297521E+02  0.87292690965E+02  0.10731372170E+03  0.00000000000E+00 0.  1.
        -15    1    3    3    0    0 -0.21362988087E+02 -0.51172327533E+02 -0.84332651348E+02  0.10094621428E+03  0.17770000000E+01 0.  1.
         15    1    3    3    0    0  0.40267020601E+02 -0.26808326783E+02 -0.36483672799E+01  0.48544697402E+02  0.17770000000E+01 0. -1.
</event>
<event>
 7    1  0.3165060E-007  0.1689019E+03  0.7546771E-02  0.1079826E+00
        -11   -1    0    0    0    0  0.00000000000E+00  0.00000000000E+00  0.18250000000E+03  0.18250000000E+03  0.00000000000E+00 0.  1.
         11   -1    0    0    0    0 -0.00000000000E+00 -0.00000000000E+00 -0.18250000000E+03  0.18250000000E+03  0.00000000000E+00 0.  1.
         23    2    1    2    0    0 -0.64346344046E+02  0.28356729918E+02 -0.11552019113E+03  0.16219558019E+03  0.89542925748E+02 0.  0.
        -11    1    1    2    0    0  0.27642643872E+02 -0.31641612772E+02  0.14789825973E+03  0.15375045577E+03  0.00000000000E+00 0.  1.
         11    1    1    2    0    0  0.36703700175E+02  0.32848828541E+01 -0.32378068594E+02  0.49053964037E+02  0.00000000000E+00 0.  1.
        -15    1    3    3    0    0  0.53562112326E+01  0.33730261087E+01  0.12597175377E+02  0.14209604512E+02  0.17770000000E+01 0. -1.
         15    1    3    3    0    0 -0.69702555279E+02  0.24983703809E+02 -0.12811736651E+03  0.14798597568E+03  0.17770000000E+01 0.  1.
</event>
<event>
 7    1  0.3165060E-007  0.1289459E+03  0.7546771E-02  0.1121472E+00
        -11   -1    0    0    0    0  0.00000000000E+00  0.00000000000E+00  0.18250000000E+03  0.18250000000E+03  0.00000000000E+00 0. -1.
         11   -1    0    0    0    0 -0.00000000000E+00 -0.00000000000E+00 -0.18250000000E+03  0.18250000000E+03  0.00000000000E+00 0.  1.
         23    2    1    2    0    0  0.14596572630E+02  0.26375448812E+02 -0.37535571096E+02  0.10265316559E+03  0.90664376005E+02 0.  0.
        -11    1    1    2    0    0 -0.96511342394E+02  0.22659883819E+02  0.10579527816E+03  0.14498465583E+03  0.00000000000E+00 0. -1.
         11    1    1    2    0    0  0.81914769763E+02 -0.49035332632E+02 -0.68259707064E+02  0.11736217858E+03  0.00000000000E+00 0.  1.
        -15    1    3    3    0    0 -0.16175802651E+02 -0.22411518660E+02  0.83476972103E+01  0.28927055463E+02  0.17770000000E+01 0.  1.
         15    1    3    3    0    0  0.30772375281E+02  0.48786967473E+02 -0.45883268306E+02  0.73726110131E+02  0.17770000000E+01 0. -1.
</event>
<event>
 6    1  0.3165060E-007  0.1231433E+03  0.7546771E-02  0.1128906E+00
        -11   -1    0    0    0    0  0.00000000000E+00  0.00000000000E+00  0.18250000000E+03  0.18250000000E+03  0.00000000000E+00 0.  1.
         11   -1    0    0    0    0 -0.00000000000E+00 -0.00000000000E+00 -0.18250000000E+03  0.18250000000E+03  0.00000000000E+00 0. -1.
        -11    1    1    2    0    0  0.84744262079E+01 -0.60735544575E+02  0.22147256549E+02  0.65200638395E+02  0.00000000000E+00 0.  1.
         11    1    1    2    0    0  0.53737885235E+01  0.47193327870E+02 -0.11704755788E+03  0.12631792670E+03  0.00000000000E+00 0. -1.
        -15    1    1    2    0    0  0.20141597588E+02  0.69777974167E+01  0.12546007995E+03  0.12727043254E+03  0.17770000000E+01 0.  1.
         15    1    1    2    0    0 -0.33989812319E+02  0.65644192888E+01 -0.30559778611E+02  0.46211002368E+02  0.17770000000E+01 0. -1.
</event>
<event>
 7    1  0.3165060E-007  0.1569937E+03  0.7546771E-02  0.1090791E+00
        -11   -1    0    0    0    0  0.00000000000E+00  0.00000000000E+00  0.18250000000E+03  0.18250000000E+03  0.00000000000E+00 0. -1.
         11   -1    0    0    0    0 -0.00000000000E+00 -0.00000000000E+00 -0.18250000000E+03  0.18250000000E+03  0.00000000000E+00 0. -1.
         23    2    1    2    0    0 -0.90051915968E+01  0.46481529105E+02 -0.83349228814E+02  0.13376013612E+03  0.93290160512E+02 0.  0.
        -11    1    1    2    0    0 -0.30643666039E+02 -0.66420553091E+02  0.14078590678E+03  0.15865495797E+03  0.00000000000E+00 0. -1.
         11    1    1    2    0    0  0.39648857635E+02  0.19939023986E+02 -0.57436677966E+02  0.72584905904E+02  0.00000000000E+00 0. -1.
        -15    1    3    3    0    0 -0.13464368054E+02  0.46918797994E+02  0.14087880057E+01  0.48865173947E+02  0.17770000000E+01 0.  1.
         15    1    3    3    0    0  0.44591764572E+01 -0.43726888853E+00 -0.84758016820E+02  0.84894962177E+02  0.17770000000E+01 0. -1.
</event>
<event>
 7    1  0.3165060E-007  0.1548222E+03  0.7546771E-02  0.1092906E+00
        -11   -1    0    0    0    0  0.00000000000E+00  0.00000000000E+00  0.18250000000E+03  0.18250000000E+03  0.00000000000E+00 0. -1.
         11   -1    0    0    0    0 -0.00000000000E+00 -0.00000000000E+00 -0.18250000000E+03  0.18250000000E+03  0.00000000000E+00 0.  1.
         23    2    1    2    0    0  0.28819817699E+02  0.24111299325E+01 -0.89432705471E+02  0.12870561921E+03  0.87923444929E+02 0.  0.
        -11    1    1    2    0    0 -0.24111535951E+02 -0.24334835652E+02  0.15928707755E+03  0.16292919771E+03  0.00000000000E+00 0. -1.
         11    1    1    2    0    0 -0.47082817480E+01  0.21923705720E+02 -0.69854372080E+02  0.73365183079E+02  0.00000000000E+00 0.  1.
        -15    1    3    3    0    0  0.32475034771E+02 -0.11960527621E+02 -0.10291041084E+03  0.10858817842E+03  0.17770000000E+01 0.  1.
         15    1    3    3    0    0 -0.36552170714E+01  0.14371657554E+02  0.13477705371E+02  0.20117440786E+02  0.17770000000E+01 0. -1.
</event>
