<event>
 8    1  0.7476119E-006  0.5001069E+03  0.7546771E-02  0.9399571E-01
        -11   -1    0    0    0    0  0.00000000000E+00  0.00000000000E+00  0.50000000000E+03  0.50000000000E+03  0.00000000000E+00 0.  1.
         11   -1    0    0    0    0 -0.00000000000E+00 -0.00000000000E+00 -0.50000000000E+03  0.50000000000E+03  0.00000000000E+00 0. -1.
         23    2    1    2    0    0  0.30378359630E+02  0.10159574308E+03 -0.48005854785E+03  0.49989313913E+03  0.90511885623E+02 0.  0.
         23    2    1    2    0    0 -0.30378359630E+02 -0.10159574308E+03  0.48005854785E+03  0.50010686087E+03  0.91684912447E+02 0.  0.
        -11    1    3    3    0    0 -0.18647523329E+02  0.35258765224E+02 -0.28967502055E+03  0.29240815341E+03  0.00000000000E+00 0. -1.
         11    1    3    3    0    0  0.49025882959E+02  0.66336977856E+02 -0.19038352731E+03  0.20748498573E+03  0.00000000000E+00 0.  1.
        -15    1    4    4    0    0 -0.47086228414E+02 -0.10531179796E+03  0.45698040993E+03  0.47131936146E+03  0.17770000000E+01 0.  1.
         15    1    4    4    0    0  0.16707868784E+02  0.37160548762E+01  0.23078137925E+02  0.28787499409E+02  0.17770000000E+01 0. -1.
</event>
<event>
 8    1  0.7476119E-006  0.5000186E+03  0.7546771E-02  0.9399768E-01
        -11   -1    0    0    0    0  0.00000000000E+00  0.00000000000E+00  0.50000000000E+03  0.50000000000E+03  0.00000000000E+00 0.  1.
         11   -1    0    0    0    0 -0.00000000000E+00 -0.00000000000E+00 -0.50000000000E+03  0.50000000000E+03  0.00000000000E+00 0. -1.
         23    2    1    2    0    0 -0.66620628474E+02  0.94291356542E+02 -0.47795457602E+03  0.50001859987E+03  0.90823209666E+02 0.  0.
         23    2    1    2    0    0  0.66620628474E+02 -0.94291356542E+02  0.47795457602E+03  0.49998140013E+03  0.90618186275E+02 0.  0.
        -11    1    3    3    0    0 -0.58289786243E+02  0.67166823883E+02 -0.18056004409E+03  0.20127347300E+03  0.00000000000E+00 0. -1.
         11    1    3    3    0    0 -0.83308422312E+01  0.27124532659E+02 -0.29739453193E+03  0.29874512686E+03  0.00000000000E+00 0.  1.
        -15    1    4    4    0    0  0.22854047499E+02  0.15860675124E+02  0.10528884162E+03  0.10891632752E+03  0.17770000000E+01 0. -1.
         15    1    4    4    0    0  0.43766580975E+02 -0.11015203167E+03  0.37266573441E+03  0.39106507262E+03  0.17770000000E+01 0.  1.
</event>
<event>
 8    1  0.7476119E-006  0.5003803E+03  0.7546771E-02  0.9398959E-01
        -11   -1    0    0    0    0  0.00000000000E+00  0.00000000000E+00  0.50000000000E+03  0.50000000000E+03  0.00000000000E+00 0.  1.
         11   -1    0    0    0    0 -0.00000000000E+00 -0.00000000000E+00 -0.50000000000E+03  0.50000000000E+03  0.00000000000E+00 0. -1.
         23    2    1    2    0    0  0.49916503557E+02  0.27126894335E+03 -0.40710966476E+03  0.50038032583E+03  0.92540231178E+02 0.  0.
         23    2    1    2    0    0 -0.49916503557E+02 -0.27126894335E+03  0.40710966476E+03  0.49961967417E+03  0.88334833021E+02 0.  0.
        -11    1    3    3    0    0 -0.18699437114E+01 -0.11555664056E+01  0.39559287867E+01  0.45256376089E+01  0.00000000000E+00 0.  1.
         11    1    3    3    0    0  0.51786447269E+02  0.27242450976E+03 -0.41106559354E+03  0.49585468822E+03  0.00000000000E+00 0. -1.
        -15    1    4    4    0    0 -0.65207554387E+02 -0.23405865114E+03  0.38011938630E+03  0.45114230891E+03  0.17770000000E+01 0.  1.
         15    1    4    4    0    0  0.15291050830E+02 -0.37210292215E+02  0.26990278460E+02  0.48477365260E+02  0.17770000000E+01 0. -1.
</event>
<event>
 8    1  0.7476119E-006  0.5006121E+03  0.7546771E-02  0.9398441E-01
        -11   -1    0    0    0    0  0.00000000000E+00  0.00000000000E+00  0.50000000000E+03  0.50000000000E+03  0.00000000000E+00 0.  1.
         11   -1    0    0    0    0 -0.00000000000E+00 -0.00000000000E+00 -0.50000000000E+03  0.50000000000E+03  0.00000000000E+00 0. -1.
         23    2    1    2    0    0  0.10473787311E+03 -0.12625123671E+03  0.46329609103E+03  0.49938786731E+03  0.88518795850E+02 0.  0.
         23    2    1    2    0    0 -0.10473787311E+03  0.12625123671E+03 -0.46329609103E+03  0.50061213269E+03  0.95183205432E+02 0.  0.
        -11    1    3    3    0    0 -0.84452728164E+01 -0.23890036955E+02  0.26336787449E+02  0.36546995386E+02  0.00000000000E+00 0. -1.
         11    1    3    3    0    0  0.11318314592E+03 -0.10236119975E+03  0.43695930358E+03  0.46284087192E+03  0.00000000000E+00 0.  1.
        -15    1    4    4    0    0 -0.79262809303E+01  0.37222489918E+02 -0.32161011680E+02  0.49858079449E+02  0.17770000000E+01 0.  1.
         15    1    4    4    0    0 -0.96811592175E+02  0.89028746787E+02 -0.43113507935E+03  0.45075405324E+03  0.17770000000E+01 0. -1.
</event>
<event>
 8    1  0.7476119E-006  0.5009751E+03  0.7546771E-02  0.9397631E-01
        -11   -1    0    0    0    0  0.00000000000E+00  0.00000000000E+00  0.50000000000E+03  0.50000000000E+03  0.00000000000E+00 0.  1.
         11   -1    0    0    0    0 -0.00000000000E+00 -0.00000000000E+00 -0.50000000000E+03  0.50000000000E+03  0.00000000000E+00 0. -1.
         23    2    1    2    0    0  0.15744733521E+03  0.10775495794E+03 -0.45415505830E+03  0.49902494070E+03  0.79801504551E+02 0.  0.
         23    2    1    2    0    0 -0.15744733521E+03 -0.10775495794E+03  0.45415505830E+03  0.50097505930E+03  0.91205256075E+02 0.  0.
        -11    1    3    3    0    0  0.71489296371E+02  0.82839260679E+02 -0.31606226176E+03  0.33446736150E+03  0.00000000000E+00 0. -1.
         11    1    3    3    0    0  0.85958038839E+02  0.24915697260E+02 -0.13809279655E+03  0.16455757919E+03  0.00000000000E+00 0.  1.
        -15    1    4    4    0    0 -0.13583304128E+03 -0.61760608487E+02  0.39881976412E+03  0.42582314386E+03  0.17770000000E+01 0.  1.
         15    1    4    4    0    0 -0.21614293934E+02 -0.45994349451E+02  0.55335294183E+02  0.75151915445E+02  0.17770000000E+01 0. -1.
</event>
<event>
 8    1  0.7476119E-006  0.5000394E+03  0.7546771E-02  0.9399722E-01
        -11   -1    0    0    0    0  0.00000000000E+00  0.00000000000E+00  0.50000000000E+03  0.50000000000E+03  0.00000000000E+00 0. -1.
         11   -1    0    0    0    0 -0.00000000000E+00 -0.00000000000E+00 -0.50000000000E+03  0.50000000000E+03  0.00000000000E+00 0.  1.
         23    2    1    2    0    0 -0.33357959582E+02 -0.48405528631E+01 -0.49054338405E+03  0.49996058597E+03  0.90507411142E+02 0.  0.
         23    2    1    2    0    0  0.33357959582E+02  0.48405528631E+01  0.49054338405E+03  0.50003941403E+03  0.90941846951E+02 0.  0.
        -11    1    3    3    0    0 -0.21720880819E+02  0.31632825475E+02 -0.39750902229E+03  0.39935680177E+03  0.00000000000E+00 0.  1.
         11    1    3    3    0    0 -0.11637078763E+02 -0.36473378338E+02 -0.93034361755E+02  0.10060378421E+03  0.00000000000E+00 0. -1.
        -15    1    4    4    0    0  0.62258748219E+02  0.26217649020E+01  0.24591947926E+03  0.25369779933E+03  0.17770000000E+01 0.  1.
         15    1    4    4    0    0 -0.28900788637E+02  0.22187879611E+01  0.24462390479E+03  0.24634161469E+03  0.17770000000E+01 0. -1.
</event>
<event>
 8    1  0.7476119E-006  0.5000542E+03  0.7546771E-02  0.9399688E-01
        -11   -1    0    0    0    0  0.00000000000E+00  0.00000000000E+00  0.50000000000E+03  0.50000000000E+03  0.00000000000E+00 0. -1.
         11   -1    0    0    0    0 -0.00000000000E+00 -0.00000000000E+00 -0.50000000000E+03  0.50000000000E+03  0.00000000000E+00 0.  1.
         23    2    1    2    0    0 -0.17184076881E+02  0.49604111271E+01 -0.49145151673E+03  0.50005420233E+03  0.90607471005E+02 0.  0.
         23    2    1    2    0    0  0.17184076881E+02 -0.49604111271E+01  0.49145151673E+03  0.49994579767E+03  0.90007272692E+02 0.  0.
        -11    1    3    3    0    0  0.24704198551E+02 -0.10877494759E+01 -0.42947390582E+02  0.49557632942E+02  0.00000000000E+00 0. -1.
         11    1    3    3    0    0 -0.41888275432E+02  0.60481606030E+01 -0.44850412614E+03  0.45049656939E+03  0.00000000000E+00 0.  1.
        -15    1    4    4    0    0 -0.41944310680E+01 -0.36644727336E+02  0.99503702907E+02  0.10613469703E+03  0.17770000000E+01 0.  1.
         15    1    4    4    0    0  0.21378507949E+02  0.31684316209E+02  0.39194781382E+03  0.39381110063E+03  0.17770000000E+01 0. -1.
</event>
<event>
 8    1  0.1300181E-005  0.5000565E+03  0.7546771E-02  0.9399683E-01
        -11   -1    0    0    0    0  0.00000000000E+00  0.00000000000E+00  0.50000000000E+03  0.50000000000E+03  0.00000000000E+00 0.  1.
         11   -1    0    0    0    0 -0.00000000000E+00 -0.00000000000E+00 -0.50000000000E+03  0.50000000000E+03  0.00000000000E+00 0. -1.
         23    2    1    2    0    0 -0.56655727084E+02  0.19420115019E+02  0.48817530167E+03  0.49994352193E+03  0.89673784799E+02 0.  0.
         23    2    1    2    0    0  0.56655727084E+02 -0.19420115019E+02 -0.48817530167E+03  0.50005647807E+03  0.90301405414E+02 0.  0.
        -11    1    3    3    0    0 -0.21790949734E+02  0.54034324597E+02  0.24212587876E+03  0.24903713557E+03  0.00000000000E+00 0.  1.
         11    1    3    3    0    0 -0.34864777350E+02 -0.34614209578E+02  0.24604942291E+03  0.25090638636E+03  0.00000000000E+00 0. -1.
        -15    1    4    4    0    0  0.53184519288E+02  0.15156320830E+02 -0.41885066476E+03  0.42248946052E+03  0.17770000000E+01 0. -1.
         15    1    4    4    0    0  0.34712077959E+01 -0.34576435849E+02 -0.69324636915E+02  0.77567017553E+02  0.17770000000E+01 0.  1.
</event>
<event>
 8    1  0.7476119E-006  0.5000462E+03  0.7546771E-02  0.9399706E-01
        -11   -1    0    0    0    0  0.00000000000E+00  0.00000000000E+00  0.50000000000E+03  0.50000000000E+03  0.00000000000E+00 0.  1.
         11   -1    0    0    0    0 -0.00000000000E+00 -0.00000000000E+00 -0.50000000000E+03  0.50000000000E+03  0.00000000000E+00 0. -1.
         23    2    1    2    0    0 -0.91163929924E+02 -0.90286199597E+01 -0.48316109032E+03  0.49995377421E+03  0.90093057714E+02 0.  0.
         23    2    1    2    0    0  0.91163929924E+02  0.90286199597E+01  0.48316109032E+03  0.50004622579E+03  0.90604694278E+02 0.  0.
        -11    1    3    3    0    0 -0.37990786300E+02 -0.33850258873E+02 -0.98741588376E+02  0.11108123669E+03  0.00000000000E+00 0.  1.
         11    1    3    3    0    0 -0.53173143624E+02  0.24821638914E+02 -0.38441950195E+03  0.38887253752E+03  0.00000000000E+00 0. -1.
        -15    1    4    4    0    0  0.40039764402E+02  0.81484477856E+01  0.40219937693E+03  0.40427351690E+03  0.17770000000E+01 0.  1.
         15    1    4    4    0    0  0.51124165522E+02  0.88017217403E+00  0.80961713397E+02  0.95772708892E+02  0.17770000000E+01 0. -1.
</event>
<event>
 8    1  0.7476119E-006  0.5001073E+03  0.7546771E-02  0.9399570E-01
        -11   -1    0    0    0    0  0.00000000000E+00  0.00000000000E+00  0.50000000000E+03  0.50000000000E+03  0.00000000000E+00 0. -1.
         11   -1    0    0    0    0 -0.00000000000E+00 -0.00000000000E+00 -0.50000000000E+03  0.50000000000E+03  0.00000000000E+00 0.  1.
         23    2    1    2    0    0  0.41526092160E+01 -0.29533120820E+02 -0.49089823218E+03  0.49989273645E+03  0.89566870061E+02 0.  0.
         23    2    1    2    0    0 -0.41526092160E+01  0.29533120820E+02  0.49089823218E+03  0.50010726355E+03  0.90756549685E+02 0.  0.
        -11    1    3    3    0    0  0.24298211033E+01  0.92698272386E+01 -0.24347945931E+01  0.98874644039E+01  0.00000000000E+00 0. -1.
         11    1    3    3    0    0  0.17227881127E+01 -0.38802948058E+02 -0.48846343758E+03  0.49000527205E+03  0.00000000000E+00 0.  1.
        -15    1    4    4    0    0  0.40763456560E+02  0.66604213841E+00  0.17270576762E+03  0.17746138426E+03  0.17770000000E+01 0. -1.
         15    1    4    4    0    0 -0.44916065776E+02  0.28867078681E+02  0.31819246455E+03  0.32264587929E+03  0.17770000000E+01 0.  1.
</event>
<event>
 8    1  0.7476119E-006  0.5000927E+03  0.7546771E-02  0.9399602E-01
        -11   -1    0    0    0    0  0.00000000000E+00  0.00000000000E+00  0.50000000000E+03  0.50000000000E+03  0.00000000000E+00 0. -1.
         11   -1    0    0    0    0 -0.00000000000E+00 -0.00000000000E+00 -0.50000000000E+03  0.50000000000E+03  0.00000000000E+00 0.  1.
         23    2    1    2    0    0  0.10434586460E+03 -0.41502075890E+03  0.24205957678E+03  0.50009267234E+03  0.91485258039E+02 0.  0.
         23    2    1    2    0    0 -0.10434586460E+03  0.41502075890E+03 -0.24205957678E+03  0.49990732766E+03  0.90466611323E+02 0.  0.
        -11    1    3    3    0    0  0.38588247578E+02 -0.42879553413E+02  0.49206990521E+02  0.75822403471E+02  0.00000000000E+00 0.  1.
         11    1    3    3    0    0  0.65757617022E+02 -0.37214120548E+03  0.19285258626E+03  0.42427026887E+03  0.00000000000E+00 0. -1.
        -15    1    4    4    0    0 -0.11009654911E+03  0.27443688789E+03 -0.17945711198E+03  0.34589719330E+03  0.17770000000E+01 0.  1.
         15    1    4    4    0    0  0.57506845076E+01  0.14058387100E+03 -0.62602464800E+02  0.15401013436E+03  0.17770000000E+01 0. -1.
</event>
<event>
 8    1  0.7476119E-006  0.5000838E+03  0.7546771E-02  0.9399622E-01
        -11   -1    0    0    0    0  0.00000000000E+00  0.00000000000E+00  0.50000000000E+03  0.50000000000E+03  0.00000000000E+00 0. -1.
         11   -1    0    0    0    0 -0.00000000000E+00 -0.00000000000E+00 -0.50000000000E+03  0.50000000000E+03  0.00000000000E+00 0.  1.
         23    2    1    2    0    0 -0.14174330161E+03  0.63794544636E+02 -0.46641281721E+03  0.49991621906E+03  0.90633341255E+02 0.  0.
         23    2    1    2    0    0  0.14174330161E+03 -0.63794544636E+02  0.46641281721E+03  0.50008378094E+03  0.91553068936E+02 0.  0.
        -11    1    3    3    0    0 -0.90092000008E+01  0.32567448574E+02 -0.40702439337E+02  0.52900784108E+02  0.00000000000E+00 0. -1.
         11    1    3    3    0    0 -0.13273410161E+03  0.31227096062E+02 -0.42571037787E+03  0.44701543495E+03  0.00000000000E+00 0.  1.
        -15    1    4    4    0    0  0.68821284475E+00 -0.17663648397E+02  0.14469360551E+03  0.14578022951E+03  0.17770000000E+01 0.  1.
         15    1    4    4    0    0  0.14105508876E+03 -0.46130896239E+02  0.32171921169E+03  0.35430355143E+03  0.17770000000E+01 0. -1.
</event>
<event>
 8    1  0.7476119E-006  0.5000586E+03  0.7546771E-02  0.9399679E-01
        -11   -1    0    0    0    0  0.00000000000E+00  0.00000000000E+00  0.50000000000E+03  0.50000000000E+03  0.00000000000E+00 0.  1.
         11   -1    0    0    0    0 -0.00000000000E+00 -0.00000000000E+00 -0.50000000000E+03  0.50000000000E+03  0.00000000000E+00 0. -1.
         23    2    1    2    0    0  0.91025555043E+01 -0.10412395677E+03 -0.48013681443E+03  0.49994139935E+03  0.92116162122E+02 0.  0.
         23    2    1    2    0    0 -0.91025555043E+01  0.10412395677E+03  0.48013681443E+03  0.50005860065E+03  0.92750140782E+02 0.  0.
        -11    1    3    3    0    0  0.31121563577E+02 -0.39433546584E+02 -0.83386600774E+02  0.97349275828E+02  0.00000000000E+00 0.  1.
         11    1    3    3    0    0 -0.22019008072E+02 -0.64690410186E+02 -0.39675021366E+03  0.40259212353E+03  0.00000000000E+00 0. -1.
        -15    1    4    4    0    0  0.12541590230E+02 -0.14083770515E+02  0.83004230937E+02  0.85138147500E+02  0.17770000000E+01 0. -1.
         15    1    4    4    0    0 -0.21644145734E+02  0.11820772728E+03  0.39713258350E+03  0.41492045315E+03  0.17770000000E+01 0.  1.
</event>
<event>
 8    1  0.7476119E-006  0.5001368E+03  0.7546771E-02  0.9399504E-01
        -11   -1    0    0    0    0  0.00000000000E+00  0.00000000000E+00  0.50000000000E+03  0.50000000000E+03  0.00000000000E+00 0. -1.
         11   -1    0    0    0    0 -0.00000000000E+00 -0.00000000000E+00 -0.50000000000E+03  0.50000000000E+03  0.00000000000E+00 0.  1.
         23    2    1    2    0    0 -0.42861333312E+01  0.10782746039E+02 -0.49132673297E+03  0.49986320380E+03  0.91250344814E+02 0.  0.
         23    2    1    2    0    0  0.42861333312E+01 -0.10782746039E+02  0.49132673297E+03  0.50013679620E+03  0.92737359410E+02 0.  0.
        -11    1    3    3    0    0 -0.38849886563E+02 -0.14446664880E+01 -0.39309334341E+03  0.39501111045E+03  0.00000000000E+00 0.  1.
         11    1    3    3    0    0  0.34563753231E+02  0.12227412527E+02 -0.98233389563E+02  0.10485209335E+03  0.00000000000E+00 0. -1.
        -15    1    4    4    0    0  0.94360316187E+01  0.37950235912E+02  0.30351415667E+03  0.30602820153E+03  0.17770000000E+01 0. -1.
         15    1    4    4    0    0 -0.51498982875E+01 -0.48732981951E+02  0.18781257630E+03  0.19410859468E+03  0.17770000000E+01 0.  1.
</event>
<event>
 8    1  0.7476119E-006  0.5000452E+03  0.7546771E-02  0.9399709E-01
        -11   -1    0    0    0    0  0.00000000000E+00  0.00000000000E+00  0.50000000000E+03  0.50000000000E+03  0.00000000000E+00 0.  1.
         11   -1    0    0    0    0 -0.00000000000E+00 -0.00000000000E+00 -0.50000000000E+03  0.50000000000E+03  0.00000000000E+00 0. -1.
         23    2    1    2    0    0 -0.12437450431E+02  0.10759620944E+02 -0.49144248709E+03  0.49995480644E+03  0.90380477691E+02 0.  0.
         23    2    1    2    0    0  0.12437450431E+02 -0.10759620944E+02  0.49144248709E+03  0.50004519356E+03  0.90879138795E+02 0.  0.
        -11    1    3    3    0    0  0.96897870589E+01  0.43419058977E+02 -0.35946926183E+03  0.36221161888E+03  0.00000000000E+00 0. -1.
         11    1    3    3    0    0 -0.22127237490E+02 -0.32659438033E+02 -0.13197322526E+03  0.13774318756E+03  0.00000000000E+00 0.  1.
        -15    1    4    4    0    0  0.12649016908E+02  0.31608888696E+02  0.36691095015E+03  0.36849141447E+03  0.17770000000E+01 0.  1.
         15    1    4    4    0    0 -0.21156647686E+00 -0.42368509640E+02  0.12453153694E+03  0.13155377909E+03  0.17770000000E+01 0. -1.
</event>
<event>
 8    1  0.7476119E-006  0.5000958E+03  0.7546771E-02  0.9399595E-01
        -11   -1    0    0    0    0  0.00000000000E+00  0.00000000000E+00  0.50000000000E+03  0.50000000000E+03  0.00000000000E+00 0. -1.
         11   -1    0    0    0    0 -0.00000000000E+00 -0.00000000000E+00 -0.50000000000E+03  0.50000000000E+03  0.00000000000E+00 0.  1.
         23    2    1    2    0    0  0.28299162504E+01  0.26051076631E+02 -0.49058239312E+03  0.49990416793E+03  0.92446880184E+02 0.  0.
         23    2    1    2    0    0 -0.28299162504E+01 -0.26051076631E+02  0.49058239312E+03  0.50009583207E+03  0.93477750264E+02 0.  0.
        -11    1    3    3    0    0  0.39236501249E+02 -0.82514350402E+00 -0.35058693900E+03  0.35277667963E+03  0.00000000000E+00 0.  1.
         11    1    3    3    0    0 -0.36406584999E+02  0.26876220135E+02 -0.13999545412E+03  0.14712748830E+03  0.00000000000E+00 0. -1.
        -15    1    4    4    0    0 -0.40014387894E+01 -0.52015129025E+02  0.44107126941E+03  0.44414930776E+03  0.17770000000E+01 0. -1.
         15    1    4    4    0    0  0.11715225390E+01  0.25964052394E+02  0.49511123712E+02  0.55946524307E+02  0.17770000000E+01 0.  1.
</event>
<event>
 8    1  0.7476119E-006  0.5000308E+03  0.7546771E-02  0.9399741E-01
        -11   -1    0    0    0    0  0.00000000000E+00  0.00000000000E+00  0.50000000000E+03  0.50000000000E+03  0.00000000000E+00 0.  1.
         11   -1    0    0    0    0 -0.00000000000E+00 -0.00000000000E+00 -0.50000000000E+03  0.50000000000E+03  0.00000000000E+00 0. -1.
         23    2    1    2    0    0 -0.34248031360E+02  0.94588294609E+02  0.48132056426E+03  0.49996917940E+03  0.90442366413E+02 0.  0.
         23    2    1    2    0    0  0.34248031360E+02 -0.94588294609E+02 -0.48132056426E+03  0.50003082060E+03  0.90782502986E+02 0.  0.
        -11    1    3    3    0    0  0.38130448815E+01 -0.15248165896E+02  0.29400040436E+02  0.33337790150E+02  0.00000000000E+00 0. -1.
         11    1    3    3    0    0 -0.38061076241E+02  0.10983646050E+03  0.45192052382E+03  0.46663138925E+03  0.00000000000E+00 0.  1.
        -15    1    4    4    0    0  0.41510847798E+02 -0.39271529366E+01 -0.20214008917E+03  0.20640335848E+03  0.17770000000E+01 0.  1.
         15    1    4    4    0    0 -0.72628164386E+01 -0.90661141672E+02 -0.27918047509E+03  0.29362746212E+03  0.17770000000E+01 0. -1.
</event>
<event>
 8    1  0.7476119E-006  0.5000891E+03  0.7546771E-02  0.9399610E-01
        -11   -1    0    0    0    0  0.00000000000E+00  0.00000000000E+00  0.50000000000E+03  0.50000000000E+03  0.00000000000E+00 0.  1.
         11   -1    0    0    0    0 -0.00000000000E+00 -0.00000000000E+00 -0.50000000000E+03  0.50000000000E+03  0.00000000000E+00 0. -1.
         23    2    1    2    0    0 -0.38985009929E+02  0.12538274346E+02 -0.49010950600E+03  0.49991090172E+03  0.89590973138E+02 0.  0.
         23    2    1    2    0    0  0.38985009929E+02 -0.12538274346E+02  0.49010950600E+03  0.50008909828E+03  0.90580014468E+02 0.  0.
        -11    1    3    3    0    0 -0.18099021500E+02  0.45019362422E+02 -0.15086932604E+03  0.15847987605E+03  0.00000000000E+00 0.  1.
         11    1    3    3    0    0 -0.20885988429E+02 -0.32481088076E+02 -0.33924017996E+03  0.34143102567E+03  0.00000000000E+00 0. -1.
        -15    1    4    4    0    0  0.66031767700E+02 -0.21801908778E+02  0.30936687740E+03  0.31709074432E+03  0.17770000000E+01 0.  1.
         15    1    4    4    0    0 -0.27046757771E+02  0.92636344322E+01  0.18074262860E+03  0.18299835395E+03  0.17770000000E+01 0. -1.
</event>
<event>
 8    1  0.7476119E-006  0.5001366E+03  0.7546771E-02  0.9399504E-01
        -11   -1    0    0    0    0  0.00000000000E+00  0.00000000000E+00  0.50000000000E+03  0.50000000000E+03  0.00000000000E+00 0.  1.
         11   -1    0    0    0    0 -0.00000000000E+00 -0.00000000000E+00 -0.50000000000E+03  0.50000000000E+03  0.00000000000E+00 0. -1.
         23    2    1    2    0    0 -0.64461447198E+02 -0.33696459688E+03 -0.35159451503E+03  0.50013662456E+03  0.93901664011E+02 0.  0.
         23    2    1    2    0    0  0.64461447198E+02  0.33696459688E+03  0.35159451503E+03  0.49986337544E+03  0.92435238847E+02 0.  0.
        -11    1    3    3    0    0 -0.79530570223E+02 -0.18834260095E+03 -0.17760951933E+03  0.27081947546E+03  0.00000000000E+00 0.  1.
         11    1    3    3    0    0  0.15069123025E+02 -0.14862199593E+03 -0.17398499570E+03  0.22931714910E+03  0.00000000000E+00 0. -1.
        -15    1    4    4    0    0  0.79819669170E+02  0.31419218743E+03  0.34063349544E+03  0.47023637265E+03  0.17770000000E+01 0.  1.
         15    1    4    4    0    0 -0.15358221973E+02  0.22772409450E+02  0.10961019597E+02  0.29627002783E+02  0.17770000000E+01 0. -1.
</event>
<event>
 8    1  0.7476119E-006  0.5000118E+03  0.7546771E-02  0.9399783E-01
        -11   -1    0    0    0    0  0.00000000000E+00  0.00000000000E+00  0.50000000000E+03  0.50000000000E+03  0.00000000000E+00 0.  1.
         11   -1    0    0    0    0 -0.00000000000E+00 -0.00000000000E+00 -0.50000000000E+03  0.50000000000E+03  0.00000000000E+00 0. -1.
         23    2    1    2    0    0  0.62982838706E+02 -0.76796967099E+00 -0.48752823180E+03  0.49998816161E+03  0.91306939515E+02 0.  0.
         23    2    1    2    0    0 -0.62982838706E+02  0.76796967099E+00  0.48752823180E+03  0.50001183839E+03  0.91436502415E+02 0.  0.
        -11    1    3    3    0    0  0.46799151885E+01  0.30381654918E+02 -0.60371933344E+02  0.67747449379E+02  0.00000000000E+00 0.  1.
         11    1    3    3    0    0  0.58302923518E+02 -0.31149624589E+02 -0.42715629846E+03  0.43224071224E+03  0.00000000000E+00 0. -1.
        -15    1    4    4    0    0  0.21441961722E+02  0.40235376235E+01  0.52990086683E+02  0.57332831721E+02  0.17770000000E+01 0. -1.
         15    1    4    4    0    0 -0.84424800428E+02 -0.32555679525E+01  0.43453814512E+03  0.44267900666E+03  0.17770000000E+01 0.  1.
</event>
<event>
 8    1  0.7476119E-006  0.5000057E+03  0.7546771E-02  0.9399797E-01
        -11   -1    0    0    0    0  0.00000000000E+00  0.00000000000E+00  0.50000000000E+03  0.50000000000E+03  0.00000000000E+00 0.  1.
         11   -1    0    0    0    0 -0.00000000000E+00 -0.00000000000E+00 -0.50000000000E+03  0.50000000000E+03  0.00000000000E+00 0. -1.
         23    2    1    2    0    0  0.74295049794E+02  0.10243772524E+03 -0.47501258708E+03  0.49999426832E+03  0.91345872842E+02 0.  0.
         23    2    1    2    0    0 -0.74295049794E+02 -0.10243772524E+03  0.47501258708E+03  0.50000573168E+03  0.91408598349E+02 0.  0.
        -11    1    3    3    0    0  0.34648483805E+02  0.22767667469E+02 -0.46327842024E+02  0.62170355142E+02  0.00000000000E+00 0.  1.
         11    1    3    3    0    0  0.39646565989E+02  0.79670057772E+02 -0.42868474506E+03  0.43782391317E+03  0.00000000000E+00 0. -1.
        -15    1    4    4    0    0 -0.37418673657E+02 -0.11183438145E+03  0.35263744546E+03  0.37183788360E+03  0.17770000000E+01 0.  1.
         15    1    4    4    0    0 -0.36876376137E+02  0.93966562129E+01  0.12237514162E+03  0.12816784808E+03  0.17770000000E+01 0. -1.
</event>
<event>
 8    1  0.7476119E-006  0.5005682E+03  0.7546771E-02  0.9398539E-01
        -11   -1    0    0    0    0  0.00000000000E+00  0.00000000000E+00  0.50000000000E+03  0.50000000000E+03  0.00000000000E+00 0.  1.
         11   -1    0    0    0    0 -0.00000000000E+00 -0.00000000000E+00 -0.50000000000E+03  0.50000000000E+03  0.00000000000E+00 0. -1.
         23    2    1    2    0    0  0.61306948743E+02  0.32186433655E+01 -0.48692539286E+03  0.50056820884E+03  0.98505288484E+02 0.  0.
         23    2    1    2    0    0 -0.61306948743E+02 -0.32186433655E+01  0.48692539286E+03  0.49943179116E+03  0.92557410165E+02 0.  0.
        -11    1    3    3    0    0  0.29196257457E+02 -0.47378535534E+02 -0.21154473118E+03  0.21874258929E+03  0.00000000000E+00 0.  1.
         11    1    3    3    0    0  0.32110691286E+02  0.50597178900E+02 -0.27538066168E+03  0.28182561955E+03  0.00000000000E+00 0. -1.
        -15    1    4    4    0    0 -0.38131165038E+02 -0.60080296306E+01  0.46726685771E+03  0.46886197992E+03  0.17770000000E+01 0.  1.
         15    1    4    4    0    0 -0.23175783705E+02  0.27893862650E+01  0.19658535152E+02  0.30569811243E+02  0.17770000000E+01 0. -1.
</event>
<event>
 8    1  0.7476119E-006  0.5001282E+03  0.7546771E-02  0.9399523E-01
        -11   -1    0    0    0    0  0.00000000000E+00  0.00000000000E+00  0.50000000000E+03  0.50000000000E+03  0.00000000000E+00 0.  1.
         11   -1    0    0    0    0 -0.00000000000E+00 -0.00000000000E+00 -0.50000000000E+03  0.50000000000E+03  0.00000000000E+00 0. -1.
         23    2    1    2    0    0 -0.12150287671E+03  0.57895475684E+02  0.47289908686E+03  0.49987181534E+03  0.90130185106E+02 0.  0.
         23    2    1    2    0    0  0.12150287671E+03 -0.57895475684E+02 -0.47289908686E+03  0.50012818466E+03  0.91541354494E+02 0.  0.
        -11    1    3    3    0    0 -0.64680031074E+00  0.29275611008E+02  0.16991952719E+03  0.17242426010E+03  0.00000000000E+00 0.  1.
         11    1    3    3    0    0 -0.12085607640E+03  0.28619864677E+02  0.30297955967E+03  0.32744755524E+03  0.00000000000E+00 0. -1.
        -15    1    4    4    0    0  0.46082884552E+02 -0.30843329963E+02 -0.69923725588E+02  0.89260452502E+02  0.17770000000E+01 0.  1.
         15    1    4    4    0    0  0.75419992157E+02 -0.27052145721E+02 -0.40297536127E+03  0.41086773216E+03  0.17770000000E+01 0. -1.
</event>
<event>
 8    1  0.7476119E-006  0.5002611E+03  0.7546771E-02  0.9399226E-01
        -11   -1    0    0    0    0  0.00000000000E+00  0.00000000000E+00  0.50000000000E+03  0.50000000000E+03  0.00000000000E+00 0.  1.
         11   -1    0    0    0    0 -0.00000000000E+00 -0.00000000000E+00 -0.50000000000E+03  0.50000000000E+03  0.00000000000E+00 0. -1.
         23    2    1    2    0    0  0.32801335079E+02 -0.55223685300E+02 -0.48767155399E+03  0.49973889434E+03  0.88260041631E+02 0.  0.
         23    2    1    2    0    0 -0.32801335079E+02  0.55223685300E+02  0.48767155399E+03  0.50026110566E+03  0.91170424259E+02 0.  0.
        -11    1    3    3    0    0  0.58179016654E+02 -0.37474482311E+02 -0.22922713834E+03  0.23944564259E+03  0.00000000000E+00 0.  1.
         11    1    3    3    0    0 -0.25377681575E+02 -0.17749202989E+02 -0.25844441565E+03  0.26029325176E+03  0.00000000000E+00 0. -1.
        -15    1    4    4    0    0 -0.38032508154E+02  0.49818465378E+02  0.48848185545E+03  0.49248962629E+03  0.17770000000E+01 0.  1.
         15    1    4    4    0    0  0.52311730751E+01  0.54052199215E+01 -0.81030145708E+00  0.77714793697E+01  0.17770000000E+01 0. -1.
</event>
<event>
 8    1  0.7476119E-006  0.5013248E+03  0.7546771E-02  0.9396850E-01
        -11   -1    0    0    0    0  0.00000000000E+00  0.00000000000E+00  0.50000000000E+03  0.50000000000E+03  0.00000000000E+00 0.  1.
         11   -1    0    0    0    0 -0.00000000000E+00 -0.00000000000E+00 -0.50000000000E+03  0.50000000000E+03  0.00000000000E+00 0.  1.
         23    2    1    2    0    0 -0.31128721249E+02  0.15404161167E+02 -0.48895511147E+03  0.50132476409E+03  0.10508631019E+03 0.  0.
         23    2    1    2    0    0  0.31128721249E+02 -0.15404161167E+02  0.48895511147E+03  0.49867523591E+03  0.91616616396E+02 0.  0.
        -11    1    3    3    0    0 -0.51558264958E+02 -0.27583971886E+02 -0.33873477208E+03  0.34374463779E+03  0.00000000000E+00 0.  1.
         11    1    3    3    0    0  0.20429543710E+02  0.42988133053E+02 -0.15022033939E+03  0.15758012631E+03  0.00000000000E+00 0.  1.
        -15    1    4    4    0    0  0.48377165644E+02  0.14425716179E+02  0.40141555634E+03  0.40458133675E+03  0.17770000000E+01 0.  1.
         15    1    4    4    0    0 -0.17248444396E+02 -0.29829877346E+02  0.87539555130E+02  0.94093899154E+02  0.17770000000E+01 0. -1.
</event>
<event>
 8    1  0.7476119E-006  0.5002050E+03  0.7546771E-02  0.9399351E-01
        -11   -1    0    0    0    0  0.00000000000E+00  0.00000000000E+00  0.50000000000E+03  0.50000000000E+03  0.00000000000E+00 0.  1.
         11   -1    0    0    0    0 -0.00000000000E+00 -0.00000000000E+00 -0.50000000000E+03  0.50000000000E+03  0.00000000000E+00 0. -1.
         23    2    1    2    0    0  0.27432600820E+03 -0.16957393272E+03  0.37080537534E+03  0.50020502596E+03  0.93265021232E+02 0.  0.
         23    2    1    2    0    0 -0.27432600820E+03  0.16957393272E+03 -0.37080537534E+03  0.49979497404E+03  0.91040168367E+02 0.  0.
        -11    1    3    3    0    0  0.62975994242E+02 -0.17943095320E+02  0.31494400316E+02  0.72662423382E+02  0.00000000000E+00 0. -1.
         11    1    3    3    0    0  0.21135001396E+03 -0.15163083740E+03  0.33931097503E+03  0.42754260258E+03  0.00000000000E+00 0.  1.
        -15    1    4    4    0    0 -0.36078072892E+02  0.66001197290E+02 -0.87791024194E+02  0.11562096283E+03  0.17770000000E+01 0.  1.
         15    1    4    4    0    0 -0.23824793531E+03  0.10357273543E+03 -0.28301435115E+03  0.38417401121E+03  0.17770000000E+01 0. -1.
</event>
<event>
 8    1  0.7476119E-006  0.5000901E+03  0.7546771E-02  0.9399608E-01
        -11   -1    0    0    0    0  0.00000000000E+00  0.00000000000E+00  0.50000000000E+03  0.50000000000E+03  0.00000000000E+00 0.  1.
         11   -1    0    0    0    0 -0.00000000000E+00 -0.00000000000E+00 -0.50000000000E+03  0.50000000000E+03  0.00000000000E+00 0. -1.
         23    2    1    2    0    0 -0.10095578644E+02  0.25741523122E+02 -0.49097305714E+03  0.50009009865E+03  0.90945132982E+02 0.  0.
         23    2    1    2    0    0  0.10095578644E+02 -0.25741523122E+02  0.49097305714E+03  0.49990990135E+03  0.89948985041E+02 0.  0.
        -11    1    3    3    0    0  0.83826963387E+01 -0.24043345883E+02 -0.32115249685E+03  0.32216033013E+03  0.00000000000E+00 0. -1.
         11    1    3    3    0    0 -0.18478274983E+02  0.49784869005E+02 -0.16982056029E+03  0.17792976852E+03  0.00000000000E+00 0.  1.
        -15    1    4    4    0    0  0.15199207501E+02  0.20955817781E+02  0.49023993990E+02  0.55467755708E+02  0.17770000000E+01 0. -1.
         15    1    4    4    0    0 -0.51036288571E+01 -0.46697340903E+02  0.44194906315E+03  0.44444214564E+03  0.17770000000E+01 0.  1.
</event>
<event>
 8    1  0.8305565E-006  0.5001985E+03  0.7546771E-02  0.9399366E-01
        -11   -1    0    0    0    0  0.00000000000E+00  0.00000000000E+00  0.50000000000E+03  0.50000000000E+03  0.00000000000E+00 0.  1.
         11   -1    0    0    0    0 -0.00000000000E+00 -0.00000000000E+00 -0.50000000000E+03  0.50000000000E+03  0.00000000000E+00 0. -1.
         23    2    1    2    0    0 -0.82257012356E+02 -0.13094922581E+02  0.48452117842E+03  0.50019847155E+03  0.92195691455E+02 0.  0.
         23    2    1    2    0    0  0.82257012356E+02  0.13094922581E+02 -0.48452117842E+03  0.49980152845E+03  0.90017234061E+02 0.  0.
        -11    1    3    3    0    0 -0.89048560682E+01  0.24520860419E+02  0.37758252919E+02  0.45893950808E+02  0.00000000000E+00 0. -1.
         11    1    3    3    0    0 -0.73352156288E+02 -0.37615783000E+02  0.44676292550E+03  0.45430452074E+03  0.00000000000E+00 0.  1.
        -15    1    4    4    0    0  0.85340402348E+02  0.36986348099E+02 -0.31125331348E+03  0.32485805685E+03  0.17770000000E+01 0. -1.
         15    1    4    4    0    0 -0.30833899923E+01 -0.23891425518E+02 -0.17326786494E+03  0.17494347160E+03  0.17770000000E+01 0.  1.
</event>
<event>
 8    1  0.7476119E-006  0.5000660E+03  0.7546771E-02  0.9399662E-01
        -11   -1    0    0    0    0  0.00000000000E+00  0.00000000000E+00  0.50000000000E+03  0.50000000000E+03  0.00000000000E+00 0. -1.
         11   -1    0    0    0    0 -0.00000000000E+00 -0.00000000000E+00 -0.50000000000E+03  0.50000000000E+03  0.00000000000E+00 0.  1.
         23    2    1    2    0    0  0.30836876479E+03 -0.38144710116E+03 -0.31592242987E+02  0.50006604896E+03  0.92058662962E+02 0.  0.
         23    2    1    2    0    0 -0.30836876479E+03  0.38144710116E+03  0.31592242987E+02  0.49993395104E+03  0.91338379144E+02 0.  0.
        -11    1    3    3    0    0  0.59821641611E+02 -0.26570949987E+02  0.21799354094E+01  0.65493482933E+02  0.00000000000E+00 0. -1.
         11    1    3    3    0    0  0.24854712318E+03 -0.35487615117E+03 -0.33772178397E+02  0.43457256603E+03  0.00000000000E+00 0.  1.
        -15    1    4    4    0    0 -0.34071456842E+02  0.25180459447E+02  0.27017825397E+02  0.50279621394E+02  0.17770000000E+01 0.  1.
         15    1    4    4    0    0 -0.27429730795E+03  0.35626664171E+03  0.45744175902E+01  0.44965432965E+03  0.17770000000E+01 0. -1.
</event>
<event>
 8    1  0.7476119E-006  0.5002595E+03  0.7546771E-02  0.9399229E-01
        -11   -1    0    0    0    0  0.00000000000E+00  0.00000000000E+00  0.50000000000E+03  0.50000000000E+03  0.00000000000E+00 0. -1.
         11   -1    0    0    0    0 -0.00000000000E+00 -0.00000000000E+00 -0.50000000000E+03  0.50000000000E+03  0.00000000000E+00 0.  1.
         23    2    1    2    0    0 -0.18360258098E+01  0.16476643542E+02 -0.49135943387E+03  0.50025949038E+03  0.92469528417E+02 0.  0.
         23    2    1    2    0    0  0.18360258098E+01 -0.16476643542E+02  0.49135943387E+03  0.49974050962E+03  0.89619378067E+02 0.  0.
        -11    1    3    3    0    0 -0.62901225700E+01  0.30425972487E+02 -0.48173658669E+03  0.48273744872E+03  0.00000000000E+00 0.  1.
         11    1    3    3    0    0  0.44540967602E+01 -0.13949328944E+02 -0.96228471850E+01  0.17522041659E+02  0.00000000000E+00 0. -1.
        -15    1    4    4    0    0 -0.35166693282E+02 -0.21807651719E+02  0.38020269376E+03  0.38245197877E+03  0.17770000000E+01 0. -1.
         15    1    4    4    0    0  0.37002719092E+02  0.53310081762E+01  0.11115674011E+03  0.11728853085E+03  0.17770000000E+01 0.  1.
</event>
<event>
 8    1  0.7476119E-006  0.5001023E+03  0.7546771E-02  0.9399581E-01
        -11   -1    0    0    0    0  0.00000000000E+00  0.00000000000E+00  0.50000000000E+03  0.50000000000E+03  0.00000000000E+00 0.  1.
         11   -1    0    0    0    0 -0.00000000000E+00 -0.00000000000E+00 -0.50000000000E+03  0.50000000000E+03  0.00000000000E+00 0. -1.
         23    2    1    2    0    0 -0.15008141286E+02  0.33145773697E+02 -0.49029868616E+03  0.50010227826E+03  0.91572924202E+02 0.  0.
         23    2    1    2    0    0  0.15008141286E+02 -0.33145773697E+02  0.49029868616E+03  0.49989772174E+03  0.90449123448E+02 0.  0.
        -11    1    3    3    0    0  0.34345091359E+02  0.95807943036E+00 -0.26533245431E+03  0.26754777989E+03  0.00000000000E+00 0.  1.
         11    1    3    3    0    0 -0.49353232645E+02  0.32187694266E+02 -0.22496623185E+03  0.23255449836E+03  0.00000000000E+00 0. -1.
        -15    1    4    4    0    0  0.32826498585E+02 -0.29217706297E+02  0.47182892333E+03  0.47387439685E+03  0.17770000000E+01 0.  1.
         15    1    4    4    0    0 -0.17818357300E+02 -0.39280673998E+01  0.18469762831E+02  0.26023324891E+02  0.17770000000E+01 0. -1.
</event>
<event>
 8    1  0.7476119E-006  0.5008710E+03  0.7546771E-02  0.9397863E-01
        -11   -1    0    0    0    0  0.00000000000E+00  0.00000000000E+00  0.50000000000E+03  0.50000000000E+03  0.00000000000E+00 0.  1.
         11   -1    0    0    0    0 -0.00000000000E+00 -0.00000000000E+00 -0.50000000000E+03  0.50000000000E+03  0.00000000000E+00 0. -1.
         23    2    1    2    0    0 -0.33640810880E+02 -0.17724305263E+03 -0.45833687894E+03  0.49912901877E+03  0.80686299453E+02 0.  0.
         23    2    1    2    0    0  0.33640810880E+02  0.17724305263E+03  0.45833687894E+03  0.50087098123E+03  0.90841848148E+02 0.  0.
        -11    1    3    3    0    0 -0.39490049186E+02 -0.49894945526E+02 -0.97426774668E+02  0.11636557049E+03  0.00000000000E+00 0.  1.
         11    1    3    3    0    0  0.58492383067E+01 -0.12734810711E+03 -0.36091010427E+03  0.38276344828E+03  0.00000000000E+00 0. -1.
        -15    1    4    4    0    0 -0.23225035517E+02  0.76778755924E+02  0.12935470948E+03  0.15221753588E+03  0.17770000000E+01 0. -1.
         15    1    4    4    0    0  0.56865846397E+02  0.10046429671E+03  0.32898216946E+03  0.34865344535E+03  0.17770000000E+01 0.  1.
</event>
<event>
 7    1  0.7476119E-006  0.5441109E+03  0.7546771E-02  0.9306181E-01
        -11   -1    0    0    0    0  0.00000000000E+00  0.00000000000E+00  0.50000000000E+03  0.50000000000E+03  0.00000000000E+00 0.  1.
         11   -1    0    0    0    0 -0.00000000000E+00 -0.00000000000E+00 -0.50000000000E+03  0.50000000000E+03  0.00000000000E+00 0. -1.
         23    2    1    2    0    0 -0.98423647446E+02  0.37051784347E+03 -0.22942871029E+03  0.45588911513E+03  0.90700967366E+02 0.  0.
        -11    1    3    3    0    0 -0.69298601501E+02  0.35256614912E+03 -0.21526174082E+03  0.41885892939E+03  0.00000000000E+00 0. -1.
         11    1    3    3    0    0 -0.29125045945E+02  0.17951694351E+02 -0.14166969469E+02  0.37030185732E+02  0.00000000000E+00 0.  1.
        -15    1    1    2    0    0  0.12861173364E+02 -0.38840936298E+03  0.12569839348E+03  0.40844887915E+03  0.17770000000E+01 0.  1.
         15    1    1    2    0    0  0.85562474081E+02  0.17891519511E+02  0.10373031681E+03  0.13566200572E+03  0.17770000000E+01 0. -1.
</event>
<event>
 8    1  0.7476119E-006  0.5013756E+03  0.7546771E-02  0.9396737E-01
        -11   -1    0    0    0    0  0.00000000000E+00  0.00000000000E+00  0.50000000000E+03  0.50000000000E+03  0.00000000000E+00 0.  1.
         11   -1    0    0    0    0 -0.00000000000E+00 -0.00000000000E+00 -0.50000000000E+03  0.50000000000E+03  0.00000000000E+00 0. -1.
         23    2    1    2    0    0  0.23009898896E+03  0.30147510648E+03  0.31068296102E+03  0.49862438429E+03  0.90937284942E+02 0.  0.
         23    2    1    2    0    0 -0.23009898896E+03 -0.30147510648E+03 -0.31068296102E+03  0.50137561571E+03  0.10498009910E+03 0.  0.
        -11    1    3    3    0    0  0.61330504948E+02  0.93082195217E+02  0.42289719922E+02  0.11922309472E+03  0.00000000000E+00 0. -1.
         11    1    3    3    0    0  0.16876848402E+03  0.20839291127E+03  0.26839324110E+03  0.37940128957E+03  0.00000000000E+00 0.  1.
        -15    1    4    4    0    0 -0.76532986093E+02 -0.35352270898E+02 -0.88230110500E+02  0.12204421799E+03  0.17770000000E+01 0.  1.
         15    1    4    4    0    0 -0.15356600287E+03 -0.26612283559E+03 -0.22245285052E+03  0.37933139771E+03  0.17770000000E+01 0. -1.
</event>
<event>
 8    1  0.7476119E-006  0.5003056E+03  0.7546771E-02  0.9399126E-01
        -11   -1    0    0    0    0  0.00000000000E+00  0.00000000000E+00  0.50000000000E+03  0.50000000000E+03  0.00000000000E+00 0.  1.
         11   -1    0    0    0    0 -0.00000000000E+00 -0.00000000000E+00 -0.50000000000E+03  0.50000000000E+03  0.00000000000E+00 0. -1.
         23    2    1    2    0    0  0.17355069081E+03 -0.10424035793E+03 -0.44747669521E+03  0.49969441501E+03  0.92050101254E+02 0.  0.
         23    2    1    2    0    0 -0.17355069081E+03  0.10424035793E+03  0.44747669521E+03  0.50030558499E+03  0.95312072249E+02 0.  0.
        -11    1    3    3    0    0  0.58801703287E+02  0.53610503034E-01 -0.68831808701E+02  0.90528785878E+02  0.00000000000E+00 0.  1.
         11    1    3    3    0    0  0.11474898752E+03 -0.10429396843E+03 -0.37864488650E+03  0.40916562913E+03  0.00000000000E+00 0. -1.
        -15    1    4    4    0    0 -0.12737176887E+03  0.22419780708E+02  0.27473413427E+03  0.30365805824E+03  0.17770000000E+01 0.  1.
         15    1    4    4    0    0 -0.46178921935E+02  0.81820577220E+02  0.17274256093E+03  0.19664752674E+03  0.17770000000E+01 0. -1.
</event>
<event>
 8    1  0.7476119E-006  0.5006546E+03  0.7546771E-02  0.9398346E-01
        -11   -1    0    0    0    0  0.00000000000E+00  0.00000000000E+00  0.50000000000E+03  0.50000000000E+03  0.00000000000E+00 0. -1.
         11   -1    0    0    0    0 -0.00000000000E+00 -0.00000000000E+00 -0.50000000000E+03  0.50000000000E+03  0.00000000000E+00 0.  1.
         23    2    1    2    0    0  0.46636531676E+02 -0.18139698810E+03  0.45369052082E+03  0.49934539828E+03  0.91819958160E+02 0.  0.
         23    2    1    2    0    0 -0.46636531676E+02  0.18139698810E+03 -0.45369052082E+03  0.50065460172E+03  0.98691986318E+02 0.  0.
        -11    1    3    3    0    0  0.34284245050E+02 -0.59521776944E+02  0.26966822691E+03  0.27827900387E+03  0.00000000000E+00 0. -1.
         11    1    3    3    0    0  0.12352286626E+02 -0.12187521116E+03  0.18402229391E+03  0.22106639440E+03  0.00000000000E+00 0.  1.
        -15    1    4    4    0    0  0.11059876078E+02  0.18011104585E+02 -0.83594910314E+01  0.22798236040E+02  0.17770000000E+01 0. -1.
         15    1    4    4    0    0 -0.57696407754E+02  0.16338588352E+03 -0.44533102979E+03  0.47785636568E+03  0.17770000000E+01 0.  1.
</event>
<event>
 8    1  0.7476119E-006  0.5001113E+03  0.7546771E-02  0.9399561E-01
        -11   -1    0    0    0    0  0.00000000000E+00  0.00000000000E+00  0.50000000000E+03  0.50000000000E+03  0.00000000000E+00 0.  1.
         11   -1    0    0    0    0 -0.00000000000E+00 -0.00000000000E+00 -0.50000000000E+03  0.50000000000E+03  0.00000000000E+00 0. -1.
         23    2    1    2    0    0  0.51385698151E+02 -0.11442796177E+01 -0.48949696605E+03  0.50011132632E+03  0.88669383604E+02 0.  0.
         23    2    1    2    0    0 -0.51385698151E+02  0.11442796177E+01  0.48949696605E+03  0.49988867368E+03  0.87404845088E+02 0.  0.
        -11    1    3    3    0    0  0.51648555482E+00 -0.17173426887E+02 -0.15551081436E+02  0.23173896569E+02  0.00000000000E+00 0.  1.
         11    1    3    3    0    0  0.50869212596E+02  0.16029147269E+02 -0.47394588462E+03  0.47693742975E+03  0.00000000000E+00 0. -1.
        -15    1    4    4    0    0 -0.59543725862E+02  0.31557499396E+02  0.38029005623E+03  0.38621887015E+03  0.17770000000E+01 0.  1.
         15    1    4    4    0    0  0.81580277107E+01 -0.30413219779E+02  0.10920690982E+03  0.11366980353E+03  0.17770000000E+01 0. -1.
</event>
<event>
 8    1  0.7476119E-006  0.5027415E+03  0.7546771E-02  0.9393696E-01
        -11   -1    0    0    0    0  0.00000000000E+00  0.00000000000E+00  0.50000000000E+03  0.50000000000E+03  0.00000000000E+00 0.  1.
         11   -1    0    0    0    0 -0.00000000000E+00 -0.00000000000E+00 -0.50000000000E+03  0.50000000000E+03  0.00000000000E+00 0. -1.
         23    2    1    2    0    0  0.18741754708E+03  0.25284049669E+03  0.37419890167E+03  0.49725853604E+03  0.90485247039E+02 0.  0.
         23    2    1    2    0    0 -0.18741754708E+03 -0.25284049669E+03 -0.37419890167E+03  0.50274146396E+03  0.11692094701E+03 0.  0.
        -11    1    3    3    0    0  0.14242736541E+03  0.21459540417E+03  0.34727291892E+03  0.43236006074E+03  0.00000000000E+00 0.  1.
         11    1    3    3    0    0  0.44990181677E+02  0.38245092521E+02  0.26925982751E+02  0.64898475301E+02  0.00000000000E+00 0. -1.
        -15    1    4    4    0    0  0.22026489983E+01  0.10627740704E+02 -0.98860570536E+01  0.14788251694E+02  0.17770000000E+01 0.  1.
         15    1    4    4    0    0 -0.18962019608E+03 -0.26346823739E+03 -0.36431284462E+03  0.48795321227E+03  0.17770000000E+01 0. -1.
</event>
<event>
 8    1  0.7476119E-006  0.5000964E+03  0.7546771E-02  0.9399594E-01
        -11   -1    0    0    0    0  0.00000000000E+00  0.00000000000E+00  0.50000000000E+03  0.50000000000E+03  0.00000000000E+00 0.  1.
         11   -1    0    0    0    0 -0.00000000000E+00 -0.00000000000E+00 -0.50000000000E+03  0.50000000000E+03  0.00000000000E+00 0. -1.
         23    2    1    2    0    0  0.63685151905E+01  0.88444677320E+01 -0.49165423661E+03  0.50009643461E+03  0.90850277589E+02 0.  0.
         23    2    1    2    0    0 -0.63685151905E+01 -0.88444677320E+01  0.49165423661E+03  0.49990356539E+03  0.89782535729E+02 0.  0.
        -11    1    3    3    0    0  0.21444926957E+02  0.64984976505E+01 -0.48091819840E+03  0.48143995360E+03  0.00000000000E+00 0. -1.
         11    1    3    3    0    0 -0.15076411766E+02  0.23459700815E+01 -0.10736038204E+02  0.18656481010E+02  0.00000000000E+00 0.  1.
        -15    1    4    4    0    0 -0.38297052133E+02  0.15267531066E+02  0.13939626642E+03  0.14537619656E+03  0.17770000000E+01 0.  1.
         15    1    4    4    0    0  0.31928536943E+02 -0.24111998798E+02  0.35225797019E+03  0.35452736883E+03  0.17770000000E+01 0. -1.
</event>
<event>
 8    1  0.7476119E-006  0.5000360E+03  0.7546771E-02  0.9399729E-01
        -11   -1    0    0    0    0  0.00000000000E+00  0.00000000000E+00  0.50000000000E+03  0.50000000000E+03  0.00000000000E+00 0. -1.
         11   -1    0    0    0    0 -0.00000000000E+00 -0.00000000000E+00 -0.50000000000E+03  0.50000000000E+03  0.00000000000E+00 0.  1.
         23    2    1    2    0    0  0.73795718782E+02 -0.13963988483E+03  0.46501143911E+03  0.50003604129E+03  0.94102595804E+02 0.  0.
         23    2    1    2    0    0 -0.73795718782E+02  0.13963988483E+03 -0.46501143911E+03  0.49996395871E+03  0.93718813223E+02 0.  0.
        -11    1    3    3    0    0  0.84869956642E+02 -0.14136036810E+03  0.45810075161E+03  0.48686955320E+03  0.00000000000E+00 0. -1.
         11    1    3    3    0    0 -0.11074237860E+02  0.17204832663E+01  0.69106875045E+01  0.13166488090E+02  0.00000000000E+00 0.  1.
        -15    1    4    4    0    0 -0.48648017281E+02  0.95048848187E+01 -0.99908201469E+02  0.11154272218E+03  0.17770000000E+01 0. -1.
         15    1    4    4    0    0 -0.25147701501E+02  0.13013500001E+03 -0.36510323765E+03  0.38842123653E+03  0.17770000000E+01 0.  1.
</event>
<event>
 8    1  0.7476119E-006  0.5000743E+03  0.7546771E-02  0.9399643E-01
        -11   -1    0    0    0    0  0.00000000000E+00  0.00000000000E+00  0.50000000000E+03  0.50000000000E+03  0.00000000000E+00 0. -1.
         11   -1    0    0    0    0 -0.00000000000E+00 -0.00000000000E+00 -0.50000000000E+03  0.50000000000E+03  0.00000000000E+00 0.  1.
         23    2    1    2    0    0 -0.26520645136E+01 -0.23438023816E+02 -0.49121795086E+03  0.49992570976E+03  0.89856917561E+02 0.  0.
         23    2    1    2    0    0  0.26520645136E+01  0.23438023816E+02  0.49121795086E+03  0.50007429024E+03  0.90679910158E+02 0.  0.
        -11    1    3    3    0    0  0.20185933711E+02 -0.85600193399E+01 -0.44985875969E+03  0.45039277250E+03  0.00000000000E+00 0.  1.
         11    1    3    3    0    0 -0.22837998224E+02 -0.14878004476E+02 -0.41359191167E+02  0.49532937265E+02  0.00000000000E+00 0. -1.
        -15    1    4    4    0    0 -0.12413894033E+02 -0.13226198055E+02  0.40220888271E+03  0.40262163397E+03  0.17770000000E+01 0. -1.
         15    1    4    4    0    0  0.15065958547E+02  0.36664221872E+02  0.89009068141E+02  0.97452656263E+02  0.17770000000E+01 0.  1.
</event>
<event>
 8    1  0.7476119E-006  0.5003781E+03  0.7546771E-02  0.9398964E-01
        -11   -1    0    0    0    0  0.00000000000E+00  0.00000000000E+00  0.50000000000E+03  0.50000000000E+03  0.00000000000E+00 0. -1.
         11   -1    0    0    0    0 -0.00000000000E+00 -0.00000000000E+00 -0.50000000000E+03  0.50000000000E+03  0.00000000000E+00 0. -1.
         23    2    1    2    0    0 -0.51487808303E+01  0.74301860192E+01 -0.49222228286E+03  0.49962187017E+03  0.85191078173E+02 0.  0.
         23    2    1    2    0    0  0.51487808303E+01 -0.74301860192E+01  0.49222228286E+03  0.50037812983E+03  0.89519715431E+02 0.  0.
        -11    1    3    3    0    0  0.14009000864E+02 -0.14127284901E+02 -0.27166505763E+02  0.33672708820E+02  0.00000000000E+00 0. -1.
         11    1    3    3    0    0 -0.19157781694E+02  0.21557470921E+02 -0.46505577710E+03  0.46594916135E+03  0.00000000000E+00 0. -1.
        -15    1    4    4    0    0  0.84571575757E-01  0.34546658911E+02  0.98689918099E+02  0.10457694037E+03  0.17770000000E+01 0.  1.
         15    1    4    4    0    0  0.50642092546E+01 -0.41976844930E+02  0.39353236477E+03  0.39580118945E+03  0.17770000000E+01 0. -1.
</event>
<event>
 8    1  0.7476119E-006  0.5011883E+03  0.7546771E-02  0.9397155E-01
        -11   -1    0    0    0    0  0.00000000000E+00  0.00000000000E+00  0.50000000000E+03  0.50000000000E+03  0.00000000000E+00 0.  1.
         11   -1    0    0    0    0 -0.00000000000E+00 -0.00000000000E+00 -0.50000000000E+03  0.50000000000E+03  0.00000000000E+00 0.  1.
         23    2    1    2    0    0  0.66073182942E+00  0.16106873863E+02 -0.49025323483E+03  0.50118833058E+03  0.10286710114E+03 0.  0.
         23    2    1    2    0    0 -0.66073182942E+00 -0.16106873863E+02  0.49025323483E+03  0.49881166942E+03  0.90581341030E+02 0.  0.
        -11    1    3    3    0    0  0.16481163169E+02  0.19513656470E+02 -0.48261986715E+03  0.48329530072E+03  0.00000000000E+00 0.  1.
         11    1    3    3    0    0 -0.15820431339E+02 -0.34067826075E+01 -0.76333676773E+01  0.17893029861E+02  0.00000000000E+00 0.  1.
        -15    1    4    4    0    0 -0.51694527715E+01  0.23222197362E+02  0.39398643735E+03  0.39470807470E+03  0.17770000000E+01 0. -1.
         15    1    4    4    0    0  0.45087209421E+01 -0.39329071225E+02  0.96266797476E+02  0.10410359472E+03  0.17770000000E+01 0.  1.
</event>
<event>
 8    1  0.7476119E-006  0.5000648E+03  0.7546771E-02  0.9399665E-01
        -11   -1    0    0    0    0  0.00000000000E+00  0.00000000000E+00  0.50000000000E+03  0.50000000000E+03  0.00000000000E+00 0.  1.
         11   -1    0    0    0    0 -0.00000000000E+00 -0.00000000000E+00 -0.50000000000E+03  0.50000000000E+03  0.00000000000E+00 0. -1.
         23    2    1    2    0    0  0.81049021083E+02  0.26727056337E+02 -0.48378817624E+03  0.50006478456E+03  0.93437197755E+02 0.  0.
         23    2    1    2    0    0 -0.81049021083E+02 -0.26727056337E+02  0.48378817624E+03  0.49993521544E+03  0.92741257293E+02 0.  0.
        -11    1    3    3    0    0  0.45837542434E+02  0.60559465926E+02 -0.33364292790E+03  0.34217850977E+03  0.00000000000E+00 0.  1.
         11    1    3    3    0    0  0.35211478649E+02 -0.33832409589E+02 -0.15014524835E+03  0.15788627479E+03  0.00000000000E+00 0. -1.
        -15    1    4    4    0    0 -0.57656989227E+02 -0.55839184043E+02  0.23458022983E+03  0.24793826820E+03  0.17770000000E+01 0. -1.
         15    1    4    4    0    0 -0.23392031855E+02  0.29112127706E+02  0.24920794641E+03  0.25199694724E+03  0.17770000000E+01 0.  1.
</event>
<event>
 8    1  0.7476119E-006  0.5001445E+03  0.7546771E-02  0.9399486E-01
        -11   -1    0    0    0    0  0.00000000000E+00  0.00000000000E+00  0.50000000000E+03  0.50000000000E+03  0.00000000000E+00 0.  1.
         11   -1    0    0    0    0 -0.00000000000E+00 -0.00000000000E+00 -0.50000000000E+03  0.50000000000E+03  0.00000000000E+00 0. -1.
         23    2    1    2    0    0  0.29512218548E+02  0.19453967140E+03 -0.45075181040E+03  0.50014453504E+03  0.90833400056E+02 0.  0.
         23    2    1    2    0    0 -0.29512218548E+02 -0.19453967140E+03  0.45075181040E+03  0.49985546496E+03  0.89228002790E+02 0.  0.
        -11    1    3    3    0    0  0.25263615928E+02  0.68120198550E+02 -0.78373611648E+02  0.10686924133E+03  0.00000000000E+00 0.  1.
         11    1    3    3    0    0  0.42486026204E+01  0.12641947285E+03 -0.37237819875E+03  0.39327529371E+03  0.00000000000E+00 0. -1.
        -15    1    4    4    0    0 -0.93756496302E+00 -0.17700155269E+01  0.88232164844E+02  0.88272785303E+02  0.17770000000E+01 0. -1.
         15    1    4    4    0    0 -0.28574653585E+02 -0.19276965587E+03  0.36251964555E+03  0.41158267966E+03  0.17770000000E+01 0.  1.
</event>
<event>
 8    1  0.7476119E-006  0.5001367E+03  0.7546771E-02  0.9399504E-01
        -11   -1    0    0    0    0  0.00000000000E+00  0.00000000000E+00  0.50000000000E+03  0.50000000000E+03  0.00000000000E+00 0.  1.
         11   -1    0    0    0    0 -0.00000000000E+00 -0.00000000000E+00 -0.50000000000E+03  0.50000000000E+03  0.00000000000E+00 0. -1.
         23    2    1    2    0    0  0.52006225160E+02 -0.46157899633E+02 -0.48687801162E+03  0.50013672821E+03  0.90836939316E+02 0.  0.
         23    2    1    2    0    0 -0.52006225160E+02  0.46157899633E+02  0.48687801162E+03  0.49986327179E+03  0.89319052449E+02 0.  0.
        -11    1    3    3    0    0  0.21067258477E+02 -0.70991683208E+02 -0.29035558243E+03  0.29964981681E+03  0.00000000000E+00 0. -1.
         11    1    3    3    0    0  0.30938966683E+02  0.24833783575E+02 -0.19652242919E+03  0.20048691139E+03  0.00000000000E+00 0.  1.
        -15    1    4    4    0    0 -0.52273581950E+02 -0.12050869956E+02  0.19622608995E+03  0.20343447825E+03  0.17770000000E+01 0. -1.
         15    1    4    4    0    0  0.26735679002E+00  0.58208769589E+02  0.29065192168E+03  0.29642879354E+03  0.17770000000E+01 0.  1.
</event>
<event>
 8    1  0.8026257E-006  0.5002532E+03  0.7546771E-02  0.9399243E-01
        -11   -1    0    0    0    0  0.00000000000E+00  0.00000000000E+00  0.50000000000E+03  0.50000000000E+03  0.00000000000E+00 0.  1.
         11   -1    0    0    0    0 -0.00000000000E+00 -0.00000000000E+00 -0.50000000000E+03  0.50000000000E+03  0.00000000000E+00 0. -1.
         23    2    1    2    0    0 -0.54344807867E+02  0.86912025056E+02  0.48064512859E+03  0.50025323261E+03  0.93415731304E+02 0.  0.
         23    2    1    2    0    0  0.54344807867E+02 -0.86912025056E+02 -0.48064512859E+03  0.49974676739E+03  0.90664401159E+02 0.  0.
        -11    1    3    3    0    0 -0.35589879089E+02  0.85789542852E+02  0.46908852128E+03  0.47819507103E+03  0.00000000000E+00 0.  1.
         11    1    3    3    0    0 -0.18754928778E+02  0.11224822035E+01  0.11556607307E+02  0.22058161579E+02  0.00000000000E+00 0. -1.
        -15    1    4    4    0    0 -0.24919100040E+01 -0.45448168947E+02 -0.33396599193E+03  0.33705813619E+03  0.17770000000E+01 0. -1.
         15    1    4    4    0    0  0.56836717871E+02 -0.41463856109E+02 -0.14667913666E+03  0.16268863120E+03  0.17770000000E+01 0.  1.
</event>
<event>
 8    1  0.7476119E-006  0.5004706E+03  0.7546771E-02  0.9398757E-01
        -11   -1    0    0    0    0  0.00000000000E+00  0.00000000000E+00  0.50000000000E+03  0.50000000000E+03  0.00000000000E+00 0.  1.
         11   -1    0    0    0    0 -0.00000000000E+00 -0.00000000000E+00 -0.50000000000E+03  0.50000000000E+03  0.00000000000E+00 0. -1.
         23    2    1    2    0    0  0.26337317298E+02 -0.99150606667E+02 -0.48161882674E+03  0.50047064136E+03  0.89384962455E+02 0.  0.
         23    2    1    2    0    0 -0.26337317298E+02  0.99150606667E+02  0.48161882674E+03  0.49952935864E+03  0.83954682944E+02 0.  0.
        -11    1    3    3    0    0  0.25608331712E+01  0.17156727556E+02 -0.59700878433E+02  0.62169977101E+02  0.00000000000E+00 0.  1.
         11    1    3    3    0    0  0.23776484127E+02 -0.11630733422E+03 -0.42191794830E+03  0.43830066426E+03  0.00000000000E+00 0. -1.
        -15    1    4    4    0    0  0.12236696591E+02 -0.85634302795E+01  0.99993157925E+02  0.10111804212E+03  0.17770000000E+01 0. -1.
         15    1    4    4    0    0 -0.38574013890E+02  0.10771403695E+03  0.38162566881E+03  0.39841131652E+03  0.17770000000E+01 0.  1.
</event>
<event>
 8    1  0.7476119E-006  0.5000885E+03  0.7546771E-02  0.9399612E-01
        -11   -1    0    0    0    0  0.00000000000E+00  0.00000000000E+00  0.50000000000E+03  0.50000000000E+03  0.00000000000E+00 0.  1.
         11   -1    0    0    0    0 -0.00000000000E+00 -0.00000000000E+00 -0.50000000000E+03  0.50000000000E+03  0.00000000000E+00 0. -1.
         23    2    1    2    0    0 -0.40659483207E+03  0.13899599497E+03 -0.23920863493E+03  0.49991145892E+03  0.89729881625E+02 0.  0.
         23    2    1    2    0    0  0.40659483207E+03 -0.13899599497E+03  0.23920863493E+03  0.50008854108E+03  0.90711266177E+02 0.  0.
        -11    1    3    3    0    0 -0.53386174829E+02 -0.58095733405E+01 -0.51947611508E+02  0.74715387617E+02  0.00000000000E+00 0.  1.
         11    1    3    3    0    0 -0.35320865724E+03  0.14480556831E+03 -0.18726102342E+03  0.42519607131E+03  0.00000000000E+00 0. -1.
        -15    1    4    4    0    0  0.25519963964E+03 -0.84758398891E+02  0.98462869889E+02  0.28637202505E+03  0.17770000000E+01 0. -1.
         15    1    4    4    0    0  0.15139519243E+03 -0.54237596080E+02  0.14074576504E+03  0.21371651603E+03  0.17770000000E+01 0.  1.
</event>
<event>
 8    1  0.7476119E-006  0.5001165E+03  0.7546771E-02  0.9399549E-01
        -11   -1    0    0    0    0  0.00000000000E+00  0.00000000000E+00  0.50000000000E+03  0.50000000000E+03  0.00000000000E+00 0. -1.
         11   -1    0    0    0    0 -0.00000000000E+00 -0.00000000000E+00 -0.50000000000E+03  0.50000000000E+03  0.00000000000E+00 0.  1.
         23    2    1    2    0    0 -0.40538512693E+01 -0.18493622801E+02 -0.49074303794E+03  0.49988354973E+03  0.93254416559E+02 0.  0.
         23    2    1    2    0    0  0.40538512693E+01  0.18493622801E+02  0.49074303794E+03  0.50011645027E+03  0.94494903284E+02 0.  0.
        -11    1    3    3    0    0  0.26434916500E+01  0.38123284666E+01  0.30432916386E+01  0.55482898661E+01  0.00000000000E+00 0. -1.
         11    1    3    3    0    0 -0.66973429193E+01 -0.22305951268E+02 -0.49378632958E+03  0.49433525986E+03  0.00000000000E+00 0.  1.
        -15    1    4    4    0    0 -0.23317791128E+02  0.44951223893E+02  0.37128679238E+03  0.37472839743E+03  0.17770000000E+01 0. -1.
         15    1    4    4    0    0  0.27371642397E+02 -0.26457601092E+02  0.11945624556E+03  0.12538805284E+03  0.17770000000E+01 0.  1.
</event>
<event>
 8    1  0.7476119E-006  0.5006132E+03  0.7546771E-02  0.9398439E-01
        -11   -1    0    0    0    0  0.00000000000E+00  0.00000000000E+00  0.50000000000E+03  0.50000000000E+03  0.00000000000E+00 0. -1.
         11   -1    0    0    0    0 -0.00000000000E+00 -0.00000000000E+00 -0.50000000000E+03  0.50000000000E+03  0.00000000000E+00 0.  1.
         23    2    1    2    0    0 -0.18796045442E+03  0.26345762190E+02 -0.45235874582E+03  0.50061322735E+03  0.99809502886E+02 0.  0.
         23    2    1    2    0    0  0.18796045442E+03 -0.26345762190E+02  0.45235874582E+03  0.49938677265E+03  0.93463801342E+02 0.  0.
        -11    1    3    3    0    0 -0.11818706906E+02  0.29962346701E+02 -0.34849278401E+02  0.47454149006E+02  0.00000000000E+00 0. -1.
         11    1    3    3    0    0 -0.17614174752E+03 -0.36165845110E+01 -0.41750946742E+03  0.45315907835E+03  0.00000000000E+00 0.  1.
        -15    1    4    4    0    0  0.18168559238E+03 -0.32863018372E+02  0.34214321539E+03  0.38878627808E+03  0.17770000000E+01 0. -1.
         15    1    4    4    0    0  0.62748620430E+01  0.65172561816E+01  0.11021553043E+03  0.11060049456E+03  0.17770000000E+01 0.  1.
</event>
<event>
 8    1  0.7476119E-006  0.5002140E+03  0.7546771E-02  0.9399331E-01
        -11   -1    0    0    0    0  0.00000000000E+00  0.00000000000E+00  0.50000000000E+03  0.50000000000E+03  0.00000000000E+00 0.  1.
         11   -1    0    0    0    0 -0.00000000000E+00 -0.00000000000E+00 -0.50000000000E+03  0.50000000000E+03  0.00000000000E+00 0. -1.
         23    2    1    2    0    0  0.33950214342E+01  0.37469625868E+01 -0.49225692729E+03  0.50021396923E+03  0.88721849902E+02 0.  0.
         23    2    1    2    0    0 -0.33950214342E+01 -0.37469625868E+01  0.49225692729E+03  0.49978603077E+03  0.86276463728E+02 0.  0.
        -11    1    3    3    0    0  0.18220260229E+02 -0.29332169707E+02 -0.91134035435E+02  0.97456485045E+02  0.00000000000E+00 0.  1.
         11    1    3    3    0    0 -0.14825238795E+02  0.33079132294E+02 -0.40112289185E+03  0.40275748418E+03  0.00000000000E+00 0. -1.
        -15    1    4    4    0    0 -0.18656879591E+02 -0.23473008880E+02  0.62923061127E+02  0.69724677500E+02  0.17770000000E+01 0. -1.
         15    1    4    4    0    0  0.15261858157E+02  0.19726046293E+02  0.42933386616E+03  0.43006135327E+03  0.17770000000E+01 0.  1.
</event>
<event>
 8    1  0.7476119E-006  0.5000822E+03  0.7546771E-02  0.9399626E-01
        -11   -1    0    0    0    0  0.00000000000E+00  0.00000000000E+00  0.50000000000E+03  0.50000000000E+03  0.00000000000E+00 0.  1.
         11   -1    0    0    0    0 -0.00000000000E+00 -0.00000000000E+00 -0.50000000000E+03  0.50000000000E+03  0.00000000000E+00 0. -1.
         23    2    1    2    0    0 -0.40400975815E+02 -0.25471762471E+02  0.48946262593E+03  0.49991781528E+03  0.89794823443E+02 0.  0.
         23    2    1    2    0    0  0.40400975815E+02  0.25471762471E+02 -0.48946262593E+03  0.50008218472E+03  0.90705456074E+02 0.  0.
        -11    1    3    3    0    0 -0.13401416877E+00  0.17836927451E+02  0.31882522308E+03  0.31932381184E+03  0.00000000000E+00 0.  1.
         11    1    3    3    0    0 -0.40266961646E+02 -0.43308689921E+02  0.17063740286E+03  0.18059400343E+03  0.00000000000E+00 0. -1.
        -15    1    4    4    0    0  0.31746211331E+02  0.27283520080E+02 -0.78164386556E+02  0.88685068961E+02  0.17770000000E+01 0.  1.
         15    1    4    4    0    0  0.86547644839E+01 -0.18117576095E+01 -0.41129823938E+03  0.41139711576E+03  0.17770000000E+01 0. -1.
</event>
<event>
 8    1  0.7476119E-006  0.5003003E+03  0.7546771E-02  0.9399138E-01
        -11   -1    0    0    0    0  0.00000000000E+00  0.00000000000E+00  0.50000000000E+03  0.50000000000E+03  0.00000000000E+00 0.  1.
         11   -1    0    0    0    0 -0.00000000000E+00 -0.00000000000E+00 -0.50000000000E+03  0.50000000000E+03  0.00000000000E+00 0. -1.
         23    2    1    2    0    0 -0.47255553884E+03  0.10598026988E+03  0.85608748881E+02  0.50030034418E+03  0.91820594684E+02 0.  0.
         23    2    1    2    0    0  0.47255553884E+03 -0.10598026988E+03 -0.85608748881E+02  0.49969965582E+03  0.88489170196E+02 0.  0.
        -11    1    3    3    0    0 -0.41492220258E+03  0.86136082426E+02  0.43030382123E+02  0.42594773468E+03  0.00000000000E+00 0.  1.
         11    1    3    3    0    0 -0.57633336262E+02  0.19844187459E+02  0.42578366758E+02  0.74352609506E+02  0.00000000000E+00 0. -1.
        -15    1    4    4    0    0  0.47624324947E+03 -0.10425331448E+03 -0.86579227165E+02  0.49515200348E+03  0.17770000000E+01 0. -1.
         15    1    4    4    0    0 -0.36877106286E+01 -0.17269554049E+01  0.97047828339E+00  0.45476523338E+01  0.17770000000E+01 0.  1.
</event>
<event>
 8    1  0.7476119E-006  0.5000435E+03  0.7546771E-02  0.9399712E-01
        -11   -1    0    0    0    0  0.00000000000E+00  0.00000000000E+00  0.50000000000E+03  0.50000000000E+03  0.00000000000E+00 0. -1.
         11   -1    0    0    0    0 -0.00000000000E+00 -0.00000000000E+00 -0.50000000000E+03  0.50000000000E+03  0.00000000000E+00 0.  1.
         23    2    1    2    0    0  0.17409226384E+03  0.44596620191E+03 -0.11336772768E+03  0.49995646847E+03  0.88939637461E+02 0.  0.
         23    2    1    2    0    0 -0.17409226384E+03 -0.44596620191E+03  0.11336772768E+03  0.50004353153E+03  0.89427748374E+02 0.  0.
        -11    1    3    3    0    0  0.55006378344E+02  0.53421055136E+02 -0.15400452514E+02  0.78209236845E+02  0.00000000000E+00 0. -1.
         11    1    3    3    0    0  0.11908588549E+03  0.39254514677E+03 -0.97967275164E+02  0.42174723162E+03  0.00000000000E+00 0.  1.
        -15    1    4    4    0    0 -0.13156410182E+03 -0.31533477855E+03  0.39239634862E+02  0.34393028672E+03  0.17770000000E+01 0.  1.
         15    1    4    4    0    0 -0.42528162021E+02 -0.13063142336E+03  0.74128092817E+02  0.15611324482E+03  0.17770000000E+01 0. -1.
</event>
<event>
 8    1  0.7476119E-006  0.5000623E+03  0.7546771E-02  0.9399670E-01
        -11   -1    0    0    0    0  0.00000000000E+00  0.00000000000E+00  0.50000000000E+03  0.50000000000E+03  0.00000000000E+00 0.  1.
         11   -1    0    0    0    0 -0.00000000000E+00 -0.00000000000E+00 -0.50000000000E+03  0.50000000000E+03  0.00000000000E+00 0. -1.
         23    2    1    2    0    0 -0.42864865930E+03  0.59006567812E+02 -0.23337804528E+03  0.50006232419E+03  0.91518128760E+02 0.  0.
         23    2    1    2    0    0  0.42864865930E+03 -0.59006567812E+02  0.23337804528E+03  0.49993767581E+03  0.90834572205E+02 0.  0.
        -11    1    3    3    0    0 -0.42650808527E+03  0.53474070544E+02 -0.21473745274E+03  0.48050056882E+03  0.00000000000E+00 0. -1.
         11    1    3    3    0    0 -0.21405740278E+01  0.55324972686E+01 -0.18640592535E+02  0.19561755373E+02  0.00000000000E+00 0.  1.
        -15    1    4    4    0    0  0.18981345447E+03 -0.71487884802E+02  0.10134947930E+03  0.22674774498E+03  0.17770000000E+01 0. -1.
         15    1    4    4    0    0  0.23883520483E+03  0.12481316990E+02  0.13202856598E+03  0.27318993082E+03  0.17770000000E+01 0.  1.
</event>
<event>
 8    1  0.7476119E-006  0.5000197E+03  0.7546771E-02  0.9399766E-01
        -11   -1    0    0    0    0  0.00000000000E+00  0.00000000000E+00  0.50000000000E+03  0.50000000000E+03  0.00000000000E+00 0.  1.
         11   -1    0    0    0    0 -0.00000000000E+00 -0.00000000000E+00 -0.50000000000E+03  0.50000000000E+03  0.00000000000E+00 0.  1.
         23    2    1    2    0    0  0.43076077245E+01 -0.65709557934E+02 -0.48675747315E+03  0.49998032309E+03  0.93333725542E+02 0.  0.
         23    2    1    2    0    0 -0.43076077245E+01  0.65709557934E+02  0.48675747315E+03  0.50001967691E+03  0.93544311074E+02 0.  0.
        -11    1    3    3    0    0 -0.90981341508E+01 -0.87176642600E+02 -0.40584112137E+03  0.41519821634E+03  0.00000000000E+00 0.  1.
         11    1    3    3    0    0  0.13405741875E+02  0.21467084666E+02 -0.80916351783E+02  0.84782106751E+02  0.00000000000E+00 0.  1.
        -15    1    4    4    0    0  0.30597655469E+02  0.12931497651E+02  0.60102030849E+02  0.68693900697E+02  0.17770000000E+01 0. -1.
         15    1    4    4    0    0 -0.34905263194E+02  0.52778060283E+02  0.42665544230E+03  0.43132577621E+03  0.17770000000E+01 0.  1.
</event>
<event>
 8    1  0.7476119E-006  0.5004495E+03  0.7546771E-02  0.9398804E-01
        -11   -1    0    0    0    0  0.00000000000E+00  0.00000000000E+00  0.50000000000E+03  0.50000000000E+03  0.00000000000E+00 0.  1.
         11   -1    0    0    0    0 -0.00000000000E+00 -0.00000000000E+00 -0.50000000000E+03  0.50000000000E+03  0.00000000000E+00 0. -1.
         23    2    1    2    0    0  0.16658335463E+03 -0.32331989533E+02 -0.46106735548E+03  0.50044953643E+03  0.95243165786E+02 0.  0.
         23    2    1    2    0    0 -0.16658335463E+03  0.32331989533E+02  0.46106735548E+03  0.49955046357E+03  0.90400153641E+02 0.  0.
        -11    1    3    3    0    0  0.13036832090E+03  0.74461138930E+01 -0.24319915545E+03  0.27603835407E+03  0.00000000000E+00 0. -1.
         11    1    3    3    0    0  0.36215033729E+02 -0.39778103426E+02 -0.21786820003E+03  0.22441118235E+03  0.00000000000E+00 0.  1.
        -15    1    4    4    0    0 -0.12718228451E+03 -0.87579404701E+01  0.24608932700E+03  0.27715546108E+03  0.17770000000E+01 0. -1.
         15    1    4    4    0    0 -0.39401070115E+02  0.41089930003E+02  0.21497802849E+03  0.22239500250E+03  0.17770000000E+01 0.  1.
</event>
<event>
 8    1  0.7476119E-006  0.5001227E+03  0.7546771E-02  0.9399535E-01
        -11   -1    0    0    0    0  0.00000000000E+00  0.00000000000E+00  0.50000000000E+03  0.50000000000E+03  0.00000000000E+00 0.  1.
         11   -1    0    0    0    0 -0.00000000000E+00 -0.00000000000E+00 -0.50000000000E+03  0.50000000000E+03  0.00000000000E+00 0. -1.
         23    2    1    2    0    0 -0.17929003228E+03 -0.41345193701E+02 -0.45583381363E+03  0.50012267810E+03  0.92108016924E+02 0.  0.
         23    2    1    2    0    0  0.17929003228E+03  0.41345193701E+02  0.45583381363E+03  0.49987732190E+03  0.90766351636E+02 0.  0.
        -11    1    3    3    0    0 -0.23376850590E+01 -0.11203848617E+02 -0.14105696001E+01  0.11531725884E+02  0.00000000000E+00 0.  1.
         11    1    3    3    0    0 -0.17695234722E+03 -0.30141345084E+02 -0.45442324403E+03  0.48859095221E+03  0.00000000000E+00 0. -1.
        -15    1    4    4    0    0  0.14043342411E+03  0.36879025060E+02  0.42766644275E+03  0.45164516280E+03  0.17770000000E+01 0.  1.
         15    1    4    4    0    0  0.38856608170E+02  0.44661686403E+01  0.28167370883E+02  0.48232159108E+02  0.17770000000E+01 0. -1.
</event>
<event>
 8    1  0.7476119E-006  0.5036356E+03  0.7546771E-02  0.9391711E-01
        -11   -1    0    0    0    0  0.00000000000E+00  0.00000000000E+00  0.50000000000E+03  0.50000000000E+03  0.00000000000E+00 0.  1.
         11   -1    0    0    0    0 -0.00000000000E+00 -0.00000000000E+00 -0.50000000000E+03  0.50000000000E+03  0.00000000000E+00 0. -1.
         23    2    1    2    0    0  0.18424245288E+02 -0.10100935649E+02 -0.48714634370E+03  0.49636435542E+03  0.92868355455E+02 0.  0.
         23    2    1    2    0    0 -0.18424245288E+02  0.10100935649E+02  0.48714634370E+03  0.50363564458E+03  0.12607862863E+03 0.  0.
        -11    1    3    3    0    0 -0.33500299878E+02  0.93441970867E+01 -0.27087772913E+03  0.27310131499E+03  0.00000000000E+00 0.  1.
         11    1    3    3    0    0  0.51924545166E+02 -0.19445132736E+02 -0.21626861457E+03  0.22326304044E+03  0.00000000000E+00 0. -1.
        -15    1    4    4    0    0 -0.45997372527E+02  0.54910581450E+01  0.46659707670E+03  0.46889433747E+03  0.17770000000E+01 0.  1.
         15    1    4    4    0    0  0.27573127239E+02  0.46098775044E+01  0.20549266998E+02  0.34741307107E+02  0.17770000000E+01 0. -1.
</event>
<event>
 8    1  0.7476119E-006  0.5003204E+03  0.7546771E-02  0.9399093E-01
        -11   -1    0    0    0    0  0.00000000000E+00  0.00000000000E+00  0.50000000000E+03  0.50000000000E+03  0.00000000000E+00 0. -1.
         11   -1    0    0    0    0 -0.00000000000E+00 -0.00000000000E+00 -0.50000000000E+03  0.50000000000E+03  0.00000000000E+00 0.  1.
         23    2    1    2    0    0  0.26019512348E+03  0.89058576568E+02 -0.40722165287E+03  0.49967957743E+03  0.90649176424E+02 0.  0.
         23    2    1    2    0    0 -0.26019512348E+03 -0.89058576568E+02  0.40722165287E+03  0.50032042257E+03  0.94117577150E+02 0.  0.
        -11    1    3    3    0    0  0.14705568792E+03  0.30868514065E+02 -0.29031992780E+03  0.32690044507E+03  0.00000000000E+00 0.  1.
         11    1    3    3    0    0  0.11313943556E+03  0.58190062503E+02 -0.11690172508E+03  0.17277913236E+03  0.00000000000E+00 0. -1.
        -15    1    4    4    0    0 -0.19135434362E+03 -0.41629164237E+02  0.34267745614E+03  0.39469034548E+03  0.17770000000E+01 0. -1.
         15    1    4    4    0    0 -0.68840779857E+02 -0.47429412331E+02  0.64544196733E+02  0.10563007709E+03  0.17770000000E+01 0.  1.
</event>
<event>
 8    1  0.7476119E-006  0.5000176E+03  0.7546771E-02  0.9399770E-01
        -11   -1    0    0    0    0  0.00000000000E+00  0.00000000000E+00  0.50000000000E+03  0.50000000000E+03  0.00000000000E+00 0.  1.
         11   -1    0    0    0    0 -0.00000000000E+00 -0.00000000000E+00 -0.50000000000E+03  0.50000000000E+03  0.00000000000E+00 0. -1.
         23    2    1    2    0    0  0.99228003965E+02  0.87512802062E+01 -0.48137866048E+03  0.49998242189E+03  0.91291980804E+02 0.  0.
         23    2    1    2    0    0 -0.99228003965E+02 -0.87512802062E+01  0.48137866048E+03  0.50001757811E+03  0.91484326365E+02 0.  0.
        -11    1    3    3    0    0  0.11603839532E+03  0.80502684907E+01 -0.44414841793E+03  0.45912692489E+03  0.00000000000E+00 0. -1.
         11    1    3    3    0    0 -0.16810391352E+02  0.70101171548E+00 -0.37230242551E+02  0.40855497002E+02  0.00000000000E+00 0.  1.
        -15    1    4    4    0    0 -0.29013080437E+02  0.14596800033E+02  0.32910143604E+03  0.33070491127E+03  0.17770000000E+01 0.  1.
         15    1    4    4    0    0 -0.70214923528E+02 -0.23348080240E+02  0.15227722444E+03  0.16931266683E+03  0.17770000000E+01 0. -1.
</event>
<event>
 8    1  0.7476119E-006  0.5002965E+03  0.7546771E-02  0.9399146E-01
        -11   -1    0    0    0    0  0.00000000000E+00  0.00000000000E+00  0.50000000000E+03  0.50000000000E+03  0.00000000000E+00 0.  1.
         11   -1    0    0    0    0 -0.00000000000E+00 -0.00000000000E+00 -0.50000000000E+03  0.50000000000E+03  0.00000000000E+00 0. -1.
         23    2    1    2    0    0  0.84149891703E+00 -0.77992027165E+01 -0.49164480782E+03  0.49970345946E+03  0.89035917790E+02 0.  0.
         23    2    1    2    0    0 -0.84149891703E+00  0.77992027165E+01  0.49164480782E+03  0.50029654054E+03  0.92306423017E+02 0.  0.
        -11    1    3    3    0    0  0.24461654803E+02 -0.26002707560E+02 -0.88102963853E+02  0.95061272850E+02  0.00000000000E+00 0.  1.
         11    1    3    3    0    0 -0.23620155886E+02  0.18203504843E+02 -0.40354184397E+03  0.40464218661E+03  0.00000000000E+00 0. -1.
        -15    1    4    4    0    0  0.14943747775E+02  0.36206493564E+02  0.41731938016E+03  0.41915730766E+03  0.17770000000E+01 0.  1.
         15    1    4    4    0    0 -0.15785246692E+02 -0.28407290848E+02  0.74325427659E+02  0.81139232879E+02  0.17770000000E+01 0. -1.
</event>
<event>
 8    1  0.7476119E-006  0.5001146E+03  0.7546771E-02  0.9399553E-01
        -11   -1    0    0    0    0  0.00000000000E+00  0.00000000000E+00  0.50000000000E+03  0.50000000000E+03  0.00000000000E+00 0. -1.
         11   -1    0    0    0    0 -0.00000000000E+00 -0.00000000000E+00 -0.50000000000E+03  0.50000000000E+03  0.00000000000E+00 0.  1.
         23    2    1    2    0    0 -0.83940463159E+02  0.19502082279E+02  0.48391318760E+03  0.50011458347E+03  0.92283752090E+02 0.  0.
         23    2    1    2    0    0  0.83940463159E+02 -0.19502082279E+02 -0.48391318760E+03  0.49988541653E+03  0.91033641920E+02 0.  0.
        -11    1    3    3    0    0 -0.71306587625E+02 -0.28067852912E+02  0.27458237659E+03  0.28507528013E+03  0.00000000000E+00 0.  1.
         11    1    3    3    0    0 -0.12633875534E+02  0.47569935190E+02  0.20933081101E+03  0.21503930334E+03  0.00000000000E+00 0. -1.
        -15    1    4    4    0    0 -0.15488466898E+02  0.11230719954E+02 -0.11398292893E+03  0.11559103553E+03  0.17770000000E+01 0. -1.
         15    1    4    4    0    0  0.99428930057E+02 -0.30732802233E+02 -0.36993025867E+03  0.38429438100E+03  0.17770000000E+01 0.  1.
</event>
<event>
 8    1  0.7476119E-006  0.5000416E+03  0.7546771E-02  0.9399717E-01
        -11   -1    0    0    0    0  0.00000000000E+00  0.00000000000E+00  0.50000000000E+03  0.50000000000E+03  0.00000000000E+00 0.  1.
         11   -1    0    0    0    0 -0.00000000000E+00 -0.00000000000E+00 -0.50000000000E+03  0.50000000000E+03  0.00000000000E+00 0. -1.
         23    2    1    2    0    0  0.41656572976E+03  0.56467416496E+02  0.25496427521E+03  0.49995838821E+03  0.90752586593E+02 0.  0.
         23    2    1    2    0    0 -0.41656572976E+03 -0.56467416496E+02 -0.25496427521E+03  0.50004161179E+03  0.91209953186E+02 0.  0.
        -11    1    3    3    0    0  0.35319430280E+03  0.66572533705E+02  0.18226180871E+03  0.40298571276E+03  0.00000000000E+00 0.  1.
         11    1    3    3    0    0  0.63371426953E+02 -0.10105117209E+02  0.72702466500E+02  0.96972675445E+02  0.00000000000E+00 0. -1.
        -15    1    4    4    0    0 -0.19430325030E+03 -0.68002059880E+02 -0.10022546163E+03  0.22896797617E+03  0.17770000000E+01 0. -1.
         15    1    4    4    0    0 -0.22226247946E+03  0.11534643383E+02 -0.15473881358E+03  0.27107363563E+03  0.17770000000E+01 0.  1.
</event>
<event>
 8    1  0.7476119E-006  0.5001189E+03  0.7546771E-02  0.9399544E-01
        -11   -1    0    0    0    0  0.00000000000E+00  0.00000000000E+00  0.50000000000E+03  0.50000000000E+03  0.00000000000E+00 0. -1.
         11   -1    0    0    0    0 -0.00000000000E+00 -0.00000000000E+00 -0.50000000000E+03  0.50000000000E+03  0.00000000000E+00 0.  1.
         23    2    1    2    0    0  0.76573436177E+00 -0.72363642012E+02  0.48590967943E+03  0.50011888489E+03  0.93667493946E+02 0.  0.
         23    2    1    2    0    0 -0.76573436177E+00  0.72363642012E+02 -0.48590967943E+03  0.49988111511E+03  0.92389553750E+02 0.  0.
        -11    1    3    3    0    0  0.92042961124E+01 -0.86223750407E+01  0.30216371748E+01  0.12968990303E+02  0.00000000000E+00 0.  1.
         11    1    3    3    0    0 -0.84385617506E+01 -0.63741266972E+02  0.48288804226E+03  0.48714989459E+03  0.00000000000E+00 0. -1.
        -15    1    4    4    0    0  0.34575660867E+01 -0.22191688857E+02 -0.10418404146E+03  0.10659220442E+03  0.17770000000E+01 0. -1.
         15    1    4    4    0    0 -0.42233004484E+01  0.94555330869E+02 -0.38172563797E+03  0.39328891069E+03  0.17770000000E+01 0.  1.
</event>
<event>
 8    1  0.7476119E-006  0.5002776E+03  0.7546771E-02  0.9399189E-01
        -11   -1    0    0    0    0  0.00000000000E+00  0.00000000000E+00  0.50000000000E+03  0.50000000000E+03  0.00000000000E+00 0.  1.
         11   -1    0    0    0    0 -0.00000000000E+00 -0.00000000000E+00 -0.50000000000E+03  0.50000000000E+03  0.00000000000E+00 0. -1.
         23    2    1    2    0    0 -0.18933777042E+03 -0.14819817445E+03 -0.42879405321E+03  0.50027756953E+03  0.92745977256E+02 0.  0.
         23    2    1    2    0    0  0.18933777042E+03  0.14819817445E+03  0.42879405321E+03  0.49972243047E+03  0.89703273243E+02 0.  0.
        -11    1    3    3    0    0 -0.54516466703E+02 -0.64664007307E+02 -0.23559248530E+03  0.25031439854E+03  0.00000000000E+00 0.  1.
         11    1    3    3    0    0 -0.13482130372E+03 -0.83534167139E+02 -0.19320156790E+03  0.24996317100E+03  0.00000000000E+00 0. -1.
        -15    1    4    4    0    0  0.14712080024E+03  0.15513240637E+03  0.35780856274E+03  0.41682216672E+03  0.17770000000E+01 0.  1.
         15    1    4    4    0    0  0.42216970179E+02 -0.69342319275E+01  0.70985490469E+02  0.82900263749E+02  0.17770000000E+01 0. -1.
</event>
<event>
 8    1  0.7476119E-006  0.5041728E+03  0.7546771E-02  0.9390521E-01
        -11   -1    0    0    0    0  0.00000000000E+00  0.00000000000E+00  0.50000000000E+03  0.50000000000E+03  0.00000000000E+00 0.  1.
         11   -1    0    0    0    0 -0.00000000000E+00 -0.00000000000E+00 -0.50000000000E+03  0.50000000000E+03  0.00000000000E+00 0.  1.
         23    2    1    2    0    0  0.89412870015E+01 -0.16497529935E+02 -0.49092158801E+03  0.50417277037E+03  0.11328751784E+03 0.  0.
         23    2    1    2    0    0 -0.89412870015E+01  0.16497529935E+02  0.49092158801E+03  0.49582722963E+03  0.66996424993E+02 0.  0.
        -11    1    3    3    0    0 -0.31128891077E+02  0.27027233743E+02 -0.91043066290E+02  0.99941578649E+02  0.00000000000E+00 0.  1.
         11    1    3    3    0    0  0.40070178079E+02 -0.43524763678E+02 -0.39987852172E+03  0.40423119172E+03  0.00000000000E+00 0.  1.
        -15    1    4    4    0    0 -0.45791381209E+01 -0.17426882785E+02  0.36141524841E+03  0.36186849029E+03  0.17770000000E+01 0. -1.
         15    1    4    4    0    0 -0.43621488805E+01  0.33924412720E+02  0.12950633960E+03  0.13395873934E+03  0.17770000000E+01 0.  1.
</event>
<event>
 8    1  0.7476119E-006  0.5002002E+03  0.7546771E-02  0.9399362E-01
        -11   -1    0    0    0    0  0.00000000000E+00  0.00000000000E+00  0.50000000000E+03  0.50000000000E+03  0.00000000000E+00 0. -1.
         11   -1    0    0    0    0 -0.00000000000E+00 -0.00000000000E+00 -0.50000000000E+03  0.50000000000E+03  0.00000000000E+00 0.  1.
         23    2    1    2    0    0  0.25737314606E+01 -0.68920460647E+02 -0.48690904605E+03  0.50020020342E+03  0.91450371209E+02 0.  0.
         23    2    1    2    0    0 -0.25737314606E+01  0.68920460647E+02  0.48690904605E+03  0.49979979658E+03  0.89234318214E+02 0.  0.
        -11    1    3    3    0    0 -0.21879527595E+02 -0.68035688035E+02 -0.45172768002E+03  0.45734611125E+03  0.00000000000E+00 0.  1.
         11    1    3    3    0    0  0.24453259056E+02 -0.88477261195E+00 -0.35181366024E+02  0.42854092177E+02  0.00000000000E+00 0. -1.
        -15    1    4    4    0    0  0.88863080063E+01  0.21888286987E+02  0.21860284283E+02  0.32234970686E+02  0.17770000000E+01 0.  1.
         15    1    4    4    0    0 -0.11460039467E+02  0.47032173660E+02  0.46504876176E+03  0.46756482589E+03  0.17770000000E+01 0. -1.
</event>
<event>
 8    1  0.7476119E-006  0.5000705E+03  0.7546771E-02  0.9399652E-01
        -11   -1    0    0    0    0  0.00000000000E+00  0.00000000000E+00  0.50000000000E+03  0.50000000000E+03  0.00000000000E+00 0.  1.
         11   -1    0    0    0    0 -0.00000000000E+00 -0.00000000000E+00 -0.50000000000E+03  0.50000000000E+03  0.00000000000E+00 0. -1.
         23    2    1    2    0    0 -0.12342318494E+02  0.62988187708E+02 -0.48699063226E+03  0.49992948470E+03  0.93004135117E+02 0.  0.
         23    2    1    2    0    0  0.12342318494E+02 -0.62988187708E+02  0.48699063226E+03  0.50007051530E+03  0.93759264825E+02 0.  0.
        -11    1    3    3    0    0  0.82202279335E+01  0.31986317901E+02 -0.43360335491E+03  0.43485924857E+03  0.00000000000E+00 0. -1.
         11    1    3    3    0    0 -0.20562546427E+02  0.31001869807E+02 -0.53387277352E+02  0.65070236131E+02  0.00000000000E+00 0.  1.
        -15    1    4    4    0    0  0.14767927809E+02 -0.63502170633E+02  0.49084269675E+03  0.49515687216E+03  0.17770000000E+01 0.  1.
         15    1    4    4    0    0 -0.24256093154E+01  0.51398292522E+00 -0.38520644898E+01  0.49136431324E+01  0.17770000000E+01 0. -1.
</event>
<event>
 8    1  0.7476119E-006  0.5005629E+03  0.7546771E-02  0.9398551E-01
        -11   -1    0    0    0    0  0.00000000000E+00  0.00000000000E+00  0.50000000000E+03  0.50000000000E+03  0.00000000000E+00 0.  1.
         11   -1    0    0    0    0 -0.00000000000E+00 -0.00000000000E+00 -0.50000000000E+03  0.50000000000E+03  0.00000000000E+00 0. -1.
         23    2    1    2    0    0 -0.13884995571E+02  0.14264467784E+03 -0.46981340375E+03  0.50056287239E+03  0.96427473554E+02 0.  0.
         23    2    1    2    0    0  0.13884995571E+02 -0.14264467784E+03  0.46981340375E+03  0.49943712761E+03  0.90401951694E+02 0.  0.
        -11    1    3    3    0    0  0.28980117914E+01  0.33619404457E+02 -0.24265975453E+02  0.41563209610E+02  0.00000000000E+00 0.  1.
         11    1    3    3    0    0 -0.16783007362E+02  0.10902527339E+03 -0.44554742830E+03  0.45899966278E+03  0.00000000000E+00 0. -1.
        -15    1    4    4    0    0 -0.28324340261E+02 -0.97776120206E+02  0.35267115269E+03  0.36707293227E+03  0.17770000000E+01 0.  1.
         15    1    4    4    0    0  0.42209335832E+02 -0.44868557638E+02  0.11714225106E+03  0.13236419534E+03  0.17770000000E+01 0. -1.
</event>
<event>
 8    1  0.7476119E-006  0.5010421E+03  0.7546771E-02  0.9397481E-01
        -11   -1    0    0    0    0  0.00000000000E+00  0.00000000000E+00  0.50000000000E+03  0.50000000000E+03  0.00000000000E+00 0.  1.
         11   -1    0    0    0    0 -0.00000000000E+00 -0.00000000000E+00 -0.50000000000E+03  0.50000000000E+03  0.00000000000E+00 0. -1.
         23    2    1    2    0    0  0.52031802986E+02 -0.63630297971E+02 -0.48629834294E+03  0.50104213290E+03  0.88323367559E+02 0.  0.
         23    2    1    2    0    0 -0.52031802986E+02  0.63630297971E+02  0.48629834294E+03  0.49895786710E+03  0.75609202181E+02 0.  0.
        -11    1    3    3    0    0  0.75693827614E+02 -0.49771899996E+02 -0.41207318701E+03  0.42191362744E+03  0.00000000000E+00 0. -1.
         11    1    3    3    0    0 -0.23662024628E+02 -0.13858397975E+02 -0.74225155932E+02  0.79128505464E+02  0.00000000000E+00 0.  1.
        -15    1    4    4    0    0  0.38864523411E+01  0.49635104472E+02  0.15914691376E+03  0.16676224392E+03  0.17770000000E+01 0. -1.
         15    1    4    4    0    0 -0.55918255327E+02  0.13995193500E+02  0.32715142917E+03  0.33219562318E+03  0.17770000000E+01 0.  1.
</event>
<event>
 7    1  0.7476119E-006  0.5106564E+03  0.7546771E-02  0.9376276E-01
        -11   -1    0    0    0    0  0.00000000000E+00  0.00000000000E+00  0.50000000000E+03  0.50000000000E+03  0.00000000000E+00 0. -1.
         11   -1    0    0    0    0 -0.00000000000E+00 -0.00000000000E+00 -0.50000000000E+03  0.50000000000E+03  0.00000000000E+00 0. -1.
         23    2    1    2    0    0  0.29964219629E+03  0.17909066821E+03 -0.33127661393E+03  0.48934355553E+03  0.88622836624E+02 0.  0.
        -11    1    1    2    0    0 -0.13978000446E+03 -0.43806707088E+02  0.24225470587E+03  0.28309860429E+03  0.00000000000E+00 0. -1.
         11    1    1    2    0    0 -0.15986219183E+03 -0.13528396112E+03  0.89021908059E+02  0.22755784018E+03  0.00000000000E+00 0. -1.
        -15    1    3    3    0    0  0.19417604557E+03  0.13681802355E+03 -0.17022909584E+03  0.29224067315E+03  0.17770000000E+01 0.  1.
         15    1    3    3    0    0  0.10546615072E+03  0.42272644656E+02 -0.16104751809E+03  0.19710288239E+03  0.17770000000E+01 0. -1.
</event>
<event>
 8    1  0.7476119E-006  0.5000825E+03  0.7546771E-02  0.9399625E-01
        -11   -1    0    0    0    0  0.00000000000E+00  0.00000000000E+00  0.50000000000E+03  0.50000000000E+03  0.00000000000E+00 0.  1.
         11   -1    0    0    0    0 -0.00000000000E+00 -0.00000000000E+00 -0.50000000000E+03  0.50000000000E+03  0.00000000000E+00 0. -1.
         23    2    1    2    0    0  0.94228824007E+02  0.69334332056E+02 -0.47723018791E+03  0.49991752383E+03  0.92100800799E+02 0.  0.
         23    2    1    2    0    0 -0.94228824007E+02 -0.69334332056E+02  0.47723018791E+03  0.50008247617E+03  0.92991988042E+02 0.  0.
        -11    1    3    3    0    0  0.56975140788E+02 -0.80209649409E+01 -0.12884063744E+03  0.14110426075E+03  0.00000000000E+00 0.  1.
         11    1    3    3    0    0  0.37253683219E+02  0.77355296997E+02 -0.34838955047E+03  0.35881326308E+03  0.00000000000E+00 0. -1.
        -15    1    4    4    0    0 -0.99003161899E+02 -0.76495744601E+02  0.47473336043E+03  0.49094617448E+03  0.17770000000E+01 0.  1.
         15    1    4    4    0    0  0.47743378925E+01  0.71614125452E+01  0.24968274828E+01  0.91363016824E+01  0.17770000000E+01 0. -1.
</event>
<event>
 8    1  0.7476119E-006  0.5005266E+03  0.7546771E-02  0.9398632E-01
        -11   -1    0    0    0    0  0.00000000000E+00  0.00000000000E+00  0.50000000000E+03  0.50000000000E+03  0.00000000000E+00 0.  1.
         11   -1    0    0    0    0 -0.00000000000E+00 -0.00000000000E+00 -0.50000000000E+03  0.50000000000E+03  0.00000000000E+00 0. -1.
         23    2    1    2    0    0  0.28510137009E+02 -0.27276265622E+02 -0.49084406026E+03  0.50052658384E+03  0.89678018827E+02 0.  0.
         23    2    1    2    0    0 -0.28510137009E+02  0.27276265622E+02  0.49084406026E+03  0.49947341616E+03  0.83600115903E+02 0.  0.
        -11    1    3    3    0    0 -0.70262602151E+01  0.10837395730E+02 -0.86954208791E+01  0.15570093869E+02  0.00000000000E+00 0.  1.
         11    1    3    3    0    0  0.35536397224E+02 -0.38113661353E+02 -0.48214863938E+03  0.48495648997E+03  0.00000000000E+00 0. -1.
        -15    1    4    4    0    0  0.26238961882E+02  0.14361459936E+02  0.94054191380E+02  0.98712123355E+02  0.17770000000E+01 0. -1.
         15    1    4    4    0    0 -0.54749098891E+02  0.12914805686E+02  0.39678986888E+03  0.40076129280E+03  0.17770000000E+01 0.  1.
</event>
<event>
 8    1  0.7476119E-006  0.5001434E+03  0.7546771E-02  0.9399489E-01
        -11   -1    0    0    0    0  0.00000000000E+00  0.00000000000E+00  0.50000000000E+03  0.50000000000E+03  0.00000000000E+00 0.  1.
         11   -1    0    0    0    0 -0.00000000000E+00 -0.00000000000E+00 -0.50000000000E+03  0.50000000000E+03  0.00000000000E+00 0. -1.
         23    2    1    2    0    0  0.51392784788E+00 -0.99184508787E+02 -0.48177781562E+03  0.49985663254E+03  0.88932325779E+02 0.  0.
         23    2    1    2    0    0 -0.51392784788E+00  0.99184508787E+02  0.48177781562E+03  0.50014336746E+03  0.90530069528E+02 0.  0.
        -11    1    3    3    0    0 -0.31855599754E+00  0.90345259667E+01 -0.38444888192E+01  0.98236567350E+01  0.00000000000E+00 0.  1.
         11    1    3    3    0    0  0.83248384542E+00 -0.10821903475E+03 -0.47793332680E+03  0.49003297580E+03  0.00000000000E+00 0. -1.
        -15    1    4    4    0    0  0.28036137395E+02  0.86002227589E+02  0.43097439413E+03  0.44036858911E+03  0.17770000000E+01 0.  1.
         15    1    4    4    0    0 -0.28550065242E+02  0.13182281198E+02  0.50803421482E+02  0.59774778345E+02  0.17770000000E+01 0. -1.
</event>
<event>
 8    1  0.7476119E-006  0.5000955E+03  0.7546771E-02  0.9399596E-01
        -11   -1    0    0    0    0  0.00000000000E+00  0.00000000000E+00  0.50000000000E+03  0.50000000000E+03  0.00000000000E+00 0.  1.
         11   -1    0    0    0    0 -0.00000000000E+00 -0.00000000000E+00 -0.50000000000E+03  0.50000000000E+03  0.00000000000E+00 0. -1.
         23    2    1    2    0    0 -0.10051415477E+03 -0.24026217808E+03 -0.41709452939E+03  0.49990445361E+03  0.90042249938E+02 0.  0.
         23    2    1    2    0    0  0.10051415477E+03  0.24026217808E+03  0.41709452939E+03  0.50009554639E+03  0.91097198339E+02 0.  0.
        -11    1    3    3    0    0 -0.36379827891E+02 -0.21594707107E+02 -0.34511510227E+02  0.54597322192E+02  0.00000000000E+00 0.  1.
         11    1    3    3    0    0 -0.64134326880E+02 -0.21866747097E+03 -0.38258301916E+03  0.44530713142E+03  0.00000000000E+00 0. -1.
        -15    1    4    4    0    0 -0.17046580496E+02  0.38081001091E+02  0.71414408099E+02  0.82728011966E+02  0.17770000000E+01 0. -1.
         15    1    4    4    0    0  0.11756073527E+03  0.20218117699E+03  0.34568012129E+03  0.41736753442E+03  0.17770000000E+01 0.  1.
</event>
<event>
 8    1  0.7476119E-006  0.5005605E+03  0.7546771E-02  0.9398556E-01
        -11   -1    0    0    0    0  0.00000000000E+00  0.00000000000E+00  0.50000000000E+03  0.50000000000E+03  0.00000000000E+00 0.  1.
         11   -1    0    0    0    0 -0.00000000000E+00 -0.00000000000E+00 -0.50000000000E+03  0.50000000000E+03  0.00000000000E+00 0. -1.
         23    2    1    2    0    0  0.17750729596E+03 -0.18475410694E+03  0.41884059444E+03  0.50056046736E+03  0.97418775331E+02 0.  0.
         23    2    1    2    0    0 -0.17750729596E+03  0.18475410694E+03 -0.41884059444E+03  0.49943953264E+03  0.91484878883E+02 0.  0.
        -11    1    3    3    0    0  0.15530240744E+03 -0.10506732744E+03  0.32710477844E+03  0.37703516697E+03  0.00000000000E+00 0.  1.
         11    1    3    3    0    0  0.22204888520E+02 -0.79686779495E+02  0.91735815996E+02  0.12352530039E+03  0.00000000000E+00 0. -1.
        -15    1    4    4    0    0 -0.76745379598E+02  0.20837112436E+02 -0.11671725357E+03  0.14124487089E+03  0.17770000000E+01 0.  1.
         15    1    4    4    0    0 -0.10076191636E+03  0.16391699450E+03 -0.30212334087E+03  0.35819466174E+03  0.17770000000E+01 0. -1.
</event>
<event>
 8    1  0.7476119E-006  0.5008109E+03  0.7546771E-02  0.9397997E-01
        -11   -1    0    0    0    0  0.00000000000E+00  0.00000000000E+00  0.50000000000E+03  0.50000000000E+03  0.00000000000E+00 0.  1.
         11   -1    0    0    0    0 -0.00000000000E+00 -0.00000000000E+00 -0.50000000000E+03  0.50000000000E+03  0.00000000000E+00 0. -1.
         23    2    1    2    0    0  0.39512728776E+02 -0.15108592853E+02 -0.49069437008E+03  0.50081090399E+03  0.90780347030E+02 0.  0.
         23    2    1    2    0    0 -0.39512728776E+02  0.15108592853E+02  0.49069437008E+03  0.49918909601E+03  0.81358855899E+02 0.  0.
        -11    1    3    3    0    0  0.32869658039E+02  0.28264096533E+02 -0.36725721319E+03  0.36980688773E+03  0.00000000000E+00 0. -1.
         11    1    3    3    0    0  0.66430707365E+01 -0.43372689387E+02 -0.12343715690E+03  0.13100401626E+03  0.00000000000E+00 0.  1.
        -15    1    4    4    0    0  0.11461812634E+02  0.33423586228E+02  0.24847573719E+03  0.25098179011E+03  0.17770000000E+01 0. -1.
         15    1    4    4    0    0 -0.50974541410E+02 -0.18314993375E+02  0.24221863289E+03  0.24820730591E+03  0.17770000000E+01 0.  1.
</event>
<event>
 7    1  0.7476119E-006  0.5174175E+03  0.7546771E-02  0.9361658E-01
        -11   -1    0    0    0    0  0.00000000000E+00  0.00000000000E+00  0.50000000000E+03  0.50000000000E+03  0.00000000000E+00 0. -1.
         11   -1    0    0    0    0 -0.00000000000E+00 -0.00000000000E+00 -0.50000000000E+03  0.50000000000E+03  0.00000000000E+00 0.  1.
         23    2    1    2    0    0 -0.56434175639E+02  0.17230185534E+02 -0.47056424308E+03  0.48258248059E+03  0.89294166859E+02 0.  0.
        -11    1    3    3    0    0 -0.27793621176E+02 -0.33646025619E+02 -0.27660895770E+03  0.28003045531E+03  0.00000000000E+00 0.  1.
         11    1    3    3    0    0 -0.28640554463E+02  0.50876211153E+02 -0.19395528537E+03  0.20255202528E+03  0.00000000000E+00 0. -1.
        -15    1    1    2    0    0  0.69082470385E+02  0.86080283703E+02  0.26248924445E+03  0.28475597297E+03  0.17770000000E+01 0. -1.
         15    1    1    2    0    0 -0.12648294746E+02 -0.10331046924E+03  0.20807499862E+03  0.23266154645E+03  0.17770000000E+01 0.  1.
</event>
<event>
 7    1  0.7476119E-006  0.5334448E+03  0.7546771E-02  0.9327935E-01
        -11   -1    0    0    0    0  0.00000000000E+00  0.00000000000E+00  0.50000000000E+03  0.50000000000E+03  0.00000000000E+00 0. -1.
         11   -1    0    0    0    0 -0.00000000000E+00 -0.00000000000E+00 -0.50000000000E+03  0.50000000000E+03  0.00000000000E+00 0.  1.
         23    2    1    2    0    0  0.23663161911E+03 -0.12313853757E+03 -0.37191064972E+03  0.46655523836E+03  0.90546322219E+02 0.  0.
        -11    1    3    3    0    0  0.23903838029E+03 -0.11351728039E+03 -0.37214222799E+03  0.45663481914E+03  0.00000000000E+00 0.  1.
         11    1    3    3    0    0 -0.24067611776E+01 -0.96212571761E+01  0.23157826690E+00  0.99204192204E+01  0.00000000000E+00 0. -1.
        -15    1    1    2    0    0 -0.25212898093E+03  0.12351985489E+03  0.16441619945E+03  0.32536444481E+03  0.17770000000E+01 0. -1.
         15    1    1    2    0    0  0.15497361822E+02 -0.38131732427E+00  0.20749445028E+03  0.20808031683E+03  0.17770000000E+01 0.  1.
</event>
<event>
 8    1  0.7476119E-006  0.5001263E+03  0.7546771E-02  0.9399527E-01
        -11   -1    0    0    0    0  0.00000000000E+00  0.00000000000E+00  0.50000000000E+03  0.50000000000E+03  0.00000000000E+00 0. -1.
         11   -1    0    0    0    0 -0.00000000000E+00 -0.00000000000E+00 -0.50000000000E+03  0.50000000000E+03  0.00000000000E+00 0.  1.
         23    2    1    2    0    0  0.19762319254E+03  0.83943963159E+02 -0.44216050994E+03  0.50012633835E+03  0.92298009630E+02 0.  0.
         23    2    1    2    0    0 -0.19762319254E+03 -0.83943963159E+02  0.44216050994E+03  0.49987366165E+03  0.90918897272E+02 0.  0.
        -11    1    3    3    0    0  0.48034357463E+02  0.56593300363E+02 -0.90874995638E+02  0.11733868064E+03  0.00000000000E+00 0. -1.
         11    1    3    3    0    0  0.14958883508E+03  0.27350662796E+02 -0.35128551430E+03  0.38278765771E+03  0.00000000000E+00 0.  1.
        -15    1    4    4    0    0 -0.20698018344E+03 -0.76054397234E+02  0.42375013851E+03  0.47769488723E+03  0.17770000000E+01 0. -1.
         15    1    4    4    0    0  0.93569909042E+01 -0.78895659247E+01  0.18410371433E+02  0.22178774416E+02  0.17770000000E+01 0.  1.
</event>
<event>
 8    1  0.7476119E-006  0.5003566E+03  0.7546771E-02  0.9399012E-01
        -11   -1    0    0    0    0  0.00000000000E+00  0.00000000000E+00  0.50000000000E+03  0.50000000000E+03  0.00000000000E+00 0.  1.
         11   -1    0    0    0    0 -0.00000000000E+00 -0.00000000000E+00 -0.50000000000E+03  0.50000000000E+03  0.00000000000E+00 0. -1.
         23    2    1    2    0    0  0.15053683646E+03  0.90655865621E+02 -0.45866235626E+03  0.50035660670E+03  0.95424062545E+02 0.  0.
         23    2    1    2    0    0 -0.15053683646E+03 -0.90655865621E+02  0.45866235626E+03  0.49964339330E+03  0.91610798054E+02 0.  0.
        -11    1    3    3    0    0  0.63743790340E+01 -0.17490640551E+02 -0.29400389184E+02  0.34798535876E+02  0.00000000000E+00 0.  1.
         11    1    3    3    0    0  0.14416245742E+03  0.10814650617E+03 -0.42926196708E+03  0.46555807082E+03  0.00000000000E+00 0. -1.
        -15    1    4    4    0    0 -0.25355253251E+02 -0.56776844022E+02  0.95088170251E+02  0.11362841517E+03  0.17770000000E+01 0. -1.
         15    1    4    4    0    0 -0.12518158320E+03 -0.33879021598E+02  0.36357418601E+03  0.38601497813E+03  0.17770000000E+01 0.  1.
</event>
<event>
 8    1  0.7476119E-006  0.5004682E+03  0.7546771E-02  0.9398763E-01
        -11   -1    0    0    0    0  0.00000000000E+00  0.00000000000E+00  0.50000000000E+03  0.50000000000E+03  0.00000000000E+00 0.  1.
         11   -1    0    0    0    0 -0.00000000000E+00 -0.00000000000E+00 -0.50000000000E+03  0.50000000000E+03  0.00000000000E+00 0. -1.
         23    2    1    2    0    0 -0.18787594134E+02 -0.97260000264E+02  0.48093331755E+03  0.49953178153E+03  0.91775070102E+02 0.  0.
         23    2    1    2    0    0  0.18787594134E+02  0.97260000264E+02 -0.48093331755E+03  0.50046821847E+03  0.96742443757E+02 0.  0.
        -11    1    3    3    0    0  0.35206938887E+02 -0.39927704000E+02  0.14421757555E+03  0.15372852432E+03  0.00000000000E+00 0. -1.
         11    1    3    3    0    0 -0.53994533021E+02 -0.57332296264E+02  0.33671574200E+03  0.34580325721E+03  0.00000000000E+00 0.  1.
        -15    1    4    4    0    0  0.55151156764E+01  0.25629798818E+02 -0.18037867546E+02  0.31872017241E+02  0.17770000000E+01 0.  1.
         15    1    4    4    0    0  0.13272478458E+02  0.71630201446E+02 -0.46289545000E+03  0.46859620123E+03  0.17770000000E+01 0. -1.
</event>
<event>
 8    1  0.7476119E-006  0.5000990E+03  0.7546771E-02  0.9399588E-01
        -11   -1    0    0    0    0  0.00000000000E+00  0.00000000000E+00  0.50000000000E+03  0.50000000000E+03  0.00000000000E+00 0.  1.
         11   -1    0    0    0    0 -0.00000000000E+00 -0.00000000000E+00 -0.50000000000E+03  0.50000000000E+03  0.00000000000E+00 0. -1.
         23    2    1    2    0    0 -0.13103043934E+03  0.17431447461E+02 -0.47440272121E+03  0.50009896823E+03  0.86995429391E+02 0.  0.
         23    2    1    2    0    0  0.13103043934E+03 -0.17431447461E+02  0.47440272121E+03  0.49990103177E+03  0.85850266633E+02 0.  0.
        -11    1    3    3    0    0 -0.11406279714E+03  0.40869523125E+01 -0.46047489090E+03  0.47440926427E+03  0.00000000000E+00 0. -1.
         11    1    3    3    0    0 -0.16967642194E+02  0.13344495148E+02 -0.13927830310E+02  0.25689703959E+02  0.00000000000E+00 0.  1.
        -15    1    4    4    0    0  0.64576075133E+02  0.33949253966E+02  0.24273015071E+03  0.25346341968E+03  0.17770000000E+01 0. -1.
         15    1    4    4    0    0  0.66454364202E+02 -0.51380701427E+02  0.23167257050E+03  0.24643761209E+03  0.17770000000E+01 0.  1.
</event>
<event>
 8    1  0.7476119E-006  0.5002191E+03  0.7546771E-02  0.9399320E-01
        -11   -1    0    0    0    0  0.00000000000E+00  0.00000000000E+00  0.50000000000E+03  0.50000000000E+03  0.00000000000E+00 0.  1.
         11   -1    0    0    0    0 -0.00000000000E+00 -0.00000000000E+00 -0.50000000000E+03  0.50000000000E+03  0.00000000000E+00 0.  1.
         23    2    1    2    0    0  0.67961792431E+02  0.30346662706E+02 -0.48630605166E+03  0.49978089978E+03  0.88020717605E+02 0.  0.
         23    2    1    2    0    0 -0.67961792431E+02 -0.30346662706E+02  0.48630605166E+03  0.50021910022E+03  0.90475671739E+02 0.  0.
        -11    1    3    3    0    0  0.36490842715E+02  0.84436999250E+01 -0.53659677034E+02  0.65438815773E+02  0.00000000000E+00 0.  1.
         11    1    3    3    0    0  0.31470949716E+02  0.21902962781E+02 -0.43264637463E+03  0.43434208400E+03  0.00000000000E+00 0.  1.
        -15    1    4    4    0    0  0.94867850894E+01  0.17196558574E+02  0.16913760764E+03  0.17028331910E+03  0.17770000000E+01 0. -1.
         15    1    4    4    0    0 -0.77448577520E+02 -0.47543221280E+02  0.31716844403E+03  0.32993578112E+03  0.17770000000E+01 0.  1.
</event>
<event>
 8    1  0.7476119E-006  0.5002414E+03  0.7546771E-02  0.9399270E-01
        -11   -1    0    0    0    0  0.00000000000E+00  0.00000000000E+00  0.50000000000E+03  0.50000000000E+03  0.00000000000E+00 0. -1.
         11   -1    0    0    0    0 -0.00000000000E+00 -0.00000000000E+00 -0.50000000000E+03  0.50000000000E+03  0.00000000000E+00 0.  1.
         23    2    1    2    0    0 -0.25822673214E+03 -0.28451076145E+03 -0.30661124508E+03  0.49975861971E+03  0.90115502444E+02 0.  0.
         23    2    1    2    0    0  0.25822673214E+03  0.28451076145E+03  0.30661124508E+03  0.50024138029E+03  0.92755400756E+02 0.  0.
        -11    1    3    3    0    0 -0.13937907116E+03 -0.10123214874E+03 -0.10053648137E+03  0.19945439956E+03  0.00000000000E+00 0. -1.
         11    1    3    3    0    0 -0.11884766098E+03 -0.18327861271E+03 -0.20607476371E+03  0.30030422015E+03  0.00000000000E+00 0.  1.
        -15    1    4    4    0    0  0.91118875714E+02  0.16641850568E+03  0.13077680140E+03  0.23044196245E+03  0.17770000000E+01 0.  1.
         15    1    4    4    0    0  0.16710785643E+03  0.11809225578E+03  0.17583444369E+03  0.26979941785E+03  0.17770000000E+01 0. -1.
</event>
<event>
 8    1  0.7476119E-006  0.5002836E+03  0.7546771E-02  0.9399175E-01
        -11   -1    0    0    0    0  0.00000000000E+00  0.00000000000E+00  0.50000000000E+03  0.50000000000E+03  0.00000000000E+00 0. -1.
         11   -1    0    0    0    0 -0.00000000000E+00 -0.00000000000E+00 -0.50000000000E+03  0.50000000000E+03  0.00000000000E+00 0.  1.
         23    2    1    2    0    0  0.16527350483E+03 -0.11489918263E+03  0.44865326683E+03  0.50028358045E+03  0.92069286199E+02 0.  0.
         23    2    1    2    0    0 -0.16527350483E+03  0.11489918263E+03 -0.44865326683E+03  0.49971641955E+03  0.88935890223E+02 0.  0.
        -11    1    3    3    0    0  0.14112290223E+03 -0.11411952033E+03  0.43753881406E+03  0.47368676598E+03  0.00000000000E+00 0. -1.
         11    1    3    3    0    0  0.24150602604E+02 -0.77966229988E+00  0.11114452762E+02  0.26596814464E+02  0.00000000000E+00 0.  1.
        -15    1    4    4    0    0 -0.16472892291E+03  0.93545448821E+02 -0.43457313078E+03  0.47407102080E+03  0.17770000000E+01 0.  1.
         15    1    4    4    0    0 -0.54458192631E+00  0.21353733813E+02 -0.14080136044E+02  0.25645398754E+02  0.17770000000E+01 0. -1.
</event>
<event>
 8    1  0.7476119E-006  0.5002146E+03  0.7546771E-02  0.9399330E-01
        -11   -1    0    0    0    0  0.00000000000E+00  0.00000000000E+00  0.50000000000E+03  0.50000000000E+03  0.00000000000E+00 0.  1.
         11   -1    0    0    0    0 -0.00000000000E+00 -0.00000000000E+00 -0.50000000000E+03  0.50000000000E+03  0.00000000000E+00 0. -1.
         23    2    1    2    0    0  0.61611490723E+02  0.11382185150E+03 -0.47421099476E+03  0.50021460505E+03  0.92667113277E+02 0.  0.
         23    2    1    2    0    0 -0.61611490723E+02 -0.11382185150E+03  0.47421099476E+03  0.49978539495E+03  0.90321557685E+02 0.  0.
        -11    1    3    3    0    0  0.35550696943E+02  0.45835599110E+02 -0.77100297513E+02  0.96484247810E+02  0.00000000000E+00 0.  1.
         11    1    3    3    0    0  0.26060793780E+02  0.67986252388E+02 -0.39711069725E+03  0.40373035724E+03  0.00000000000E+00 0. -1.
        -15    1    4    4    0    0 -0.24604855358E+02 -0.27631258325E+02  0.29674272333E+03  0.29904562683E+03  0.17770000000E+01 0.  1.
         15    1    4    4    0    0 -0.37006635365E+02 -0.86190593173E+02  0.17746827143E+03  0.20073976812E+03  0.17770000000E+01 0. -1.
</event>
<event>
 8    1  0.9732463E-006  0.5022572E+03  0.7546771E-02  0.9394773E-01
        -11   -1    0    0    0    0  0.00000000000E+00  0.00000000000E+00  0.50000000000E+03  0.50000000000E+03  0.00000000000E+00 0. -1.
         11   -1    0    0    0    0 -0.00000000000E+00 -0.00000000000E+00 -0.50000000000E+03  0.50000000000E+03  0.00000000000E+00 0. -1.
         23    2    1    2    0    0 -0.32075995147E+03  0.24245030969E+02  0.36662477859E+03  0.50225719601E+03  0.11989076140E+03 0.  0.
         23    2    1    2    0    0  0.32075995147E+03 -0.24245030969E+02 -0.36662477859E+03  0.49774280399E+03  0.99294524811E+02 0.  0.
        -11    1    3    3    0    0 -0.25076432718E+03  0.31771726142E+02  0.34675980029E+03  0.42910901816E+03  0.00000000000E+00 0. -1.
         11    1    3    3    0    0 -0.69995624286E+02 -0.75266951726E+01  0.19864978306E+02  0.73148177848E+02  0.00000000000E+00 0. -1.
        -15    1    4    4    0    0  0.26575855564E+02 -0.20360612840E+02 -0.81109984685E+02  0.87765699443E+02  0.17770000000E+01 0.  1.
         15    1    4    4    0    0  0.29418409590E+03 -0.38844181297E+01 -0.28551479391E+03  0.40997710455E+03  0.17770000000E+01 0. -1.
</event>
<event>
 8    1  0.7476119E-006  0.5002407E+03  0.7546771E-02  0.9399271E-01
        -11   -1    0    0    0    0  0.00000000000E+00  0.00000000000E+00  0.50000000000E+03  0.50000000000E+03  0.00000000000E+00 0. -1.
         11   -1    0    0    0    0 -0.00000000000E+00 -0.00000000000E+00 -0.50000000000E+03  0.50000000000E+03  0.00000000000E+00 0.  1.
         23    2    1    2    0    0 -0.48984779382E+03 -0.34442863508E+02 -0.30328138144E+02  0.49975929373E+03  0.87763225528E+02 0.  0.
         23    2    1    2    0    0  0.48984779382E+03  0.34442863508E+02  0.30328138144E+02  0.50024070627E+03  0.90464337124E+02 0.  0.
        -11    1    3    3    0    0 -0.38792804506E+02  0.11176928250E+01  0.21465743638E+02  0.44349848575E+02  0.00000000000E+00 0.  1.
         11    1    3    3    0    0 -0.45105498931E+03 -0.35560556333E+02 -0.51793881782E+02  0.45540944516E+03  0.00000000000E+00 0. -1.
        -15    1    4    4    0    0  0.43699844967E+03  0.53240328819E+02  0.93665293126E+01  0.44033290500E+03  0.17770000000E+01 0.  1.
         15    1    4    4    0    0  0.52849344149E+02 -0.18797465312E+02  0.20961608831E+02  0.59907801269E+02  0.17770000000E+01 0. -1.
</event>
<event>
 8    1  0.7476119E-006  0.5009453E+03  0.7546771E-02  0.9397697E-01
        -11   -1    0    0    0    0  0.00000000000E+00  0.00000000000E+00  0.50000000000E+03  0.50000000000E+03  0.00000000000E+00 0.  1.
         11   -1    0    0    0    0 -0.00000000000E+00 -0.00000000000E+00 -0.50000000000E+03  0.50000000000E+03  0.00000000000E+00 0.  1.
         23    2    1    2    0    0 -0.16840386218E+02  0.68063542059E+02  0.48547451917E+03  0.50094530329E+03  0.10170763867E+03 0.  0.
         23    2    1    2    0    0  0.16840386218E+02 -0.68063542059E+02 -0.48547451917E+03  0.49905469671E+03  0.91944750688E+02 0.  0.
        -11    1    3    3    0    0  0.55372902280E+01  0.81588862372E+02  0.22941462573E+03  0.24355384322E+03  0.00000000000E+00 0.  1.
         11    1    3    3    0    0 -0.22377676446E+02 -0.13525320314E+02  0.25605989344E+03  0.25739146008E+03  0.00000000000E+00 0.  1.
        -15    1    4    4    0    0  0.22380865686E+02  0.17432562523E+02 -0.89158277594E+02  0.93579664338E+02  0.17770000000E+01 0. -1.
         15    1    4    4    0    0 -0.55404794684E+01 -0.85496104582E+02 -0.39631624157E+03  0.40547503237E+03  0.17770000000E+01 0.  1.
</event>
<event>
 8    1  0.7476119E-006  0.5000171E+03  0.7546771E-02  0.9399771E-01
        -11   -1    0    0    0    0  0.00000000000E+00  0.00000000000E+00  0.50000000000E+03  0.50000000000E+03  0.00000000000E+00 0.  1.
         11   -1    0    0    0    0 -0.00000000000E+00 -0.00000000000E+00 -0.50000000000E+03  0.50000000000E+03  0.00000000000E+00 0. -1.
         23    2    1    2    0    0  0.41312377408E+02 -0.12012230692E+03 -0.47486122235E+03  0.49998291665E+03  0.91398333160E+02 0.  0.
         23    2    1    2    0    0 -0.41312377408E+02  0.12012230692E+03  0.47486122235E+03  0.50001708335E+03  0.91585053388E+02 0.  0.
        -11    1    3    3    0    0  0.36106632862E+02 -0.13478384541E+03 -0.40351035872E+03  0.42695548189E+03  0.00000000000E+00 0. -1.
         11    1    3    3    0    0  0.52057445465E+01  0.14661538491E+02 -0.71350863631E+02  0.73027434763E+02  0.00000000000E+00 0.  1.
        -15    1    4    4    0    0 -0.25138938932E+01  0.11174519482E+03  0.28704748536E+03  0.30804662765E+03  0.17770000000E+01 0. -1.
         15    1    4    4    0    0 -0.38798483515E+02  0.83771121042E+01  0.18781373699E+03  0.19197045570E+03  0.17770000000E+01 0.  1.
</event>
<event>
 8    1  0.7605007E-006  0.5002789E+03  0.7546771E-02  0.9399186E-01
        -11   -1    0    0    0    0  0.00000000000E+00  0.00000000000E+00  0.50000000000E+03  0.50000000000E+03  0.00000000000E+00 0.  1.
         11   -1    0    0    0    0 -0.00000000000E+00 -0.00000000000E+00 -0.50000000000E+03  0.50000000000E+03  0.00000000000E+00 0. -1.
         23    2    1    2    0    0 -0.59405060001E+02 -0.12279555703E+02  0.48804166282E+03  0.49972106471E+03  0.88638192807E+02 0.  0.
         23    2    1    2    0    0  0.59405060001E+02  0.12279555703E+02 -0.48804166282E+03  0.50027893529E+03  0.91731127758E+02 0.  0.
        -11    1    3    3    0    0 -0.29721128803E+02  0.31822257836E+02  0.11605036408E+03  0.12395034730E+03  0.00000000000E+00 0. -1.
         11    1    3    3    0    0 -0.29683931198E+02 -0.44101813539E+02  0.37199129874E+03  0.37577071742E+03  0.00000000000E+00 0.  1.
        -15    1    4    4    0    0  0.22797715519E+01  0.99977036878E+01 -0.16518343168E+01  0.10537443854E+02  0.17770000000E+01 0.  1.
         15    1    4    4    0    0  0.57125288449E+02  0.22818520148E+01 -0.48638982851E+03  0.48974149143E+03  0.17770000000E+01 0. -1.
</event>
<event>
 8    1  0.7476119E-006  0.5000053E+03  0.7546771E-02  0.9399798E-01
        -11   -1    0    0    0    0  0.00000000000E+00  0.00000000000E+00  0.50000000000E+03  0.50000000000E+03  0.00000000000E+00 0.  1.
         11   -1    0    0    0    0 -0.00000000000E+00 -0.00000000000E+00 -0.50000000000E+03  0.50000000000E+03  0.00000000000E+00 0. -1.
         23    2    1    2    0    0  0.71269307185E+01 -0.40082664905E+01 -0.49182287037E+03  0.49999471327E+03  0.89655552716E+02 0.  0.
         23    2    1    2    0    0 -0.71269307185E+01  0.40082664905E+01  0.49182287037E+03  0.50000528673E+03  0.89714500515E+02 0.  0.
        -11    1    3    3    0    0  0.11170774440E+02 -0.59466905219E+01 -0.49457252995E+03  0.49473441027E+03  0.00000000000E+00 0. -1.
         11    1    3    3    0    0 -0.40438437212E+01  0.19384240314E+01  0.27496595782E+01  0.52603029916E+01  0.00000000000E+00 0.  1.
        -15    1    4    4    0    0 -0.24569885435E+02 -0.24367550410E+02  0.41252512462E+03  0.41397776868E+03  0.17770000000E+01 0.  1.
         15    1    4    4    0    0  0.17442954716E+02  0.28375816900E+02  0.79297745746E+02  0.86027518059E+02  0.17770000000E+01 0. -1.
</event>
<event>
 8    1  0.7476119E-006  0.5010556E+03  0.7546771E-02  0.9397451E-01
        -11   -1    0    0    0    0  0.00000000000E+00  0.00000000000E+00  0.50000000000E+03  0.50000000000E+03  0.00000000000E+00 0.  1.
         11   -1    0    0    0    0 -0.00000000000E+00 -0.00000000000E+00 -0.50000000000E+03  0.50000000000E+03  0.00000000000E+00 0. -1.
         23    2    1    2    0    0 -0.23641082544E+02 -0.22507537939E+03  0.43493114556E+03  0.50105557257E+03  0.10331388210E+03 0.  0.
         23    2    1    2    0    0  0.23641082544E+02  0.22507537939E+03 -0.43493114556E+03  0.49894442743E+03  0.92534388683E+02 0.  0.
        -11    1    3    3    0    0  0.99391042811E+01 -0.21216034878E+03  0.38154622129E+03  0.43667873588E+03  0.00000000000E+00 0.  1.
         11    1    3    3    0    0 -0.33580186825E+02 -0.12915030605E+02  0.53384924271E+02  0.64376836689E+02  0.00000000000E+00 0. -1.
        -15    1    4    4    0    0  0.63841777441E+00  0.34034320999E+02 -0.15434441257E+02  0.37418207988E+02  0.17770000000E+01 0.  1.
         15    1    4    4    0    0  0.23002664770E+02  0.19104105839E+03 -0.41949670431E+03  0.46152621944E+03  0.17770000000E+01 0. -1.
</event>
<event>
 7    1  0.7476119E-006  0.5409954E+03  0.7546771E-02  0.9312480E-01
        -11   -1    0    0    0    0  0.00000000000E+00  0.00000000000E+00  0.50000000000E+03  0.50000000000E+03  0.00000000000E+00 0. -1.
         11   -1    0    0    0    0 -0.00000000000E+00 -0.00000000000E+00 -0.50000000000E+03  0.50000000000E+03  0.00000000000E+00 0. -1.
         23    2    1    2    0    0  0.91534797523E+02  0.77377071586E+02  0.11707347130E+03  0.19036432681E+03  0.90368959696E+02 0.  0.
        -11    1    1    2    0    0 -0.87494316947E+02 -0.42694656385E+03 -0.14403669914E+03  0.45900456924E+03  0.00000000000E+00 0. -1.
         11    1    1    2    0    0 -0.40404805762E+01  0.34956949226E+03  0.26963227845E+02  0.35063110395E+03  0.00000000000E+00 0. -1.
        -15    1    3    3    0    0  0.29453772428E+02  0.69645370901E+02  0.10020028112E+03  0.12554384280E+03  0.17770000000E+01 0.  1.
         15    1    3    3    0    0  0.62081025095E+02  0.77317006850E+01  0.16873190173E+02  0.64820484015E+02  0.17770000000E+01 0. -1.
</event>
<event>
 8    1  0.7476119E-006  0.5003134E+03  0.7546771E-02  0.9399109E-01
        -11   -1    0    0    0    0  0.00000000000E+00  0.00000000000E+00  0.50000000000E+03  0.50000000000E+03  0.00000000000E+00 0. -1.
         11   -1    0    0    0    0 -0.00000000000E+00 -0.00000000000E+00 -0.50000000000E+03  0.50000000000E+03  0.00000000000E+00 0.  1.
         23    2    1    2    0    0 -0.21057853877E+02 -0.12138703276E+03 -0.47604292232E+03  0.49968660449E+03  0.88834643497E+02 0.  0.
         23    2    1    2    0    0  0.21057853877E+02  0.12138703276E+03  0.47604292232E+03  0.50031339551E+03  0.92295096873E+02 0.  0.
        -11    1    3    3    0    0 -0.12320271931E+02 -0.12896943613E+03 -0.35164794551E+03  0.37475482937E+03  0.00000000000E+00 0.  1.
         11    1    3    3    0    0 -0.87375819456E+01  0.75824033692E+01 -0.12439497681E+03  0.12493177512E+03  0.00000000000E+00 0. -1.
        -15    1    4    4    0    0 -0.36668746938E+02  0.51901702732E+02  0.19372242704E+03  0.20388702807E+03  0.17770000000E+01 0.  1.
         15    1    4    4    0    0  0.57726600814E+02  0.69485330027E+02  0.28232049528E+03  0.29642636744E+03  0.17770000000E+01 0. -1.
</event>
<event>
 8    1  0.7476119E-006  0.5000825E+03  0.7546771E-02  0.9399625E-01
        -11   -1    0    0    0    0  0.00000000000E+00  0.00000000000E+00  0.50000000000E+03  0.50000000000E+03  0.00000000000E+00 0.  1.
         11   -1    0    0    0    0 -0.00000000000E+00 -0.00000000000E+00 -0.50000000000E+03  0.50000000000E+03  0.00000000000E+00 0. -1.
         23    2    1    2    0    0 -0.12404892051E+03  0.34487089380E+03 -0.32816808848E+03  0.49991749520E+03  0.88877104178E+02 0.  0.
         23    2    1    2    0    0  0.12404892051E+03 -0.34487089380E+03  0.32816808848E+03  0.50008250480E+03  0.89800608227E+02 0.  0.
        -11    1    3    3    0    0  0.47196398797E+01  0.10011295658E+03 -0.96760311313E+02  0.13931057721E+03  0.00000000000E+00 0.  1.
         11    1    3    3    0    0 -0.12876856039E+03  0.24475793722E+03 -0.23140777716E+03  0.36060691800E+03  0.00000000000E+00 0. -1.
        -15    1    4    4    0    0  0.34595003635E+02 -0.21715500219E+02  0.48626022284E+02  0.63529717443E+02  0.17770000000E+01 0.  1.
         15    1    4    4    0    0  0.89453916879E+02 -0.32315539358E+03  0.27954206619E+03  0.43655278735E+03  0.17770000000E+01 0. -1.
</event>
<event>
 8    1  0.7476119E-006  0.5002820E+03  0.7546771E-02  0.9399179E-01
        -11   -1    0    0    0    0  0.00000000000E+00  0.00000000000E+00  0.50000000000E+03  0.50000000000E+03  0.00000000000E+00 0. -1.
         11   -1    0    0    0    0 -0.00000000000E+00 -0.00000000000E+00 -0.50000000000E+03  0.50000000000E+03  0.00000000000E+00 0. -1.
         23    2    1    2    0    0  0.53885452991E+01  0.41913838820E+02 -0.48972642038E+03  0.50028196738E+03  0.93082080793E+02 0.  0.
         23    2    1    2    0    0 -0.53885452991E+01 -0.41913838820E+02  0.48972642038E+03  0.49971803262E+03  0.90001883299E+02 0.  0.
        -11    1    3    3    0    0 -0.31265273060E+02  0.26033410954E+02 -0.92499196944E+02  0.10105126036E+03  0.00000000000E+00 0. -1.
         11    1    3    3    0    0  0.36653818359E+02  0.15880427866E+02 -0.39722722344E+03  0.39923070702E+03  0.00000000000E+00 0. -1.
        -15    1    4    4    0    0  0.23674402496E+02  0.14473629111E+02  0.71711831338E+02  0.76913638297E+02  0.17770000000E+01 0.  1.
         15    1    4    4    0    0 -0.29062947795E+02 -0.56387467931E+02  0.41801458904E+03  0.42280439432E+03  0.17770000000E+01 0. -1.
</event>
<event>
 8    1  0.7476119E-006  0.5001043E+03  0.7546771E-02  0.9399576E-01
        -11   -1    0    0    0    0  0.00000000000E+00  0.00000000000E+00  0.50000000000E+03  0.50000000000E+03  0.00000000000E+00 0. -1.
         11   -1    0    0    0    0 -0.00000000000E+00 -0.00000000000E+00 -0.50000000000E+03  0.50000000000E+03  0.00000000000E+00 0.  1.
         23    2    1    2    0    0 -0.16912439797E+03  0.28884727700E+02  0.46065156889E+03  0.50010433593E+03  0.92016788758E+02 0.  0.
         23    2    1    2    0    0  0.16912439797E+03 -0.28884727700E+02 -0.46065156889E+03  0.49989566407E+03  0.90875835874E+02 0.  0.
        -11    1    3    3    0    0 -0.74893092044E+01 -0.23565233054E+02  0.55552381825E+02  0.60806883555E+02  0.00000000000E+00 0.  1.
         11    1    3    3    0    0 -0.16163508877E+03  0.52449960754E+02  0.40509918707E+03  0.43929745238E+03  0.00000000000E+00 0. -1.
        -15    1    4    4    0    0  0.10562531531E+03 -0.60855740593E+02 -0.31615378923E+03  0.33884584190E+03  0.17770000000E+01 0.  1.
         15    1    4    4    0    0  0.63499082667E+02  0.31971012893E+02 -0.14449777966E+03  0.16104982217E+03  0.17770000000E+01 0. -1.
</event>
<event>
 8    1  0.7476119E-006  0.5002551E+03  0.7546771E-02  0.9399239E-01
        -11   -1    0    0    0    0  0.00000000000E+00  0.00000000000E+00  0.50000000000E+03  0.50000000000E+03  0.00000000000E+00 0.  1.
         11   -1    0    0    0    0 -0.00000000000E+00 -0.00000000000E+00 -0.50000000000E+03  0.50000000000E+03  0.00000000000E+00 0. -1.
         23    2    1    2    0    0 -0.56254854618E+02 -0.42582522772E+02 -0.48651740910E+03  0.49974492838E+03  0.89821624198E+02 0.  0.
         23    2    1    2    0    0  0.56254854618E+02  0.42582522772E+02  0.48651740910E+03  0.50025507162E+03  0.92617856899E+02 0.  0.
        -11    1    3    3    0    0 -0.53841607128E+02 -0.52094129902E+02 -0.48379494878E+03  0.48956130310E+03  0.00000000000E+00 0. -1.
         11    1    3    3    0    0 -0.24132474906E+01  0.95116071292E+01 -0.27224603147E+01  0.10183625278E+02  0.00000000000E+00 0.  1.
        -15    1    4    4    0    0  0.68966074424E+02  0.60095651216E+02  0.33821936407E+03  0.35037594478E+03  0.17770000000E+01 0.  1.
         15    1    4    4    0    0 -0.12711219806E+02 -0.17513128443E+02  0.14829804502E+03  0.14987912684E+03  0.17770000000E+01 0. -1.
</event>
<event>
 8    1  0.8815148E-006  0.5000546E+03  0.7546771E-02  0.9399687E-01
        -11   -1    0    0    0    0  0.00000000000E+00  0.00000000000E+00  0.50000000000E+03  0.50000000000E+03  0.00000000000E+00 0.  1.
         11   -1    0    0    0    0 -0.00000000000E+00 -0.00000000000E+00 -0.50000000000E+03  0.50000000000E+03  0.00000000000E+00 0. -1.
         23    2    1    2    0    0 -0.24284004218E+02 -0.96408372834E+02  0.48161361360E+03  0.49994536838E+03  0.90052270068E+02 0.  0.
         23    2    1    2    0    0  0.24284004218E+02  0.96408372834E+02 -0.48161361360E+03  0.50005463162E+03  0.90656905933E+02 0.  0.
        -11    1    3    3    0    0 -0.15860535823E+02  0.15124464654E+02  0.65963903701E+02  0.69509298796E+02  0.00000000000E+00 0. -1.
         11    1    3    3    0    0 -0.84234683948E+01 -0.11153283749E+03  0.41564970990E+03  0.43043606958E+03  0.00000000000E+00 0.  1.
        -15    1    4    4    0    0  0.15561665811E+02  0.11352970546E+03 -0.42782852840E+03  0.44291259511E+03  0.17770000000E+01 0. -1.
         15    1    4    4    0    0  0.87223384069E+01 -0.17121332630E+02 -0.53785085197E+02  0.57142036514E+02  0.17770000000E+01 0.  1.
</event>
<event>
 8    1  0.7476119E-006  0.5001992E+03  0.7546771E-02  0.9399364E-01
        -11   -1    0    0    0    0  0.00000000000E+00  0.00000000000E+00  0.50000000000E+03  0.50000000000E+03  0.00000000000E+00 0.  1.
         11   -1    0    0    0    0 -0.00000000000E+00 -0.00000000000E+00 -0.50000000000E+03  0.50000000000E+03  0.00000000000E+00 0. -1.
         23    2    1    2    0    0  0.48225796904E+01 -0.38079130226E+01 -0.49171016157E+03  0.50019917785E+03  0.91556414580E+02 0.  0.
         23    2    1    2    0    0 -0.48225796904E+01  0.38079130226E+01  0.49171016157E+03  0.49980082215E+03  0.89354470227E+02 0.  0.
        -11    1    3    3    0    0  0.35541890421E+01 -0.45934686238E+02 -0.18719097973E+03  0.19277730818E+03  0.00000000000E+00 0.  1.
         11    1    3    3    0    0  0.12683906483E+01  0.42126773216E+02 -0.30451918185E+03  0.30742186967E+03  0.00000000000E+00 0. -1.
        -15    1    4    4    0    0 -0.13307729946E+02  0.23675466017E+02  0.46313567854E+03  0.46393473446E+03  0.17770000000E+01 0.  1.
         15    1    4    4    0    0  0.84851502557E+01 -0.19867552995E+02  0.28574483032E+02  0.35866087694E+02  0.17770000000E+01 0. -1.
</event>
<event>
 8    1  0.7476119E-006  0.5017710E+03  0.7546771E-02  0.9395856E-01
        -11   -1    0    0    0    0  0.00000000000E+00  0.00000000000E+00  0.50000000000E+03  0.50000000000E+03  0.00000000000E+00 0.  1.
         11   -1    0    0    0    0 -0.00000000000E+00 -0.00000000000E+00 -0.50000000000E+03  0.50000000000E+03  0.00000000000E+00 0. -1.
         23    2    1    2    0    0 -0.16055970865E+03 -0.33024870573E+03  0.32511051156E+03  0.50177096887E+03  0.10598883337E+03 0.  0.
         23    2    1    2    0    0  0.16055970865E+03  0.33024870573E+03 -0.32511051156E+03  0.49822903113E+03  0.87702309265E+02 0.  0.
        -11    1    3    3    0    0 -0.96631808193E+02 -0.27752407476E+03  0.28627442762E+03  0.41025646410E+03  0.00000000000E+00 0.  1.
         11    1    3    3    0    0 -0.63927900461E+02 -0.52724630970E+02  0.38836083936E+02  0.91514504772E+02  0.00000000000E+00 0. -1.
        -15    1    4    4    0    0  0.13808883770E+03  0.30237376675E+03 -0.32106710033E+03  0.46215328903E+03  0.17770000000E+01 0. -1.
         15    1    4    4    0    0  0.22470870954E+02  0.27874938979E+02 -0.40434112303E+01  0.36075742098E+02  0.17770000000E+01 0.  1.
</event>
<event>
 8    1  0.7476119E-006  0.5004324E+03  0.7546771E-02  0.9398843E-01
        -11   -1    0    0    0    0  0.00000000000E+00  0.00000000000E+00  0.50000000000E+03  0.50000000000E+03  0.00000000000E+00 0.  1.
         11   -1    0    0    0    0 -0.00000000000E+00 -0.00000000000E+00 -0.50000000000E+03  0.50000000000E+03  0.00000000000E+00 0. -1.
         23    2    1    2    0    0 -0.27039433131E+03  0.22287671902E+03  0.34432865448E+03  0.50043243225E+03  0.95306194261E+02 0.  0.
         23    2    1    2    0    0  0.27039433131E+03 -0.22287671902E+03 -0.34432865448E+03  0.49956756775E+03  0.90655425424E+02 0.  0.
        -11    1    3    3    0    0 -0.20830507061E+03  0.13171204457E+03  0.27889225089E+03  0.37218268732E+03  0.00000000000E+00 0.  1.
         11    1    3    3    0    0 -0.62089260700E+02  0.91164674451E+02  0.65436403588E+02  0.12824974494E+03  0.00000000000E+00 0. -1.
        -15    1    4    4    0    0  0.26887931707E+03 -0.19162473607E+03 -0.30730030172E+03  0.45105737971E+03  0.17770000000E+01 0. -1.
         15    1    4    4    0    0  0.15150142467E+01 -0.31251982953E+02 -0.37028352761E+02  0.48510188041E+02  0.17770000000E+01 0.  1.
</event>
<event>
 8    1  0.7476119E-006  0.5000615E+03  0.7546771E-02  0.9399672E-01
        -11   -1    0    0    0    0  0.00000000000E+00  0.00000000000E+00  0.50000000000E+03  0.50000000000E+03  0.00000000000E+00 0.  1.
         11   -1    0    0    0    0 -0.00000000000E+00 -0.00000000000E+00 -0.50000000000E+03  0.50000000000E+03  0.00000000000E+00 0. -1.
         23    2    1    2    0    0 -0.12284614567E+03 -0.13824376118E+03 -0.45510836146E+03  0.49993850338E+03  0.92802874325E+02 0.  0.
         23    2    1    2    0    0  0.12284614567E+03  0.13824376118E+03  0.45510836146E+03  0.50006149662E+03  0.93463183734E+02 0.  0.
        -11    1    3    3    0    0 -0.45589390531E+02 -0.67249689449E+02 -0.31251210449E+03  0.32290049352E+03  0.00000000000E+00 0. -1.
         11    1    3    3    0    0 -0.77256755143E+02 -0.70994071731E+02 -0.14259625697E+03  0.17703800987E+03  0.00000000000E+00 0.  1.
        -15    1    4    4    0    0  0.12147469755E+03  0.13420442305E+03  0.45938457109E+03  0.49376540098E+03  0.17770000000E+01 0.  1.
         15    1    4    4    0    0  0.13714481234E+01  0.40393381290E+01 -0.42762096340E+01  0.62960956401E+01  0.17770000000E+01 0. -1.
</event>
<event>
 8    1  0.7476119E-006  0.5002013E+03  0.7546771E-02  0.9399359E-01
        -11   -1    0    0    0    0  0.00000000000E+00  0.00000000000E+00  0.50000000000E+03  0.50000000000E+03  0.00000000000E+00 0.  1.
         11   -1    0    0    0    0 -0.00000000000E+00 -0.00000000000E+00 -0.50000000000E+03  0.50000000000E+03  0.00000000000E+00 0. -1.
         23    2    1    2    0    0 -0.12073589406E+02 -0.12238019964E+03 -0.47563856070E+03  0.50020132128E+03  0.94056560465E+02 0.  0.
         23    2    1    2    0    0  0.12073589406E+02  0.12238019964E+03  0.47563856070E+03  0.49979867872E+03  0.91891207423E+02 0.  0.
        -11    1    3    3    0    0 -0.41947970517E+02 -0.62484352703E+02 -0.34835783847E+03  0.35639459899E+03  0.00000000000E+00 0. -1.
         11    1    3    3    0    0  0.29874381111E+02 -0.59895846936E+02 -0.12728072222E+03  0.14380672229E+03  0.00000000000E+00 0.  1.
        -15    1    4    4    0    0 -0.39591284309E+02  0.63484286777E+02  0.24823442904E+03  0.25927054200E+03  0.17770000000E+01 0.  1.
         15    1    4    4    0    0  0.51664873715E+02  0.58895912861E+02  0.22740413166E+03  0.24052813672E+03  0.17770000000E+01 0. -1.
</event>
<event>
 8    1  0.7476119E-006  0.5005017E+03  0.7546771E-02  0.9398688E-01
        -11   -1    0    0    0    0  0.00000000000E+00  0.00000000000E+00  0.50000000000E+03  0.50000000000E+03  0.00000000000E+00 0. -1.
         11   -1    0    0    0    0 -0.00000000000E+00 -0.00000000000E+00 -0.50000000000E+03  0.50000000000E+03  0.00000000000E+00 0.  1.
         23    2    1    2    0    0 -0.21138825075E+03  0.17532986629E+01  0.44340580102E+03  0.49949831642E+03  0.90563773761E+02 0.  0.
         23    2    1    2    0    0  0.21138825075E+03 -0.17532986629E+01 -0.44340580102E+03  0.50050168358E+03  0.95943547316E+02 0.  0.
        -11    1    3    3    0    0 -0.71000229142E+02 -0.26300935973E+02  0.86538968619E+02  0.11498593332E+03  0.00000000000E+00 0.  1.
         11    1    3    3    0    0 -0.14038802161E+03  0.28054234636E+02  0.35686683240E+03  0.38451238311E+03  0.00000000000E+00 0. -1.
        -15    1    4    4    0    0 -0.43859098594E+01  0.13768359015E+02 -0.17210440938E+02  0.22542424926E+02  0.17770000000E+01 0. -1.
         15    1    4    4    0    0  0.21577416061E+03 -0.15521657678E+02 -0.42619536008E+03  0.47795925865E+03  0.17770000000E+01 0.  1.
</event>
<event>
 8    1  0.7476119E-006  0.5002127E+03  0.7546771E-02  0.9399334E-01
        -11   -1    0    0    0    0  0.00000000000E+00  0.00000000000E+00  0.50000000000E+03  0.50000000000E+03  0.00000000000E+00 0.  1.
         11   -1    0    0    0    0 -0.00000000000E+00 -0.00000000000E+00 -0.50000000000E+03  0.50000000000E+03  0.00000000000E+00 0. -1.
         23    2    1    2    0    0  0.47285363873E+02 -0.54373742513E+02 -0.48627650229E+03  0.50021265615E+03  0.92495703598E+02 0.  0.
         23    2    1    2    0    0 -0.47285363873E+02  0.54373742513E+02  0.48627650229E+03  0.49978734385E+03  0.90167304988E+02 0.  0.
        -11    1    3    3    0    0  0.62132671393E+02 -0.50079625546E+02 -0.47344811581E+03  0.48012660425E+03  0.00000000000E+00 0. -1.
         11    1    3    3    0    0 -0.14847307519E+02 -0.42941169671E+01 -0.12828386476E+02  0.20086051894E+02  0.00000000000E+00 0.  1.
        -15    1    4    4    0    0 -0.42591456669E+02  0.25274294957E+02  0.92794269402E+02  0.10519865175E+03  0.17770000000E+01 0. -1.
         15    1    4    4    0    0 -0.46939072044E+01  0.29099447556E+02  0.39348223288E+03  0.39458869210E+03  0.17770000000E+01 0.  1.
</event>
<event>
 8    1  0.7476119E-006  0.5008081E+03  0.7546771E-02  0.9398003E-01
        -11   -1    0    0    0    0  0.00000000000E+00  0.00000000000E+00  0.50000000000E+03  0.50000000000E+03  0.00000000000E+00 0. -1.
         11   -1    0    0    0    0 -0.00000000000E+00 -0.00000000000E+00 -0.50000000000E+03  0.50000000000E+03  0.00000000000E+00 0.  1.
         23    2    1    2    0    0  0.14652199693E+01 -0.12170784523E+03 -0.47545553152E+03  0.50080807363E+03  0.99678571952E+02 0.  0.
         23    2    1    2    0    0 -0.14652199693E+01  0.12170784523E+03  0.47545553152E+03  0.49919192637E+03  0.91212227452E+02 0.  0.
        -11    1    3    3    0    0 -0.70060294644E+01 -0.56667529220E+02 -0.71205626729E+02  0.91271762307E+02  0.00000000000E+00 0. -1.
         11    1    3    3    0    0  0.84712494337E+01 -0.65040316010E+02 -0.40424990479E+03  0.40953631133E+03  0.00000000000E+00 0.  1.
        -15    1    4    4    0    0  0.12364319129E+02  0.67022190456E+02  0.11006882841E+03  0.12947260373E+03  0.17770000000E+01 0. -1.
         15    1    4    4    0    0 -0.13829539098E+02  0.54685654774E+02  0.36538670311E+03  0.36971932263E+03  0.17770000000E+01 0.  1.
</event>
<event>
 8    1  0.7476119E-006  0.5000270E+03  0.7546771E-02  0.9399749E-01
        -11   -1    0    0    0    0  0.00000000000E+00  0.00000000000E+00  0.50000000000E+03  0.50000000000E+03  0.00000000000E+00 0.  1.
         11   -1    0    0    0    0 -0.00000000000E+00 -0.00000000000E+00 -0.50000000000E+03  0.50000000000E+03  0.00000000000E+00 0. -1.
         23    2    1    2    0    0 -0.23724752091E+03  0.11283054470E+03  0.41563186289E+03  0.50002697133E+03  0.90884589517E+02 0.  0.
         23    2    1    2    0    0  0.23724752091E+03 -0.11283054470E+03 -0.41563186289E+03  0.49997302867E+03  0.90587338795E+02 0.  0.
        -11    1    3    3    0    0 -0.16634692476E+03  0.54198068991E+02  0.20081423276E+03  0.26633641534E+03  0.00000000000E+00 0.  1.
         11    1    3    3    0    0 -0.70900596158E+02  0.58632475710E+02  0.21481763013E+03  0.23369055599E+03  0.00000000000E+00 0. -1.
        -15    1    4    4    0    0  0.57196517560E+02 -0.12024057954E+02 -0.16653995688E+03  0.17650703827E+03  0.17770000000E+01 0.  1.
         15    1    4    4    0    0  0.18005100336E+03 -0.10080648675E+03 -0.24909190601E+03  0.32346599040E+03  0.17770000000E+01 0. -1.
</event>
<event>
 8    1  0.7476119E-006  0.5000602E+03  0.7546771E-02  0.9399675E-01
        -11   -1    0    0    0    0  0.00000000000E+00  0.00000000000E+00  0.50000000000E+03  0.50000000000E+03  0.00000000000E+00 0. -1.
         11   -1    0    0    0    0 -0.00000000000E+00 -0.00000000000E+00 -0.50000000000E+03  0.50000000000E+03  0.00000000000E+00 0.  1.
         23    2    1    2    0    0 -0.27497347735E+02  0.38741569876E+02 -0.48933350432E+03  0.50006017650E+03  0.91410548137E+02 0.  0.
         23    2    1    2    0    0  0.27497347735E+02 -0.38741569876E+02  0.48933350432E+03  0.49993982350E+03  0.90749850144E+02 0.  0.
        -11    1    3    3    0    0 -0.24713920291E+02 -0.24870049946E+01 -0.40870804461E+03  0.40946212130E+03  0.00000000000E+00 0.  1.
         11    1    3    3    0    0 -0.27834274446E+01  0.41228574870E+02 -0.80625459707E+02  0.90598055206E+02  0.00000000000E+00 0. -1.
        -15    1    4    4    0    0 -0.19155400154E+02 -0.48540639318E+02  0.20017109267E+03  0.20686891282E+03  0.17770000000E+01 0.  1.
         15    1    4    4    0    0  0.46652747890E+02  0.97990694421E+01  0.28916241165E+03  0.29307091068E+03  0.17770000000E+01 0. -1.
</event>
<event>
 8    1  0.7476119E-006  0.5002209E+03  0.7546771E-02  0.9399316E-01
        -11   -1    0    0    0    0  0.00000000000E+00  0.00000000000E+00  0.50000000000E+03  0.50000000000E+03  0.00000000000E+00 0.  1.
         11   -1    0    0    0    0 -0.00000000000E+00 -0.00000000000E+00 -0.50000000000E+03  0.50000000000E+03  0.00000000000E+00 0. -1.
         23    2    1    2    0    0  0.12746938945E+03  0.73761839054E+02 -0.46788178900E+03  0.49977913243E+03  0.95794355702E+02 0.  0.
         23    2    1    2    0    0 -0.12746938945E+03 -0.73761839054E+02  0.46788178900E+03  0.50022086757E+03  0.98072900056E+02 0.  0.
        -11    1    3    3    0    0 -0.12007098687E+02  0.25287862902E+02 -0.78182784200E+02  0.83043327090E+02  0.00000000000E+00 0.  1.
         11    1    3    3    0    0  0.13947648814E+03  0.48473976152E+02 -0.38969900480E+03  0.41673580534E+03  0.00000000000E+00 0. -1.
        -15    1    4    4    0    0 -0.12946004176E+03 -0.80601082104E+02  0.46864833946E+03  0.49283958918E+03  0.17770000000E+01 0.  1.
         15    1    4    4    0    0  0.19906523102E+01  0.68392430496E+01 -0.76655046155E+00  0.73812783935E+01  0.17770000000E+01 0. -1.
</event>
<event>
 8    1  0.7715793E-006  0.5004554E+03  0.7546771E-02  0.9398791E-01
        -11   -1    0    0    0    0  0.00000000000E+00  0.00000000000E+00  0.50000000000E+03  0.50000000000E+03  0.00000000000E+00 0. -1.
         11   -1    0    0    0    0 -0.00000000000E+00 -0.00000000000E+00 -0.50000000000E+03  0.50000000000E+03  0.00000000000E+00 0.  1.
         23    2    1    2    0    0 -0.39832339949E+02 -0.13038537436E+03  0.47257087373E+03  0.49954456469E+03  0.87376085190E+02 0.  0.
         23    2    1    2    0    0  0.39832339949E+02  0.13038537436E+03 -0.47257087373E+03  0.50045543531E+03  0.92441607982E+02 0.  0.
        -11    1    3    3    0    0 -0.58389743851E+02 -0.13032378396E+03  0.43034220730E+03  0.45341820237E+03  0.00000000000E+00 0. -1.
         11    1    3    3    0    0  0.18557403901E+02 -0.61590395203E-01  0.42228666425E+02  0.46126362321E+02  0.00000000000E+00 0.  1.
        -15    1    4    4    0    0 -0.29995198325E+02  0.38756749163E+02 -0.15878009153E+03  0.16618084343E+03  0.17770000000E+01 0. -1.
         15    1    4    4    0    0  0.69827538274E+02  0.91628625193E+02 -0.31379078220E+03  0.33427459188E+03  0.17770000000E+01 0.  1.
</event>
<event>
 8    1  0.7476119E-006  0.5000265E+03  0.7546771E-02  0.9399750E-01
        -11   -1    0    0    0    0  0.00000000000E+00  0.00000000000E+00  0.50000000000E+03  0.50000000000E+03  0.00000000000E+00 0. -1.
         11   -1    0    0    0    0 -0.00000000000E+00 -0.00000000000E+00 -0.50000000000E+03  0.50000000000E+03  0.00000000000E+00 0.  1.
         23    2    1    2    0    0 -0.84893598418E+02  0.59651976002E+02 -0.48065897631E+03  0.49997345882E+03  0.90416407382E+02 0.  0.
         23    2    1    2    0    0  0.84893598418E+02 -0.59651976002E+02  0.48065897631E+03  0.50002654118E+03  0.90709476261E+02 0.  0.
        -11    1    3    3    0    0 -0.56086693202E+01 -0.26587780728E+00 -0.23371714043E+03  0.23378457946E+03  0.00000000000E+00 0. -1.
         11    1    3    3    0    0 -0.79284929098E+02  0.59917853809E+02 -0.24694183588E+03  0.26618887936E+03  0.00000000000E+00 0.  1.
        -15    1    4    4    0    0  0.47943235370E+02 -0.57130183523E+02  0.43431127775E+03  0.44067204971E+03  0.17770000000E+01 0. -1.
         15    1    4    4    0    0  0.36950363049E+02 -0.25217924795E+01  0.46347698563E+02  0.59354491471E+02  0.17770000000E+01 0.  1.
</event>
<event>
 8    1  0.7476119E-006  0.5000934E+03  0.7546771E-02  0.9399601E-01
        -11   -1    0    0    0    0  0.00000000000E+00  0.00000000000E+00  0.50000000000E+03  0.50000000000E+03  0.00000000000E+00 0.  1.
         11   -1    0    0    0    0 -0.00000000000E+00 -0.00000000000E+00 -0.50000000000E+03  0.50000000000E+03  0.00000000000E+00 0. -1.
         23    2    1    2    0    0 -0.78978488369E+00 -0.21187151687E+02 -0.49117508897E+03  0.50009338893E+03  0.91601913057E+02 0.  0.
         23    2    1    2    0    0  0.78978488369E+00  0.21187151687E+02  0.49117508897E+03  0.49990661107E+03  0.90576667036E+02 0.  0.
        -11    1    3    3    0    0  0.95825195775E+01 -0.33241052405E+02 -0.47852347774E+03  0.47977235331E+03  0.00000000000E+00 0. -1.
         11    1    3    3    0    0 -0.10372304461E+02  0.12053900718E+02 -0.12651611225E+02  0.20321035627E+02  0.00000000000E+00 0.  1.
        -15    1    4    4    0    0  0.20711408468E+02 -0.29561750734E+02  0.14362140846E+03  0.14809836679E+03  0.17770000000E+01 0. -1.
         15    1    4    4    0    0 -0.19921623584E+02  0.50748902421E+02  0.34755368050E+03  0.35180824428E+03  0.17770000000E+01 0.  1.
</event>
<event>
 8    1  0.7476119E-006  0.5001156E+03  0.7546771E-02  0.9399551E-01
        -11   -1    0    0    0    0  0.00000000000E+00  0.00000000000E+00  0.50000000000E+03  0.50000000000E+03  0.00000000000E+00 0. -1.
         11   -1    0    0    0    0 -0.00000000000E+00 -0.00000000000E+00 -0.50000000000E+03  0.50000000000E+03  0.00000000000E+00 0.  1.
         23    2    1    2    0    0 -0.17771071401E+03  0.18657048669E+03 -0.41873716742E+03  0.50011563877E+03  0.91570696122E+02 0.  0.
         23    2    1    2    0    0  0.17771071401E+03 -0.18657048669E+03  0.41873716742E+03  0.49988436123E+03  0.90299030132E+02 0.  0.
        -11    1    3    3    0    0 -0.12973039383E+03  0.14817804159E+03 -0.37847700069E+03  0.42665155237E+03  0.00000000000E+00 0.  1.
         11    1    3    3    0    0 -0.47980320182E+02  0.38392445093E+02 -0.40260166733E+02  0.73464086398E+02  0.00000000000E+00 0. -1.
        -15    1    4    4    0    0  0.16204655004E+03 -0.17662940681E+03  0.32233107458E+03  0.40169330477E+03  0.17770000000E+01 0. -1.
         15    1    4    4    0    0  0.15664163972E+02 -0.99410798777E+01  0.96406092838E+02  0.98191056453E+02  0.17770000000E+01 0.  1.
</event>
<event>
 8    1  0.7476119E-006  0.5002283E+03  0.7546771E-02  0.9399299E-01
        -11   -1    0    0    0    0  0.00000000000E+00  0.00000000000E+00  0.50000000000E+03  0.50000000000E+03  0.00000000000E+00 0.  1.
         11   -1    0    0    0    0 -0.00000000000E+00 -0.00000000000E+00 -0.50000000000E+03  0.50000000000E+03  0.00000000000E+00 0. -1.
         23    2    1    2    0    0 -0.15659575679E+02  0.39925103661E+02 -0.49014293230E+03  0.49977174910E+03  0.87706732347E+02 0.  0.
         23    2    1    2    0    0  0.15659575679E+02 -0.39925103661E+02  0.49014293230E+03  0.50022825090E+03  0.90271660606E+02 0.  0.
        -11    1    3    3    0    0 -0.17384599102E+02  0.17331944056E+02 -0.46605584655E+03  0.46670190986E+03  0.00000000000E+00 0. -1.
         11    1    3    3    0    0  0.17250234223E+01  0.22593159606E+02 -0.24087085753E+02  0.33069839232E+02  0.00000000000E+00 0.  1.
        -15    1    4    4    0    0  0.11959032755E+01 -0.35993049171E+02  0.48147415985E+03  0.48282238360E+03  0.17770000000E+01 0.  1.
         15    1    4    4    0    0  0.14463672404E+02 -0.39320544906E+01  0.86687724515E+01  0.17405867308E+02  0.17770000000E+01 0. -1.
</event>
<event>
 8    1  0.7476119E-006  0.5000146E+03  0.7546771E-02  0.9399777E-01
        -11   -1    0    0    0    0  0.00000000000E+00  0.00000000000E+00  0.50000000000E+03  0.50000000000E+03  0.00000000000E+00 0. -1.
         11   -1    0    0    0    0 -0.00000000000E+00 -0.00000000000E+00 -0.50000000000E+03  0.50000000000E+03  0.00000000000E+00 0.  1.
         23    2    1    2    0    0 -0.14946657213E+03 -0.28512658761E+03 -0.37116692951E+03  0.50001463084E+03  0.92802555719E+02 0.  0.
         23    2    1    2    0    0  0.14946657213E+03  0.28512658761E+03  0.37116692951E+03  0.49998536916E+03  0.92644766005E+02 0.  0.
        -11    1    3    3    0    0 -0.67362742160E+02 -0.45036081520E+02 -0.98513018769E+02  0.12755705601E+03  0.00000000000E+00 0. -1.
         11    1    3    3    0    0 -0.82103829966E+02 -0.24009050609E+03 -0.27265391074E+03  0.37245757483E+03  0.00000000000E+00 0.  1.
        -15    1    4    4    0    0 -0.82000939739E+00  0.44347276659E+01  0.41072526273E+02  0.41357579334E+02  0.17770000000E+01 0.  1.
         15    1    4    4    0    0  0.15028658152E+03  0.28069185994E+03  0.33009440324E+03  0.45862778983E+03  0.17770000000E+01 0. -1.
</event>
<event>
 8    1  0.7476119E-006  0.5012402E+03  0.7546771E-02  0.9397039E-01
        -11   -1    0    0    0    0  0.00000000000E+00  0.00000000000E+00  0.50000000000E+03  0.50000000000E+03  0.00000000000E+00 0.  1.
         11   -1    0    0    0    0 -0.00000000000E+00 -0.00000000000E+00 -0.50000000000E+03  0.50000000000E+03  0.00000000000E+00 0.  1.
         23    2    1    2    0    0  0.10500029918E+02  0.25541770392E+01 -0.49267936367E+03  0.50124019474E+03  0.91607876227E+02 0.  0.
         23    2    1    2    0    0 -0.10500029918E+02 -0.25541770392E+01  0.49267936367E+03  0.49875980526E+03  0.76887017803E+02 0.  0.
        -11    1    3    3    0    0 -0.24828951220E+01  0.68203595813E+01  0.10394421844E+01  0.73322924833E+01  0.00000000000E+00 0.  1.
         11    1    3    3    0    0  0.12982925040E+02 -0.42661825421E+01 -0.49371880586E+03  0.49390790226E+03  0.00000000000E+00 0.  1.
        -15    1    4    4    0    0 -0.23553714580E+02 -0.50405362852E+01  0.46672960065E+02  0.52551949600E+02  0.17770000000E+01 0. -1.
         15    1    4    4    0    0  0.13053684662E+02  0.24863592460E+01  0.44600640361E+03  0.44620785566E+03  0.17770000000E+01 0.  1.
</event>
<event>
 8    1  0.7476119E-006  0.5008656E+03  0.7546771E-02  0.9397875E-01
        -11   -1    0    0    0    0  0.00000000000E+00  0.00000000000E+00  0.50000000000E+03  0.50000000000E+03  0.00000000000E+00 0.  1.
         11   -1    0    0    0    0 -0.00000000000E+00 -0.00000000000E+00 -0.50000000000E+03  0.50000000000E+03  0.00000000000E+00 0.  1.
         23    2    1    2    0    0 -0.63498054342E+02  0.60659916570E+02 -0.48204849761E+03  0.50086562464E+03  0.10384599902E+03 0.  0.
         23    2    1    2    0    0  0.63498054342E+02 -0.60659916570E+02  0.48204849761E+03  0.49913437536E+03  0.95145899744E+02 0.  0.
        -11    1    3    3    0    0 -0.14605071178E+02  0.56114822012E+02 -0.99375784844E+02  0.11505532568E+03  0.00000000000E+00 0.  1.
         11    1    3    3    0    0 -0.48892983164E+02  0.45450945581E+01 -0.38267271277E+03  0.38581029896E+03  0.00000000000E+00 0.  1.
        -15    1    4    4    0    0  0.58204905362E+02  0.10098954063E+01  0.14175621326E+03  0.15325407865E+03  0.17770000000E+01 0. -1.
         15    1    4    4    0    0  0.52931489795E+01 -0.61669811976E+02  0.34029228435E+03  0.34588029671E+03  0.17770000000E+01 0.  1.
</event>
<event>
 8    1  0.7476119E-006  0.5002051E+03  0.7546771E-02  0.9399351E-01
        -11   -1    0    0    0    0  0.00000000000E+00  0.00000000000E+00  0.50000000000E+03  0.50000000000E+03  0.00000000000E+00 0. -1.
         11   -1    0    0    0    0 -0.00000000000E+00 -0.00000000000E+00 -0.50000000000E+03  0.50000000000E+03  0.00000000000E+00 0.  1.
         23    2    1    2    0    0 -0.71263112053E+02 -0.62199332379E+00 -0.48646687183E+03  0.49979494422E+03  0.89811752370E+02 0.  0.
         23    2    1    2    0    0  0.71263112053E+02  0.62199332379E+00  0.48646687183E+03  0.50020505578E+03  0.92066619456E+02 0.  0.
        -11    1    3    3    0    0 -0.33738988895E+02  0.43119299163E+02 -0.28670779053E+03  0.29188859258E+03  0.00000000000E+00 0.  1.
         11    1    3    3    0    0 -0.37524123158E+02 -0.43741292486E+02 -0.19975908131E+03  0.20790635164E+03  0.00000000000E+00 0. -1.
        -15    1    4    4    0    0  0.52656169942E+02 -0.25139071211E+02  0.13224763775E+03  0.14455877889E+03  0.17770000000E+01 0.  1.
         15    1    4    4    0    0  0.18606942110E+02  0.25761064535E+02  0.35421923408E+03  0.35564627689E+03  0.17770000000E+01 0. -1.
</event>
<event>
 8    1  0.7476119E-006  0.5002152E+03  0.7546771E-02  0.9399328E-01
        -11   -1    0    0    0    0  0.00000000000E+00  0.00000000000E+00  0.50000000000E+03  0.50000000000E+03  0.00000000000E+00 0. -1.
         11   -1    0    0    0    0 -0.00000000000E+00 -0.00000000000E+00 -0.50000000000E+03  0.50000000000E+03  0.00000000000E+00 0.  1.
         23    2    1    2    0    0 -0.57139770177E+02  0.21734411081E+03  0.43736113342E+03  0.49978475934E+03  0.89423871578E+02 0.  0.
         23    2    1    2    0    0  0.57139770177E+02 -0.21734411081E+03 -0.43736113342E+03  0.50021524066E+03  0.91799292585E+02 0.  0.
        -11    1    3    3    0    0 -0.64188928162E+02  0.80921025613E+02  0.15724073746E+03  0.18813048770E+03  0.00000000000E+00 0.  1.
         11    1    3    3    0    0  0.70491579850E+01  0.13642308520E+03  0.28012039596E+03  0.31165427164E+03  0.00000000000E+00 0. -1.
        -15    1    4    4    0    0  0.70014323393E+02 -0.13803289481E+03 -0.22450366834E+03  0.27269055788E+03  0.17770000000E+01 0.  1.
         15    1    4    4    0    0 -0.12874553216E+02 -0.79311216006E+02 -0.21285746507E+03  0.22752468278E+03  0.17770000000E+01 0. -1.
</event>
<event>
 8    1  0.7476119E-006  0.5005548E+03  0.7546771E-02  0.9398569E-01
        -11   -1    0    0    0    0  0.00000000000E+00  0.00000000000E+00  0.50000000000E+03  0.50000000000E+03  0.00000000000E+00 0.  1.
         11   -1    0    0    0    0 -0.00000000000E+00 -0.00000000000E+00 -0.50000000000E+03  0.50000000000E+03  0.00000000000E+00 0. -1.
         23    2    1    2    0    0  0.75777598881E+02 -0.39108687789E+01 -0.48612259994E+03  0.50055475681E+03  0.92099636333E+02 0.  0.
         23    2    1    2    0    0 -0.75777598881E+02  0.39108687789E+01  0.48612259994E+03  0.49944524319E+03  0.85865181463E+02 0.  0.
        -11    1    3    3    0    0  0.17223537790E+02 -0.92858517827E+01 -0.36883045574E+03  0.36934913344E+03  0.00000000000E+00 0. -1.
         11    1    3    3    0    0  0.58554061092E+02  0.53749830038E+01 -0.11729214420E+03  0.13120562337E+03  0.00000000000E+00 0.  1.
        -15    1    4    4    0    0 -0.24225790985E+01  0.33948496339E+02  0.18158849637E+03  0.18475905671E+03  0.17770000000E+01 0. -1.
         15    1    4    4    0    0 -0.73355019783E+02 -0.30037627560E+02  0.30453410357E+03  0.31468618648E+03  0.17770000000E+01 0.  1.
</event>
<event>
 8    1  0.7476119E-006  0.5007388E+03  0.7546771E-02  0.9398158E-01
        -11   -1    0    0    0    0  0.00000000000E+00  0.00000000000E+00  0.50000000000E+03  0.50000000000E+03  0.00000000000E+00 0. -1.
         11   -1    0    0    0    0 -0.00000000000E+00 -0.00000000000E+00 -0.50000000000E+03  0.50000000000E+03  0.00000000000E+00 0.  1.
         23    2    1    2    0    0  0.16740871048E+02 -0.24924463205E+03  0.42423830810E+03  0.50073876190E+03  0.91422219637E+02 0.  0.
         23    2    1    2    0    0 -0.16740871048E+02  0.24924463205E+03 -0.42423830810E+03  0.49926123810E+03  0.82948769959E+02 0.  0.
        -11    1    3    3    0    0 -0.15399311777E+02 -0.92629389814E+02  0.89228200081E+02  0.12953383477E+03  0.00000000000E+00 0.  1.
         11    1    3    3    0    0  0.32140182826E+02 -0.15661524223E+03  0.33501010802E+03  0.37120492713E+03  0.00000000000E+00 0. -1.
        -15    1    4    4    0    0 -0.38853565575E+02  0.23142388399E+03 -0.37411847581E+03  0.44162699794E+03  0.17770000000E+01 0.  1.
         15    1    4    4    0    0  0.22112694527E+02  0.17820748061E+02 -0.50119832287E+02  0.57634240155E+02  0.17770000000E+01 0. -1.
</event>
<event>
 8    1  0.7476119E-006  0.5008618E+03  0.7546771E-02  0.9397883E-01
        -11   -1    0    0    0    0  0.00000000000E+00  0.00000000000E+00  0.50000000000E+03  0.50000000000E+03  0.00000000000E+00 0.  1.
         11   -1    0    0    0    0 -0.00000000000E+00 -0.00000000000E+00 -0.50000000000E+03  0.50000000000E+03  0.00000000000E+00 0. -1.
         23    2    1    2    0    0  0.18489192200E+02 -0.19228370063E+03  0.45156303814E+03  0.49913822647E+03  0.88965835870E+02 0.  0.
         23    2    1    2    0    0 -0.18489192200E+02  0.19228370063E+03 -0.45156303814E+03  0.50086177353E+03  0.98175694647E+02 0.  0.
        -11    1    3    3    0    0  0.71430822389E+00 -0.13302121054E+03  0.20086864926E+03  0.24092191047E+03  0.00000000000E+00 0.  1.
         11    1    3    3    0    0  0.17774883976E+02 -0.59262490093E+02  0.25069438887E+03  0.25821631599E+03  0.00000000000E+00 0. -1.
        -15    1    4    4    0    0  0.13490626452E+02 -0.64846274317E+01 -0.38478547406E+02  0.41325582082E+02  0.17770000000E+01 0.  1.
         15    1    4    4    0    0 -0.31979818652E+02  0.19876832806E+03 -0.41308449073E+03  0.45953619145E+03  0.17770000000E+01 0. -1.
</event>
<event>
 8    1  0.7476119E-006  0.5001301E+03  0.7546771E-02  0.9399519E-01
        -11   -1    0    0    0    0  0.00000000000E+00  0.00000000000E+00  0.50000000000E+03  0.50000000000E+03  0.00000000000E+00 0.  1.
         11   -1    0    0    0    0 -0.00000000000E+00 -0.00000000000E+00 -0.50000000000E+03  0.50000000000E+03  0.00000000000E+00 0. -1.
         23    2    1    2    0    0  0.18627941979E+02 -0.31476673040E+03 -0.37736510747E+03  0.50013008104E+03  0.91107512506E+02 0.  0.
         23    2    1    2    0    0 -0.18627941979E+02  0.31476673040E+03  0.37736510747E+03  0.49986991896E+03  0.89668370937E+02 0.  0.
        -11    1    3    3    0    0  0.15665930555E+02 -0.64164771101E+02 -0.14067644578E+03  0.15541042960E+03  0.00000000000E+00 0.  1.
         11    1    3    3    0    0  0.29620114236E+01 -0.25060195930E+03 -0.23668866169E+03  0.34471965144E+03  0.00000000000E+00 0. -1.
        -15    1    4    4    0    0  0.23976765790E+02  0.12030269447E+03  0.19201182526E+03  0.22785811893E+03  0.17770000000E+01 0.  1.
         15    1    4    4    0    0 -0.42604707769E+02  0.19446403594E+03  0.18535328222E+03  0.27201180003E+03  0.17770000000E+01 0. -1.
</event>
<event>
 8    1  0.7476119E-006  0.5000211E+03  0.7546771E-02  0.9399763E-01
        -11   -1    0    0    0    0  0.00000000000E+00  0.00000000000E+00  0.50000000000E+03  0.50000000000E+03  0.00000000000E+00 0.  1.
         11   -1    0    0    0    0 -0.00000000000E+00 -0.00000000000E+00 -0.50000000000E+03  0.50000000000E+03  0.00000000000E+00 0. -1.
         23    2    1    2    0    0 -0.45674729005E+03  0.16186164823E+02  0.18071407321E+03  0.50002106058E+03  0.92105406302E+02 0.  0.
         23    2    1    2    0    0  0.45674729005E+03 -0.16186164823E+02 -0.18071407321E+03  0.49997893942E+03  0.91876464393E+02 0.  0.
        -11    1    3    3    0    0 -0.37179275384E+03  0.16081054575E+02  0.18370625235E+03  0.41501378203E+03  0.00000000000E+00 0.  1.
         11    1    3    3    0    0 -0.84954536211E+02  0.10511024814E+00 -0.29921791357E+01  0.85007278553E+02  0.00000000000E+00 0. -1.
        -15    1    4    4    0    0  0.26896651732E+03 -0.50173719264E+02 -0.85194676490E+02  0.28656880531E+03  0.17770000000E+01 0.  1.
         15    1    4    4    0    0  0.18778077273E+03  0.33987554441E+02 -0.95519396720E+02  0.21341013411E+03  0.17770000000E+01 0. -1.
</event>
<event>
 8    1  0.7476119E-006  0.5023224E+03  0.7546771E-02  0.9394628E-01
        -11   -1    0    0    0    0  0.00000000000E+00  0.00000000000E+00  0.50000000000E+03  0.50000000000E+03  0.00000000000E+00 0. -1.
         11   -1    0    0    0    0 -0.00000000000E+00 -0.00000000000E+00 -0.50000000000E+03  0.50000000000E+03  0.00000000000E+00 0. -1.
         23    2    1    2    0    0  0.76375620602E+02  0.23143903858E+02  0.48269058144E+03  0.50232239326E+03  0.11388026012E+03 0.  0.
         23    2    1    2    0    0 -0.76375620602E+02 -0.23143903858E+02 -0.48269058144E+03  0.49767760674E+03  0.91235558501E+02 0.  0.
        -11    1    3    3    0    0 -0.32790269838E+01 -0.38241399220E+02  0.14262639392E+03  0.14770052429E+03  0.00000000000E+00 0. -1.
         11    1    3    3    0    0  0.79654647585E+02  0.61385303077E+02  0.34006418752E+03  0.35462186896E+03  0.00000000000E+00 0. -1.
        -15    1    4    4    0    0  0.46334396495E+01  0.20940177265E+02 -0.39428771727E+02  0.44919322744E+02  0.17770000000E+01 0.  1.
         15    1    4    4    0    0 -0.81009060251E+02 -0.44084081122E+02 -0.44326180971E+03  0.45275828400E+03  0.17770000000E+01 0. -1.
</event>
<event>
 8    1  0.7476119E-006  0.5000045E+03  0.7546771E-02  0.9399800E-01
        -11   -1    0    0    0    0  0.00000000000E+00  0.00000000000E+00  0.50000000000E+03  0.50000000000E+03  0.00000000000E+00 0.  1.
         11   -1    0    0    0    0 -0.00000000000E+00 -0.00000000000E+00 -0.50000000000E+03  0.50000000000E+03  0.00000000000E+00 0. -1.
         23    2    1    2    0    0 -0.29118642065E+03 -0.26005199493E+02  0.39507667832E+03  0.49999554788E+03  0.91892133372E+02 0.  0.
         23    2    1    2    0    0  0.29118642065E+03  0.26005199493E+02 -0.39507667832E+03  0.50000445212E+03  0.91940570074E+02 0.  0.
        -11    1    3    3    0    0  0.25566744925E+01  0.83485330864E+01  0.37965167429E+01  0.95209310750E+01  0.00000000000E+00 0. -1.
         11    1    3    3    0    0 -0.29374309514E+03 -0.34353732579E+02  0.39128016157E+03  0.49047461680E+03  0.00000000000E+00 0.  1.
        -15    1    4    4    0    0  0.15811312377E+03  0.58370941515E+02 -0.23734730087E+03  0.29110792789E+03  0.17770000000E+01 0. -1.
         15    1    4    4    0    0  0.13307329688E+03 -0.32365742022E+02 -0.15772937745E+03  0.20889652424E+03  0.17770000000E+01 0.  1.
</event>
<event>
 7    1  0.7476119E-006  0.4922612E+03  0.7546771E-02  0.9417294E-01
        -11   -1    0    0    0    0  0.00000000000E+00  0.00000000000E+00  0.50000000000E+03  0.50000000000E+03  0.00000000000E+00 0. -1.
         11   -1    0    0    0    0 -0.00000000000E+00 -0.00000000000E+00 -0.50000000000E+03  0.50000000000E+03  0.00000000000E+00 0.  1.
         23    2    1    2    0    0 -0.11176214487E+03 -0.23747728671E+03 -0.39920459751E+03  0.48673198095E+03  0.93045536596E+02 0.  0.
        -11    1    1    2    0    0 -0.10163128766E+02 -0.21649884807E+02  0.25723961161E+01  0.24054602891E+02  0.00000000000E+00 0.  1.
         11    1    1    2    0    0  0.12192527363E+03  0.25912717152E+03  0.39663220139E+03  0.48921341616E+03  0.00000000000E+00 0. -1.
        -15    1    3    3    0    0 -0.44695655795E+00 -0.76198058726E+01 -0.68204771712E+02  0.68653549252E+02  0.17770000000E+01 0. -1.
         15    1    3    3    0    0 -0.11131518831E+03 -0.22985748084E+03 -0.33099982580E+03  0.41807843170E+03  0.17770000000E+01 0.  1.
</event>
<event>
 8    1  0.7476119E-006  0.5005400E+03  0.7546771E-02  0.9398602E-01
        -11   -1    0    0    0    0  0.00000000000E+00  0.00000000000E+00  0.50000000000E+03  0.50000000000E+03  0.00000000000E+00 0.  1.
         11   -1    0    0    0    0 -0.00000000000E+00 -0.00000000000E+00 -0.50000000000E+03  0.50000000000E+03  0.00000000000E+00 0. -1.
         23    2    1    2    0    0 -0.10405552171E+03 -0.61028406532E+02 -0.47783744115E+03  0.49946000299E+03  0.81115081383E+02 0.  0.
         23    2    1    2    0    0  0.10405552171E+03  0.61028406532E+02  0.47783744115E+03  0.50053999701E+03  0.87519428920E+02 0.  0.
        -11    1    3    3    0    0 -0.63546274401E+01 -0.35060236994E+02 -0.21346405135E+03  0.21641742704E+03  0.00000000000E+00 0.  1.
         11    1    3    3    0    0 -0.97700894271E+02 -0.25968169538E+02 -0.26437338980E+03  0.28304257595E+03  0.00000000000E+00 0. -1.
        -15    1    4    4    0    0  0.10843188784E+03  0.76150267261E+02  0.41022510159E+03  0.43109642681E+03  0.17770000000E+01 0.  1.
         15    1    4    4    0    0 -0.43763661258E+01 -0.15121860729E+02  0.67612339559E+02  0.69443570200E+02  0.17770000000E+01 0. -1.
</event>
<event>
 8    1  0.7476119E-006  0.5000254E+03  0.7546771E-02  0.9399753E-01
        -11   -1    0    0    0    0  0.00000000000E+00  0.00000000000E+00  0.50000000000E+03  0.50000000000E+03  0.00000000000E+00 0.  1.
         11   -1    0    0    0    0 -0.00000000000E+00 -0.00000000000E+00 -0.50000000000E+03  0.50000000000E+03  0.00000000000E+00 0. -1.
         23    2    1    2    0    0 -0.22260768023E+03  0.19024422460E+03 -0.39491217291E+03  0.50002538632E+03  0.91228933838E+02 0.  0.
         23    2    1    2    0    0  0.22260768023E+03 -0.19024422460E+03  0.39491217291E+03  0.49997461368E+03  0.90950237614E+02 0.  0.
        -11    1    3    3    0    0 -0.15439203295E+03  0.72733934257E+02 -0.21166774587E+03  0.27190137858E+03  0.00000000000E+00 0. -1.
         11    1    3    3    0    0 -0.68215647273E+02  0.11751029034E+03 -0.18324442703E+03  0.22812400774E+03  0.00000000000E+00 0.  1.
        -15    1    4    4    0    0  0.22510135626E+03 -0.17209274008E+03  0.38768852450E+03  0.48020004325E+03  0.17770000000E+01 0.  1.
         15    1    4    4    0    0 -0.24936760307E+01 -0.18151484515E+02  0.72236484041E+01  0.19774570425E+02  0.17770000000E+01 0. -1.
</event>
<event>
 8    1  0.7476119E-006  0.5001794E+03  0.7546771E-02  0.9399408E-01
        -11   -1    0    0    0    0  0.00000000000E+00  0.00000000000E+00  0.50000000000E+03  0.50000000000E+03  0.00000000000E+00 0.  1.
         11   -1    0    0    0    0 -0.00000000000E+00 -0.00000000000E+00 -0.50000000000E+03  0.50000000000E+03  0.00000000000E+00 0. -1.
         23    2    1    2    0    0 -0.33806076271E+01 -0.42623469100E+02 -0.48956215355E+03  0.49982055242E+03  0.91221125906E+02 0.  0.
         23    2    1    2    0    0  0.33806076271E+01  0.42623469100E+02  0.48956215355E+03  0.50017944758E+03  0.93167531721E+02 0.  0.
        -11    1    3    3    0    0  0.68634313263E+01  0.62243327427E+01 -0.17099758872E+01  0.94219438120E+01  0.00000000000E+00 0.  1.
         11    1    3    3    0    0 -0.10244038953E+02 -0.48847801843E+02 -0.48785217766E+03  0.49039860861E+03  0.00000000000E+00 0. -1.
        -15    1    4    4    0    0  0.37729734378E+01  0.38353155499E+02  0.49293447972E+03  0.49444186603E+03  0.17770000000E+01 0.  1.
         15    1    4    4    0    0 -0.39236581071E+00  0.42703136008E+01 -0.33723261687E+01  0.57375815434E+01  0.17770000000E+01 0. -1.
</event>
<event>
 8    1  0.7476119E-006  0.5003117E+03  0.7546771E-02  0.9399112E-01
        -11   -1    0    0    0    0  0.00000000000E+00  0.00000000000E+00  0.50000000000E+03  0.50000000000E+03  0.00000000000E+00 0. -1.
         11   -1    0    0    0    0 -0.00000000000E+00 -0.00000000000E+00 -0.50000000000E+03  0.50000000000E+03  0.00000000000E+00 0.  1.
         23    2    1    2    0    0 -0.21279837674E+02 -0.13261879419E+02 -0.49092831893E+03  0.50031172238E+03  0.93126238458E+02 0.  0.
         23    2    1    2    0    0  0.21279837674E+02  0.13261879419E+02  0.49092831893E+03  0.49968827762E+03  0.89716506453E+02 0.  0.
        -11    1    3    3    0    0 -0.53329663292E+02 -0.13699212292E+02 -0.19412419045E+03  0.20178186917E+03  0.00000000000E+00 0. -1.
         11    1    3    3    0    0  0.32049825618E+02  0.43733287350E+00 -0.29680412847E+03  0.29852985321E+03  0.00000000000E+00 0.  1.
        -15    1    4    4    0    0  0.35922662808E+02 -0.30316173654E+02  0.26025274706E+03  0.26446957892E+03  0.17770000000E+01 0.  1.
         15    1    4    4    0    0 -0.14642825134E+02  0.43578053072E+02  0.23067557186E+03  0.23521869870E+03  0.17770000000E+01 0. -1.
</event>
<event>
 8    1  0.7476119E-006  0.5000652E+03  0.7546771E-02  0.9399664E-01
        -11   -1    0    0    0    0  0.00000000000E+00  0.00000000000E+00  0.50000000000E+03  0.50000000000E+03  0.00000000000E+00 0.  1.
         11   -1    0    0    0    0 -0.00000000000E+00 -0.00000000000E+00 -0.50000000000E+03  0.50000000000E+03  0.00000000000E+00 0. -1.
         23    2    1    2    0    0  0.15825852553E+03 -0.15046582616E+03  0.44046577287E+03  0.50006516776E+03  0.91484147234E+02 0.  0.
         23    2    1    2    0    0 -0.15825852553E+03  0.15046582616E+03 -0.44046577287E+03  0.49993483224E+03  0.90769012700E+02 0.  0.
        -11    1    3    3    0    0  0.39759524014E+02 -0.45036310629E+02  0.22269309603E+03  0.23065407875E+03  0.00000000000E+00 0.  1.
         11    1    3    3    0    0  0.11849900151E+03 -0.10542951553E+03  0.21777267685E+03  0.26941108902E+03  0.00000000000E+00 0. -1.
        -15    1    4    4    0    0 -0.51049127940E+02  0.10590626196E+03 -0.18330914884E+03  0.21777867564E+03  0.17770000000E+01 0. -1.
         15    1    4    4    0    0 -0.10720939759E+03  0.44559564201E+02 -0.25715662403E+03  0.28215615660E+03  0.17770000000E+01 0.  1.
</event>
<event>
 7    1  0.7476119E-006  0.5045297E+03  0.7546771E-02  0.9389731E-01
        -11   -1    0    0    0    0  0.00000000000E+00  0.00000000000E+00  0.50000000000E+03  0.50000000000E+03  0.00000000000E+00 0.  1.
         11   -1    0    0    0    0 -0.00000000000E+00 -0.00000000000E+00 -0.50000000000E+03  0.50000000000E+03  0.00000000000E+00 0. -1.
         23    2    1    2    0    0 -0.35593855399E+03 -0.15226542786E+03 -0.29446646115E+03  0.49547030173E+03  0.94357344265E+02 0.  0.
        -11    1    1    2    0    0  0.26103773758E+03  0.16908419238E+03  0.20126092085E+03  0.37045394155E+03  0.00000000000E+00 0.  1.
         11    1    1    2    0    0  0.94900816418E+02 -0.16818764526E+02  0.93205540296E+02  0.13407575672E+03  0.00000000000E+00 0. -1.
        -15    1    3    3    0    0 -0.25425980147E+03 -0.64134935770E+02 -0.17271637094E+03  0.31399910693E+03  0.17770000000E+01 0.  1.
         15    1    3    3    0    0 -0.10167875253E+03 -0.88130492086E+02 -0.12175009020E+03  0.18147119480E+03  0.17770000000E+01 0. -1.
</event>
<event>
 8    1  0.7476119E-006  0.5000983E+03  0.7546771E-02  0.9399590E-01
        -11   -1    0    0    0    0  0.00000000000E+00  0.00000000000E+00  0.50000000000E+03  0.50000000000E+03  0.00000000000E+00 0.  1.
         11   -1    0    0    0    0 -0.00000000000E+00 -0.00000000000E+00 -0.50000000000E+03  0.50000000000E+03  0.00000000000E+00 0. -1.
         23    2    1    2    0    0  0.85367307109E+02 -0.33021603275E+03  0.35427913046E+03  0.49990172564E+03  0.89765403193E+02 0.  0.
         23    2    1    2    0    0 -0.85367307109E+02  0.33021603275E+03 -0.35427913046E+03  0.50009827436E+03  0.90853598296E+02 0.  0.
        -11    1    3    3    0    0  0.58267278499E+02 -0.75997423519E+02  0.78272315473E+02  0.12368200958E+03  0.00000000000E+00 0. -1.
         11    1    3    3    0    0  0.27100028610E+02 -0.25421860923E+03  0.27600681499E+03  0.37621971606E+03  0.00000000000E+00 0.  1.
        -15    1    4    4    0    0 -0.11047441489E+02  0.20391124084E+03 -0.17846845445E+03  0.27121207029E+03  0.17770000000E+01 0. -1.
         15    1    4    4    0    0 -0.74319865620E+02  0.12630479191E+03 -0.17581067601E+03  0.22888620407E+03  0.17770000000E+01 0.  1.
</event>
<event>
 8    1  0.7476119E-006  0.5002392E+03  0.7546771E-02  0.9399275E-01
        -11   -1    0    0    0    0  0.00000000000E+00  0.00000000000E+00  0.50000000000E+03  0.50000000000E+03  0.00000000000E+00 0. -1.
         11   -1    0    0    0    0 -0.00000000000E+00 -0.00000000000E+00 -0.50000000000E+03  0.50000000000E+03  0.00000000000E+00 0.  1.
         23    2    1    2    0    0  0.48239262875E+00 -0.90260280117E+02  0.48324020898E+03  0.50023921364E+03  0.92579805633E+02 0.  0.
         23    2    1    2    0    0 -0.48239262875E+00  0.90260280117E+02 -0.48324020898E+03  0.49976078636E+03  0.89958841357E+02 0.  0.
        -11    1    3    3    0    0 -0.37530782034E+01  0.19154272448E+02  0.85741447306E+02  0.87935018822E+02  0.00000000000E+00 0.  1.
         11    1    3    3    0    0  0.42354708321E+01 -0.10941455257E+03  0.39749876168E+03  0.41230419481E+03  0.00000000000E+00 0. -1.
        -15    1    4    4    0    0 -0.13149088257E+02  0.35153416471E+02 -0.38153504887E+03  0.38338076694E+03  0.17770000000E+01 0.  1.
         15    1    4    4    0    0  0.12666695628E+02  0.55106863645E+02 -0.10170516011E+03  0.11638001943E+03  0.17770000000E+01 0. -1.
</event>
<event>
 8    1  0.7476119E-006  0.5000403E+03  0.7546771E-02  0.9399719E-01
        -11   -1    0    0    0    0  0.00000000000E+00  0.00000000000E+00  0.50000000000E+03  0.50000000000E+03  0.00000000000E+00 0.  1.
         11   -1    0    0    0    0 -0.00000000000E+00 -0.00000000000E+00 -0.50000000000E+03  0.50000000000E+03  0.00000000000E+00 0. -1.
         23    2    1    2    0    0 -0.76787305219E+02 -0.71705071853E+00 -0.48541366535E+03  0.49995967341E+03  0.91850117707E+02 0.  0.
         23    2    1    2    0    0  0.76787305219E+02  0.71705071853E+00  0.48541366535E+03  0.50004032659E+03  0.92288121189E+02 0.  0.
        -11    1    3    3    0    0 -0.58616765554E+02 -0.16968612171E+02 -0.12891695319E+03  0.14263043091E+03  0.00000000000E+00 0.  1.
         11    1    3    3    0    0 -0.18170539665E+02  0.16251561453E+02 -0.35649671216E+03  0.35732924249E+03  0.00000000000E+00 0. -1.
        -15    1    4    4    0    0  0.58735128643E+02 -0.22365810576E+02  0.44845315317E+03  0.45283930167E+03  0.17770000000E+01 0.  1.
         15    1    4    4    0    0  0.18052176576E+02  0.23082861295E+02  0.36960512173E+02  0.47201024923E+02  0.17770000000E+01 0. -1.
</event>
<event>
 8    1  0.7476119E-006  0.5001681E+03  0.7546771E-02  0.9399434E-01
        -11   -1    0    0    0    0  0.00000000000E+00  0.00000000000E+00  0.50000000000E+03  0.50000000000E+03  0.00000000000E+00 0.  1.
         11   -1    0    0    0    0 -0.00000000000E+00 -0.00000000000E+00 -0.50000000000E+03  0.50000000000E+03  0.00000000000E+00 0. -1.
         23    2    1    2    0    0 -0.37297693979E+01 -0.10506684541E+02 -0.49159919477E+03  0.50016806386E+03  0.91509683641E+02 0.  0.
         23    2    1    2    0    0  0.37297693979E+01  0.10506684541E+02  0.49159919477E+03  0.49983193614E+03  0.89654305458E+02 0.  0.
        -11    1    3    3    0    0  0.60193528310E+01  0.50636340437E+01  0.35216829041E+00  0.78738186884E+01  0.00000000000E+00 0.  1.
         11    1    3    3    0    0 -0.97491222290E+01 -0.15570318585E+02 -0.49195136306E+03  0.49229424517E+03  0.00000000000E+00 0. -1.
        -15    1    4    4    0    0 -0.32155980747E+02 -0.19484679000E+02  0.31089416989E+03  0.31316449737E+03  0.17770000000E+01 0.  1.
         15    1    4    4    0    0  0.35885750144E+02  0.29991363541E+02  0.18070502488E+03  0.18666743877E+03  0.17770000000E+01 0. -1.
</event>
<event>
 8    1  0.7476119E-006  0.5001888E+03  0.7546771E-02  0.9399387E-01
        -11   -1    0    0    0    0  0.00000000000E+00  0.00000000000E+00  0.50000000000E+03  0.50000000000E+03  0.00000000000E+00 0. -1.
         11   -1    0    0    0    0 -0.00000000000E+00 -0.00000000000E+00 -0.50000000000E+03  0.50000000000E+03  0.00000000000E+00 0.  1.
         23    2    1    2    0    0 -0.28401877242E+03 -0.27804815907E+02 -0.40017661410E+03  0.50018876071E+03  0.92777707394E+02 0.  0.
         23    2    1    2    0    0  0.28401877242E+03  0.27804815907E+02  0.40017661410E+03  0.49981123929E+03  0.90720348160E+02 0.  0.
        -11    1    3    3    0    0 -0.64785060714E+02 -0.42210930929E+02 -0.74808609338E+02  0.10758807932E+03  0.00000000000E+00 0. -1.
         11    1    3    3    0    0 -0.21923371171E+03  0.14406115022E+02 -0.32536800476E+03  0.39260068139E+03  0.00000000000E+00 0.  1.
        -15    1    4    4    0    0  0.91992873423E+02 -0.28275896901E+01  0.20288833946E+03  0.22279479357E+03  0.17770000000E+01 0. -1.
         15    1    4    4    0    0  0.19202589900E+03  0.30632405597E+02  0.19728827464E+03  0.27701644572E+03  0.17770000000E+01 0.  1.
</event>
<event>
 8    1  0.7476119E-006  0.5000773E+03  0.7546771E-02  0.9399637E-01
        -11   -1    0    0    0    0  0.00000000000E+00  0.00000000000E+00  0.50000000000E+03  0.50000000000E+03  0.00000000000E+00 0.  1.
         11   -1    0    0    0    0 -0.00000000000E+00 -0.00000000000E+00 -0.50000000000E+03  0.50000000000E+03  0.00000000000E+00 0. -1.
         23    2    1    2    0    0  0.68908925182E+01  0.15136090240E+01 -0.49165280038E+03  0.50007734437E+03  0.91132314909E+02 0.  0.
         23    2    1    2    0    0 -0.68908925182E+01 -0.15136090240E+01  0.49165280038E+03  0.49992265563E+03  0.90279621571E+02 0.  0.
        -11    1    3    3    0    0  0.15687072391E+02  0.41143697199E+02 -0.15996731046E+03  0.16591693246E+03  0.00000000000E+00 0.  1.
         11    1    3    3    0    0 -0.87961798730E+01 -0.39630088175E+02 -0.33168548992E+03  0.33416041192E+03  0.00000000000E+00 0. -1.
        -15    1    4    4    0    0 -0.42111836562E+02 -0.19011722876E+02  0.34471867423E+03  0.34780594371E+03  0.17770000000E+01 0.  1.
         15    1    4    4    0    0  0.35220944044E+02  0.17498113852E+02  0.14693412615E+03  0.15211671192E+03  0.17770000000E+01 0. -1.
</event>
<event>
 8    1  0.7476119E-006  0.5003711E+03  0.7546771E-02  0.9398980E-01
        -11   -1    0    0    0    0  0.00000000000E+00  0.00000000000E+00  0.50000000000E+03  0.50000000000E+03  0.00000000000E+00 0.  1.
         11   -1    0    0    0    0 -0.00000000000E+00 -0.00000000000E+00 -0.50000000000E+03  0.50000000000E+03  0.00000000000E+00 0. -1.
         23    2    1    2    0    0  0.18742522759E+03  0.38242572112E+03  0.24800493011E+03  0.50037108556E+03  0.86528202305E+02 0.  0.
         23    2    1    2    0    0 -0.18742522759E+03 -0.38242572112E+03 -0.24800493011E+03  0.49962891444E+03  0.82127697380E+02 0.  0.
        -11    1    3    3    0    0  0.11712585800E+03  0.21033073736E+03  0.92133171371E+02  0.25777122988E+03  0.00000000000E+00 0. -1.
         11    1    3    3    0    0  0.70299369586E+02  0.17209498376E+03  0.15587175874E+03  0.24259985567E+03  0.00000000000E+00 0.  1.
        -15    1    4    4    0    0 -0.10722352647E+03 -0.27799453278E+03 -0.20267707540E+03  0.36035954199E+03  0.17770000000E+01 0. -1.
         15    1    4    4    0    0 -0.80201701123E+02 -0.10443118834E+03 -0.45327854712E+02  0.13926937245E+03  0.17770000000E+01 0.  1.
</event>
<event>
 8    1  0.7476119E-006  0.5003573E+03  0.7546771E-02  0.9399011E-01
        -11   -1    0    0    0    0  0.00000000000E+00  0.00000000000E+00  0.50000000000E+03  0.50000000000E+03  0.00000000000E+00 0.  1.
         11   -1    0    0    0    0 -0.00000000000E+00 -0.00000000000E+00 -0.50000000000E+03  0.50000000000E+03  0.00000000000E+00 0. -1.
         23    2    1    2    0    0  0.11049466849E+03  0.83117091578E+02 -0.47146523090E+03  0.50035729599E+03  0.94659584948E+02 0.  0.
         23    2    1    2    0    0 -0.11049466849E+03 -0.83117091578E+02  0.47146523090E+03  0.49964270401E+03  0.90806635482E+02 0.  0.
        -11    1    3    3    0    0  0.52765588795E+02  0.46802232812E+02 -0.98153291120E+02  0.12086655830E+03  0.00000000000E+00 0.  1.
         11    1    3    3    0    0  0.57729079698E+02  0.36314858766E+02 -0.37331193978E+03  0.37949073769E+03  0.00000000000E+00 0. -1.
        -15    1    4    4    0    0 -0.24374936646E+01 -0.39784992142E+02  0.20503726304E+03  0.20888327827E+03  0.17770000000E+01 0.  1.
         15    1    4    4    0    0 -0.10805717483E+03 -0.43332099436E+02  0.26642796786E+03  0.29075942574E+03  0.17770000000E+01 0. -1.
</event>
<event>
 8    1  0.7476119E-006  0.5005207E+03  0.7546771E-02  0.9398645E-01
        -11   -1    0    0    0    0  0.00000000000E+00  0.00000000000E+00  0.50000000000E+03  0.50000000000E+03  0.00000000000E+00 0. -1.
         11   -1    0    0    0    0 -0.00000000000E+00 -0.00000000000E+00 -0.50000000000E+03  0.50000000000E+03  0.00000000000E+00 0.  1.
         23    2    1    2    0    0 -0.65602036304E+02 -0.12979054586E+03 -0.46888440196E+03  0.50052065814E+03  0.97566048719E+02 0.  0.
         23    2    1    2    0    0  0.65602036304E+02  0.12979054586E+03  0.46888440196E+03  0.49947934186E+03  0.92075064970E+02 0.  0.
        -11    1    3    3    0    0 -0.22640050752E+02  0.10750438878E+02 -0.40484143836E+02  0.47614175791E+02  0.00000000000E+00 0. -1.
         11    1    3    3    0    0 -0.42961985552E+02 -0.14054098474E+03 -0.42840025812E+03  0.45290648235E+03  0.00000000000E+00 0.  1.
        -15    1    4    4    0    0 -0.10563848531E+02 -0.45837155901E+01  0.10208072731E+02  0.15490894818E+02  0.17770000000E+01 0.  1.
         15    1    4    4    0    0  0.76165884835E+02  0.13437426145E+03  0.45867632923E+03  0.48398844705E+03  0.17770000000E+01 0. -1.
</event>
<event>
 8    1  0.7476119E-006  0.5003410E+03  0.7546771E-02  0.9399047E-01
        -11   -1    0    0    0    0  0.00000000000E+00  0.00000000000E+00  0.50000000000E+03  0.50000000000E+03  0.00000000000E+00 0.  1.
         11   -1    0    0    0    0 -0.00000000000E+00 -0.00000000000E+00 -0.50000000000E+03  0.50000000000E+03  0.00000000000E+00 0. -1.
         23    2    1    2    0    0 -0.95758611064E+01 -0.30700001268E+01 -0.49149744384E+03  0.50034103463E+03  0.93114400733E+02 0.  0.
         23    2    1    2    0    0  0.95758611064E+01  0.30700001268E+01  0.49149744384E+03  0.49965896537E+03  0.89376855821E+02 0.  0.
        -11    1    3    3    0    0  0.39252744941E+02 -0.69955581874E+01 -0.30173109138E+03  0.30435401644E+03  0.00000000000E+00 0. -1.
         11    1    3    3    0    0 -0.48828606047E+02  0.39255580606E+01 -0.18976635246E+03  0.19598701819E+03  0.00000000000E+00 0.  1.
        -15    1    4    4    0    0 -0.29695596902E+02 -0.37913284540E+01  0.68421600846E+02  0.74705259776E+02  0.17770000000E+01 0. -1.
         15    1    4    4    0    0  0.39271458009E+02  0.68613285807E+01  0.42307584299E+03  0.42495370559E+03  0.17770000000E+01 0.  1.
</event>
<event>
 8    1  0.7476119E-006  0.5003913E+03  0.7546771E-02  0.9398935E-01
        -11   -1    0    0    0    0  0.00000000000E+00  0.00000000000E+00  0.50000000000E+03  0.50000000000E+03  0.00000000000E+00 0.  1.
         11   -1    0    0    0    0 -0.00000000000E+00 -0.00000000000E+00 -0.50000000000E+03  0.50000000000E+03  0.00000000000E+00 0. -1.
         23    2    1    2    0    0  0.85830348994E+02 -0.34093000786E+03  0.34294089526E+03  0.49960872090E+03  0.91653135755E+02 0.  0.
         23    2    1    2    0    0 -0.85830348994E+02  0.34093000786E+03 -0.34294089526E+03  0.50039127910E+03  0.95827216823E+02 0.  0.
        -11    1    3    3    0    0  0.55687227527E+02 -0.12033762748E+03  0.79167930800E+02  0.15443371770E+03  0.00000000000E+00 0. -1.
         11    1    3    3    0    0  0.30143121467E+02 -0.22059238038E+03  0.26377296446E+03  0.34517500320E+03  0.00000000000E+00 0.  1.
        -15    1    4    4    0    0 -0.28375563149E+01  0.48785062744E+02 -0.10326700153E+02  0.49978320678E+02  0.17770000000E+01 0.  1.
         15    1    4    4    0    0 -0.82992792679E+02  0.29214494512E+03 -0.33261419510E+03  0.45041295842E+03  0.17770000000E+01 0. -1.
</event>
<event>
 8    1  0.7476119E-006  0.5002663E+03  0.7546771E-02  0.9399214E-01
        -11   -1    0    0    0    0  0.00000000000E+00  0.00000000000E+00  0.50000000000E+03  0.50000000000E+03  0.00000000000E+00 0.  1.
         11   -1    0    0    0    0 -0.00000000000E+00 -0.00000000000E+00 -0.50000000000E+03  0.50000000000E+03  0.00000000000E+00 0. -1.
         23    2    1    2    0    0 -0.68732924088E+01 -0.39940447422E+01 -0.49206607872E+03  0.50026628710E+03  0.89856205377E+02 0.  0.
         23    2    1    2    0    0  0.68732924088E+01  0.39940447422E+01  0.49206607872E+03  0.49973371290E+03  0.86842175471E+02 0.  0.
        -11    1    3    3    0    0 -0.20605641543E+02 -0.62114271843E+00 -0.48306359788E+03  0.48350327598E+03  0.00000000000E+00 0. -1.
         11    1    3    3    0    0  0.13732349134E+02 -0.33729020237E+01 -0.90024808355E+01  0.16763011125E+02  0.00000000000E+00 0.  1.
        -15    1    4    4    0    0  0.15725478685E+02 -0.26662151734E+02  0.41695946038E+03  0.41811064366E+03  0.17770000000E+01 0.  1.
         15    1    4    4    0    0 -0.88521862762E+01  0.30656196476E+02  0.75106618337E+02  0.81623069235E+02  0.17770000000E+01 0. -1.
</event>
<event>
 8    1  0.7476119E-006  0.5001676E+03  0.7546771E-02  0.9399435E-01
        -11   -1    0    0    0    0  0.00000000000E+00  0.00000000000E+00  0.50000000000E+03  0.50000000000E+03  0.00000000000E+00 0. -1.
         11   -1    0    0    0    0 -0.00000000000E+00 -0.00000000000E+00 -0.50000000000E+03  0.50000000000E+03  0.00000000000E+00 0.  1.
         23    2    1    2    0    0 -0.21002674093E+02 -0.36220104082E+02 -0.48974481600E+03  0.50016764777E+03  0.92545571581E+02 0.  0.
         23    2    1    2    0    0  0.21002674093E+02  0.36220104082E+02  0.48974481600E+03  0.49983235223E+03  0.90715970349E+02 0.  0.
        -11    1    3    3    0    0 -0.25026749298E+02 -0.29784565516E+02 -0.49094439432E+03  0.49248335691E+03  0.00000000000E+00 0.  1.
         11    1    3    3    0    0  0.40240752051E+01 -0.64355385667E+01  0.11995783159E+01  0.76842908609E+01  0.00000000000E+00 0. -1.
        -15    1    4    4    0    0 -0.16987405597E+02 -0.18404379070E+01  0.34472573171E+03  0.34515351221E+03  0.17770000000E+01 0.  1.
         15    1    4    4    0    0  0.37990079690E+02  0.38060541989E+02  0.14501908430E+03  0.15467884002E+03  0.17770000000E+01 0. -1.
</event>
<event>
 8    1  0.7476119E-006  0.5000393E+03  0.7546771E-02  0.9399722E-01
        -11   -1    0    0    0    0  0.00000000000E+00  0.00000000000E+00  0.50000000000E+03  0.50000000000E+03  0.00000000000E+00 0.  1.
         11   -1    0    0    0    0 -0.00000000000E+00 -0.00000000000E+00 -0.50000000000E+03  0.50000000000E+03  0.00000000000E+00 0. -1.
         23    2    1    2    0    0 -0.70733581901E+02 -0.35893391884E+02 -0.48513156033E+03  0.50003932821E+03  0.91624907867E+02 0.  0.
         23    2    1    2    0    0  0.70733581901E+02  0.35893391884E+02  0.48513156033E+03  0.49996067179E+03  0.91194667162E+02 0.  0.
        -11    1    3    3    0    0 -0.82506517959E+02 -0.56577898717E+01 -0.26719799703E+03  0.27970360332E+03  0.00000000000E+00 0. -1.
         11    1    3    3    0    0  0.11772936058E+02 -0.30235602012E+02 -0.21793356330E+03  0.22033572489E+03  0.00000000000E+00 0.  1.
        -15    1    4    4    0    0  0.47590656318E+02  0.32746208925E+02  0.46640321677E+03  0.46997053430E+03  0.17770000000E+01 0.  1.
         15    1    4    4    0    0  0.23142925583E+02  0.31471829593E+01  0.18728343558E+02  0.29990137488E+02  0.17770000000E+01 0. -1.
</event>
<event>
 8    1  0.7476119E-006  0.5009700E+03  0.7546771E-02  0.9397642E-01
        -11   -1    0    0    0    0  0.00000000000E+00  0.00000000000E+00  0.50000000000E+03  0.50000000000E+03  0.00000000000E+00 0. -1.
         11   -1    0    0    0    0 -0.00000000000E+00 -0.00000000000E+00 -0.50000000000E+03  0.50000000000E+03  0.00000000000E+00 0. -1.
         23    2    1    2    0    0 -0.69812221068E+02  0.22937488694E+03  0.42794717454E+03  0.50096999252E+03  0.10171314682E+03 0.  0.
         23    2    1    2    0    0  0.69812221068E+02 -0.22937488694E+03 -0.42794717454E+03  0.49903000748E+03  0.91681945906E+02 0.  0.
        -11    1    3    3    0    0 -0.58950915593E+02  0.43159575405E+02  0.13928722102E+03  0.15728601126E+03  0.00000000000E+00 0. -1.
         11    1    3    3    0    0 -0.10861305475E+02  0.18621531153E+03  0.28865995352E+03  0.34368398125E+03  0.00000000000E+00 0. -1.
        -15    1    4    4    0    0  0.88751783280E+02 -0.21564850787E+03 -0.38651110244E+03  0.45141460768E+03  0.17770000000E+01 0. -1.
         15    1    4    4    0    0 -0.18939562212E+02 -0.13726379063E+02 -0.41436072099E+02  0.47615399808E+02  0.17770000000E+01 0.  1.
</event>
<event>
 8    1  0.7476119E-006  0.5001650E+03  0.7546771E-02  0.9399441E-01
        -11   -1    0    0    0    0  0.00000000000E+00  0.00000000000E+00  0.50000000000E+03  0.50000000000E+03  0.00000000000E+00 0.  1.
         11   -1    0    0    0    0 -0.00000000000E+00 -0.00000000000E+00 -0.50000000000E+03  0.50000000000E+03  0.00000000000E+00 0. -1.
         23    2    1    2    0    0  0.65773594776E+02 -0.20236652521E+03 -0.44361109033E+03  0.49983498075E+03  0.88123959372E+02 0.  0.
         23    2    1    2    0    0 -0.65773594776E+02  0.20236652521E+03  0.44361109033E+03  0.50016501925E+03  0.89977056636E+02 0.  0.
        -11    1    3    3    0    0  0.72520140763E+02 -0.16528219183E+03 -0.41487855927E+03  0.45243960116E+03  0.00000000000E+00 0. -1.
         11    1    3    3    0    0 -0.67465459876E+01 -0.37084333385E+02 -0.28732531064E+02  0.47395379592E+02  0.00000000000E+00 0.  1.
        -15    1    4    4    0    0 -0.78717587511E+02  0.12035969559E+03  0.32469839502E+03  0.35512690741E+03  0.17770000000E+01 0.  1.
         15    1    4    4    0    0  0.12943992735E+02  0.82006829617E+02  0.11891269531E+03  0.14503811184E+03  0.17770000000E+01 0. -1.
</event>
<event>
 8    1  0.7476119E-006  0.5000948E+03  0.7546771E-02  0.9399598E-01
        -11   -1    0    0    0    0  0.00000000000E+00  0.00000000000E+00  0.50000000000E+03  0.50000000000E+03  0.00000000000E+00 0.  1.
         11   -1    0    0    0    0 -0.00000000000E+00 -0.00000000000E+00 -0.50000000000E+03  0.50000000000E+03  0.00000000000E+00 0. -1.
         23    2    1    2    0    0 -0.16068780680E+02  0.14356471806E+02 -0.49113265722E+03  0.50009482248E+03  0.91756364828E+02 0.  0.
         23    2    1    2    0    0  0.16068780680E+02 -0.14356471806E+02  0.49113265722E+03  0.49990517752E+03  0.90717063032E+02 0.  0.
        -11    1    3    3    0    0  0.32485042420E+02  0.10507480689E+01 -0.87624630615E+02  0.93458321957E+02  0.00000000000E+00 0.  1.
         11    1    3    3    0    0 -0.48553823100E+02  0.13305723737E+02 -0.40350802661E+03  0.40663650052E+03  0.00000000000E+00 0. -1.
        -15    1    4    4    0    0  0.31086428449E+02 -0.43898552105E+02  0.20864479295E+03  0.21547449098E+03  0.17770000000E+01 0. -1.
         15    1    4    4    0    0 -0.15017647769E+02  0.29542080299E+02  0.28248786427E+03  0.28443068653E+03  0.17770000000E+01 0.  1.
</event>
<event>
 8    1  0.7476119E-006  0.5002747E+03  0.7546771E-02  0.9399195E-01
        -11   -1    0    0    0    0  0.00000000000E+00  0.00000000000E+00  0.50000000000E+03  0.50000000000E+03  0.00000000000E+00 0. -1.
         11   -1    0    0    0    0 -0.00000000000E+00 -0.00000000000E+00 -0.50000000000E+03  0.50000000000E+03  0.00000000000E+00 0.  1.
         23    2    1    2    0    0 -0.14498716482E+03 -0.27679285359E+03 -0.37931264279E+03  0.50027473011E+03  0.93601083533E+02 0.  0.
         23    2    1    2    0    0  0.14498716482E+03  0.27679285359E+03  0.37931264279E+03  0.49972526989E+03  0.90618445298E+02 0.  0.
        -11    1    3    3    0    0  0.12644214783E+02 -0.96289090475E+01 -0.16026426146E+02  0.22570741944E+02  0.00000000000E+00 0. -1.
         11    1    3    3    0    0 -0.15763137960E+03 -0.26716394454E+03 -0.36328621665E+03  0.47770398816E+03  0.00000000000E+00 0.  1.
        -15    1    4    4    0    0  0.13103003246E+03  0.27061694510E+03  0.37972794608E+03  0.48435407621E+03  0.17770000000E+01 0. -1.
         15    1    4    4    0    0  0.13957132360E+02  0.61759084868E+01 -0.41530328560E+00  0.15371193681E+02  0.17770000000E+01 0.  1.
</event>
<event>
 7    1  0.7476119E-006  0.5205580E+03  0.7546771E-02  0.9354949E-01
        -11   -1    0    0    0    0  0.00000000000E+00  0.00000000000E+00  0.50000000000E+03  0.50000000000E+03  0.00000000000E+00 0.  1.
         11   -1    0    0    0    0 -0.00000000000E+00 -0.00000000000E+00 -0.50000000000E+03  0.50000000000E+03  0.00000000000E+00 0. -1.
         23    2    1    2    0    0  0.32540053584E+03  0.13053081518E+03  0.31404082111E+03  0.47944203864E+03  0.91209805683E+02 0.  0.
        -11    1    1    2    0    0 -0.14194351151E+03 -0.88578758149E+02 -0.16004807064E+02  0.16807828743E+03  0.00000000000E+00 0.  1.
         11    1    1    2    0    0 -0.18345702433E+03 -0.41952057032E+02 -0.29803601405E+03  0.35247967393E+03  0.00000000000E+00 0. -1.
        -15    1    3    3    0    0  0.11337047048E+03  0.87301707851E+01  0.13417973264E+03  0.17588757159E+03  0.17770000000E+01 0.  1.
         15    1    3    3    0    0  0.21203006536E+03  0.12180064440E+03  0.17986108848E+03  0.30355446705E+03  0.17770000000E+01 0. -1.
</event>
<event>
 8    1  0.7476119E-006  0.5000459E+03  0.7546771E-02  0.9399707E-01
        -11   -1    0    0    0    0  0.00000000000E+00  0.00000000000E+00  0.50000000000E+03  0.50000000000E+03  0.00000000000E+00 0.  1.
         11   -1    0    0    0    0 -0.00000000000E+00 -0.00000000000E+00 -0.50000000000E+03  0.50000000000E+03  0.00000000000E+00 0.  1.
         23    2    1    2    0    0  0.21412738702E+01 -0.30745777125E+01 -0.49166266180E+03  0.49995410535E+03  0.90597441303E+02 0.  0.
         23    2    1    2    0    0 -0.21412738702E+01  0.30745777125E+01  0.49166266180E+03  0.50004589465E+03  0.91102610647E+02 0.  0.
        -11    1    3    3    0    0 -0.12019982252E+02 -0.10626743970E+02 -0.12030347832E+02  0.20053352081E+02  0.00000000000E+00 0.  1.
         11    1    3    3    0    0  0.14161256122E+02  0.75521662571E+01 -0.47963231397E+03  0.47990075327E+03  0.00000000000E+00 0.  1.
        -15    1    4    4    0    0 -0.26337262176E+02 -0.27996115549E+02  0.11373073783E+03  0.12006361781E+03  0.17770000000E+01 0. -1.
         15    1    4    4    0    0  0.24195988306E+02  0.31070693262E+02  0.37793192397E+03  0.37998227684E+03  0.17770000000E+01 0.  1.
</event>
<event>
 8    1  0.7476119E-006  0.5001422E+03  0.7546771E-02  0.9399492E-01
        -11   -1    0    0    0    0  0.00000000000E+00  0.00000000000E+00  0.50000000000E+03  0.50000000000E+03  0.00000000000E+00 0.  1.
         11   -1    0    0    0    0 -0.00000000000E+00 -0.00000000000E+00 -0.50000000000E+03  0.50000000000E+03  0.00000000000E+00 0. -1.
         23    2    1    2    0    0  0.21325647730E+03  0.10369591894E+02 -0.44285868976E+03  0.49985779361E+03  0.90267054865E+02 0.  0.
         23    2    1    2    0    0 -0.21325647730E+03 -0.10369591894E+02  0.44285868976E+03  0.50014220639E+03  0.91828938636E+02 0.  0.
        -11    1    3    3    0    0  0.59997332847E+02 -0.17562653748E+02 -0.21449001307E+03  0.22341462007E+03  0.00000000000E+00 0. -1.
         11    1    3    3    0    0  0.15325914445E+03  0.27932245641E+02 -0.22836867669E+03  0.27644317354E+03  0.00000000000E+00 0.  1.
        -15    1    4    4    0    0 -0.16569446007E+03 -0.34518063396E+02  0.26495123948E+03  0.31440176181E+03  0.17770000000E+01 0.  1.
         15    1    4    4    0    0 -0.47562017228E+02  0.24148471502E+02  0.17790745027E+03  0.18574044457E+03  0.17770000000E+01 0. -1.
</event>
<event>
 8    1  0.7476119E-006  0.5000378E+03  0.7546771E-02  0.9399725E-01
        -11   -1    0    0    0    0  0.00000000000E+00  0.00000000000E+00  0.50000000000E+03  0.50000000000E+03  0.00000000000E+00 0.  1.
         11   -1    0    0    0    0 -0.00000000000E+00 -0.00000000000E+00 -0.50000000000E+03  0.50000000000E+03  0.00000000000E+00 0. -1.
         23    2    1    2    0    0  0.11354997751E+03  0.21602757322E+03  0.42693481326E+03  0.50003784110E+03  0.90570403399E+02 0.  0.
         23    2    1    2    0    0 -0.11354997751E+03 -0.21602757322E+03 -0.42693481326E+03  0.49996215890E+03  0.90151626570E+02 0.  0.
        -11    1    3    3    0    0  0.80763390923E+02  0.65971023721E+02  0.20691797677E+03  0.23171091989E+03  0.00000000000E+00 0.  1.
         11    1    3    3    0    0  0.32786586591E+02  0.15005654950E+03  0.22001683649E+03  0.26832692121E+03  0.00000000000E+00 0. -1.
        -15    1    4    4    0    0 -0.98206285172E+01 -0.11248413589E+03 -0.20370726079E+03  0.23291400000E+03  0.17770000000E+01 0. -1.
         15    1    4    4    0    0 -0.10372934900E+03 -0.10354343733E+03 -0.22322755248E+03  0.26704815890E+03  0.17770000000E+01 0.  1.
</event>
<event>
 8    1  0.7476119E-006  0.5006313E+03  0.7546771E-02  0.9398398E-01
        -11   -1    0    0    0    0  0.00000000000E+00  0.00000000000E+00  0.50000000000E+03  0.50000000000E+03  0.00000000000E+00 0.  1.
         11   -1    0    0    0    0 -0.00000000000E+00 -0.00000000000E+00 -0.50000000000E+03  0.50000000000E+03  0.00000000000E+00 0. -1.
         23    2    1    2    0    0  0.68805304946E+02  0.57006278474E+02 -0.48087294526E+03  0.50063132460E+03  0.10681314483E+03 0.  0.
         23    2    1    2    0    0 -0.68805304946E+02 -0.57006278474E+02  0.48087294526E+03  0.49936867540E+03  0.10072933393E+03 0.  0.
        -11    1    3    3    0    0  0.38873254388E+02 -0.67832581335E+01 -0.48361809961E+02  0.62418003496E+02  0.00000000000E+00 0.  1.
         11    1    3    3    0    0  0.29932050558E+02  0.63789536608E+02 -0.43251113530E+03  0.43821332110E+03  0.00000000000E+00 0. -1.
        -15    1    4    4    0    0 -0.80037678288E+02 -0.21033187900E+02  0.20743496538E+03  0.22334020581E+03  0.17770000000E+01 0.  1.
         15    1    4    4    0    0  0.11232373341E+02 -0.35973090574E+02  0.27343797988E+03  0.27602846959E+03  0.17770000000E+01 0. -1.
</event>
<event>
 7    1  0.7476119E-006  0.5070707E+03  0.7546771E-02  0.9384126E-01
        -11   -1    0    0    0    0  0.00000000000E+00  0.00000000000E+00  0.50000000000E+03  0.50000000000E+03  0.00000000000E+00 0.  1.
         11   -1    0    0    0    0 -0.00000000000E+00 -0.00000000000E+00 -0.50000000000E+03  0.50000000000E+03  0.00000000000E+00 0. -1.
         23    2    1    2    0    0 -0.24171624201E+02  0.65492395801E+02 -0.47955973880E+03  0.49292934390E+03  0.90156939157E+02 0.  0.
        -11    1    3    3    0    0  0.13462186259E+02 -0.15268062006E+02 -0.45897882815E+02  0.50209160750E+02  0.00000000000E+00 0.  1.
         11    1    3    3    0    0 -0.37633810460E+02  0.80760457807E+02 -0.43366185598E+03  0.44272018315E+03  0.00000000000E+00 0. -1.
        -15    1    1    2    0    0  0.82823259571E+02 -0.21722926046E+02  0.32430532523E+03  0.33542313507E+03  0.17770000000E+01 0.  1.
         15    1    1    2    0    0 -0.58651635370E+02 -0.43769469755E+02  0.15525441357E+03  0.17164752103E+03  0.17770000000E+01 0. -1.
</event>
<event>
 8    1  0.7476119E-006  0.5000081E+03  0.7546771E-02  0.9399792E-01
        -11   -1    0    0    0    0  0.00000000000E+00  0.00000000000E+00  0.50000000000E+03  0.50000000000E+03  0.00000000000E+00 0. -1.
         11   -1    0    0    0    0 -0.00000000000E+00 -0.00000000000E+00 -0.50000000000E+03  0.50000000000E+03  0.00000000000E+00 0.  1.
         23    2    1    2    0    0 -0.12810513312E+03 -0.24515603495E+03 -0.40597850919E+03  0.50000811135E+03  0.93151247386E+02 0.  0.
         23    2    1    2    0    0  0.12810513312E+03  0.24515603495E+03  0.40597850919E+03  0.49999188865E+03  0.93064129469E+02 0.  0.
        -11    1    3    3    0    0 -0.11035014768E+03 -0.23385356027E+03 -0.40289401362E+03  0.47873607442E+03  0.00000000000E+00 0.  1.
         11    1    3    3    0    0 -0.17754985444E+02 -0.11302474681E+02 -0.30844955638E+01  0.21272036925E+02  0.00000000000E+00 0. -1.
        -15    1    4    4    0    0  0.10680122826E+03  0.24583943059E+03  0.35597721354E+03  0.44560796927E+03  0.17770000000E+01 0. -1.
         15    1    4    4    0    0  0.21303904862E+02 -0.68339564079E+00  0.50001295642E+02  0.54383919377E+02  0.17770000000E+01 0.  1.
</event>
<event>
 8    1  0.7476119E-006  0.5000280E+03  0.7546771E-02  0.9399747E-01
        -11   -1    0    0    0    0  0.00000000000E+00  0.00000000000E+00  0.50000000000E+03  0.50000000000E+03  0.00000000000E+00 0. -1.
         11   -1    0    0    0    0 -0.00000000000E+00 -0.00000000000E+00 -0.50000000000E+03  0.50000000000E+03  0.00000000000E+00 0. -1.
         23    2    1    2    0    0 -0.27475965134E+02  0.15656976591E+02 -0.49037676897E+03  0.49997199958E+03  0.92209301271E+02 0.  0.
         23    2    1    2    0    0  0.27475965134E+02 -0.15656976591E+02  0.49037676897E+03  0.50002800042E+03  0.92512464442E+02 0.  0.
        -11    1    3    3    0    0 -0.86316842974E+01  0.39950859307E+02 -0.95227959034E+02  0.10362886333E+03  0.00000000000E+00 0. -1.
         11    1    3    3    0    0 -0.18844280837E+02 -0.24293882716E+02 -0.39514880994E+03  0.39634313625E+03  0.00000000000E+00 0. -1.
        -15    1    4    4    0    0  0.52416315777E+02 -0.34138685383E+02  0.38864302215E+03  0.39364892531E+03  0.17770000000E+01 0. -1.
         15    1    4    4    0    0 -0.24940350643E+02  0.18481708792E+02  0.10173374682E+03  0.10637907511E+03  0.17770000000E+01 0.  1.
</event>
<event>
 8    1  0.7476119E-006  0.5000726E+03  0.7546771E-02  0.9399647E-01
        -11   -1    0    0    0    0  0.00000000000E+00  0.00000000000E+00  0.50000000000E+03  0.50000000000E+03  0.00000000000E+00 0.  1.
         11   -1    0    0    0    0 -0.00000000000E+00 -0.00000000000E+00 -0.50000000000E+03  0.50000000000E+03  0.00000000000E+00 0. -1.
         23    2    1    2    0    0  0.92761422344E+02  0.36242996269E+01 -0.48258462514E+03  0.49992737550E+03  0.91769512032E+02 0.  0.
         23    2    1    2    0    0 -0.92761422344E+02 -0.36242996269E+01  0.48258462514E+03  0.50007262450E+03  0.92557508225E+02 0.  0.
        -11    1    3    3    0    0  0.30159446997E+02  0.13792008596E+02 -0.36347540901E+03  0.36498518422E+03  0.00000000000E+00 0. -1.
         11    1    3    3    0    0  0.62601975347E+02 -0.10167708969E+02 -0.11910921613E+03  0.13494219129E+03  0.00000000000E+00 0.  1.
        -15    1    4    4    0    0 -0.62692074771E+02 -0.94122067968E+01  0.45313273536E+03  0.45754925359E+03  0.17770000000E+01 0.  1.
         15    1    4    4    0    0 -0.30069347573E+02  0.57879071699E+01  0.29451889776E+02  0.42523370907E+02  0.17770000000E+01 0. -1.
</event>
<event>
 8    1  0.7476119E-006  0.5013745E+03  0.7546771E-02  0.9396739E-01
        -11   -1    0    0    0    0  0.00000000000E+00  0.00000000000E+00  0.50000000000E+03  0.50000000000E+03  0.00000000000E+00 0.  1.
         11   -1    0    0    0    0 -0.00000000000E+00 -0.00000000000E+00 -0.50000000000E+03  0.50000000000E+03  0.00000000000E+00 0. -1.
         23    2    1    2    0    0  0.59534355512E+02 -0.13528846602E+02 -0.48624652246E+03  0.50137452784E+03  0.10589318859E+03 0.  0.
         23    2    1    2    0    0 -0.59534355512E+02  0.13528846602E+02  0.48624652246E+03  0.49862547216E+03  0.92001694014E+02 0.  0.
        -11    1    3    3    0    0  0.27112827923E+02  0.33008389208E+02 -0.75630106119E+02  0.86859496589E+02  0.00000000000E+00 0.  1.
         11    1    3    3    0    0  0.32421527589E+02 -0.46537235809E+02 -0.41061641634E+03  0.41451503126E+03  0.00000000000E+00 0. -1.
        -15    1    4    4    0    0 -0.82556813334E+02  0.69568211073E+01  0.42155247971E+03  0.42962038554E+03  0.17770000000E+01 0.  1.
         15    1    4    4    0    0  0.23022457823E+02  0.65720254942E+01  0.64694042746E+02  0.69005086618E+02  0.17770000000E+01 0. -1.
</event>
<event>
 8    1  0.7476119E-006  0.5000743E+03  0.7546771E-02  0.9399643E-01
        -11   -1    0    0    0    0  0.00000000000E+00  0.00000000000E+00  0.50000000000E+03  0.50000000000E+03  0.00000000000E+00 0. -1.
         11   -1    0    0    0    0 -0.00000000000E+00 -0.00000000000E+00 -0.50000000000E+03  0.50000000000E+03  0.00000000000E+00 0.  1.
         23    2    1    2    0    0 -0.40692877493E+02 -0.68541096270E+02 -0.48520449577E+03  0.49992569073E+03  0.90269049937E+02 0.  0.
         23    2    1    2    0    0  0.40692877493E+02  0.68541096270E+02  0.48520449577E+03  0.50007430927E+03  0.91088527927E+02 0.  0.
        -11    1    3    3    0    0  0.32980060757E+01 -0.75647012500E+02 -0.29342974924E+03  0.30304185368E+03  0.00000000000E+00 0. -1.
         11    1    3    3    0    0 -0.43990883569E+02  0.71059162294E+01 -0.19177474653E+03  0.19688383704E+03  0.00000000000E+00 0.  1.
        -15    1    4    4    0    0  0.56124292082E+01  0.79101197221E+02  0.25766889020E+03  0.26960139738E+03  0.17770000000E+01 0. -1.
         15    1    4    4    0    0  0.35080448285E+02 -0.10560100951E+02  0.22753560557E+03  0.23047291189E+03  0.17770000000E+01 0.  1.
</event>
<event>
 8    1  0.7476119E-006  0.5001574E+03  0.7546771E-02  0.9399458E-01
        -11   -1    0    0    0    0  0.00000000000E+00  0.00000000000E+00  0.50000000000E+03  0.50000000000E+03  0.00000000000E+00 0.  1.
         11   -1    0    0    0    0 -0.00000000000E+00 -0.00000000000E+00 -0.50000000000E+03  0.50000000000E+03  0.00000000000E+00 0. -1.
         23    2    1    2    0    0 -0.79830243958E+02 -0.13061475212E+03 -0.46699183090E+03  0.49984258022E+03  0.91258717678E+02 0.  0.
         23    2    1    2    0    0  0.79830243958E+02  0.13061475212E+03  0.46699183090E+03  0.50015741978E+03  0.92967699247E+02 0.  0.
        -11    1    3    3    0    0  0.55367109122E+01 -0.23067422901E+02 -0.16518406403E+02  0.28907073825E+02  0.00000000000E+00 0.  1.
         11    1    3    3    0    0 -0.85366954871E+02 -0.10754732922E+03 -0.45047342450E+03  0.47093550640E+03  0.00000000000E+00 0. -1.
        -15    1    4    4    0    0  0.15041623084E+01  0.71494511327E+02  0.12148803809E+03  0.14098307977E+03  0.17770000000E+01 0. -1.
         15    1    4    4    0    0  0.78326081650E+02  0.59120240791E+02  0.34550379282E+03  0.35917434001E+03  0.17770000000E+01 0.  1.
</event>
<event>
 8    1  0.7476119E-006  0.5001560E+03  0.7546771E-02  0.9399461E-01
        -11   -1    0    0    0    0  0.00000000000E+00  0.00000000000E+00  0.50000000000E+03  0.50000000000E+03  0.00000000000E+00 0.  1.
         11   -1    0    0    0    0 -0.00000000000E+00 -0.00000000000E+00 -0.50000000000E+03  0.50000000000E+03  0.00000000000E+00 0. -1.
         23    2    1    2    0    0 -0.10991758834E+02 -0.10371735574E+01 -0.49123364380E+03  0.50015595268E+03  0.93400159071E+02 0.  0.
         23    2    1    2    0    0  0.10991758834E+02  0.10371735574E+01  0.49123364380E+03  0.49984404732E+03  0.91715235095E+02 0.  0.
        -11    1    3    3    0    0 -0.38713755312E+02 -0.91280420062E-01 -0.44162930770E+03  0.44332291685E+03  0.00000000000E+00 0. -1.
         11    1    3    3    0    0  0.27721996479E+02 -0.94589313729E+00 -0.49604336095E+02  0.56833035833E+02  0.00000000000E+00 0.  1.
        -15    1    4    4    0    0 -0.40257978701E+02 -0.55335871115E+01  0.21803479936E+03  0.22179643121E+03  0.17770000000E+01 0. -1.
         15    1    4    4    0    0  0.51249737535E+02  0.65707606688E+01  0.27319884444E+03  0.27804761611E+03  0.17770000000E+01 0.  1.
</event>
<event>
 8    1  0.7476119E-006  0.5001158E+03  0.7546771E-02  0.9399551E-01
        -11   -1    0    0    0    0  0.00000000000E+00  0.00000000000E+00  0.50000000000E+03  0.50000000000E+03  0.00000000000E+00 0. -1.
         11   -1    0    0    0    0 -0.00000000000E+00 -0.00000000000E+00 -0.50000000000E+03  0.50000000000E+03  0.00000000000E+00 0.  1.
         23    2    1    2    0    0 -0.15324732739E+03  0.39184124901E+02 -0.46492725787E+03  0.50011583422E+03  0.94542866114E+02 0.  0.
         23    2    1    2    0    0  0.15324732739E+03 -0.39184124901E+02  0.46492725787E+03  0.49988416578E+03  0.93309619522E+02 0.  0.
        -11    1    3    3    0    0 -0.22973376494E+02  0.72525468978E+01 -0.10451843542E+02  0.26260550213E+02  0.00000000000E+00 0. -1.
         11    1    3    3    0    0 -0.13027395090E+03  0.31931578003E+02 -0.45447541432E+03  0.47385528401E+03  0.00000000000E+00 0.  1.
        -15    1    4    4    0    0  0.90183605279E+02 -0.15199067404E+02  0.38281855280E+03  0.39359534602E+03  0.17770000000E+01 0. -1.
         15    1    4    4    0    0  0.63063722111E+02 -0.23985057497E+02  0.82108705064E+02  0.10628881976E+03  0.17770000000E+01 0.  1.
</event>
<event>
 8    1  0.7476119E-006  0.5000416E+03  0.7546771E-02  0.9399717E-01
        -11   -1    0    0    0    0  0.00000000000E+00  0.00000000000E+00  0.50000000000E+03  0.50000000000E+03  0.00000000000E+00 0.  1.
         11   -1    0    0    0    0 -0.00000000000E+00 -0.00000000000E+00 -0.50000000000E+03  0.50000000000E+03  0.00000000000E+00 0. -1.
         23    2    1    2    0    0  0.45778790510E+02 -0.50647370704E+02 -0.48686371581E+03  0.49995837726E+03  0.90891404469E+02 0.  0.
         23    2    1    2    0    0 -0.45778790510E+02  0.50647370704E+02  0.48686371581E+03  0.50004162274E+03  0.91348195819E+02 0.  0.
        -11    1    3    3    0    0  0.14041861485E+02  0.19767458070E+02 -0.42483704789E+02  0.48916167523E+02  0.00000000000E+00 0.  1.
         11    1    3    3    0    0  0.31736929026E+02 -0.70414828774E+02 -0.44438001102E+03  0.45104220974E+03  0.00000000000E+00 0. -1.
        -15    1    4    4    0    0 -0.28574512311E+02  0.48170246663E+01  0.39383886878E+03  0.39490748128E+03  0.17770000000E+01 0.  1.
         15    1    4    4    0    0 -0.17204278200E+02  0.45830346038E+02  0.93024847032E+02  0.10513414146E+03  0.17770000000E+01 0. -1.
</event>
<event>
 8    1  0.7476119E-006  0.5002681E+03  0.7546771E-02  0.9399210E-01
        -11   -1    0    0    0    0  0.00000000000E+00  0.00000000000E+00  0.50000000000E+03  0.50000000000E+03  0.00000000000E+00 0. -1.
         11   -1    0    0    0    0 -0.00000000000E+00 -0.00000000000E+00 -0.50000000000E+03  0.50000000000E+03  0.00000000000E+00 0.  1.
         23    2    1    2    0    0  0.17283416203E+03 -0.19586220668E+03  0.41696298166E+03  0.50026807546E+03  0.90423269541E+02 0.  0.
         23    2    1    2    0    0 -0.17283416203E+03  0.19586220668E+03 -0.41696298166E+03  0.49973192454E+03  0.87408333471E+02 0.  0.
        -11    1    3    3    0    0  0.18271954726E+03 -0.17900337864E+03  0.37443653064E+03  0.45346593918E+03  0.00000000000E+00 0. -1.
         11    1    3    3    0    0 -0.98853852269E+01 -0.16858828033E+02  0.42526451023E+02  0.46802136280E+02  0.00000000000E+00 0.  1.
        -15    1    4    4    0    0 -0.13918281035E+03  0.18419858322E+03 -0.30696709255E+03  0.38410015152E+03  0.17770000000E+01 0.  1.
         15    1    4    4    0    0 -0.33651351678E+02  0.11663623455E+02 -0.10999588912E+03  0.11563177303E+03  0.17770000000E+01 0. -1.
</event>
<event>
 8    1  0.7476119E-006  0.5001022E+03  0.7546771E-02  0.9399581E-01
        -11   -1    0    0    0    0  0.00000000000E+00  0.00000000000E+00  0.50000000000E+03  0.50000000000E+03  0.00000000000E+00 0.  1.
         11   -1    0    0    0    0 -0.00000000000E+00 -0.00000000000E+00 -0.50000000000E+03  0.50000000000E+03  0.00000000000E+00 0. -1.
         23    2    1    2    0    0  0.11479444371E+03  0.13198637691E+03 -0.45953522657E+03  0.50010223949E+03  0.91276817938E+02 0.  0.
         23    2    1    2    0    0 -0.11479444371E+03 -0.13198637691E+03  0.45953522657E+03  0.49989776051E+03  0.90149755994E+02 0.  0.
        -11    1    3    3    0    0  0.11591239363E+03  0.14353848995E+03 -0.44316121664E+03  0.48003212916E+03  0.00000000000E+00 0. -1.
         11    1    3    3    0    0 -0.11179499170E+01 -0.11552113037E+02 -0.16374009929E+02  0.20070110334E+02  0.00000000000E+00 0.  1.
        -15    1    4    4    0    0 -0.83867449123E+02 -0.84708556909E+02  0.40174916511E+03  0.41906424093E+03  0.17770000000E+01 0.  1.
         15    1    4    4    0    0 -0.30926994589E+02 -0.47277820001E+02  0.57786061459E+02  0.80833519572E+02  0.17770000000E+01 0. -1.
</event>
<event>
 8    1  0.7476119E-006  0.5000724E+03  0.7546771E-02  0.9399648E-01
        -11   -1    0    0    0    0  0.00000000000E+00  0.00000000000E+00  0.50000000000E+03  0.50000000000E+03  0.00000000000E+00 0.  1.
         11   -1    0    0    0    0 -0.00000000000E+00 -0.00000000000E+00 -0.50000000000E+03  0.50000000000E+03  0.00000000000E+00 0. -1.
         23    2    1    2    0    0  0.14935682846E+03 -0.19537597608E+03  0.42576672136E+03  0.50007236926E+03  0.91191223516E+02 0.  0.
         23    2    1    2    0    0 -0.14935682846E+03  0.19537597608E+03 -0.42576672136E+03  0.49992763074E+03  0.90394140972E+02 0.  0.
        -11    1    3    3    0    0  0.14542309752E+03 -0.14447789299E+03  0.29093652817E+03  0.35590139404E+03  0.00000000000E+00 0.  1.
         11    1    3    3    0    0  0.39337309393E+01 -0.50898083084E+02  0.13483019319E+03  0.14417097522E+03  0.00000000000E+00 0. -1.
        -15    1    4    4    0    0 -0.23298026625E+02  0.55216369272E+02 -0.18293289201E+03  0.19250778215E+03  0.17770000000E+01 0.  1.
         15    1    4    4    0    0 -0.12605880184E+03  0.14015960680E+03 -0.24283382935E+03  0.30741984859E+03  0.17770000000E+01 0. -1.
</event>
<event>
 8    1  0.7476119E-006  0.5002559E+03  0.7546771E-02  0.9399237E-01
        -11   -1    0    0    0    0  0.00000000000E+00  0.00000000000E+00  0.50000000000E+03  0.50000000000E+03  0.00000000000E+00 0.  1.
         11   -1    0    0    0    0 -0.00000000000E+00 -0.00000000000E+00 -0.50000000000E+03  0.50000000000E+03  0.00000000000E+00 0. -1.
         23    2    1    2    0    0  0.31107773873E+02 -0.18034646319E+02 -0.49014938875E+03  0.50025585663E+03  0.93362501771E+02 0.  0.
         23    2    1    2    0    0 -0.31107773873E+02  0.18034646319E+02  0.49014938875E+03  0.49974414337E+03  0.90580591073E+02 0.  0.
        -11    1    3    3    0    0  0.42657864867E+02 -0.43563934810E+02 -0.42478833544E+03  0.42914174789E+03  0.00000000000E+00 0. -1.
         11    1    3    3    0    0 -0.11550090994E+02  0.25529288492E+02 -0.65361053308E+02  0.71114108744E+02  0.00000000000E+00 0.  1.
        -15    1    4    4    0    0 -0.53605062649E+01  0.26523173886E+02  0.45251999981E+03  0.45333180094E+03  0.17770000000E+01 0.  1.
         15    1    4    4    0    0 -0.25747267608E+02 -0.84885275670E+01  0.37629388936E+02  0.46412342435E+02  0.17770000000E+01 0. -1.
</event>
<event>
 8    1  0.9227335E-006  0.5001298E+03  0.7546771E-02  0.9399519E-01
        -11   -1    0    0    0    0  0.00000000000E+00  0.00000000000E+00  0.50000000000E+03  0.50000000000E+03  0.00000000000E+00 0. -1.
         11   -1    0    0    0    0 -0.00000000000E+00 -0.00000000000E+00 -0.50000000000E+03  0.50000000000E+03  0.00000000000E+00 0.  1.
         23    2    1    2    0    0  0.28938148121E+02 -0.59119318046E+01  0.49060679095E+03  0.49987015059E+03  0.91119574021E+02 0.  0.
         23    2    1    2    0    0 -0.28938148121E+02  0.59119318046E+01 -0.49060679095E+03  0.50012984941E+03  0.92533645716E+02 0.  0.
        -11    1    3    3    0    0 -0.43142099357E+00 -0.33229418736E+02  0.71468600646E+02  0.78817138187E+02  0.00000000000E+00 0.  1.
         11    1    3    3    0    0  0.29369569114E+02  0.27317486932E+02  0.41913819030E+03  0.42105301240E+03  0.00000000000E+00 0. -1.
        -15    1    4    4    0    0 -0.15447252747E+02 -0.88410107420E+00 -0.84226556901E+01  0.17705877838E+02  0.17770000000E+01 0. -1.
         15    1    4    4    0    0 -0.13490895374E+02  0.67960328788E+01 -0.48218413526E+03  0.48242397157E+03  0.17770000000E+01 0.  1.
</event>
<event>
 8    1  0.7476119E-006  0.5000872E+03  0.7546771E-02  0.9399615E-01
        -11   -1    0    0    0    0  0.00000000000E+00  0.00000000000E+00  0.50000000000E+03  0.50000000000E+03  0.00000000000E+00 0.  1.
         11   -1    0    0    0    0 -0.00000000000E+00 -0.00000000000E+00 -0.50000000000E+03  0.50000000000E+03  0.00000000000E+00 0. -1.
         23    2    1    2    0    0  0.13514227045E+03 -0.66378880373E+02 -0.46801924175E+03  0.50008716417E+03  0.91518151688E+02 0.  0.
         23    2    1    2    0    0 -0.13514227045E+03  0.66378880373E+02  0.46801924175E+03  0.49991283583E+03  0.90560718619E+02 0.  0.
        -11    1    3    3    0    0 -0.88127603575E+01 -0.34755479029E+01 -0.41587727606E+01  0.10345992906E+02  0.00000000000E+00 0.  1.
         11    1    3    3    0    0  0.14395503081E+03 -0.62903332470E+02 -0.46386046899E+03  0.48974117126E+03  0.00000000000E+00 0. -1.
        -15    1    4    4    0    0 -0.12903415313E+03  0.56142131618E+02  0.46708421211E+03  0.48782432345E+03  0.17770000000E+01 0.  1.
         15    1    4    4    0    0 -0.61081173196E+01  0.10236748755E+02  0.93502964519E+00  0.12088512386E+02  0.17770000000E+01 0. -1.
</event>
<event>
 8    1  0.7476119E-006  0.5022509E+03  0.7546771E-02  0.9394787E-01
        -11   -1    0    0    0    0  0.00000000000E+00  0.00000000000E+00  0.50000000000E+03  0.50000000000E+03  0.00000000000E+00 0.  1.
         11   -1    0    0    0    0 -0.00000000000E+00 -0.00000000000E+00 -0.50000000000E+03  0.50000000000E+03  0.00000000000E+00 0. -1.
         23    2    1    2    0    0 -0.32928689284E+03 -0.10150122625E+03  0.34848216500E+03  0.49774908082E+03  0.87074516419E+02 0.  0.
         23    2    1    2    0    0  0.32928689284E+03  0.10150122625E+03 -0.34848216500E+03  0.50225091918E+03  0.10992638345E+03 0.  0.
        -11    1    3    3    0    0 -0.32258875191E+03 -0.11320304123E+03  0.33679825628E+03  0.47990780035E+03  0.00000000000E+00 0.  1.
         11    1    3    3    0    0 -0.66981409219E+01  0.11701814983E+02  0.11683908714E+02  0.17841280463E+02  0.00000000000E+00 0. -1.
        -15    1    4    4    0    0  0.41878620061E+02  0.10661715342E+02 -0.10900884790E+03  0.11727564812E+03  0.17770000000E+01 0.  1.
         15    1    4    4    0    0  0.28740827278E+03  0.90839510905E+02 -0.23947331709E+03  0.38497527106E+03  0.17770000000E+01 0. -1.
</event>
<event>
 8    1  0.7476119E-006  0.5001200E+03  0.7546771E-02  0.9399541E-01
        -11   -1    0    0    0    0  0.00000000000E+00  0.00000000000E+00  0.50000000000E+03  0.50000000000E+03  0.00000000000E+00 0.  1.
         11   -1    0    0    0    0 -0.00000000000E+00 -0.00000000000E+00 -0.50000000000E+03  0.50000000000E+03  0.00000000000E+00 0. -1.
         23    2    1    2    0    0 -0.34780598828E+03  0.34064224070E+03 -0.68215002064E+02  0.49988003639E+03  0.90667649369E+02 0.  0.
         23    2    1    2    0    0  0.34780598828E+03 -0.34064224070E+03  0.68215002064E+02  0.50011996361E+03  0.91981247369E+02 0.  0.
        -11    1    3    3    0    0 -0.32408417480E+03  0.28440486447E+03 -0.77658079013E+02  0.43811808513E+03  0.00000000000E+00 0.  1.
         11    1    3    3    0    0 -0.23721813480E+02  0.56237376232E+02  0.94430769488E+01  0.61761951252E+02  0.00000000000E+00 0. -1.
        -15    1    4    4    0    0  0.34484716756E+03 -0.33816825730E+03  0.78189478876E+02  0.48927915504E+03  0.17770000000E+01 0. -1.
         15    1    4    4    0    0  0.29588207191E+01 -0.24739833992E+01 -0.99744768117E+01  0.10840808576E+02  0.17770000000E+01 0.  1.
</event>
<event>
 8    1  0.7476119E-006  0.5004426E+03  0.7546771E-02  0.9398820E-01
        -11   -1    0    0    0    0  0.00000000000E+00  0.00000000000E+00  0.50000000000E+03  0.50000000000E+03  0.00000000000E+00 0. -1.
         11   -1    0    0    0    0 -0.00000000000E+00 -0.00000000000E+00 -0.50000000000E+03  0.50000000000E+03  0.00000000000E+00 0.  1.
         23    2    1    2    0    0 -0.20405775449E+03  0.55386364358E+01  0.44779118016E+03  0.50044259505E+03  0.90860366785E+02 0.  0.
         23    2    1    2    0    0  0.20405775449E+03 -0.55386364358E+01 -0.44779118016E+03  0.49955740495E+03  0.85851127834E+02 0.  0.
        -11    1    3    3    0    0  0.52850208283E+01 -0.28197287336E+01  0.54499701316E+02  0.54827910400E+02  0.00000000000E+00 0.  1.
         11    1    3    3    0    0 -0.20934277532E+03  0.83583651694E+01  0.39329147884E+03  0.44561468465E+03  0.00000000000E+00 0. -1.
        -15    1    4    4    0    0  0.12064318467E+03 -0.43293575146E+02 -0.29095519858E+03  0.31794212832E+03  0.17770000000E+01 0.  1.
         15    1    4    4    0    0  0.83414569824E+02  0.37754938710E+02 -0.15683598158E+03  0.18161527663E+03  0.17770000000E+01 0. -1.
</event>
<event>
 8    1  0.7476119E-006  0.5003067E+03  0.7546771E-02  0.9399124E-01
        -11   -1    0    0    0    0  0.00000000000E+00  0.00000000000E+00  0.50000000000E+03  0.50000000000E+03  0.00000000000E+00 0.  1.
         11   -1    0    0    0    0 -0.00000000000E+00 -0.00000000000E+00 -0.50000000000E+03  0.50000000000E+03  0.00000000000E+00 0. -1.
         23    2    1    2    0    0 -0.13207288142E+03 -0.47009878696E+03  0.57227599035E+02  0.49969327018E+03  0.89343442195E+02 0.  0.
         23    2    1    2    0    0  0.13207288142E+03  0.47009878696E+03 -0.57227599035E+02  0.50030672982E+03  0.92713053585E+02 0.  0.
        -11    1    3    3    0    0 -0.21184024439E+02 -0.10623129614E+03 -0.23475298579E+02  0.11083745222E+03  0.00000000000E+00 0. -1.
         11    1    3    3    0    0 -0.11088885698E+03 -0.36386749082E+03  0.80702897614E+02  0.38885581796E+03  0.00000000000E+00 0.  1.
        -15    1    4    4    0    0 -0.11601252479E+02  0.80328821949E+02 -0.16836764564E+01  0.81199145256E+02  0.17770000000E+01 0.  1.
         15    1    4    4    0    0  0.14367413390E+03  0.38976996501E+03 -0.55543922579E+02  0.41910758457E+03  0.17770000000E+01 0. -1.
</event>
<event>
 8    1  0.7476119E-006  0.5000697E+03  0.7546771E-02  0.9399654E-01
        -11   -1    0    0    0    0  0.00000000000E+00  0.00000000000E+00  0.50000000000E+03  0.50000000000E+03  0.00000000000E+00 0.  1.
         11   -1    0    0    0    0 -0.00000000000E+00 -0.00000000000E+00 -0.50000000000E+03  0.50000000000E+03  0.00000000000E+00 0. -1.
         23    2    1    2    0    0  0.40198243763E+02  0.17264968485E+03  0.45809378559E+03  0.49993028991E+03  0.93040667941E+02 0.  0.
         23    2    1    2    0    0 -0.40198243763E+02 -0.17264968485E+03 -0.45809378559E+03  0.50006971009E+03  0.93786918458E+02 0.  0.
        -11    1    3    3    0    0  0.64912010652E+02  0.93193742361E+02  0.21772977844E+03  0.24557055842E+03  0.00000000000E+00 0.  1.
         11    1    3    3    0    0 -0.24713766888E+02  0.79455942490E+02  0.24036400715E+03  0.25435973149E+03  0.00000000000E+00 0. -1.
        -15    1    4    4    0    0  0.77879707288E+01 -0.14088442523E+02 -0.14448278479E+03  0.14538765260E+03  0.17770000000E+01 0.  1.
         15    1    4    4    0    0 -0.47986214492E+02 -0.15856124233E+03 -0.31361100080E+03  0.35468205749E+03  0.17770000000E+01 0. -1.
</event>
<event>
 8    1  0.7476119E-006  0.5003639E+03  0.7546771E-02  0.9398996E-01
        -11   -1    0    0    0    0  0.00000000000E+00  0.00000000000E+00  0.50000000000E+03  0.50000000000E+03  0.00000000000E+00 0.  1.
         11   -1    0    0    0    0 -0.00000000000E+00 -0.00000000000E+00 -0.50000000000E+03  0.50000000000E+03  0.00000000000E+00 0. -1.
         23    2    1    2    0    0 -0.19744753011E+02  0.68543758864E+01 -0.49137372213E+03  0.50036394421E+03  0.92082051018E+02 0.  0.
         23    2    1    2    0    0  0.19744753011E+02 -0.68543758864E+01  0.49137372213E+03  0.49963605579E+03  0.88040988793E+02 0.  0.
        -11    1    3    3    0    0  0.14822940080E+02 -0.29509648552E+02 -0.32273033351E+03  0.32441548526E+03  0.00000000000E+00 0.  1.
         11    1    3    3    0    0 -0.34567693091E+02  0.36364024438E+02 -0.16864338862E+03  0.17594845894E+03  0.00000000000E+00 0. -1.
        -15    1    4    4    0    0  0.79121499010E+01  0.17291518255E+02  0.20598217727E+02  0.28089909615E+02  0.17770000000E+01 0. -1.
         15    1    4    4    0    0  0.11832603110E+02 -0.24145894142E+02  0.47077550440E+03  0.47154614618E+03  0.17770000000E+01 0.  1.
</event>
<event>
 8    1  0.7476119E-006  0.5009934E+03  0.7546771E-02  0.9397590E-01
        -11   -1    0    0    0    0  0.00000000000E+00  0.00000000000E+00  0.50000000000E+03  0.50000000000E+03  0.00000000000E+00 0.  1.
         11   -1    0    0    0    0 -0.00000000000E+00 -0.00000000000E+00 -0.50000000000E+03  0.50000000000E+03  0.00000000000E+00 0. -1.
         23    2    1    2    0    0  0.12967516585E+01  0.31113677421E+02 -0.48949882753E+03  0.49900662422E+03  0.91808313205E+02 0.  0.
         23    2    1    2    0    0 -0.12967516585E+01 -0.31113677421E+02  0.48949882753E+03  0.50099337578E+03  0.10205644487E+03 0.  0.
        -11    1    3    3    0    0 -0.86698969679E+01  0.27030753280E+02 -0.48715836089E+03  0.48798473062E+03  0.00000000000E+00 0. -1.
         11    1    3    3    0    0  0.99666486264E+01  0.40829241412E+01 -0.23404666422E+01  0.11021893598E+02  0.00000000000E+00 0.  1.
        -15    1    4    4    0    0 -0.31616254882E+02 -0.38247640376E+02  0.43782592773E+03  0.44063269317E+03  0.17770000000E+01 0.  1.
         15    1    4    4    0    0  0.30319503224E+02  0.71339629549E+01  0.51672899797E+02  0.60360682614E+02  0.17770000000E+01 0. -1.
</event>
<event>
 8    1  0.7476119E-006  0.5006713E+03  0.7546771E-02  0.9398309E-01
        -11   -1    0    0    0    0  0.00000000000E+00  0.00000000000E+00  0.50000000000E+03  0.50000000000E+03  0.00000000000E+00 0. -1.
         11   -1    0    0    0    0 -0.00000000000E+00 -0.00000000000E+00 -0.50000000000E+03  0.50000000000E+03  0.00000000000E+00 0.  1.
         23    2    1    2    0    0 -0.73301337682E+02  0.48533938263E+03  0.20242933211E+02  0.50067127183E+03  0.96615442121E+02 0.  0.
         23    2    1    2    0    0  0.73301337682E+02 -0.48533938263E+03 -0.20242933211E+02  0.49932872817E+03  0.89397986537E+02 0.  0.
        -11    1    3    3    0    0 -0.91928958832E+02  0.45807682571E+03  0.20334389943E+02  0.46765243412E+03  0.00000000000E+00 0. -1.
         11    1    3    3    0    0  0.18627621150E+02  0.27262556918E+02 -0.91456732048E-01  0.33018837711E+02  0.00000000000E+00 0.  1.
        -15    1    4    4    0    0  0.80688739205E+02 -0.46280112756E+03 -0.27326594120E+01  0.46979376482E+03  0.17770000000E+01 0.  1.
         15    1    4    4    0    0 -0.73874015231E+01 -0.22538255066E+02 -0.17510273799E+02  0.29534963352E+02  0.17770000000E+01 0. -1.
</event>
<event>
 8    1  0.7476119E-006  0.5004926E+03  0.7546771E-02  0.9398708E-01
        -11   -1    0    0    0    0  0.00000000000E+00  0.00000000000E+00  0.50000000000E+03  0.50000000000E+03  0.00000000000E+00 0.  1.
         11   -1    0    0    0    0 -0.00000000000E+00 -0.00000000000E+00 -0.50000000000E+03  0.50000000000E+03  0.00000000000E+00 0. -1.
         23    2    1    2    0    0 -0.14444534499E+03  0.89524169146E+02 -0.46154103697E+03  0.50049256301E+03  0.92701900047E+02 0.  0.
         23    2    1    2    0    0  0.14444534499E+03 -0.89524169146E+02  0.46154103697E+03  0.49950743699E+03  0.87226809266E+02 0.  0.
        -11    1    3    3    0    0 -0.11646817688E+03  0.50440480785E+02 -0.21801880521E+03  0.25227222945E+03  0.00000000000E+00 0. -1.
         11    1    3    3    0    0 -0.27977168110E+02  0.39083688361E+02 -0.24352223176E+03  0.24822033356E+03  0.00000000000E+00 0.  1.
        -15    1    4    4    0    0  0.28978371704E+02 -0.11228798291E+02  0.21381030084E+02  0.37764243857E+02  0.17770000000E+01 0. -1.
         15    1    4    4    0    0  0.11546697328E+03 -0.78295370855E+02  0.44016000688E+03  0.46174319313E+03  0.17770000000E+01 0.  1.
</event>
<event>
 8    1  0.7476119E-006  0.5000464E+03  0.7546771E-02  0.9399706E-01
        -11   -1    0    0    0    0  0.00000000000E+00  0.00000000000E+00  0.50000000000E+03  0.50000000000E+03  0.00000000000E+00 0.  1.
         11   -1    0    0    0    0 -0.00000000000E+00 -0.00000000000E+00 -0.50000000000E+03  0.50000000000E+03  0.00000000000E+00 0. -1.
         23    2    1    2    0    0 -0.10495942568E+03  0.13687354245E+03 -0.46041796984E+03  0.50004643515E+03  0.91164042775E+02 0.  0.
         23    2    1    2    0    0  0.10495942568E+03 -0.13687354245E+03  0.46041796984E+03  0.49995356485E+03  0.90653253621E+02 0.  0.
        -11    1    3    3    0    0 -0.53366848025E+01 -0.21453965675E+01  0.27022590231E+01  0.63549299714E+01  0.00000000000E+00 0.  1.
         11    1    3    3    0    0 -0.99622740876E+02  0.13901893902E+03 -0.46312022886E+03  0.49369150518E+03  0.00000000000E+00 0. -1.
        -15    1    4    4    0    0  0.83513201237E+01 -0.48210753654E+02  0.53949961183E+02  0.72854494414E+02  0.17770000000E+01 0. -1.
         15    1    4    4    0    0  0.96608105555E+02 -0.88662788799E+02  0.40646800866E+03  0.42709907043E+03  0.17770000000E+01 0.  1.
</event>
<event>
 8    1  0.7476119E-006  0.5000895E+03  0.7546771E-02  0.9399609E-01
        -11   -1    0    0    0    0  0.00000000000E+00  0.00000000000E+00  0.50000000000E+03  0.50000000000E+03  0.00000000000E+00 0.  1.
         11   -1    0    0    0    0 -0.00000000000E+00 -0.00000000000E+00 -0.50000000000E+03  0.50000000000E+03  0.00000000000E+00 0. -1.
         23    2    1    2    0    0  0.42333106616E+02 -0.74244220208E+02  0.48387986001E+03  0.50008949848E+03  0.92981134743E+02 0.  0.
         23    2    1    2    0    0 -0.42333106616E+02  0.74244220208E+02 -0.48387986001E+03  0.49991050152E+03  0.92013555793E+02 0.  0.
        -11    1    3    3    0    0  0.32605708049E+02 -0.94494971586E+02  0.33739075819E+03  0.35188770306E+03  0.00000000000E+00 0. -1.
         11    1    3    3    0    0  0.97273985674E+01  0.20250751378E+02  0.14648910182E+03  0.14820179543E+03  0.00000000000E+00 0.  1.
        -15    1    4    4    0    0 -0.51313658273E+02  0.88899304263E+02 -0.45336263765E+03  0.46484085102E+03  0.17770000000E+01 0. -1.
         15    1    4    4    0    0  0.89805516563E+01 -0.14655084054E+02 -0.30517222359E+02  0.35069650500E+02  0.17770000000E+01 0.  1.
</event>
<event>
 8    1  0.7476119E-006  0.5002266E+03  0.7546771E-02  0.9399303E-01
        -11   -1    0    0    0    0  0.00000000000E+00  0.00000000000E+00  0.50000000000E+03  0.50000000000E+03  0.00000000000E+00 0.  1.
         11   -1    0    0    0    0 -0.00000000000E+00 -0.00000000000E+00 -0.50000000000E+03  0.50000000000E+03  0.00000000000E+00 0. -1.
         23    2    1    2    0    0  0.30086670992E+03 -0.10359611055E+03  0.37435911085E+03  0.49977341713E+03  0.91519360426E+02 0.  0.
         23    2    1    2    0    0 -0.30086670992E+03  0.10359611055E+03 -0.37435911085E+03  0.50022658287E+03  0.93962540835E+02 0.  0.
        -11    1    3    3    0    0  0.26369293863E+02 -0.41144635450E+02  0.44221293799E+02  0.65907082399E+02  0.00000000000E+00 0. -1.
         11    1    3    3    0    0  0.27449741605E+03 -0.62451475099E+02  0.33013781705E+03  0.43386633473E+03  0.00000000000E+00 0.  1.
        -15    1    4    4    0    0 -0.81975709887E+01 -0.96371821480E+01 -0.38538213617E+02  0.40600826194E+02  0.17770000000E+01 0.  1.
         15    1    4    4    0    0 -0.29266913893E+03  0.11323329270E+03 -0.33582089723E+03  0.45962575668E+03  0.17770000000E+01 0. -1.
</event>
<event>
 8    1  0.7476119E-006  0.5003102E+03  0.7546771E-02  0.9399116E-01
        -11   -1    0    0    0    0  0.00000000000E+00  0.00000000000E+00  0.50000000000E+03  0.50000000000E+03  0.00000000000E+00 0. -1.
         11   -1    0    0    0    0 -0.00000000000E+00 -0.00000000000E+00 -0.50000000000E+03  0.50000000000E+03  0.00000000000E+00 0.  1.
         23    2    1    2    0    0 -0.26633772607E+03  0.14612852339E+02  0.41276759905E+03  0.49968981628E+03  0.90352099509E+02 0.  0.
         23    2    1    2    0    0  0.26633772607E+03 -0.14612852339E+02 -0.41276759905E+03  0.50031018372E+03  0.93722298983E+02 0.  0.
        -11    1    3    3    0    0 -0.89556126248E+00  0.16137909896E+02  0.24951794106E+02  0.29729214502E+02  0.00000000000E+00 0.  1.
         11    1    3    3    0    0 -0.26544216480E+03 -0.15250575569E+01  0.38781580495E+03  0.46996060178E+03  0.00000000000E+00 0. -1.
        -15    1    4    4    0    0  0.10907537718E+03 -0.33868989082E+02 -0.10995660293E+03  0.15855017687E+03  0.17770000000E+01 0. -1.
         15    1    4    4    0    0  0.15726234888E+03  0.19256136743E+02 -0.30281099613E+03  0.34176000685E+03  0.17770000000E+01 0.  1.
</event>
<event>
 8    1  0.7476119E-006  0.5009598E+03  0.7546771E-02  0.9397665E-01
        -11   -1    0    0    0    0  0.00000000000E+00  0.00000000000E+00  0.50000000000E+03  0.50000000000E+03  0.00000000000E+00 0. -1.
         11   -1    0    0    0    0 -0.00000000000E+00 -0.00000000000E+00 -0.50000000000E+03  0.50000000000E+03  0.00000000000E+00 0.  1.
         23    2    1    2    0    0 -0.26620581203E+02 -0.90113633564E+02 -0.48299720293E+03  0.49904019378E+03  0.83220758624E+02 0.  0.
         23    2    1    2    0    0  0.26620581203E+02  0.90113633564E+02  0.48299720293E+03  0.50095980622E+03  0.94049492895E+02 0.  0.
        -11    1    3    3    0    0 -0.52614300027E+02 -0.37233575782E+02 -0.29778113625E+03  0.30467722074E+03  0.00000000000E+00 0.  1.
         11    1    3    3    0    0  0.25993718824E+02 -0.52880057782E+02 -0.18521606668E+03  0.19436297303E+03  0.00000000000E+00 0. -1.
        -15    1    4    4    0    0  0.59971385590E+02  0.65316292439E+02  0.37193607715E+03  0.38236420905E+03  0.17770000000E+01 0. -1.
         15    1    4    4    0    0 -0.33350804387E+02  0.24797341125E+02  0.11106112579E+03  0.11859559718E+03  0.17770000000E+01 0.  1.
</event>
<event>
 8    1  0.7476119E-006  0.5003892E+03  0.7546771E-02  0.9398939E-01
        -11   -1    0    0    0    0  0.00000000000E+00  0.00000000000E+00  0.50000000000E+03  0.50000000000E+03  0.00000000000E+00 0. -1.
         11   -1    0    0    0    0 -0.00000000000E+00 -0.00000000000E+00 -0.50000000000E+03  0.50000000000E+03  0.00000000000E+00 0.  1.
         23    2    1    2    0    0 -0.17102012254E+03  0.41743685967E+03 -0.19635671429E+03  0.50038922676E+03  0.91279816409E+02 0.  0.
         23    2    1    2    0    0  0.17102012254E+03 -0.41743685967E+03  0.19635671429E+03  0.49961077324E+03  0.86911169391E+02 0.  0.
        -11    1    3    3    0    0 -0.86740754231E+02  0.31940188871E+03 -0.14074598272E+03  0.35965394007E+03  0.00000000000E+00 0.  1.
         11    1    3    3    0    0 -0.84279368308E+02  0.98034970966E+02 -0.55610731572E+02  0.14073528669E+03  0.00000000000E+00 0. -1.
        -15    1    4    4    0    0  0.37547476092E+02 -0.12992391108E+03  0.10031117076E+03  0.16839098652E+03  0.17770000000E+01 0.  1.
         15    1    4    4    0    0  0.13347264645E+03 -0.28751294859E+03  0.96045543532E+02  0.33121978673E+03  0.17770000000E+01 0. -1.
</event>
<event>
 8    1  0.7476119E-006  0.5012331E+03  0.7546771E-02  0.9397055E-01
        -11   -1    0    0    0    0  0.00000000000E+00  0.00000000000E+00  0.50000000000E+03  0.50000000000E+03  0.00000000000E+00 0. -1.
         11   -1    0    0    0    0 -0.00000000000E+00 -0.00000000000E+00 -0.50000000000E+03  0.50000000000E+03  0.00000000000E+00 0.  1.
         23    2    1    2    0    0 -0.14552330973E+03  0.32521134660E+02  0.46712560705E+03  0.49876692022E+03  0.91254863241E+02 0.  0.
         23    2    1    2    0    0  0.14552330973E+03 -0.32521134660E+02 -0.46712560705E+03  0.50123307978E+03  0.10389229821E+03 0.  0.
        -11    1    3    3    0    0 -0.12542520301E+03  0.29705781961E+02  0.45925458196E+03  0.47699967095E+03  0.00000000000E+00 0. -1.
         11    1    3    3    0    0 -0.20098106727E+02  0.28153526991E+01  0.78710250888E+01  0.21767249270E+02  0.00000000000E+00 0.  1.
        -15    1    4    4    0    0  0.91374672636E+02  0.23474737152E+02 -0.17410648704E+03  0.19803186775E+03  0.17770000000E+01 0. -1.
         15    1    4    4    0    0  0.54148637099E+02 -0.55995871812E+02 -0.29301912001E+03  0.30320121204E+03  0.17770000000E+01 0.  1.
</event>
<event>
 8    1  0.7476119E-006  0.5002770E+03  0.7546771E-02  0.9399190E-01
        -11   -1    0    0    0    0  0.00000000000E+00  0.00000000000E+00  0.50000000000E+03  0.50000000000E+03  0.00000000000E+00 0.  1.
         11   -1    0    0    0    0 -0.00000000000E+00 -0.00000000000E+00 -0.50000000000E+03  0.50000000000E+03  0.00000000000E+00 0. -1.
         23    2    1    2    0    0 -0.23104979280E+03  0.29863319263E+03 -0.31527259526E+03  0.50027700243E+03  0.91183766872E+02 0.  0.
         23    2    1    2    0    0  0.23104979280E+03 -0.29863319263E+03  0.31527259526E+03  0.49972299757E+03  0.88093555325E+02 0.  0.
        -11    1    3    3    0    0 -0.87038119603E+02  0.18372310085E+03 -0.14837827001E+03  0.25168615985E+03  0.00000000000E+00 0. -1.
         11    1    3    3    0    0 -0.14401167320E+03  0.11491009177E+03 -0.16689432525E+03  0.24859084257E+03  0.00000000000E+00 0.  1.
        -15    1    4    4    0    0  0.96424247003E+02 -0.15851483583E+03  0.20415922740E+03  0.27587811883E+03  0.17770000000E+01 0. -1.
         15    1    4    4    0    0  0.13462554580E+03 -0.14011835680E+03  0.11111336786E+03  0.22384487875E+03  0.17770000000E+01 0.  1.
</event>
<event>
 8    1  0.7476119E-006  0.5005224E+03  0.7546771E-02  0.9398642E-01
        -11   -1    0    0    0    0  0.00000000000E+00  0.00000000000E+00  0.50000000000E+03  0.50000000000E+03  0.00000000000E+00 0.  1.
         11   -1    0    0    0    0 -0.00000000000E+00 -0.00000000000E+00 -0.50000000000E+03  0.50000000000E+03  0.00000000000E+00 0. -1.
         23    2    1    2    0    0 -0.11082628536E+03 -0.23874163921E+03  0.41447781270E+03  0.49947759809E+03  0.91684120524E+02 0.  0.
         23    2    1    2    0    0  0.11082628536E+03  0.23874163921E+03 -0.41447781270E+03  0.50052240191E+03  0.97215131390E+02 0.  0.
        -11    1    3    3    0    0 -0.27234631090E+02 -0.82002847046E+02  0.67407773615E+02  0.10959014553E+03  0.00000000000E+00 0. -1.
         11    1    3    3    0    0 -0.83591654268E+02 -0.15673879216E+03  0.34707003909E+03  0.38988745256E+03  0.00000000000E+00 0.  1.
        -15    1    4    4    0    0  0.75867005547E+02  0.13996389965E+03 -0.16191127664E+03  0.22707733257E+03  0.17770000000E+01 0.  1.
         15    1    4    4    0    0  0.34959279810E+02  0.98777739561E+02 -0.25256653606E+03  0.27344506933E+03  0.17770000000E+01 0. -1.
</event>
<event>
 8    1  0.7476119E-006  0.5002217E+03  0.7546771E-02  0.9399314E-01
        -11   -1    0    0    0    0  0.00000000000E+00  0.00000000000E+00  0.50000000000E+03  0.50000000000E+03  0.00000000000E+00 0.  1.
         11   -1    0    0    0    0 -0.00000000000E+00 -0.00000000000E+00 -0.50000000000E+03  0.50000000000E+03  0.00000000000E+00 0. -1.
         23    2    1    2    0    0 -0.75796046186E+02 -0.19376293072E+02 -0.48555023373E+03  0.49977825604E+03  0.88875161795E+02 0.  0.
         23    2    1    2    0    0  0.75796046186E+02  0.19376293072E+02  0.48555023373E+03  0.50022174396E+03  0.91336095319E+02 0.  0.
        -11    1    3    3    0    0 -0.73421020899E+02  0.19852628911E+02 -0.36972567864E+03  0.37746768157E+03  0.00000000000E+00 0. -1.
         11    1    3    3    0    0 -0.23750252866E+01 -0.39228921983E+02 -0.11582455509E+03  0.12231057447E+03  0.00000000000E+00 0.  1.
        -15    1    4    4    0    0  0.75123506064E+02  0.19219818588E+02  0.48962105888E+03  0.49572661984E+03  0.17770000000E+01 0.  1.
         15    1    4    4    0    0  0.67254012166E+00  0.15647448404E+00 -0.40708251505E+01  0.44951241235E+01  0.17770000000E+01 0. -1.
</event>
<event>
 8    1  0.7476119E-006  0.5009632E+03  0.7546771E-02  0.9397657E-01
        -11   -1    0    0    0    0  0.00000000000E+00  0.00000000000E+00  0.50000000000E+03  0.50000000000E+03  0.00000000000E+00 0.  1.
         11   -1    0    0    0    0 -0.00000000000E+00 -0.00000000000E+00 -0.50000000000E+03  0.50000000000E+03  0.00000000000E+00 0. -1.
         23    2    1    2    0    0 -0.37820166600E+03 -0.17218548885E+03 -0.26057856999E+03  0.50096315428E+03  0.10187515928E+03 0.  0.
         23    2    1    2    0    0  0.37820166600E+03  0.17218548885E+03  0.26057856999E+03  0.49903684572E+03  0.91936062081E+02 0.  0.
        -11    1    3    3    0    0 -0.19922310464E+03 -0.44055962153E+02 -0.15831572820E+03  0.25825306004E+03  0.00000000000E+00 0.  1.
         11    1    3    3    0    0 -0.17897856135E+03 -0.12812952670E+03 -0.10226284179E+03  0.24271009424E+03  0.00000000000E+00 0. -1.
        -15    1    4    4    0    0  0.68929421057E+02  0.46965465130E+02  0.15059732406E+02  0.84776018256E+02  0.17770000000E+01 0. -1.
         15    1    4    4    0    0  0.30927224494E+03  0.12522002372E+03  0.24551883758E+03  0.41426082746E+03  0.17770000000E+01 0.  1.
</event>
<event>
 8    1  0.7476119E-006  0.5001399E+03  0.7546771E-02  0.9399497E-01
        -11   -1    0    0    0    0  0.00000000000E+00  0.00000000000E+00  0.50000000000E+03  0.50000000000E+03  0.00000000000E+00 0.  1.
         11   -1    0    0    0    0 -0.00000000000E+00 -0.00000000000E+00 -0.50000000000E+03  0.50000000000E+03  0.00000000000E+00 0. -1.
         23    2    1    2    0    0  0.82191391372E+02  0.19441562222E+03 -0.44417911654E+03  0.49986005356E+03  0.89510483170E+02 0.  0.
         23    2    1    2    0    0 -0.82191391372E+02 -0.19441562222E+03  0.44417911654E+03  0.50013994644E+03  0.91060526436E+02 0.  0.
        -11    1    3    3    0    0  0.61895387458E+02  0.74731147790E+02 -0.12409024013E+03  0.15752514445E+03  0.00000000000E+00 0.  1.
         11    1    3    3    0    0  0.20296003914E+02  0.11968447443E+03 -0.32008887641E+03  0.34233490911E+03  0.00000000000E+00 0. -1.
        -15    1    4    4    0    0 -0.81357821267E+02 -0.20076522054E+03  0.39491500933E+03  0.45042956295E+03  0.17770000000E+01 0.  1.
         15    1    4    4    0    0 -0.83357010523E+00  0.63495983211E+01  0.49264107210E+02  0.49710383484E+02  0.17770000000E+01 0. -1.
</event>
<event>
 8    1  0.7476119E-006  0.5003842E+03  0.7546771E-02  0.9398950E-01
        -11   -1    0    0    0    0  0.00000000000E+00  0.00000000000E+00  0.50000000000E+03  0.50000000000E+03  0.00000000000E+00 0. -1.
         11   -1    0    0    0    0 -0.00000000000E+00 -0.00000000000E+00 -0.50000000000E+03  0.50000000000E+03  0.00000000000E+00 0.  1.
         23    2    1    2    0    0  0.12730888147E+02  0.16357547700E+03  0.46389927717E+03  0.50038419185E+03  0.90899878451E+02 0.  0.
         23    2    1    2    0    0 -0.12730888147E+02 -0.16357547700E+03 -0.46389927717E+03  0.49961580815E+03  0.86570226997E+02 0.  0.
        -11    1    3    3    0    0  0.34105313159E+02  0.88315341304E+02  0.34727752516E+03  0.35995062352E+03  0.00000000000E+00 0. -1.
         11    1    3    3    0    0 -0.21374425012E+02  0.75260135697E+02  0.11662175202E+03  0.14043356833E+03  0.00000000000E+00 0.  1.
        -15    1    4    4    0    0  0.27687588374E+02 -0.46554579818E+02 -0.21357341151E+03  0.22034221404E+03  0.17770000000E+01 0.  1.
         15    1    4    4    0    0 -0.40418476521E+02 -0.11702089718E+03 -0.25032586566E+03  0.27927359411E+03  0.17770000000E+01 0. -1.
</event>
<event>
 8    1  0.7476119E-006  0.5001620E+03  0.7546771E-02  0.9399447E-01
        -11   -1    0    0    0    0  0.00000000000E+00  0.00000000000E+00  0.50000000000E+03  0.50000000000E+03  0.00000000000E+00 0.  1.
         11   -1    0    0    0    0 -0.00000000000E+00 -0.00000000000E+00 -0.50000000000E+03  0.50000000000E+03  0.00000000000E+00 0. -1.
         23    2    1    2    0    0 -0.29588194569E+03  0.10096080975E+02  0.39269114010E+03  0.50016203143E+03  0.91146418103E+02 0.  0.
         23    2    1    2    0    0  0.29588194569E+03 -0.10096080975E+02 -0.39269114010E+03  0.49983796857E+03  0.89351030644E+02 0.  0.
        -11    1    3    3    0    0 -0.18479565028E+03  0.15885423925E+02  0.31115678390E+03  0.36224345849E+03  0.00000000000E+00 0.  1.
         11    1    3    3    0    0 -0.11108629540E+03 -0.57893429498E+01  0.81534356206E+02  0.13791857293E+03  0.00000000000E+00 0. -1.
        -15    1    4    4    0    0  0.86200140961E+02  0.16494017070E+02 -0.17849111371E+03  0.19890890453E+03  0.17770000000E+01 0. -1.
         15    1    4    4    0    0  0.20968180472E+03 -0.26590098044E+02 -0.21420002639E+03  0.30092906404E+03  0.17770000000E+01 0.  1.
</event>
<event>
 8    1  0.7476119E-006  0.5000939E+03  0.7546771E-02  0.9399600E-01
        -11   -1    0    0    0    0  0.00000000000E+00  0.00000000000E+00  0.50000000000E+03  0.50000000000E+03  0.00000000000E+00 0.  1.
         11   -1    0    0    0    0 -0.00000000000E+00 -0.00000000000E+00 -0.50000000000E+03  0.50000000000E+03  0.00000000000E+00 0. -1.
         23    2    1    2    0    0  0.14065367182E+02 -0.10535291628E+03  0.47994953874E+03  0.50009391796E+03  0.91898289003E+02 0.  0.
         23    2    1    2    0    0 -0.14065367182E+02  0.10535291628E+03 -0.47994953874E+03  0.49990608204E+03  0.90870565136E+02 0.  0.
        -11    1    3    3    0    0  0.41938793607E+02 -0.53636675943E+02  0.14701857527E+03  0.16201918679E+03  0.00000000000E+00 0. -1.
         11    1    3    3    0    0 -0.27873426425E+02 -0.51716240338E+02  0.33293096347E+03  0.33807473116E+03  0.00000000000E+00 0.  1.
        -15    1    4    4    0    0  0.37743595072E+02  0.52583789428E+02 -0.19286675287E+03  0.20344624835E+03  0.17770000000E+01 0.  1.
         15    1    4    4    0    0 -0.51808962255E+02  0.52769126854E+02 -0.28708278587E+03  0.29645983369E+03  0.17770000000E+01 0. -1.
</event>
<event>
 8    1  0.7476119E-006  0.5000619E+03  0.7546771E-02  0.9399671E-01
        -11   -1    0    0    0    0  0.00000000000E+00  0.00000000000E+00  0.50000000000E+03  0.50000000000E+03  0.00000000000E+00 0. -1.
         11   -1    0    0    0    0 -0.00000000000E+00 -0.00000000000E+00 -0.50000000000E+03  0.50000000000E+03  0.00000000000E+00 0.  1.
         23    2    1    2    0    0  0.52843746374E+01  0.12267867071E+02 -0.49156857290E+03  0.50006190035E+03  0.90795468729E+02 0.  0.
         23    2    1    2    0    0 -0.52843746374E+01 -0.12267867071E+02  0.49156857290E+03  0.49993809965E+03  0.90111133836E+02 0.  0.
        -11    1    3    3    0    0  0.25353962581E+02  0.23898127443E+02 -0.45762622627E+03  0.45895065844E+03  0.00000000000E+00 0.  1.
         11    1    3    3    0    0 -0.20069587944E+02 -0.11630260372E+02 -0.33942346629E+02  0.41111241908E+02  0.00000000000E+00 0. -1.
        -15    1    4    4    0    0 -0.29287297706E+01  0.61764226862E+01 -0.89599345438E+00  0.71194233291E+01  0.17770000000E+01 0.  1.
         15    1    4    4    0    0 -0.23556448668E+01 -0.18444289757E+02  0.49246456635E+03  0.49281867632E+03  0.17770000000E+01 0. -1.
</event>
<event>
 8    1  0.7476119E-006  0.5001107E+03  0.7546771E-02  0.9399562E-01
        -11   -1    0    0    0    0  0.00000000000E+00  0.00000000000E+00  0.50000000000E+03  0.50000000000E+03  0.00000000000E+00 0.  1.
         11   -1    0    0    0    0 -0.00000000000E+00 -0.00000000000E+00 -0.50000000000E+03  0.50000000000E+03  0.00000000000E+00 0.  1.
         23    2    1    2    0    0 -0.69877220693E+00  0.16690117361E+02 -0.49164207720E+03  0.50011066077E+03  0.90109337157E+02 0.  0.
         23    2    1    2    0    0  0.69877220693E+00 -0.16690117361E+02  0.49164207720E+03  0.49988933923E+03  0.88872780433E+02 0.  0.
        -11    1    3    3    0    0  0.18135847103E+01 -0.22397866639E+01  0.35375918517E+01  0.45629255868E+01  0.00000000000E+00 0.  1.
         11    1    3    3    0    0 -0.25123569172E+01  0.18929904025E+02 -0.49517966905E+03  0.49554773518E+03  0.00000000000E+00 0.  1.
        -15    1    4    4    0    0 -0.14474341143E+02  0.22633505925E+02  0.37299147194E+03  0.37396200075E+03  0.17770000000E+01 0.  1.
         15    1    4    4    0    0  0.15173113350E+02 -0.39323623286E+02  0.11865060526E+03  0.12592733848E+03  0.17770000000E+01 0. -1.
</event>
<event>
 8    1  0.7476119E-006  0.5002568E+03  0.7546771E-02  0.9399235E-01
        -11   -1    0    0    0    0  0.00000000000E+00  0.00000000000E+00  0.50000000000E+03  0.50000000000E+03  0.00000000000E+00 0.  1.
         11   -1    0    0    0    0 -0.00000000000E+00 -0.00000000000E+00 -0.50000000000E+03  0.50000000000E+03  0.00000000000E+00 0.  1.
         23    2    1    2    0    0 -0.26838802656E+02 -0.23967090817E+02 -0.48994236027E+03  0.50025682773E+03  0.94438522491E+02 0.  0.
         23    2    1    2    0    0  0.26838802656E+02  0.23967090817E+02  0.48994236027E+03  0.49974317227E+03  0.91678672977E+02 0.  0.
        -11    1    3    3    0    0 -0.49862323449E+02 -0.46675701611E+02 -0.35314459142E+03  0.35968871940E+03  0.00000000000E+00 0.  1.
         11    1    3    3    0    0  0.23023520792E+02  0.22708610794E+02 -0.13679776885E+03  0.14056810832E+03  0.00000000000E+00 0.  1.
        -15    1    4    4    0    0  0.25822503493E+02  0.34444532612E+02  0.48667545253E+03  0.48857894074E+03  0.17770000000E+01 0.  1.
         15    1    4    4    0    0  0.10162991632E+01 -0.10477441795E+02  0.32669077420E+01  0.11164231534E+02  0.17770000000E+01 0. -1.
</event>
<event>
 8    1  0.7476119E-006  0.5000006E+03  0.7546771E-02  0.9399808E-01
        -11   -1    0    0    0    0  0.00000000000E+00  0.00000000000E+00  0.50000000000E+03  0.50000000000E+03  0.00000000000E+00 0.  1.
         11   -1    0    0    0    0 -0.00000000000E+00 -0.00000000000E+00 -0.50000000000E+03  0.50000000000E+03  0.00000000000E+00 0. -1.
         23    2    1    2    0    0  0.12143681115E+03  0.19550090430E+03  0.43431148377E+03  0.50000059464E+03  0.91687660166E+02 0.  0.
         23    2    1    2    0    0 -0.12143681115E+03 -0.19550090430E+03 -0.43431148377E+03  0.49999940536E+03  0.91681174431E+02 0.  0.
        -11    1    3    3    0    0  0.40229183187E+02  0.11589607432E+03  0.29937883291E+03  0.32353975461E+03  0.00000000000E+00 0.  1.
         11    1    3    3    0    0  0.81207627960E+02  0.79604829984E+02  0.13493265086E+03  0.17646084003E+03  0.00000000000E+00 0. -1.
        -15    1    4    4    0    0  0.13474950936E+02 -0.32742748961E+02 -0.78221832431E+02  0.85880584011E+02  0.17770000000E+01 0.  1.
         15    1    4    4    0    0 -0.13491176208E+03 -0.16275815534E+03 -0.35608965134E+03  0.41411882135E+03  0.17770000000E+01 0. -1.
</event>
<event>
 8    1  0.7476119E-006  0.5003506E+03  0.7546771E-02  0.9399026E-01
        -11   -1    0    0    0    0  0.00000000000E+00  0.00000000000E+00  0.50000000000E+03  0.50000000000E+03  0.00000000000E+00 0.  1.
         11   -1    0    0    0    0 -0.00000000000E+00 -0.00000000000E+00 -0.50000000000E+03  0.50000000000E+03  0.00000000000E+00 0. -1.
         23    2    1    2    0    0 -0.61199085270E+02  0.27442340548E+02 -0.48683365529E+03  0.49964941777E+03  0.90244792993E+02 0.  0.
         23    2    1    2    0    0  0.61199085270E+02 -0.27442340548E+02  0.48683365529E+03  0.50035058223E+03  0.94049386635E+02 0.  0.
        -11    1    3    3    0    0 -0.10719175322E+02 -0.32100880445E+02 -0.17050631983E+03  0.17383259863E+03  0.00000000000E+00 0.  1.
         11    1    3    3    0    0 -0.50479909948E+02  0.59543220993E+02 -0.31632733545E+03  0.32581681913E+03  0.00000000000E+00 0. -1.
        -15    1    4    4    0    0  0.43849023667E+02 -0.34748319340E+02  0.47446458475E+03  0.47775514909E+03  0.17770000000E+01 0.  1.
         15    1    4    4    0    0  0.17350061604E+02  0.73059787917E+01  0.12369070536E+02  0.22595433137E+02  0.17770000000E+01 0. -1.
</event>
<event>
 8    1  0.7476119E-006  0.5005569E+03  0.7546771E-02  0.9398564E-01
        -11   -1    0    0    0    0  0.00000000000E+00  0.00000000000E+00  0.50000000000E+03  0.50000000000E+03  0.00000000000E+00 0.  1.
         11   -1    0    0    0    0 -0.00000000000E+00 -0.00000000000E+00 -0.50000000000E+03  0.50000000000E+03  0.00000000000E+00 0. -1.
         23    2    1    2    0    0  0.19125941851E+02  0.40148713545E+03  0.28283743582E+03  0.49944310232E+03  0.88818217550E+02 0.  0.
         23    2    1    2    0    0 -0.19125941851E+02 -0.40148713545E+03 -0.28283743582E+03  0.50055689768E+03  0.94881352937E+02 0.  0.
        -11    1    3    3    0    0 -0.66730241210E+01  0.12625213796E+03  0.43235786666E+02  0.13361685837E+03  0.00000000000E+00 0. -1.
         11    1    3    3    0    0  0.25798965972E+02  0.27523499749E+03  0.23960164915E+03  0.36582624395E+03  0.00000000000E+00 0.  1.
        -15    1    4    4    0    0  0.29609627890E+02 -0.13805691008E+03 -0.65884049878E+02  0.15582139212E+03  0.17770000000E+01 0.  1.
         15    1    4    4    0    0 -0.48735569741E+02 -0.26343022536E+03 -0.21695338594E+03  0.34473550556E+03  0.17770000000E+01 0. -1.
</event>
<event>
 7    1  0.7476119E-006  0.5233285E+03  0.7546771E-02  0.9349072E-01
        -11   -1    0    0    0    0  0.00000000000E+00  0.00000000000E+00  0.50000000000E+03  0.50000000000E+03  0.00000000000E+00 0.  1.
         11   -1    0    0    0    0 -0.00000000000E+00 -0.00000000000E+00 -0.50000000000E+03  0.50000000000E+03  0.00000000000E+00 0. -1.
         23    2    1    2    0    0 -0.27185728316E+03 -0.94479661156E+01  0.38075239737E+03  0.47667147386E+03  0.90816625220E+02 0.  0.
        -11    1    3    3    0    0 -0.86722243936E+02  0.32749288645E+02  0.88580001069E+02  0.12821731587E+03  0.00000000000E+00 0. -1.
         11    1    3    3    0    0 -0.18513503923E+03 -0.42197254760E+02  0.29217239630E+03  0.34845415799E+03  0.00000000000E+00 0.  1.
        -15    1    1    2    0    0  0.15867883477E+03 -0.11032916695E+03 -0.22442998523E+03  0.29618148775E+03  0.17770000000E+01 0.  1.
         15    1    1    2    0    0  0.11317844840E+03  0.11977713307E+03 -0.15632241213E+03  0.22714703839E+03  0.17770000000E+01 0. -1.
</event>
<event>
 8    1  0.7476119E-006  0.5002347E+03  0.7546771E-02  0.9399285E-01
        -11   -1    0    0    0    0  0.00000000000E+00  0.00000000000E+00  0.50000000000E+03  0.50000000000E+03  0.00000000000E+00 0.  1.
         11   -1    0    0    0    0 -0.00000000000E+00 -0.00000000000E+00 -0.50000000000E+03  0.50000000000E+03  0.00000000000E+00 0. -1.
         23    2    1    2    0    0  0.83241219470E+02  0.17703596333E+03 -0.45099323529E+03  0.49976530388E+03  0.89997931924E+02 0.  0.
         23    2    1    2    0    0 -0.83241219470E+02 -0.17703596333E+03  0.45099323529E+03  0.50023469612E+03  0.92569001227E+02 0.  0.
        -11    1    3    3    0    0 -0.11486119505E+02  0.56073766527E+02 -0.81395777995E+02  0.99506135033E+02  0.00000000000E+00 0.  1.
         11    1    3    3    0    0  0.94727338975E+02  0.12096219681E+03 -0.36959745730E+03  0.40025916885E+03  0.00000000000E+00 0. -1.
        -15    1    4    4    0    0  0.69717988015E+01 -0.77295124813E+02  0.21527458482E+03  0.22884371719E+03  0.17770000000E+01 0. -1.
         15    1    4    4    0    0 -0.90213018272E+02 -0.99740838521E+02  0.23571865048E+03  0.27139097893E+03  0.17770000000E+01 0.  1.
</event>
<event>
 8    1  0.7476119E-006  0.5000332E+03  0.7546771E-02  0.9399735E-01
        -11   -1    0    0    0    0  0.00000000000E+00  0.00000000000E+00  0.50000000000E+03  0.50000000000E+03  0.00000000000E+00 0.  1.
         11   -1    0    0    0    0 -0.00000000000E+00 -0.00000000000E+00 -0.50000000000E+03  0.50000000000E+03  0.00000000000E+00 0. -1.
         23    2    1    2    0    0 -0.18988208049E+02 -0.19884229637E+02 -0.49069454074E+03  0.50003323398E+03  0.92174661051E+02 0.  0.
         23    2    1    2    0    0  0.18988208049E+02  0.19884229637E+02  0.49069454074E+03  0.49996676602E+03  0.91813398698E+02 0.  0.
        -11    1    3    3    0    0 -0.17859128201E+02 -0.56044141441E+02 -0.34048482469E+03  0.34552830577E+03  0.00000000000E+00 0. -1.
         11    1    3    3    0    0 -0.11290798476E+01  0.36159911804E+02 -0.15020971605E+03  0.15450492820E+03  0.00000000000E+00 0.  1.
        -15    1    4    4    0    0 -0.80656694296E+01  0.73312120689E+01  0.31173933460E+01  0.11475084489E+02  0.17770000000E+01 0. -1.
         15    1    4    4    0    0  0.27053877479E+02  0.12553017568E+02  0.48757714739E+03  0.48849168153E+03  0.17770000000E+01 0.  1.
</event>
<event>
 8    1  0.7476119E-006  0.5004504E+03  0.7546771E-02  0.9398803E-01
        -11   -1    0    0    0    0  0.00000000000E+00  0.00000000000E+00  0.50000000000E+03  0.50000000000E+03  0.00000000000E+00 0. -1.
         11   -1    0    0    0    0 -0.00000000000E+00 -0.00000000000E+00 -0.50000000000E+03  0.50000000000E+03  0.00000000000E+00 0. -1.
         23    2    1    2    0    0 -0.28823942821E+02  0.99819309598E+01 -0.49058843406E+03  0.50045038665E+03  0.94037860686E+02 0.  0.
         23    2    1    2    0    0  0.28823942821E+02 -0.99819309598E+01  0.49058843406E+03  0.49954961335E+03  0.89119840339E+02 0.  0.
        -11    1    3    3    0    0  0.27804094862E+01 -0.19861352165E+02 -0.21687477743E+02  0.29538968797E+02  0.00000000000E+00 0. -1.
         11    1    3    3    0    0 -0.31604352307E+02  0.29843283125E+02 -0.46890095631E+03  0.47091141785E+03  0.00000000000E+00 0. -1.
        -15    1    4    4    0    0  0.24637644137E+02 -0.36466800522E+02  0.11732661789E+03  0.12532172216E+03  0.17770000000E+01 0.  1.
         15    1    4    4    0    0  0.41862986845E+01  0.26484869562E+02  0.37326181616E+03  0.37422789119E+03  0.17770000000E+01 0. -1.
</event>
<event>
 8    1  0.7476119E-006  0.5000022E+03  0.7546771E-02  0.9399805E-01
        -11   -1    0    0    0    0  0.00000000000E+00  0.00000000000E+00  0.50000000000E+03  0.50000000000E+03  0.00000000000E+00 0. -1.
         11   -1    0    0    0    0 -0.00000000000E+00 -0.00000000000E+00 -0.50000000000E+03  0.50000000000E+03  0.00000000000E+00 0.  1.
         23    2    1    2    0    0  0.12250464196E+03 -0.76303933993E+02  0.47027318248E+03  0.49999776179E+03  0.89505407617E+02 0.  0.
         23    2    1    2    0    0 -0.12250464196E+03  0.76303933993E+02 -0.47027318248E+03  0.50000223821E+03  0.89530410572E+02 0.  0.
        -11    1    3    3    0    0  0.10249445874E+02 -0.33718436451E+02  0.40105605968E+02  0.53389546987E+02  0.00000000000E+00 0.  1.
         11    1    3    3    0    0  0.11225519608E+03 -0.42585497542E+02  0.43016757651E+03  0.44660821480E+03  0.00000000000E+00 0. -1.
        -15    1    4    4    0    0 -0.13293839061E+03  0.61197444715E+02 -0.44672796194E+03  0.47009230226E+03  0.17770000000E+01 0.  1.
         15    1    4    4    0    0  0.10433748659E+02  0.15106489278E+02 -0.23545220536E+02  0.29909935949E+02  0.17770000000E+01 0. -1.
</event>
<event>
 8    1  0.7476119E-006  0.5001603E+03  0.7546771E-02  0.9399451E-01
        -11   -1    0    0    0    0  0.00000000000E+00  0.00000000000E+00  0.50000000000E+03  0.50000000000E+03  0.00000000000E+00 0.  1.
         11   -1    0    0    0    0 -0.00000000000E+00 -0.00000000000E+00 -0.50000000000E+03  0.50000000000E+03  0.00000000000E+00 0. -1.
         23    2    1    2    0    0  0.60635437530E+02  0.14422260074E+03 -0.46617742691E+03  0.50016026676E+03  0.91444432543E+02 0.  0.
         23    2    1    2    0    0 -0.60635437530E+02 -0.14422260074E+03  0.46617742691E+03  0.49983973324E+03  0.89674693847E+02 0.  0.
        -11    1    3    3    0    0 -0.84580149394E+01 -0.30474646934E+01 -0.33783296774E+01  0.96040704486E+01  0.00000000000E+00 0.  1.
         11    1    3    3    0    0  0.69093452470E+02  0.14727006544E+03 -0.46279909723E+03  0.49055619631E+03  0.00000000000E+00 0. -1.
        -15    1    4    4    0    0 -0.47402961153E+01 -0.58938248354E+02  0.29259418852E+03  0.29851416116E+03  0.17770000000E+01 0.  1.
         15    1    4    4    0    0 -0.55895141415E+02 -0.85284352388E+02  0.17358323839E+03  0.20132557208E+03  0.17770000000E+01 0. -1.
</event>
<event>
 8    1  0.7476119E-006  0.5001088E+03  0.7546771E-02  0.9399566E-01
        -11   -1    0    0    0    0  0.00000000000E+00  0.00000000000E+00  0.50000000000E+03  0.50000000000E+03  0.00000000000E+00 0.  1.
         11   -1    0    0    0    0 -0.00000000000E+00 -0.00000000000E+00 -0.50000000000E+03  0.50000000000E+03  0.00000000000E+00 0. -1.
         23    2    1    2    0    0 -0.22099102053E+02 -0.27008601174E+03  0.41010431834E+03  0.49989123045E+03  0.90944303379E+02 0.  0.
         23    2    1    2    0    0  0.22099102053E+02  0.27008601174E+03 -0.41010431834E+03  0.50010876955E+03  0.92132542615E+02 0.  0.
        -11    1    3    3    0    0 -0.53213512666E+02 -0.22399919001E+03  0.32954033695E+03  0.40200018499E+03  0.00000000000E+00 0.  1.
         11    1    3    3    0    0  0.31114410613E+02 -0.46086821730E+02  0.80563981389E+02  0.97891045465E+02  0.00000000000E+00 0. -1.
        -15    1    4    4    0    0  0.26709927299E+02  0.11317948552E+03 -0.10365412441E+03  0.15578944571E+03  0.17770000000E+01 0.  1.
         15    1    4    4    0    0 -0.46108252463E+01  0.15690652622E+03 -0.30645019393E+03  0.34431932384E+03  0.17770000000E+01 0. -1.
</event>
<event>
 8    1  0.7476119E-006  0.5002537E+03  0.7546771E-02  0.9399242E-01
        -11   -1    0    0    0    0  0.00000000000E+00  0.00000000000E+00  0.50000000000E+03  0.50000000000E+03  0.00000000000E+00 0.  1.
         11   -1    0    0    0    0 -0.00000000000E+00 -0.00000000000E+00 -0.50000000000E+03  0.50000000000E+03  0.00000000000E+00 0.  1.
         23    2    1    2    0    0  0.20837188271E+02 -0.23222502828E+01 -0.49109956345E+03  0.50025367213E+03  0.92926713066E+02 0.  0.
         23    2    1    2    0    0 -0.20837188271E+02  0.23222502828E+01  0.49109956345E+03  0.49974632787E+03  0.90155586256E+02 0.  0.
        -11    1    3    3    0    0 -0.30466502184E+02 -0.16578127220E+02 -0.10701176005E+03  0.11249248351E+03  0.00000000000E+00 0.  1.
         11    1    3    3    0    0  0.51303690455E+02  0.14255876937E+02 -0.38408780340E+03  0.38776118863E+03  0.00000000000E+00 0.  1.
        -15    1    4    4    0    0 -0.22331152986E+02 -0.39914029404E+02  0.33114051900E+03  0.33428881404E+03  0.17770000000E+01 0.  1.
         15    1    4    4    0    0  0.14939647149E+01  0.42236279687E+02  0.15995904445E+03  0.16545751383E+03  0.17770000000E+01 0. -1.
</event>
<event>
 8    1  0.7476119E-006  0.5001379E+03  0.7546771E-02  0.9399501E-01
        -11   -1    0    0    0    0  0.00000000000E+00  0.00000000000E+00  0.50000000000E+03  0.50000000000E+03  0.00000000000E+00 0.  1.
         11   -1    0    0    0    0 -0.00000000000E+00 -0.00000000000E+00 -0.50000000000E+03  0.50000000000E+03  0.00000000000E+00 0. -1.
         23    2    1    2    0    0  0.92690627406E+02  0.94416161719E+02  0.47330193763E+03  0.50013788355E+03  0.92828952365E+02 0.  0.
         23    2    1    2    0    0 -0.92690627406E+02 -0.94416161719E+02 -0.47330193763E+03  0.49986211645E+03  0.91331524120E+02 0.  0.
        -11    1    3    3    0    0  0.48248777810E+02  0.95410622705E+01  0.69604738904E+02  0.85227906857E+02  0.00000000000E+00 0.  1.
         11    1    3    3    0    0  0.44441849597E+02  0.84875099449E+02  0.40369719872E+03  0.41490997669E+03  0.00000000000E+00 0. -1.
        -15    1    4    4    0    0 -0.45212016682E+02 -0.17068216903E+02 -0.61826755821E+02  0.78493031188E+02  0.17770000000E+01 0.  1.
         15    1    4    4    0    0 -0.47478610724E+02 -0.77347944816E+02 -0.41147518181E+03  0.42136908526E+03  0.17770000000E+01 0. -1.
</event>
<event>
 8    1  0.7476119E-006  0.5001346E+03  0.7546771E-02  0.9399508E-01
        -11   -1    0    0    0    0  0.00000000000E+00  0.00000000000E+00  0.50000000000E+03  0.50000000000E+03  0.00000000000E+00 0. -1.
         11   -1    0    0    0    0 -0.00000000000E+00 -0.00000000000E+00 -0.50000000000E+03  0.50000000000E+03  0.00000000000E+00 0.  1.
         23    2    1    2    0    0 -0.17520993497E+01  0.19423741318E+02 -0.49183636972E+03  0.49986535057E+03  0.87074695211E+02 0.  0.
         23    2    1    2    0    0  0.17520993497E+01 -0.19423741318E+02  0.49183636972E+03  0.50013464943E+03  0.88607569641E+02 0.  0.
        -11    1    3    3    0    0 -0.22049638874E+01  0.62191916926E+01 -0.48489634100E+03  0.48494123533E+03  0.00000000000E+00 0.  1.
         11    1    3    3    0    0  0.45286453775E+00  0.13204549625E+02 -0.69400287205E+01  0.14924115241E+02  0.00000000000E+00 0. -1.
        -15    1    4    4    0    0 -0.43006648025E+02 -0.15080076512E+02  0.23492386697E+03  0.23931017839E+03  0.17770000000E+01 0.  1.
         15    1    4    4    0    0  0.44758747374E+02 -0.43436648062E+01  0.25691250275E+03  0.26082447104E+03  0.17770000000E+01 0. -1.
</event>
<event>
 8    1  0.7476119E-006  0.5011836E+03  0.7546771E-02  0.9397165E-01
        -11   -1    0    0    0    0  0.00000000000E+00  0.00000000000E+00  0.50000000000E+03  0.50000000000E+03  0.00000000000E+00 0. -1.
         11   -1    0    0    0    0 -0.00000000000E+00 -0.00000000000E+00 -0.50000000000E+03  0.50000000000E+03  0.00000000000E+00 0.  1.
         23    2    1    2    0    0 -0.11206978443E+03  0.67216813627E+02 -0.47365260055E+03  0.50118357413E+03  0.98795001658E+02 0.  0.
         23    2    1    2    0    0  0.11206978443E+03 -0.67216813627E+02  0.47365260055E+03  0.49881642587E+03  0.85984324729E+02 0.  0.
        -11    1    3    3    0    0 -0.54094753846E+02  0.82200370736E+02 -0.35344119096E+03  0.36688393098E+03  0.00000000000E+00 0.  1.
         11    1    3    3    0    0 -0.57975030584E+02 -0.14983557109E+02 -0.12021140959E+03  0.13429964315E+03  0.00000000000E+00 0. -1.
        -15    1    4    4    0    0  0.22959837545E+02 -0.55057715673E+01  0.16187471352E+02  0.28682043484E+02  0.17770000000E+01 0.  1.
         15    1    4    4    0    0  0.89109946885E+02 -0.61711042060E+02  0.45746512920E+03  0.47013438239E+03  0.17770000000E+01 0. -1.
</event>
<event>
 7    1  0.7476119E-006  0.5050871E+03  0.7546771E-02  0.9388498E-01
        -11   -1    0    0    0    0  0.00000000000E+00  0.00000000000E+00  0.50000000000E+03  0.50000000000E+03  0.00000000000E+00 0.  1.
         11   -1    0    0    0    0 -0.00000000000E+00 -0.00000000000E+00 -0.50000000000E+03  0.50000000000E+03  0.00000000000E+00 0.  1.
         23    2    1    2    0    0 -0.92729664578E+02  0.21944192048E+02  0.47573589134E+03  0.49491290687E+03  0.97641224996E+02 0.  0.
        -11    1    1    2    0    0  0.18024536192E+02  0.57234628439E+02 -0.19326807822E+03  0.20236906052E+03  0.00000000000E+00 0.  1.
         11    1    1    2    0    0  0.74705128385E+02 -0.79178820486E+02 -0.28246781312E+03  0.30271803261E+03  0.00000000000E+00 0.  1.
        -15    1    3    3    0    0 -0.77301152738E+02 -0.14999114809E+02  0.41318812352E+03  0.42062813126E+03  0.17770000000E+01 0.  1.
         15    1    3    3    0    0 -0.15428511840E+02  0.36943306857E+02  0.62547767822E+02  0.74284775611E+02  0.17770000000E+01 0. -1.
</event>
<event>
 8    1  0.7476119E-006  0.5003656E+03  0.7546771E-02  0.9398992E-01
        -11   -1    0    0    0    0  0.00000000000E+00  0.00000000000E+00  0.50000000000E+03  0.50000000000E+03  0.00000000000E+00 0.  1.
         11   -1    0    0    0    0 -0.00000000000E+00 -0.00000000000E+00 -0.50000000000E+03  0.50000000000E+03  0.00000000000E+00 0. -1.
         23    2    1    2    0    0 -0.11419352127E+02  0.10638453285E+01 -0.49182901564E+03  0.50036564709E+03  0.91315205720E+02 0.  0.
         23    2    1    2    0    0  0.11419352127E+02 -0.10638453285E+01  0.49182901564E+03  0.49963435291E+03  0.87219106949E+02 0.  0.
        -11    1    3    3    0    0 -0.81822201587E+01  0.74444590899E+01 -0.49299272839E+03  0.49311682079E+03  0.00000000000E+00 0. -1.
         11    1    3    3    0    0 -0.32371319686E+01 -0.63806137614E+01  0.11637127558E+01  0.72488263003E+01  0.00000000000E+00 0.  1.
        -15    1    4    4    0    0  0.36147991636E+02  0.15228119764E+02  0.11265619620E+03  0.11930276276E+03  0.17770000000E+01 0. -1.
         15    1    4    4    0    0 -0.24728639509E+02 -0.16291965092E+02  0.37917281944E+03  0.38033159015E+03  0.17770000000E+01 0.  1.
</event>
<event>
 8    1  0.7476119E-006  0.5014574E+03  0.7546771E-02  0.9396555E-01
        -11   -1    0    0    0    0  0.00000000000E+00  0.00000000000E+00  0.50000000000E+03  0.50000000000E+03  0.00000000000E+00 0. -1.
         11   -1    0    0    0    0 -0.00000000000E+00 -0.00000000000E+00 -0.50000000000E+03  0.50000000000E+03  0.00000000000E+00 0.  1.
         23    2    1    2    0    0 -0.16551938238E+01  0.70324729277E+01 -0.49115972135E+03  0.50145739618E+03  0.10084370563E+03 0.  0.
         23    2    1    2    0    0  0.16551938238E+01 -0.70324729277E+01  0.49115972135E+03  0.49854260382E+03  0.85174295438E+02 0.  0.
        -11    1    3    3    0    0 -0.16138911995E+01  0.29786700924E+02 -0.46814106609E+03  0.46909051360E+03  0.00000000000E+00 0.  1.
         11    1    3    3    0    0 -0.41302624244E-01 -0.22754227997E+02 -0.23018655264E+02  0.32366882578E+02  0.00000000000E+00 0. -1.
        -15    1    4    4    0    0  0.62872574487E+01  0.24597029841E+02  0.48907154787E+02  0.55132667281E+02  0.17770000000E+01 0.  1.
         15    1    4    4    0    0 -0.46320636249E+01 -0.31629502769E+02  0.44225256656E+03  0.44340993654E+03  0.17770000000E+01 0. -1.
</event>
<event>
 8    1  0.7476119E-006  0.5002817E+03  0.7546771E-02  0.9399180E-01
        -11   -1    0    0    0    0  0.00000000000E+00  0.00000000000E+00  0.50000000000E+03  0.50000000000E+03  0.00000000000E+00 0.  1.
         11   -1    0    0    0    0 -0.00000000000E+00 -0.00000000000E+00 -0.50000000000E+03  0.50000000000E+03  0.00000000000E+00 0. -1.
         23    2    1    2    0    0 -0.68557947527E+01 -0.85153416287E+01 -0.49127037425E+03  0.49971834478E+03  0.90842338857E+02 0.  0.
         23    2    1    2    0    0  0.68557947527E+01  0.85153416287E+01  0.49127037425E+03  0.50028165522E+03  0.93891644807E+02 0.  0.
        -11    1    3    3    0    0  0.94410600980E+01  0.22947197661E+02 -0.41364443891E+03  0.41438801785E+03  0.00000000000E+00 0. -1.
         11    1    3    3    0    0 -0.16296854851E+02 -0.31462539290E+02 -0.77625935340E+02  0.85330326930E+02  0.00000000000E+00 0.  1.
        -15    1    4    4    0    0 -0.41419246361E+02  0.18083463412E+02  0.22706860771E+03  0.23152942784E+03  0.17770000000E+01 0.  1.
         15    1    4    4    0    0  0.48275041114E+02 -0.95681217835E+01  0.26420176654E+03  0.26875222738E+03  0.17770000000E+01 0. -1.
</event>
<event>
 8    1  0.7476119E-006  0.5001295E+03  0.7546771E-02  0.9399520E-01
        -11   -1    0    0    0    0  0.00000000000E+00  0.00000000000E+00  0.50000000000E+03  0.50000000000E+03  0.00000000000E+00 0. -1.
         11   -1    0    0    0    0 -0.00000000000E+00 -0.00000000000E+00 -0.50000000000E+03  0.50000000000E+03  0.00000000000E+00 0.  1.
         23    2    1    2    0    0 -0.22640218888E+00  0.25624120963E+02 -0.49096588844E+03  0.50012946150E+03  0.91789584471E+02 0.  0.
         23    2    1    2    0    0  0.22640218888E+00 -0.25624120963E+02  0.49096588844E+03  0.49987053850E+03  0.90368162578E+02 0.  0.
        -11    1    3    3    0    0 -0.22554022282E+02  0.51156593114E+02 -0.38014736216E+03  0.38423651297E+03  0.00000000000E+00 0.  1.
         11    1    3    3    0    0  0.22327620093E+02 -0.25532472151E+02 -0.11081852628E+03  0.11589294854E+03  0.00000000000E+00 0. -1.
        -15    1    4    4    0    0  0.41491777698E+02  0.52365548796E+01  0.19432139365E+03  0.19877864796E+03  0.17770000000E+01 0. -1.
         15    1    4    4    0    0 -0.41265375509E+02 -0.30860675842E+02  0.29664449479E+03  0.30109189054E+03  0.17770000000E+01 0.  1.
</event>
<event>
 8    1  0.7476119E-006  0.5001710E+03  0.7546771E-02  0.9399427E-01
        -11   -1    0    0    0    0  0.00000000000E+00  0.00000000000E+00  0.50000000000E+03  0.50000000000E+03  0.00000000000E+00 0. -1.
         11   -1    0    0    0    0 -0.00000000000E+00 -0.00000000000E+00 -0.50000000000E+03  0.50000000000E+03  0.00000000000E+00 0.  1.
         23    2    1    2    0    0  0.37712146868E+00 -0.74891915921E+01 -0.49167963951E+03  0.50017100383E+03  0.91465485038E+02 0.  0.
         23    2    1    2    0    0 -0.37712146868E+00  0.74891915921E+01  0.49167963951E+03  0.49982899617E+03  0.89576376819E+02 0.  0.
        -11    1    3    3    0    0  0.43994653319E+02 -0.16651875344E+02 -0.23758830227E+03  0.24220036302E+03  0.00000000000E+00 0. -1.
         11    1    3    3    0    0 -0.43617531850E+02  0.91626837523E+01 -0.25409133724E+03  0.25797064081E+03  0.00000000000E+00 0.  1.
        -15    1    4    4    0    0 -0.41662280417E+02 -0.12974369604E+02  0.22709619356E+03  0.23125725661E+03  0.17770000000E+01 0. -1.
         15    1    4    4    0    0  0.41285158949E+02  0.20463561196E+02  0.26458344595E+03  0.26857173956E+03  0.17770000000E+01 0.  1.
</event>
<event>
 8    1  0.7476119E-006  0.5003033E+03  0.7546771E-02  0.9399131E-01
        -11   -1    0    0    0    0  0.00000000000E+00  0.00000000000E+00  0.50000000000E+03  0.50000000000E+03  0.00000000000E+00 0.  1.
         11   -1    0    0    0    0 -0.00000000000E+00 -0.00000000000E+00 -0.50000000000E+03  0.50000000000E+03  0.00000000000E+00 0. -1.
         23    2    1    2    0    0  0.15610809346E+03  0.28677222061E+03  0.36753098622E+03  0.50030330085E+03  0.92824154462E+02 0.  0.
         23    2    1    2    0    0 -0.15610809346E+03 -0.28677222061E+03 -0.36753098622E+03  0.49969669915E+03  0.89497049944E+02 0.  0.
        -11    1    3    3    0    0  0.16655068923E+02  0.35013940252E+02  0.10043274303E+03  0.10765734162E+03  0.00000000000E+00 0. -1.
         11    1    3    3    0    0  0.13945302454E+03  0.25175828036E+03  0.26709824319E+03  0.39264595923E+03  0.00000000000E+00 0.  1.
        -15    1    4    4    0    0 -0.35160441181E+02 -0.10201305273E+02 -0.37650616762E+02  0.52545693685E+02  0.17770000000E+01 0.  1.
         15    1    4    4    0    0 -0.12094765228E+03 -0.27657091534E+03 -0.32988036946E+03  0.44715100546E+03  0.17770000000E+01 0. -1.
</event>
<event>
 8    1  0.7476119E-006  0.5000356E+03  0.7546771E-02  0.9399730E-01
        -11   -1    0    0    0    0  0.00000000000E+00  0.00000000000E+00  0.50000000000E+03  0.50000000000E+03  0.00000000000E+00 0.  1.
         11   -1    0    0    0    0 -0.00000000000E+00 -0.00000000000E+00 -0.50000000000E+03  0.50000000000E+03  0.00000000000E+00 0. -1.
         23    2    1    2    0    0  0.46722869183E+02  0.44083955416E+02  0.48758296210E+03  0.50003559126E+03  0.90399258630E+02 0.  0.
         23    2    1    2    0    0 -0.46722869183E+02 -0.44083955416E+02 -0.48758296210E+03  0.49996440874E+03  0.90004685709E+02 0.  0.
        -11    1    3    3    0    0  0.63796806691E+02  0.18825042197E+00  0.27905317773E+03  0.28625293708E+03  0.00000000000E+00 0.  1.
         11    1    3    3    0    0 -0.17073937508E+02  0.43895704994E+02  0.20852978437E+03  0.21378265418E+03  0.00000000000E+00 0. -1.
        -15    1    4    4    0    0  0.13236626543E+02 -0.33271154504E+02 -0.77677297422E+02  0.85551728610E+02  0.17770000000E+01 0.  1.
         15    1    4    4    0    0 -0.59959495726E+02 -0.10812800912E+02 -0.40990566468E+03  0.41441268013E+03  0.17770000000E+01 0. -1.
</event>
