<event>
 8    1  0.1807540E-005  0.1826411E+03  0.7546771E-02  0.1068343E+00
        -11   -1    0    0    0    0  0.00000000000E+00  0.00000000000E+00  0.18250000000E+03  0.18250000000E+03  0.00000000000E+00 0. -1.
         11   -1    0    0    0    0 -0.00000000000E+00 -0.00000000000E+00 -0.18250000000E+03  0.18250000000E+03  0.00000000000E+00 0.  1.
         23    2    1    2    0    0  0.46689529513E+02  0.83914650622E+01 -0.15040127442E+03  0.18264113165E+03  0.92124430901E+02 0.  0.
         23    2    1    2    0    0 -0.46689529513E+02 -0.83914650622E+01  0.15040127442E+03  0.18235886835E+03  0.91563555348E+02 0.  0.
        -11    1    3    3    0    0  0.25548972351E+02 -0.22648141835E+02 -0.75915680061E+01  0.34975994934E+02  0.00000000000E+00 0. -1.
         11    1    3    3    0    0  0.21140557162E+02  0.31039606898E+02 -0.14280970642E+03  0.14766513671E+03  0.00000000000E+00 0.  1.
        -15    1    4    4    0    0 -0.69158651359E+00  0.37767397059E+02  0.59462205119E+02  0.70468192393E+02  0.17770000000E+01 0.  1.
         15    1    4    4    0    0 -0.45997943000E+02 -0.46158862121E+02  0.90939069303E+02  0.11189067596E+03  0.17770000000E+01 0. -1.
</event>
<event>
 8    1  0.1807540E-005  0.1825325E+03  0.7546771E-02  0.1068429E+00
        -11   -1    0    0    0    0  0.00000000000E+00  0.00000000000E+00  0.18250000000E+03  0.18250000000E+03  0.00000000000E+00 0.  1.
         11   -1    0    0    0    0 -0.00000000000E+00 -0.00000000000E+00 -0.18250000000E+03  0.18250000000E+03  0.00000000000E+00 0. -1.
         23    2    1    2    0    0 -0.21333677857E+02  0.10732452851E+02  0.15625522127E+03  0.18253251526E+03  0.91280411916E+02 0.  0.
         23    2    1    2    0    0  0.21333677857E+02 -0.10732452851E+02 -0.15625522127E+03  0.18246748474E+03  0.91150301476E+02 0.  0.
        -11    1    3    3    0    0  0.18765642745E+02  0.36755494984E+02  0.10305140299E+03  0.11100769081E+03  0.00000000000E+00 0.  1.
         11    1    3    3    0    0 -0.40099320602E+02 -0.26023042132E+02  0.53203818273E+02  0.71524824455E+02  0.00000000000E+00 0. -1.
        -15    1    4    4    0    0  0.21689428282E+02 -0.46222794115E+02 -0.12538870338E+03  0.13539742486E+03  0.17770000000E+01 0. -1.
         15    1    4    4    0    0 -0.35575042433E+00  0.35490341264E+02 -0.30866517883E+02  0.47070059875E+02  0.17770000000E+01 0.  1.
</event>
<event>
 8    1  0.1807540E-005  0.1826911E+03  0.7546771E-02  0.1068303E+00
        -11   -1    0    0    0    0  0.00000000000E+00  0.00000000000E+00  0.18250000000E+03  0.18250000000E+03  0.00000000000E+00 0.  1.
         11   -1    0    0    0    0 -0.00000000000E+00 -0.00000000000E+00 -0.18250000000E+03  0.18250000000E+03  0.00000000000E+00 0. -1.
         23    2    1    2    0    0 -0.87978381690E+02 -0.31777630936E+02 -0.12754902310E+03  0.18269113055E+03  0.91418173327E+02 0.  0.
         23    2    1    2    0    0  0.87978381690E+02  0.31777630936E+02  0.12754902310E+03  0.18230886945E+03  0.90651845620E+02 0.  0.
        -11    1    3    3    0    0 -0.25962291593E+02 -0.52256107329E+02 -0.90281608325E+02  0.10749655873E+03  0.00000000000E+00 0. -1.
         11    1    3    3    0    0 -0.62016090097E+02  0.20478476393E+02 -0.37267414775E+02  0.75194571814E+02  0.00000000000E+00 0.  1.
        -15    1    4    4    0    0  0.74184902319E+01  0.58689770177E+00 -0.14298419549E+02  0.16216688220E+02  0.17770000000E+01 0. -1.
         15    1    4    4    0    0  0.80559891458E+02  0.31190733234E+02  0.14184744265E+03  0.16609218123E+03  0.17770000000E+01 0.  1.
</event>
<event>
 8    1  0.1807540E-005  0.1832448E+03  0.7546771E-02  0.1067864E+00
        -11   -1    0    0    0    0  0.00000000000E+00  0.00000000000E+00  0.18250000000E+03  0.18250000000E+03  0.00000000000E+00 0.  1.
         11   -1    0    0    0    0 -0.00000000000E+00 -0.00000000000E+00 -0.18250000000E+03  0.18250000000E+03  0.00000000000E+00 0. -1.
         23    2    1    2    0    0 -0.92388909667E+02  0.12729699535E+03 -0.51030913121E+01  0.18175523529E+03  0.90932328470E+02 0.  0.
         23    2    1    2    0    0  0.92388909667E+02 -0.12729699535E+03  0.51030913121E+01  0.18324476471E+03  0.93874206239E+02 0.  0.
        -11    1    3    3    0    0 -0.57945293134E+02  0.13452136085E+03 -0.51753909885E+01  0.14656206260E+03  0.00000000000E+00 0. -1.
         11    1    3    3    0    0 -0.34443616533E+02 -0.72243655038E+01  0.72299676430E-01  0.35193172691E+02  0.00000000000E+00 0.  1.
        -15    1    4    4    0    0  0.17235617315E+01  0.10069900752E+02 -0.14128396205E+02  0.17525492134E+02  0.17770000000E+01 0. -1.
         15    1    4    4    0    0  0.90665347936E+02 -0.13736689610E+03  0.19231487517E+02  0.16571927257E+03  0.17770000000E+01 0.  1.
</event>
<event>
 8    1  0.1807540E-005  0.1827456E+03  0.7546771E-02  0.1068259E+00
        -11   -1    0    0    0    0  0.00000000000E+00  0.00000000000E+00  0.18250000000E+03  0.18250000000E+03  0.00000000000E+00 0.  1.
         11   -1    0    0    0    0 -0.00000000000E+00 -0.00000000000E+00 -0.18250000000E+03  0.18250000000E+03  0.00000000000E+00 0. -1.
         23    2    1    2    0    0 -0.11449034414E+02 -0.19157755616E+02 -0.15627494345E+03  0.18225438731E+03  0.91086243488E+02 0.  0.
         23    2    1    2    0    0  0.11449034414E+02  0.19157755616E+02  0.15627494345E+03  0.18274561269E+03  0.92065199826E+02 0.  0.
        -11    1    3    3    0    0  0.25808450916E+02 -0.28751889115E+02 -0.26383501160E+02  0.46785001868E+02  0.00000000000E+00 0.  1.
         11    1    3    3    0    0 -0.37257485329E+02  0.95941334996E+01 -0.12989144229E+03  0.13546938544E+03  0.00000000000E+00 0. -1.
        -15    1    4    4    0    0 -0.40526062270E+02  0.10909569750E+02  0.72845817035E+02  0.84089542892E+02  0.17770000000E+01 0.  1.
         15    1    4    4    0    0  0.51975096683E+02  0.82481858650E+01  0.83429126415E+02  0.98656069802E+02  0.17770000000E+01 0. -1.
</event>
<event>
 8    1  0.1807540E-005  0.1844297E+03  0.7546771E-02  0.1066929E+00
        -11   -1    0    0    0    0  0.00000000000E+00  0.00000000000E+00  0.18250000000E+03  0.18250000000E+03  0.00000000000E+00 0.  1.
         11   -1    0    0    0    0 -0.00000000000E+00 -0.00000000000E+00 -0.18250000000E+03  0.18250000000E+03  0.00000000000E+00 0. -1.
         23    2    1    2    0    0  0.42223841232E+02 -0.78507675458E+02 -0.12845023791E+03  0.18442967857E+03  0.97818887966E+02 0.  0.
         23    2    1    2    0    0 -0.42223841232E+02  0.78507675458E+02  0.12845023791E+03  0.18057032143E+03  0.90331995925E+02 0.  0.
        -11    1    3    3    0    0  0.55514129756E+02 -0.18039635221E+02 -0.24216412708E+02  0.63195582803E+02  0.00000000000E+00 0.  1.
         11    1    3    3    0    0 -0.13290288524E+02 -0.60468040238E+02 -0.10423382520E+03  0.12123409577E+03  0.00000000000E+00 0. -1.
        -15    1    4    4    0    0  0.99351672192E+01 -0.15840356371E+02  0.14802086116E+02  0.23914094589E+02  0.17770000000E+01 0. -1.
         15    1    4    4    0    0 -0.52159008451E+02  0.94348031829E+02  0.11364815180E+03  0.15665622684E+03  0.17770000000E+01 0.  1.
</event>
<event>
 8    1  0.1807540E-005  0.1826693E+03  0.7546771E-02  0.1068320E+00
        -11   -1    0    0    0    0  0.00000000000E+00  0.00000000000E+00  0.18250000000E+03  0.18250000000E+03  0.00000000000E+00 0.  1.
         11   -1    0    0    0    0 -0.00000000000E+00 -0.00000000000E+00 -0.18250000000E+03  0.18250000000E+03  0.00000000000E+00 0. -1.
         23    2    1    2    0    0 -0.23365857966E+02  0.28590292771E+02 -0.15382866460E+03  0.18266929954E+03  0.91331521305E+02 0.  0.
         23    2    1    2    0    0  0.23365857966E+02 -0.28590292771E+02  0.15382866460E+03  0.18233070046E+03  0.90652402724E+02 0.  0.
        -11    1    3    3    0    0 -0.19987435036E+02  0.61804772015E+02 -0.96427689239E+02  0.11626532869E+03  0.00000000000E+00 0. -1.
         11    1    3    3    0    0 -0.33784229307E+01 -0.33214479244E+02 -0.57400975356E+02  0.66403970851E+02  0.00000000000E+00 0.  1.
        -15    1    4    4    0    0 -0.23158245286E+02 -0.39166904938E+02  0.10288317159E+03  0.11250980176E+03  0.17770000000E+01 0. -1.
         15    1    4    4    0    0  0.46524103253E+02  0.10576612166E+02  0.50945493007E+02  0.69820898698E+02  0.17770000000E+01 0.  1.
</event>
<event>
 8    1  0.1807540E-005  0.1829441E+03  0.7546771E-02  0.1068102E+00
        -11   -1    0    0    0    0  0.00000000000E+00  0.00000000000E+00  0.18250000000E+03  0.18250000000E+03  0.00000000000E+00 0.  1.
         11   -1    0    0    0    0 -0.00000000000E+00 -0.00000000000E+00 -0.18250000000E+03  0.18250000000E+03  0.00000000000E+00 0. -1.
         23    2    1    2    0    0  0.11517433989E+03 -0.84541827458E+02 -0.66200135872E+02  0.18294411835E+03  0.93132396558E+02 0.  0.
         23    2    1    2    0    0 -0.11517433989E+03  0.84541827458E+02  0.66200135872E+02  0.18205588165E+03  0.91375253184E+02 0.  0.
        -11    1    3    3    0    0 -0.25891175104E+01 -0.15496405009E+02 -0.41289930557E+02  0.44178054089E+02  0.00000000000E+00 0.  1.
         11    1    3    3    0    0  0.11776345741E+03 -0.69045422449E+02 -0.24910205315E+02  0.13876606426E+03  0.00000000000E+00 0. -1.
        -15    1    4    4    0    0  0.14333029651E+02  0.20038390038E+02  0.65878581069E+01  0.25564240996E+02  0.17770000000E+01 0. -1.
         15    1    4    4    0    0 -0.12950736955E+03  0.64503437420E+02  0.59612277765E+02  0.15649164066E+03  0.17770000000E+01 0.  1.
</event>
<event>
 8    1  0.1807540E-005  0.1830385E+03  0.7546771E-02  0.1068027E+00
        -11   -1    0    0    0    0  0.00000000000E+00  0.00000000000E+00  0.18250000000E+03  0.18250000000E+03  0.00000000000E+00 0.  1.
         11   -1    0    0    0    0 -0.00000000000E+00 -0.00000000000E+00 -0.18250000000E+03  0.18250000000E+03  0.00000000000E+00 0. -1.
         23    2    1    2    0    0 -0.12808941840E+03 -0.73357286638E+02  0.51324805354E+02  0.18303845867E+03  0.95292450380E+02 0.  0.
         23    2    1    2    0    0  0.12808941840E+03  0.73357286638E+02 -0.51324805354E+02  0.18196154133E+03  0.93207168540E+02 0.  0.
        -11    1    3    3    0    0 -0.31326432067E+02 -0.72028600826E+02  0.28967880816E+02  0.83717398443E+02  0.00000000000E+00 0.  1.
         11    1    3    3    0    0 -0.96762986336E+02 -0.13286858119E+01  0.22356924538E+02  0.99321060232E+02  0.00000000000E+00 0. -1.
        -15    1    4    4    0    0  0.14672439920E+02 -0.63240615895E+01  0.20328713718E+02  0.25916955427E+02  0.17770000000E+01 0.  1.
         15    1    4    4    0    0  0.11341697848E+03  0.79681348228E+02 -0.71653519072E+02  0.15604458590E+03  0.17770000000E+01 0. -1.
</event>
<event>
 8    1  0.1807540E-005  0.1825946E+03  0.7546771E-02  0.1068380E+00
        -11   -1    0    0    0    0  0.00000000000E+00  0.00000000000E+00  0.18250000000E+03  0.18250000000E+03  0.00000000000E+00 0.  1.
         11   -1    0    0    0    0 -0.00000000000E+00 -0.00000000000E+00 -0.18250000000E+03  0.18250000000E+03  0.00000000000E+00 0. -1.
         23    2    1    2    0    0 -0.40143308005E+02 -0.71940378980E+02 -0.13480956987E+03  0.18240543891E+03  0.91165896646E+02 0.  0.
         23    2    1    2    0    0  0.40143308005E+02  0.71940378980E+02  0.13480956987E+03  0.18259456109E+03  0.91543707085E+02 0.  0.
        -11    1    3    3    0    0 -0.45346397666E+02 -0.99399971795E+01 -0.10199766298E+03  0.11206526036E+03  0.00000000000E+00 0. -1.
         11    1    3    3    0    0  0.52030896615E+01 -0.62000381800E+02 -0.32811906884E+02  0.70340178552E+02  0.00000000000E+00 0.  1.
        -15    1    4    4    0    0  0.51225052992E+02  0.58156463712E+02  0.14327837556E+03  0.16290497524E+03  0.17770000000E+01 0.  1.
         15    1    4    4    0    0 -0.11081744987E+02  0.13783915268E+02 -0.84688056947E+01  0.19689585850E+02  0.17770000000E+01 0. -1.
</event>
<event>
 7    1  0.1807540E-005  0.2017603E+03  0.7546771E-02  0.1054080E+00
        -11   -1    0    0    0    0  0.00000000000E+00  0.00000000000E+00  0.18250000000E+03  0.18250000000E+03  0.00000000000E+00 0.  1.
         11   -1    0    0    0    0 -0.00000000000E+00 -0.00000000000E+00 -0.18250000000E+03  0.18250000000E+03  0.00000000000E+00 0.  1.
         23    2    1    2    0    0  0.75243114197E+02  0.66702211574E+02 -0.90019231713E+02  0.16323970971E+03  0.91831527737E+02 0.  0.
        -11    1    3    3    0    0 -0.84468567212E+01  0.73373603888E+01  0.13466997311E+02  0.17508462598E+02  0.00000000000E+00 0.  1.
         11    1    3    3    0    0  0.83689970918E+02  0.59364851186E+02 -0.10348622902E+03  0.14573124712E+03  0.00000000000E+00 0.  1.
        -15    1    1    2    0    0 -0.67197167356E+02 -0.35646705766E+02  0.12990211093E+03  0.15054521941E+03  0.17770000000E+01 0.  1.
         15    1    1    2    0    0 -0.80459468405E+01 -0.31055505808E+02 -0.39882879218E+02  0.51215070880E+02  0.17770000000E+01 0. -1.
</event>
<event>
 8    1  0.1807540E-005  0.1826136E+03  0.7546771E-02  0.1068364E+00
        -11   -1    0    0    0    0  0.00000000000E+00  0.00000000000E+00  0.18250000000E+03  0.18250000000E+03  0.00000000000E+00 0.  1.
         11   -1    0    0    0    0 -0.00000000000E+00 -0.00000000000E+00 -0.18250000000E+03  0.18250000000E+03  0.00000000000E+00 0. -1.
         23    2    1    2    0    0 -0.74457438043E+02 -0.64508494578E+02 -0.12527173972E+03  0.18261359162E+03  0.89159739350E+02 0.  0.
         23    2    1    2    0    0  0.74457438043E+02  0.64508494578E+02  0.12527173972E+03  0.18238640838E+03  0.88693501657E+02 0.  0.
        -11    1    3    3    0    0  0.23327133818E+01 -0.34398648165E+02 -0.23168937293E+01  0.34555412657E+02  0.00000000000E+00 0.  1.
         11    1    3    3    0    0 -0.76790151425E+02 -0.30109846413E+02 -0.12295484599E+03  0.14805817897E+03  0.00000000000E+00 0. -1.
        -15    1    4    4    0    0  0.66138297061E+02  0.62690836194E+02  0.13894985469E+03  0.16617651798E+03  0.17770000000E+01 0.  1.
         15    1    4    4    0    0  0.83191409827E+01  0.18176583835E+01 -0.13678114968E+02  0.16209890400E+02  0.17770000000E+01 0. -1.
</event>
<event>
 8    1  0.1807540E-005  0.1828505E+03  0.7546771E-02  0.1068176E+00
        -11   -1    0    0    0    0  0.00000000000E+00  0.00000000000E+00  0.18250000000E+03  0.18250000000E+03  0.00000000000E+00 0.  1.
         11   -1    0    0    0    0 -0.00000000000E+00 -0.00000000000E+00 -0.18250000000E+03  0.18250000000E+03  0.00000000000E+00 0. -1.
         23    2    1    2    0    0 -0.68624355978E+02  0.31052976716E+02 -0.13865713240E+03  0.18214950726E+03  0.90989301752E+02 0.  0.
         23    2    1    2    0    0  0.68624355978E+02 -0.31052976716E+02  0.13865713240E+03  0.18285049274E+03  0.92384591431E+02 0.  0.
        -11    1    3    3    0    0 -0.74709742176E+02  0.19449129701E+02 -0.14740339012E+03  0.16639583420E+03  0.00000000000E+00 0. -1.
         11    1    3    3    0    0  0.60853861988E+01  0.11603847016E+02  0.87462577164E+01  0.15753673057E+02  0.00000000000E+00 0.  1.
        -15    1    4    4    0    0  0.84543039692E+02 -0.22007785383E+02  0.13930821802E+03  0.16444392818E+03  0.17770000000E+01 0.  1.
         15    1    4    4    0    0 -0.15918683714E+02 -0.90451913331E+01 -0.65108562182E+00  0.18406564561E+02  0.17770000000E+01 0. -1.
</event>
<event>
 8    1  0.1807540E-005  0.1831777E+03  0.7546771E-02  0.1067917E+00
        -11   -1    0    0    0    0  0.00000000000E+00  0.00000000000E+00  0.18250000000E+03  0.18250000000E+03  0.00000000000E+00 0.  1.
         11   -1    0    0    0    0 -0.00000000000E+00 -0.00000000000E+00 -0.18250000000E+03  0.18250000000E+03  0.00000000000E+00 0. -1.
         23    2    1    2    0    0  0.14201411212E+03  0.11585359518E+02 -0.68652370520E+02  0.18317765134E+03  0.92404953193E+02 0.  0.
         23    2    1    2    0    0 -0.14201411212E+03 -0.11585359518E+02  0.68652370520E+02  0.18182234866E+03  0.89688292977E+02 0.  0.
        -11    1    3    3    0    0  0.85961763513E+01 -0.23506762277E+02  0.67996414176E+01  0.25936407693E+02  0.00000000000E+00 0.  1.
         11    1    3    3    0    0  0.13341793577E+03  0.35092121796E+02 -0.75452011938E+02  0.15724124365E+03  0.00000000000E+00 0. -1.
        -15    1    4    4    0    0 -0.14487451590E+03 -0.57045388425E+00  0.80124418946E+02  0.16556579060E+03  0.17770000000E+01 0.  1.
         15    1    4    4    0    0  0.28604037813E+01 -0.11014905634E+02 -0.11472048426E+02  0.16256558062E+02  0.17770000000E+01 0. -1.
</event>
<event>
 8    1  0.1807540E-005  0.1853920E+03  0.7546771E-02  0.1066176E+00
        -11   -1    0    0    0    0  0.00000000000E+00  0.00000000000E+00  0.18250000000E+03  0.18250000000E+03  0.00000000000E+00 0. -1.
         11   -1    0    0    0    0 -0.00000000000E+00 -0.00000000000E+00 -0.18250000000E+03  0.18250000000E+03  0.00000000000E+00 0.  1.
         23    2    1    2    0    0  0.89620142495E+02  0.39209423907E+02  0.11571830357E+03  0.17960802082E+03  0.96432186012E+02 0.  0.
         23    2    1    2    0    0 -0.89620142495E+02 -0.39209423907E+02 -0.11571830357E+03  0.18539197918E+03  0.10681905869E+03 0.  0.
        -11    1    3    3    0    0 -0.20442110553E+02  0.16224074952E+01  0.11904976879E+02  0.23711612438E+02  0.00000000000E+00 0.  1.
         11    1    3    3    0    0  0.11006225305E+03  0.37587016411E+02  0.10381332669E+03  0.15589640838E+03  0.00000000000E+00 0. -1.
        -15    1    4    4    0    0 -0.57110806240E+02 -0.43458437363E+02 -0.73546270475E+01  0.72163205551E+02  0.17770000000E+01 0. -1.
         15    1    4    4    0    0 -0.32509336255E+02  0.42490134562E+01 -0.10836367652E+03  0.11322877363E+03  0.17770000000E+01 0.  1.
</event>
<event>
 8    1  0.1807540E-005  0.1831580E+03  0.7546771E-02  0.1067932E+00
        -11   -1    0    0    0    0  0.00000000000E+00  0.00000000000E+00  0.18250000000E+03  0.18250000000E+03  0.00000000000E+00 0.  1.
         11   -1    0    0    0    0 -0.00000000000E+00 -0.00000000000E+00 -0.18250000000E+03  0.18250000000E+03  0.00000000000E+00 0. -1.
         23    2    1    2    0    0  0.82740990149E+02  0.29224882181E+02 -0.13109685859E+03  0.18184203641E+03  0.90443212478E+02 0.  0.
         23    2    1    2    0    0 -0.82740990149E+02 -0.29224882181E+02  0.13109685859E+03  0.18315796359E+03  0.93060668952E+02 0.  0.
        -11    1    3    3    0    0  0.97132125272E+02  0.22122959841E+02 -0.13245569185E+03  0.16573649392E+03  0.00000000000E+00 0. -1.
         11    1    3    3    0    0 -0.14391135123E+02  0.71019223407E+01  0.13588332621E+01  0.16105542490E+02  0.00000000000E+00 0.  1.
        -15    1    4    4    0    0 -0.56928783043E+02  0.11844777055E+02  0.12001121733E+03  0.13336804376E+03  0.17770000000E+01 0.  1.
         15    1    4    4    0    0 -0.25812207106E+02 -0.41069659237E+02  0.11085641255E+02  0.49789919828E+02  0.17770000000E+01 0. -1.
</event>
<event>
 8    1  0.1807540E-005  0.1827201E+03  0.7546771E-02  0.1068280E+00
        -11   -1    0    0    0    0  0.00000000000E+00  0.00000000000E+00  0.18250000000E+03  0.18250000000E+03  0.00000000000E+00 0. -1.
         11   -1    0    0    0    0 -0.00000000000E+00 -0.00000000000E+00 -0.18250000000E+03  0.18250000000E+03  0.00000000000E+00 0.  1.
         23    2    1    2    0    0 -0.45053779150E+02 -0.24026434687E+02 -0.14975861323E+03  0.18272014471E+03  0.91388710818E+02 0.  0.
         23    2    1    2    0    0  0.45053779150E+02  0.24026434687E+02  0.14975861323E+03  0.18227985529E+03  0.90505197807E+02 0.  0.
        -11    1    3    3    0    0 -0.24862808481E+02 -0.41887325575E+02 -0.24370032512E+02  0.54466556473E+02  0.00000000000E+00 0.  1.
         11    1    3    3    0    0 -0.20190970669E+02  0.17860890888E+02 -0.12538858072E+03  0.12825358823E+03  0.00000000000E+00 0. -1.
        -15    1    4    4    0    0  0.13616792576E+02  0.17071260693E+02  0.14839632809E+03  0.15000490959E+03  0.17770000000E+01 0. -1.
         15    1    4    4    0    0  0.31436986574E+02  0.69551739939E+01  0.13622851368E+01  0.32274945700E+02  0.17770000000E+01 0.  1.
</event>
<event>
 8    1  0.1807540E-005  0.1830696E+03  0.7546771E-02  0.1068002E+00
        -11   -1    0    0    0    0  0.00000000000E+00  0.00000000000E+00  0.18250000000E+03  0.18250000000E+03  0.00000000000E+00 0. -1.
         11   -1    0    0    0    0 -0.00000000000E+00 -0.00000000000E+00 -0.18250000000E+03  0.18250000000E+03  0.00000000000E+00 0.  1.
         23    2    1    2    0    0 -0.77555577078E+02  0.16616164106E+02  0.13646997311E+03  0.18193037865E+03  0.90463499105E+02 0.  0.
         23    2    1    2    0    0  0.77555577078E+02 -0.16616164106E+02 -0.13646997311E+03  0.18306962135E+03  0.92733317923E+02 0.  0.
        -11    1    3    3    0    0  0.17271350796E+02 -0.99968940549E+01  0.12300216336E+02  0.23442115326E+02  0.00000000000E+00 0.  1.
         11    1    3    3    0    0 -0.94826927874E+02  0.26613058161E+02  0.12416975678E+03  0.15848826333E+03  0.00000000000E+00 0. -1.
        -15    1    4    4    0    0  0.78191263887E+02 -0.46938880635E+02 -0.95482297114E+02  0.13204983550E+03  0.17770000000E+01 0.  1.
         15    1    4    4    0    0 -0.63568680877E+00  0.30322716529E+02 -0.40987675998E+02  0.51019785850E+02  0.17770000000E+01 0. -1.
</event>
<event>
 8    1  0.1807540E-005  0.1835212E+03  0.7546771E-02  0.1067645E+00
        -11   -1    0    0    0    0  0.00000000000E+00  0.00000000000E+00  0.18250000000E+03  0.18250000000E+03  0.00000000000E+00 0. -1.
         11   -1    0    0    0    0 -0.00000000000E+00 -0.00000000000E+00 -0.18250000000E+03  0.18250000000E+03  0.00000000000E+00 0.  1.
         23    2    1    2    0    0 -0.13449919047E+03 -0.83530137804E+02 -0.16550175117E+02  0.18352117123E+03  0.91317007361E+02 0.  0.
         23    2    1    2    0    0  0.13449919047E+03  0.83530137804E+02  0.16550175117E+02  0.18147882877E+03  0.87139777572E+02 0.  0.
        -11    1    3    3    0    0 -0.40364157821E+02 -0.11817756769E+02 -0.45223344908E+02  0.61758202178E+02  0.00000000000E+00 0.  1.
         11    1    3    3    0    0 -0.94135032653E+02 -0.71712381035E+02  0.28673169791E+02  0.12176296905E+03  0.00000000000E+00 0. -1.
        -15    1    4    4    0    0  0.13965440945E+03  0.75775350646E+02  0.33191106730E+02  0.16232703145E+03  0.17770000000E+01 0.  1.
         15    1    4    4    0    0 -0.51552189772E+01  0.77547871579E+01 -0.16640931613E+02  0.19151797318E+02  0.17770000000E+01 0. -1.
</event>
<event>
 8    1  0.1807540E-005  0.1832194E+03  0.7546771E-02  0.1067884E+00
        -11   -1    0    0    0    0  0.00000000000E+00  0.00000000000E+00  0.18250000000E+03  0.18250000000E+03  0.00000000000E+00 0.  1.
         11   -1    0    0    0    0 -0.00000000000E+00 -0.00000000000E+00 -0.18250000000E+03  0.18250000000E+03  0.00000000000E+00 0. -1.
         23    2    1    2    0    0  0.74038794908E+01  0.21121383976E+01 -0.15735894036E+03  0.18178056346E+03  0.90681081711E+02 0.  0.
         23    2    1    2    0    0 -0.74038794908E+01 -0.21121383976E+01  0.15735894036E+03  0.18321943654E+03  0.93532065392E+02 0.  0.
        -11    1    3    3    0    0  0.12068648753E+02 -0.13826868255E+02 -0.16315999175E+03  0.16418896880E+03  0.00000000000E+00 0. -1.
         11    1    3    3    0    0 -0.46647692621E+01  0.15939006652E+02  0.58010513908E+01  0.17591594657E+02  0.00000000000E+00 0.  1.
        -15    1    4    4    0    0 -0.39604330298E+02 -0.22107461127E+02  0.12621740172E+03  0.13413140214E+03  0.17770000000E+01 0.  1.
         15    1    4    4    0    0  0.32200450807E+02  0.19995322730E+02  0.31141538641E+02  0.49088034399E+02  0.17770000000E+01 0. -1.
</event>
<event>
 8    1  0.1807540E-005  0.1830127E+03  0.7546771E-02  0.1068047E+00
        -11   -1    0    0    0    0  0.00000000000E+00  0.00000000000E+00  0.18250000000E+03  0.18250000000E+03  0.00000000000E+00 0.  1.
         11   -1    0    0    0    0 -0.00000000000E+00 -0.00000000000E+00 -0.18250000000E+03  0.18250000000E+03  0.00000000000E+00 0. -1.
         23    2    1    2    0    0  0.14830527729E+03  0.10719381799E+01  0.59729168350E+02  0.18198731293E+03  0.86926429763E+02 0.  0.
         23    2    1    2    0    0 -0.14830527729E+03 -0.10719381799E+01 -0.59729168350E+02  0.18301268707E+03  0.89053162523E+02 0.  0.
        -11    1    3    3    0    0  0.89399583046E+02  0.20182185585E+02  0.74745700883E+02  0.11826464334E+03  0.00000000000E+00 0.  1.
         11    1    3    3    0    0  0.58905694241E+02 -0.19110247405E+02 -0.15016532532E+02  0.63722669586E+02  0.00000000000E+00 0. -1.
        -15    1    4    4    0    0 -0.75824268972E+02  0.42823221263E+02 -0.19793620030E+02  0.89320172231E+02  0.17770000000E+01 0.  1.
         15    1    4    4    0    0 -0.72481008315E+02 -0.43895159443E+02 -0.39935548320E+02  0.93692514843E+02  0.17770000000E+01 0. -1.
</event>
<event>
 8    1  0.1807540E-005  0.1861506E+03  0.7546771E-02  0.1065586E+00
        -11   -1    0    0    0    0  0.00000000000E+00  0.00000000000E+00  0.18250000000E+03  0.18250000000E+03  0.00000000000E+00 0. -1.
         11   -1    0    0    0    0 -0.00000000000E+00 -0.00000000000E+00 -0.18250000000E+03  0.18250000000E+03  0.00000000000E+00 0.  1.
         23    2    1    2    0    0  0.13884553550E+03 -0.65312285544E+02 -0.19434005837E+02  0.17884940309E+03  0.89808969648E+02 0.  0.
         23    2    1    2    0    0 -0.13884553550E+03  0.65312285544E+02  0.19434005837E+02  0.18615059691E+03  0.10358854558E+03 0.  0.
        -11    1    3    3    0    0  0.79744763291E+02 -0.31682167943E+02 -0.55188353159E+02  0.10202323932E+03  0.00000000000E+00 0.  1.
         11    1    3    3    0    0  0.59100772213E+02 -0.33630117601E+02  0.35754347322E+02  0.76826163762E+02  0.00000000000E+00 0. -1.
        -15    1    4    4    0    0 -0.14045402789E+03  0.32129348047E+02  0.36663900457E+02  0.14868432426E+03  0.17770000000E+01 0.  1.
         15    1    4    4    0    0  0.16084923846E+01  0.33182937497E+02 -0.17229894620E+02  0.37466272650E+02  0.17770000000E+01 0. -1.
</event>
<event>
 8    1  0.1807540E-005  0.1840182E+03  0.7546771E-02  0.1067253E+00
        -11   -1    0    0    0    0  0.00000000000E+00  0.00000000000E+00  0.18250000000E+03  0.18250000000E+03  0.00000000000E+00 0.  1.
         11   -1    0    0    0    0 -0.00000000000E+00 -0.00000000000E+00 -0.18250000000E+03  0.18250000000E+03  0.00000000000E+00 0. -1.
         23    2    1    2    0    0 -0.12162431821E+03  0.88078138649E+02 -0.52053605801E+02  0.18401824774E+03  0.92751842775E+02 0.  0.
         23    2    1    2    0    0  0.12162431821E+03 -0.88078138649E+02  0.52053605801E+02  0.18098175226E+03  0.86571262470E+02 0.  0.
        -11    1    3    3    0    0 -0.23532244495E+02  0.19949548833E+02 -0.56643539262E+02  0.64499934649E+02  0.00000000000E+00 0.  1.
         11    1    3    3    0    0 -0.98092073713E+02  0.68128589817E+02  0.45899334610E+01  0.11951831309E+03  0.00000000000E+00 0. -1.
        -15    1    4    4    0    0  0.12598274742E+03 -0.53892891995E+02  0.51719490439E+02  0.14647238605E+03  0.17770000000E+01 0.  1.
         15    1    4    4    0    0 -0.43584292106E+01 -0.34185246654E+02  0.33411536209E+00  0.34509366208E+02  0.17770000000E+01 0. -1.
</event>
<event>
 8    1  0.1807540E-005  0.1826046E+03  0.7546771E-02  0.1068372E+00
        -11   -1    0    0    0    0  0.00000000000E+00  0.00000000000E+00  0.18250000000E+03  0.18250000000E+03  0.00000000000E+00 0.  1.
         11   -1    0    0    0    0 -0.00000000000E+00 -0.00000000000E+00 -0.18250000000E+03  0.18250000000E+03  0.00000000000E+00 0. -1.
         23    2    1    2    0    0 -0.42717824477E+02  0.24815014731E+02 -0.14997004754E+03  0.18260460242E+03  0.91721470667E+02 0.  0.
         23    2    1    2    0    0  0.42717824477E+02 -0.24815014731E+02  0.14997004754E+03  0.18239539758E+03  0.91304262865E+02 0.  0.
        -11    1    3    3    0    0 -0.61381868838E+01 -0.53933876481E+01  0.11613930181E+02  0.14200328968E+02  0.00000000000E+00 0.  1.
         11    1    3    3    0    0 -0.36579637593E+02  0.30208402379E+02 -0.16158397772E+03  0.16840427345E+03  0.00000000000E+00 0. -1.
        -15    1    4    4    0    0  0.37733256174E+02 -0.14812470529E+02  0.16133400390E+03  0.16635812709E+03  0.17770000000E+01 0.  1.
         15    1    4    4    0    0  0.49845683028E+01 -0.10002544202E+02 -0.11363956364E+02  0.16037270495E+02  0.17770000000E+01 0. -1.
</event>
<event>
 8    1  0.1807540E-005  0.1825807E+03  0.7546771E-02  0.1068391E+00
        -11   -1    0    0    0    0  0.00000000000E+00  0.00000000000E+00  0.18250000000E+03  0.18250000000E+03  0.00000000000E+00 0.  1.
         11   -1    0    0    0    0 -0.00000000000E+00 -0.00000000000E+00 -0.18250000000E+03  0.18250000000E+03  0.00000000000E+00 0. -1.
         23    2    1    2    0    0  0.68347740157E+02 -0.13639777552E+03  0.41295772052E+02  0.18241928303E+03  0.91080663587E+02 0.  0.
         23    2    1    2    0    0 -0.68347740157E+02  0.13639777552E+03 -0.41295772052E+02  0.18258071697E+03  0.91403559384E+02 0.  0.
        -11    1    3    3    0    0 -0.21337550403E+02 -0.44003009558E+02  0.12453067466E+02  0.50464193213E+02  0.00000000000E+00 0.  1.
         11    1    3    3    0    0  0.89685290560E+02 -0.92394765965E+02  0.28842704586E+02  0.13195508982E+03  0.00000000000E+00 0. -1.
        -15    1    4    4    0    0 -0.80641666098E+02  0.12484810972E+03 -0.12502528685E+02  0.14916299730E+03  0.17770000000E+01 0.  1.
         15    1    4    4    0    0  0.12293925941E+02  0.11549665801E+02 -0.28793243367E+02  0.33417719667E+02  0.17770000000E+01 0. -1.
</event>
<event>
 8    1  0.1807540E-005  0.1869701E+03  0.7546771E-02  0.1064951E+00
        -11   -1    0    0    0    0  0.00000000000E+00  0.00000000000E+00  0.18250000000E+03  0.18250000000E+03  0.00000000000E+00 0.  1.
         11   -1    0    0    0    0 -0.00000000000E+00 -0.00000000000E+00 -0.18250000000E+03  0.18250000000E+03  0.00000000000E+00 0.  1.
         23    2    1    2    0    0 -0.51976217849E+01  0.59955078070E+01 -0.16249238120E+03  0.17802991549E+03  0.72304325429E+02 0.  0.
         23    2    1    2    0    0  0.51976217849E+01 -0.59955078070E+01  0.16249238120E+03  0.18697008451E+03  0.92147041013E+02 0.  0.
        -11    1    3    3    0    0 -0.17247448473E+02 -0.10350050673E+02 -0.15513126106E+03  0.15642987626E+03  0.00000000000E+00 0.  1.
         11    1    3    3    0    0  0.12049826688E+02  0.16345558480E+02 -0.73611201405E+01  0.21600039235E+02  0.00000000000E+00 0.  1.
        -15    1    4    4    0    0 -0.13849557567E+01 -0.46109183873E+02  0.11783848926E+03  0.12655845376E+03  0.17770000000E+01 0.  1.
         15    1    4    4    0    0  0.65825775416E+01  0.40113676066E+02  0.44653891942E+02  0.60411630744E+02  0.17770000000E+01 0. -1.
</event>
<event>
 8    1  0.1807540E-005  0.1827428E+03  0.7546771E-02  0.1068262E+00
        -11   -1    0    0    0    0  0.00000000000E+00  0.00000000000E+00  0.18250000000E+03  0.18250000000E+03  0.00000000000E+00 0.  1.
         11   -1    0    0    0    0 -0.00000000000E+00 -0.00000000000E+00 -0.18250000000E+03  0.18250000000E+03  0.00000000000E+00 0. -1.
         23    2    1    2    0    0  0.39783190702E+02  0.30151792767E+02 -0.15005439331E+03  0.18274283905E+03  0.91579426745E+02 0.  0.
         23    2    1    2    0    0 -0.39783190702E+02 -0.30151792767E+02  0.15005439331E+03  0.18225716095E+03  0.90606395455E+02 0.  0.
        -11    1    3    3    0    0 -0.73484423775E+01  0.47022613478E+02 -0.10545417648E+03  0.11569662537E+03  0.00000000000E+00 0.  1.
         11    1    3    3    0    0  0.47131633079E+02 -0.16870820711E+02 -0.44600216826E+02  0.67046213682E+02  0.00000000000E+00 0. -1.
        -15    1    4    4    0    0 -0.34911612513E+02 -0.60510862518E+02  0.12199685337E+03  0.14059436380E+03  0.17770000000E+01 0.  1.
         15    1    4    4    0    0 -0.48715781889E+01  0.30359069751E+02  0.28057539941E+02  0.41662797154E+02  0.17770000000E+01 0. -1.
</event>
<event>
 8    1  0.1807540E-005  0.1831168E+03  0.7546771E-02  0.1067965E+00
        -11   -1    0    0    0    0  0.00000000000E+00  0.00000000000E+00  0.18250000000E+03  0.18250000000E+03  0.00000000000E+00 0.  1.
         11   -1    0    0    0    0 -0.00000000000E+00 -0.00000000000E+00 -0.18250000000E+03  0.18250000000E+03  0.00000000000E+00 0. -1.
         23    2    1    2    0    0  0.60918922828E+02  0.17421790923E+02  0.14496158883E+03  0.18311676787E+03  0.92213092793E+02 0.  0.
         23    2    1    2    0    0 -0.60918922828E+02 -0.17421790923E+02 -0.14496158883E+03  0.18188323213E+03  0.89738586669E+02 0.  0.
        -11    1    3    3    0    0  0.72045807520E+02  0.61189565421E+01  0.14996478432E+03  0.16648566469E+03  0.00000000000E+00 0.  1.
         11    1    3    3    0    0 -0.11126884692E+02  0.11302834381E+02 -0.50031954913E+01  0.16631103184E+02  0.00000000000E+00 0. -1.
        -15    1    4    4    0    0 -0.53828113602E+02 -0.48286699681E+02 -0.12495684453E+03  0.14438296958E+03  0.17770000000E+01 0. -1.
         15    1    4    4    0    0 -0.70908092257E+01  0.30864908758E+02 -0.20004744296E+02  0.37500262552E+02  0.17770000000E+01 0.  1.
</event>
<event>
 8    1  0.1807540E-005  0.1829283E+03  0.7546771E-02  0.1068114E+00
        -11   -1    0    0    0    0  0.00000000000E+00  0.00000000000E+00  0.18250000000E+03  0.18250000000E+03  0.00000000000E+00 0.  1.
         11   -1    0    0    0    0 -0.00000000000E+00 -0.00000000000E+00 -0.18250000000E+03  0.18250000000E+03  0.00000000000E+00 0. -1.
         23    2    1    2    0    0  0.43981677428E+02 -0.24348849022E+02 -0.15028474398E+03  0.18207167895E+03  0.89651199679E+02 0.  0.
         23    2    1    2    0    0 -0.43981677428E+02  0.24348849022E+02  0.15028474398E+03  0.18292832105E+03  0.91378399921E+02 0.  0.
        -11    1    3    3    0    0  0.42093735609E+02  0.13251674621E+01 -0.15540618261E+02  0.44890416152E+02  0.00000000000E+00 0.  1.
         11    1    3    3    0    0  0.18879418184E+01 -0.25674016484E+02 -0.13474412572E+03  0.13718126280E+03  0.00000000000E+00 0. -1.
        -15    1    4    4    0    0  0.11039489887E+02 -0.93146644876E+01  0.10018261764E+03  0.10123412427E+03  0.17770000000E+01 0.  1.
         15    1    4    4    0    0 -0.55021167315E+02  0.33663513510E+02  0.50102126340E+02  0.81694196778E+02  0.17770000000E+01 0. -1.
</event>
<event>
 8    1  0.1807540E-005  0.1871444E+03  0.7546771E-02  0.1064817E+00
        -11   -1    0    0    0    0  0.00000000000E+00  0.00000000000E+00  0.18250000000E+03  0.18250000000E+03  0.00000000000E+00 0. -1.
         11   -1    0    0    0    0 -0.00000000000E+00 -0.00000000000E+00 -0.18250000000E+03  0.18250000000E+03  0.00000000000E+00 0. -1.
         23    2    1    2    0    0 -0.10449894136E+03  0.24556781071E+02 -0.11087943495E+03  0.18714437341E+03  0.10585699392E+03 0.  0.
         23    2    1    2    0    0  0.10449894136E+03 -0.24556781071E+02  0.11087943495E+03  0.17785562659E+03  0.88404245223E+02 0.  0.
        -11    1    3    3    0    0 -0.11369318341E+03 -0.57500860134E+01 -0.10512882510E+03  0.15495571402E+03  0.00000000000E+00 0. -1.
         11    1    3    3    0    0  0.91942420477E+01  0.30306867084E+02 -0.57506098533E+01  0.32188659385E+02  0.00000000000E+00 0. -1.
        -15    1    4    4    0    0  0.76558585625E+02  0.38574788797E+01  0.20966222829E+02  0.79491115258E+02  0.17770000000E+01 0. -1.
         15    1    4    4    0    0  0.27940355736E+02 -0.28414259951E+02  0.89913212120E+02  0.98364511334E+02  0.17770000000E+01 0.  1.
</event>
<event>
 8    1  0.1807540E-005  0.1834595E+03  0.7546771E-02  0.1067694E+00
        -11   -1    0    0    0    0  0.00000000000E+00  0.00000000000E+00  0.18250000000E+03  0.18250000000E+03  0.00000000000E+00 0.  1.
         11   -1    0    0    0    0 -0.00000000000E+00 -0.00000000000E+00 -0.18250000000E+03  0.18250000000E+03  0.00000000000E+00 0. -1.
         23    2    1    2    0    0  0.34960839888E+02  0.77730056732E+02  0.13185333858E+03  0.18154047348E+03  0.91145041399E+02 0.  0.
         23    2    1    2    0    0 -0.34960839888E+02 -0.77730056732E+02 -0.13185333858E+03  0.18345952652E+03  0.94909814733E+02 0.  0.
        -11    1    3    3    0    0 -0.30641710596E+02  0.15887511885E+02  0.33081451126E+02  0.47809098200E+02  0.00000000000E+00 0. -1.
         11    1    3    3    0    0  0.65602550484E+02  0.61842544847E+02  0.98771887451E+02  0.13373137528E+03  0.00000000000E+00 0.  1.
        -15    1    4    4    0    0 -0.33039686814E+02  0.79231125613E+01 -0.11905311252E+02  0.36045676335E+02  0.17770000000E+01 0.  1.
         15    1    4    4    0    0 -0.19211530741E+01 -0.85653169293E+02 -0.11994802732E+03  0.14741385019E+03  0.17770000000E+01 0. -1.
</event>
<event>
 8    1  0.1807540E-005  0.1851069E+03  0.7546771E-02  0.1066398E+00
        -11   -1    0    0    0    0  0.00000000000E+00  0.00000000000E+00  0.18250000000E+03  0.18250000000E+03  0.00000000000E+00 0. -1.
         11   -1    0    0    0    0 -0.00000000000E+00 -0.00000000000E+00 -0.18250000000E+03  0.18250000000E+03  0.00000000000E+00 0.  1.
         23    2    1    2    0    0 -0.93287705737E+01  0.15493368473E+03 -0.44879197618E+02  0.17989312103E+03  0.79094373945E+02 0.  0.
         23    2    1    2    0    0  0.93287705737E+01 -0.15493368473E+03  0.44879197618E+02  0.18510687897E+03  0.90326860016E+02 0.  0.
        -11    1    3    3    0    0  0.21979792592E+02  0.12570982892E+03 -0.49362111234E+02  0.13683088246E+03  0.00000000000E+00 0.  1.
         11    1    3    3    0    0 -0.31308563166E+02  0.29223855810E+02  0.44829136161E+01  0.43062238567E+02  0.00000000000E+00 0. -1.
        -15    1    4    4    0    0  0.19935541270E+02  0.38770333873E+01  0.60381540517E+01  0.21262037225E+02  0.17770000000E+01 0.  1.
         15    1    4    4    0    0 -0.10606770696E+02 -0.15881071812E+03  0.38841043566E+02  0.16384484175E+03  0.17770000000E+01 0. -1.
</event>
<event>
 8    1  0.1807540E-005  0.1828187E+03  0.7546771E-02  0.1068201E+00
        -11   -1    0    0    0    0  0.00000000000E+00  0.00000000000E+00  0.18250000000E+03  0.18250000000E+03  0.00000000000E+00 0.  1.
         11   -1    0    0    0    0 -0.00000000000E+00 -0.00000000000E+00 -0.18250000000E+03  0.18250000000E+03  0.00000000000E+00 0. -1.
         23    2    1    2    0    0  0.20950052728E+02  0.69662381018E+02 -0.14090631232E+03  0.18281869590E+03  0.90974362778E+02 0.  0.
         23    2    1    2    0    0 -0.20950052728E+02 -0.69662381018E+02  0.14090631232E+03  0.18218130410E+03  0.89686602526E+02 0.  0.
        -11    1    3    3    0    0  0.45666166548E+02  0.53246046585E+02 -0.13561047218E+03  0.15267855255E+03  0.00000000000E+00 0. -1.
         11    1    3    3    0    0 -0.24716113821E+02  0.16416334433E+02 -0.52958401375E+01  0.30140143353E+02  0.00000000000E+00 0.  1.
        -15    1    4    4    0    0  0.32026924740E+02 -0.69151610350E+01  0.32641750933E+02  0.46283744376E+02  0.17770000000E+01 0. -1.
         15    1    4    4    0    0 -0.52976977467E+02 -0.62747219983E+02  0.10826456138E+03  0.13589755972E+03  0.17770000000E+01 0.  1.
</event>
<event>
 8    1  0.1807540E-005  0.1826511E+03  0.7546771E-02  0.1068335E+00
        -11   -1    0    0    0    0  0.00000000000E+00  0.00000000000E+00  0.18250000000E+03  0.18250000000E+03  0.00000000000E+00 0. -1.
         11   -1    0    0    0    0 -0.00000000000E+00 -0.00000000000E+00 -0.18250000000E+03  0.18250000000E+03  0.00000000000E+00 0.  1.
         23    2    1    2    0    0  0.76868362856E+02 -0.87918383179E+02  0.10513964726E+03  0.18265106694E+03  0.93105743753E+02 0.  0.
         23    2    1    2    0    0 -0.76868362856E+02  0.87918383179E+02 -0.10513964726E+03  0.18234893306E+03  0.92511624420E+02 0.  0.
        -11    1    3    3    0    0  0.62959467639E+02 -0.44013323223E+02  0.11228173378E+03  0.13604504742E+03  0.00000000000E+00 0. -1.
         11    1    3    3    0    0  0.13908895217E+02 -0.43905059957E+02 -0.71420865193E+01  0.46606019523E+02  0.00000000000E+00 0.  1.
        -15    1    4    4    0    0 -0.60205922986E+02  0.99804892965E+02 -0.56487240632E+02  0.12953661994E+03  0.17770000000E+01 0.  1.
         15    1    4    4    0    0 -0.16662439870E+02 -0.11886509785E+02 -0.48652406628E+02  0.52812313119E+02  0.17770000000E+01 0. -1.
</event>
<event>
 8    1  0.1807540E-005  0.1831081E+03  0.7546771E-02  0.1067972E+00
        -11   -1    0    0    0    0  0.00000000000E+00  0.00000000000E+00  0.18250000000E+03  0.18250000000E+03  0.00000000000E+00 0.  1.
         11   -1    0    0    0    0 -0.00000000000E+00 -0.00000000000E+00 -0.18250000000E+03  0.18250000000E+03  0.00000000000E+00 0. -1.
         23    2    1    2    0    0 -0.21850974403E+02  0.46537454670E+01 -0.16133161764E+03  0.18310812155E+03  0.83675390037E+02 0.  0.
         23    2    1    2    0    0  0.21850974403E+02 -0.46537454670E+01  0.16133161764E+03  0.18189187845E+03  0.80979269982E+02 0.  0.
        -11    1    3    3    0    0 -0.32418610674E+02 -0.29148956379E+02 -0.12493997488E+03  0.13232771931E+03  0.00000000000E+00 0. -1.
         11    1    3    3    0    0  0.10567636272E+02  0.33802701846E+02 -0.36391642765E+02  0.50780402239E+02  0.00000000000E+00 0.  1.
        -15    1    4    4    0    0  0.30469337297E+02 -0.28217395881E+02  0.38989105179E+02  0.56990437770E+02  0.17770000000E+01 0. -1.
         15    1    4    4    0    0 -0.86183628938E+01  0.23563650414E+02  0.12234251246E+03  0.12490144068E+03  0.17770000000E+01 0.  1.
</event>
<event>
 8    1  0.1807540E-005  0.1832604E+03  0.7546771E-02  0.1067851E+00
        -11   -1    0    0    0    0  0.00000000000E+00  0.00000000000E+00  0.18250000000E+03  0.18250000000E+03  0.00000000000E+00 0.  1.
         11   -1    0    0    0    0 -0.00000000000E+00 -0.00000000000E+00 -0.18250000000E+03  0.18250000000E+03  0.00000000000E+00 0. -1.
         23    2    1    2    0    0 -0.27177256968E+02  0.31656339743E+01 -0.15509533794E+03  0.18326037999E+03  0.93707942501E+02 0.  0.
         23    2    1    2    0    0  0.27177256968E+02 -0.31656339743E+01  0.15509533794E+03  0.18173962001E+03  0.90697856066E+02 0.  0.
        -11    1    3    3    0    0  0.23979277745E+02 -0.13188139455E+02 -0.11023044608E+02  0.29503225178E+02  0.00000000000E+00 0.  1.
         11    1    3    3    0    0 -0.51156534713E+02  0.16353773430E+02 -0.14407229333E+03  0.15375715481E+03  0.00000000000E+00 0. -1.
        -15    1    4    4    0    0 -0.13745908685E+02  0.32143149540E+01 -0.59662899738E+01  0.15428420893E+02  0.17770000000E+01 0. -1.
         15    1    4    4    0    0  0.40923165654E+02 -0.63799489283E+01  0.16106162792E+03  0.16631119912E+03  0.17770000000E+01 0.  1.
</event>
<event>
 8    1  0.1807540E-005  0.1830174E+03  0.7546771E-02  0.1068044E+00
        -11   -1    0    0    0    0  0.00000000000E+00  0.00000000000E+00  0.18250000000E+03  0.18250000000E+03  0.00000000000E+00 0.  1.
         11   -1    0    0    0    0 -0.00000000000E+00 -0.00000000000E+00 -0.18250000000E+03  0.18250000000E+03  0.00000000000E+00 0. -1.
         23    2    1    2    0    0  0.66608907646E+02 -0.26643201354E+01 -0.14380125035E+03  0.18301740470E+03  0.91502599087E+02 0.  0.
         23    2    1    2    0    0 -0.66608907646E+02  0.26643201354E+01  0.14380125035E+03  0.18198259530E+03  0.89414876904E+02 0.  0.
        -11    1    3    3    0    0 -0.74148473109E+01 -0.13311373192E+02  0.53647725317E+01  0.16154052161E+02  0.00000000000E+00 0.  1.
         11    1    3    3    0    0  0.74023754957E+02  0.10647053057E+02 -0.14916602288E+03  0.16686335253E+03  0.00000000000E+00 0. -1.
        -15    1    4    4    0    0 -0.24952514667E+02  0.57434694651E+01 -0.60823064526E+01  0.26377407198E+02  0.17770000000E+01 0. -1.
         15    1    4    4    0    0 -0.41656392979E+02 -0.30791493298E+01  0.14988355680E+03  0.15560518811E+03  0.17770000000E+01 0.  1.
</event>
<event>
 8    1  0.1807540E-005  0.1827749E+03  0.7546771E-02  0.1068236E+00
        -11   -1    0    0    0    0  0.00000000000E+00  0.00000000000E+00  0.18250000000E+03  0.18250000000E+03  0.00000000000E+00 0.  1.
         11   -1    0    0    0    0 -0.00000000000E+00 -0.00000000000E+00 -0.18250000000E+03  0.18250000000E+03  0.00000000000E+00 0. -1.
         23    2    1    2    0    0  0.91893374192E+02  0.43932903402E+01  0.12909666690E+03  0.18222510874E+03  0.89868501884E+02 0.  0.
         23    2    1    2    0    0 -0.91893374192E+02 -0.43932903402E+01 -0.12909666690E+03  0.18277489126E+03  0.90978119608E+02 0.  0.
        -11    1    3    3    0    0  0.79026014654E+02 -0.32138689175E+02  0.10952303573E+03  0.13882831732E+03  0.00000000000E+00 0.  1.
         11    1    3    3    0    0  0.12867359538E+02  0.36531979515E+02  0.19573631176E+02  0.43396791428E+02  0.00000000000E+00 0. -1.
        -15    1    4    4    0    0 -0.88024936414E+02 -0.37639783830E+02 -0.98969982027E+02  0.13770750825E+03  0.17770000000E+01 0. -1.
         15    1    4    4    0    0 -0.38684377786E+01  0.33246493489E+02 -0.30126684877E+02  0.45067383004E+02  0.17770000000E+01 0.  1.
</event>
<event>
 8    1  0.1807540E-005  0.1832961E+03  0.7546771E-02  0.1067823E+00
        -11   -1    0    0    0    0  0.00000000000E+00  0.00000000000E+00  0.18250000000E+03  0.18250000000E+03  0.00000000000E+00 0.  1.
         11   -1    0    0    0    0 -0.00000000000E+00 -0.00000000000E+00 -0.18250000000E+03  0.18250000000E+03  0.00000000000E+00 0. -1.
         23    2    1    2    0    0 -0.91374179119E+02  0.42322400401E+00  0.13022805977E+03  0.18170392279E+03  0.87792643646E+02 0.  0.
         23    2    1    2    0    0  0.91374179119E+02 -0.42322400401E+00 -0.13022805977E+03  0.18329607721E+03  0.91042213508E+02 0.  0.
        -11    1    3    3    0    0 -0.81454651702E+02 -0.33408413622E+02  0.11056633177E+03  0.14133611041E+03  0.00000000000E+00 0. -1.
         11    1    3    3    0    0 -0.99195274174E+01  0.33831637626E+02  0.19661728001E+02  0.40367812384E+02  0.00000000000E+00 0.  1.
        -15    1    4    4    0    0  0.92908277178E+02  0.21277425092E+02 -0.13032373583E+03  0.16146860573E+03  0.17770000000E+01 0. -1.
         15    1    4    4    0    0 -0.15340980588E+01 -0.21700649096E+02  0.95676065579E-01  0.21827471474E+02  0.17770000000E+01 0.  1.
</event>
<event>
 8    1  0.1807540E-005  0.1835491E+03  0.7546771E-02  0.1067623E+00
        -11   -1    0    0    0    0  0.00000000000E+00  0.00000000000E+00  0.18250000000E+03  0.18250000000E+03  0.00000000000E+00 0.  1.
         11   -1    0    0    0    0 -0.00000000000E+00 -0.00000000000E+00 -0.18250000000E+03  0.18250000000E+03  0.00000000000E+00 0. -1.
         23    2    1    2    0    0  0.17157809315E+02 -0.23304737994E+02 -0.15606835902E+03  0.18354911301E+03  0.92170727273E+02 0.  0.
         23    2    1    2    0    0 -0.17157809315E+02  0.23304737994E+02  0.15606835902E+03  0.18145088699E+03  0.87918089526E+02 0.  0.
        -11    1    3    3    0    0 -0.96028178729E-01  0.34904788747E+02 -0.70026577223E+02  0.78243689947E+02  0.00000000000E+00 0.  1.
         11    1    3    3    0    0  0.17253837494E+02 -0.58209526741E+02 -0.86041781801E+02  0.10530542307E+03  0.00000000000E+00 0. -1.
        -15    1    4    4    0    0 -0.29847078794E+02 -0.25998017451E+02  0.50098237385E+02  0.63872812229E+02  0.17770000000E+01 0.  1.
         15    1    4    4    0    0  0.12689269479E+02  0.49302755445E+02  0.10597012164E+03  0.11757807476E+03  0.17770000000E+01 0. -1.
</event>
<event>
 8    1  0.1807540E-005  0.1825083E+03  0.7546771E-02  0.1068448E+00
        -11   -1    0    0    0    0  0.00000000000E+00  0.00000000000E+00  0.18250000000E+03  0.18250000000E+03  0.00000000000E+00 0. -1.
         11   -1    0    0    0    0 -0.00000000000E+00 -0.00000000000E+00 -0.18250000000E+03  0.18250000000E+03  0.00000000000E+00 0.  1.
         23    2    1    2    0    0  0.10008737138E+03  0.70379855593E+02  0.99585598981E+02  0.18250825221E+03  0.91766903715E+02 0.  0.
         23    2    1    2    0    0 -0.10008737138E+03 -0.70379855593E+02 -0.99585598981E+02  0.18249174779E+03  0.91734074926E+02 0.  0.
        -11    1    3    3    0    0  0.71950465395E+02  0.83388014886E+02  0.10365474655E+03  0.15124396510E+03  0.00000000000E+00 0. -1.
         11    1    3    3    0    0  0.28136905988E+02 -0.13008159294E+02 -0.40691475650E+01  0.31264287113E+02  0.00000000000E+00 0.  1.
        -15    1    4    4    0    0 -0.23252461682E+02  0.44204455700E+01  0.12948989182E+02  0.27037961520E+02  0.17770000000E+01 0. -1.
         15    1    4    4    0    0 -0.76834909701E+02 -0.74800301163E+02 -0.11253458816E+03  0.15545378627E+03  0.17770000000E+01 0.  1.
</event>
<event>
 8    1  0.1807540E-005  0.1881494E+03  0.7546771E-02  0.1064045E+00
        -11   -1    0    0    0    0  0.00000000000E+00  0.00000000000E+00  0.18250000000E+03  0.18250000000E+03  0.00000000000E+00 0. -1.
         11   -1    0    0    0    0 -0.00000000000E+00 -0.00000000000E+00 -0.18250000000E+03  0.18250000000E+03  0.00000000000E+00 0. -1.
         23    2    1    2    0    0 -0.33954503842E+02 -0.54206101994E+02  0.13830047769E+03  0.18814938041E+03  0.11037190492E+03 0.  0.
         23    2    1    2    0    0  0.33954503842E+02  0.54206101994E+02 -0.13830047769E+03  0.17685061959E+03  0.89765860397E+02 0.  0.
        -11    1    3    3    0    0 -0.35594764606E+02 -0.32304211361E+02 -0.48191944381E-01  0.48068198026E+02  0.00000000000E+00 0. -1.
         11    1    3    3    0    0  0.16402607644E+01 -0.21901890633E+02  0.13834866964E+03  0.14008118239E+03  0.00000000000E+00 0. -1.
        -15    1    4    4    0    0 -0.86553551378E+01  0.62969432383E+02 -0.10184672913E+03  0.12006655884E+03  0.17770000000E+01 0.  1.
         15    1    4    4    0    0  0.42609858979E+02 -0.87633303890E+01 -0.36453748561E+02  0.56784060747E+02  0.17770000000E+01 0. -1.
</event>
<event>
 8    1  0.1807540E-005  0.1825690E+03  0.7546771E-02  0.1068400E+00
        -11   -1    0    0    0    0  0.00000000000E+00  0.00000000000E+00  0.18250000000E+03  0.18250000000E+03  0.00000000000E+00 0.  1.
         11   -1    0    0    0    0 -0.00000000000E+00 -0.00000000000E+00 -0.18250000000E+03  0.18250000000E+03  0.00000000000E+00 0. -1.
         23    2    1    2    0    0 -0.85816481610E+02 -0.12669401075E+01  0.13264872546E+03  0.18243101121E+03  0.91210283596E+02 0.  0.
         23    2    1    2    0    0  0.85816481610E+02  0.12669401075E+01 -0.13264872546E+03  0.18256898879E+03  0.91485942345E+02 0.  0.
        -11    1    3    3    0    0 -0.59210631324E+01  0.33035666903E+02  0.16655308676E+02  0.37467500362E+02  0.00000000000E+00 0. -1.
         11    1    3    3    0    0 -0.79895418478E+02 -0.34302607010E+02  0.11599341678E+03  0.14496351085E+03  0.00000000000E+00 0.  1.
        -15    1    4    4    0    0  0.82240598061E+02 -0.16752224708E+02 -0.49625879103E+02  0.97519426823E+02  0.17770000000E+01 0.  1.
         15    1    4    4    0    0  0.35758835491E+01  0.18019164815E+02 -0.83022846357E+02  0.85049561962E+02  0.17770000000E+01 0. -1.
</event>
<event>
 8    1  0.1807540E-005  0.1887515E+03  0.7546771E-02  0.1063585E+00
        -11   -1    0    0    0    0  0.00000000000E+00  0.00000000000E+00  0.18250000000E+03  0.18250000000E+03  0.00000000000E+00 0.  1.
         11   -1    0    0    0    0 -0.00000000000E+00 -0.00000000000E+00 -0.18250000000E+03  0.18250000000E+03  0.00000000000E+00 0. -1.
         23    2    1    2    0    0 -0.30529570982E+02 -0.78351510160E+02  0.12508319625E+03  0.17624847083E+03  0.91360295738E+02 0.  0.
         23    2    1    2    0    0  0.30529570982E+02  0.78351510160E+02 -0.12508319625E+03  0.18875152917E+03  0.11362358880E+03 0.  0.
        -11    1    3    3    0    0 -0.33122150069E+02 -0.82220652757E+02  0.51496230499E+02  0.10251426399E+03  0.00000000000E+00 0.  1.
         11    1    3    3    0    0  0.25925790878E+01  0.38691425965E+01  0.73586965748E+02  0.73734206842E+02  0.00000000000E+00 0. -1.
        -15    1    4    4    0    0 -0.94214459867E+01 -0.24805180230E+02 -0.82446781566E+01  0.27842289016E+02  0.17770000000E+01 0.  1.
         15    1    4    4    0    0  0.39951016968E+02  0.10315669039E+03 -0.11683851809E+03  0.16090924016E+03  0.17770000000E+01 0. -1.
</event>
<event>
 8    1  0.1807540E-005  0.1838446E+03  0.7546771E-02  0.1067390E+00
        -11   -1    0    0    0    0  0.00000000000E+00  0.00000000000E+00  0.18250000000E+03  0.18250000000E+03  0.00000000000E+00 0.  1.
         11   -1    0    0    0    0 -0.00000000000E+00 -0.00000000000E+00 -0.18250000000E+03  0.18250000000E+03  0.00000000000E+00 0. -1.
         23    2    1    2    0    0  0.95569314643E+02 -0.12191186149E+03 -0.18658971846E+02  0.18115544086E+03  0.92049664041E+02 0.  0.
         23    2    1    2    0    0 -0.95569314643E+02  0.12191186149E+03  0.18658971846E+02  0.18384455914E+03  0.97235121338E+02 0.  0.
        -11    1    3    3    0    0  0.17855891534E+02  0.63414409556E+00  0.23985747478E+02  0.29909046847E+02  0.00000000000E+00 0.  1.
         11    1    3    3    0    0  0.77713423109E+02 -0.12254600558E+03 -0.42644719324E+02  0.15124639401E+03  0.00000000000E+00 0. -1.
        -15    1    4    4    0    0 -0.66450188819E+02  0.13517099730E+03  0.11953839824E+02  0.15110551982E+03  0.17770000000E+01 0.  1.
         15    1    4    4    0    0 -0.29119125825E+02 -0.13259135808E+02  0.67051320216E+01  0.32739039320E+02  0.17770000000E+01 0. -1.
</event>
<event>
 8    1  0.1807540E-005  0.1827751E+03  0.7546771E-02  0.1068236E+00
        -11   -1    0    0    0    0  0.00000000000E+00  0.00000000000E+00  0.18250000000E+03  0.18250000000E+03  0.00000000000E+00 0. -1.
         11   -1    0    0    0    0 -0.00000000000E+00 -0.00000000000E+00 -0.18250000000E+03  0.18250000000E+03  0.00000000000E+00 0.  1.
         23    2    1    2    0    0  0.86054981482E+02  0.11306854341E+01 -0.13357811934E+03  0.18222486811E+03  0.89196694470E+02 0.  0.
         23    2    1    2    0    0 -0.86054981482E+02 -0.11306854341E+01  0.13357811934E+03  0.18277513189E+03  0.90315538988E+02 0.  0.
        -11    1    3    3    0    0  0.55204849068E+02  0.33087855046E+02 -0.11932461130E+03  0.13557560391E+03  0.00000000000E+00 0.  1.
         11    1    3    3    0    0  0.30850132414E+02 -0.31957169611E+02 -0.14253508039E+02  0.46649264206E+02  0.00000000000E+00 0. -1.
        -15    1    4    4    0    0 -0.96106835080E+02 -0.24124051037E+02  0.11275626837E+03  0.15011871094E+03  0.17770000000E+01 0. -1.
         15    1    4    4    0    0  0.10051853598E+02  0.22993365603E+02  0.20821850967E+02  0.32656420949E+02  0.17770000000E+01 0.  1.
</event>
<event>
 8    1  0.1807540E-005  0.1865969E+03  0.7546771E-02  0.1065240E+00
        -11   -1    0    0    0    0  0.00000000000E+00  0.00000000000E+00  0.18250000000E+03  0.18250000000E+03  0.00000000000E+00 0.  1.
         11   -1    0    0    0    0 -0.00000000000E+00 -0.00000000000E+00 -0.18250000000E+03  0.18250000000E+03  0.00000000000E+00 0. -1.
         23    2    1    2    0    0  0.37603134843E+02 -0.25688122155E+02 -0.14583330162E+03  0.17840305967E+03  0.92121791506E+02 0.  0.
         23    2    1    2    0    0 -0.37603134843E+02  0.25688122155E+02  0.14583330162E+03  0.18659694033E+03  0.10713165223E+03 0.  0.
        -11    1    3    3    0    0 -0.14062367763E+02  0.15918926545E+01 -0.10771912367E+03  0.10864480620E+03  0.00000000000E+00 0. -1.
         11    1    3    3    0    0  0.51665502606E+02 -0.27280014809E+02 -0.38114177947E+02  0.69758253476E+02  0.00000000000E+00 0.  1.
        -15    1    4    4    0    0 -0.62408761072E+02 -0.13169091860E+02  0.53063255851E+02  0.82988826293E+02  0.17770000000E+01 0.  1.
         15    1    4    4    0    0  0.24805626228E+02  0.38857214015E+02  0.92770045765E+02  0.10360811403E+03  0.17770000000E+01 0. -1.
</event>
<event>
 8    1  0.1807540E-005  0.1827449E+03  0.7546771E-02  0.1068260E+00
        -11   -1    0    0    0    0  0.00000000000E+00  0.00000000000E+00  0.18250000000E+03  0.18250000000E+03  0.00000000000E+00 0.  1.
         11   -1    0    0    0    0 -0.00000000000E+00 -0.00000000000E+00 -0.18250000000E+03  0.18250000000E+03  0.00000000000E+00 0. -1.
         23    2    1    2    0    0  0.10879576806E+02  0.88395628143E+02  0.13072212072E+03  0.18274487800E+03  0.91516475705E+02 0.  0.
         23    2    1    2    0    0 -0.10879576806E+02 -0.88395628143E+02 -0.13072212072E+03  0.18225512200E+03  0.90534548005E+02 0.  0.
        -11    1    3    3    0    0  0.50803515732E+02  0.51426631841E+02  0.63140130125E+02  0.95981100773E+02  0.00000000000E+00 0. -1.
         11    1    3    3    0    0 -0.39923938926E+02  0.36968996302E+02  0.67581990593E+02  0.86763777231E+02  0.00000000000E+00 0.  1.
        -15    1    4    4    0    0 -0.17096482397E+02 -0.27572882089E+01 -0.81352169912E+02  0.83193903785E+02  0.17770000000E+01 0.  1.
         15    1    4    4    0    0  0.62169055908E+01 -0.85638339935E+02 -0.49369950806E+02  0.99061218211E+02  0.17770000000E+01 0. -1.
</event>
<event>
 8    1  0.1807540E-005  0.1829249E+03  0.7546771E-02  0.1068117E+00
        -11   -1    0    0    0    0  0.00000000000E+00  0.00000000000E+00  0.18250000000E+03  0.18250000000E+03  0.00000000000E+00 0. -1.
         11   -1    0    0    0    0 -0.00000000000E+00 -0.00000000000E+00 -0.18250000000E+03  0.18250000000E+03  0.00000000000E+00 0.  1.
         23    2    1    2    0    0  0.70765078877E+02 -0.11251480806E+03  0.85471391947E+02  0.18207506164E+03  0.90436114515E+02 0.  0.
         23    2    1    2    0    0 -0.70765078877E+02  0.11251480806E+03 -0.85471391947E+02  0.18292493836E+03  0.92135203976E+02 0.  0.
        -11    1    3    3    0    0  0.34025585554E+02 -0.98511698408E+02  0.20630082588E+02  0.10624450811E+03  0.00000000000E+00 0.  1.
         11    1    3    3    0    0  0.36739493323E+02 -0.14003109652E+02  0.64841309359E+02  0.75830553532E+02  0.00000000000E+00 0. -1.
        -15    1    4    4    0    0 -0.54414230015E+02  0.78289190692E+01 -0.37710978982E+02  0.66689399957E+02  0.17770000000E+01 0.  1.
         15    1    4    4    0    0 -0.16350848862E+02  0.10468588899E+03 -0.47760412965E+02  0.11623553840E+03  0.17770000000E+01 0. -1.
</event>
<event>
 8    1  0.1807540E-005  0.1837173E+03  0.7546771E-02  0.1067490E+00
        -11   -1    0    0    0    0  0.00000000000E+00  0.00000000000E+00  0.18250000000E+03  0.18250000000E+03  0.00000000000E+00 0.  1.
         11   -1    0    0    0    0 -0.00000000000E+00 -0.00000000000E+00 -0.18250000000E+03  0.18250000000E+03  0.00000000000E+00 0. -1.
         23    2    1    2    0    0 -0.93228484994E+02 -0.13392873349E+02  0.12828344388E+03  0.18371726874E+03  0.91784930081E+02 0.  0.
         23    2    1    2    0    0  0.93228484994E+02  0.13392873349E+02 -0.12828344388E+03  0.18128273126E+03  0.86809372804E+02 0.  0.
        -11    1    3    3    0    0 -0.17114698993E+02  0.36485823698E+02  0.44245990450E+02  0.59848441279E+02  0.00000000000E+00 0. -1.
         11    1    3    3    0    0 -0.76113786001E+02 -0.49878697048E+02  0.84037453431E+02  0.12386882747E+03  0.00000000000E+00 0.  1.
        -15    1    4    4    0    0  0.29195937647E+02  0.28325939010E+02 -0.10310452837E+03  0.11085334048E+03  0.17770000000E+01 0. -1.
         15    1    4    4    0    0  0.64032547347E+02 -0.14933065660E+02 -0.25178915509E+02  0.70429390775E+02  0.17770000000E+01 0.  1.
</event>
<event>
 8    1  0.1807540E-005  0.1829339E+03  0.7546771E-02  0.1068110E+00
        -11   -1    0    0    0    0  0.00000000000E+00  0.00000000000E+00  0.18250000000E+03  0.18250000000E+03  0.00000000000E+00 0.  1.
         11   -1    0    0    0    0 -0.00000000000E+00 -0.00000000000E+00 -0.18250000000E+03  0.18250000000E+03  0.00000000000E+00 0. -1.
         23    2    1    2    0    0  0.21418936113E+02  0.42077380933E+02 -0.14981970902E+03  0.18206613162E+03  0.92048108401E+02 0.  0.
         23    2    1    2    0    0 -0.21418936113E+02 -0.42077380933E+02  0.14981970902E+03  0.18293386838E+03  0.93752750259E+02 0.  0.
        -11    1    3    3    0    0  0.21409358337E+02 -0.15064652932E+02 -0.53681154368E+01  0.26723043534E+02  0.00000000000E+00 0.  1.
         11    1    3    3    0    0  0.95777754015E-02  0.57142033865E+02 -0.14445159358E+03  0.15534308808E+03  0.00000000000E+00 0. -1.
        -15    1    4    4    0    0 -0.12454737986E+02 -0.60044327298E+02  0.44717468844E+02  0.75916081878E+02  0.17770000000E+01 0.  1.
         15    1    4    4    0    0 -0.89641981267E+01  0.17966946366E+02  0.10510224018E+03  0.10701778651E+03  0.17770000000E+01 0. -1.
</event>
<event>
 8    1  0.1807540E-005  0.1828429E+03  0.7546771E-02  0.1068182E+00
        -11   -1    0    0    0    0  0.00000000000E+00  0.00000000000E+00  0.18250000000E+03  0.18250000000E+03  0.00000000000E+00 0. -1.
         11   -1    0    0    0    0 -0.00000000000E+00 -0.00000000000E+00 -0.18250000000E+03  0.18250000000E+03  0.00000000000E+00 0.  1.
         23    2    1    2    0    0 -0.56253557579E+01 -0.34988478903E+02 -0.15354651579E+03  0.18215711163E+03  0.91372000749E+02 0.  0.
         23    2    1    2    0    0  0.56253557579E+01  0.34988478903E+02  0.15354651579E+03  0.18284288837E+03  0.92731607514E+02 0.  0.
        -11    1    3    3    0    0 -0.32943702607E+02 -0.38111929458E+02 -0.14478482637E+03  0.15329857356E+03  0.00000000000E+00 0.  1.
         11    1    3    3    0    0  0.27318346850E+02  0.31234505553E+01 -0.87616894268E+01  0.28858538071E+02  0.00000000000E+00 0. -1.
        -15    1    4    4    0    0 -0.11895637429E+02  0.43951018030E+02  0.23436440042E+02  0.51240829683E+02  0.17770000000E+01 0.  1.
         15    1    4    4    0    0  0.17520993187E+02 -0.89625391274E+01  0.13011007575E+03  0.13160205869E+03  0.17770000000E+01 0. -1.
</event>
<event>
 8    1  0.1807540E-005  0.1836397E+03  0.7546771E-02  0.1067551E+00
        -11   -1    0    0    0    0  0.00000000000E+00  0.00000000000E+00  0.18250000000E+03  0.18250000000E+03  0.00000000000E+00 0. -1.
         11   -1    0    0    0    0 -0.00000000000E+00 -0.00000000000E+00 -0.18250000000E+03  0.18250000000E+03  0.00000000000E+00 0.  1.
         23    2    1    2    0    0  0.97732318058E+02  0.76451517887E+02 -0.10256368291E+03  0.18136034309E+03  0.83521400940E+02 0.  0.
         23    2    1    2    0    0 -0.97732318058E+02 -0.76451517887E+02  0.10256368291E+03  0.18363965691E+03  0.88361609070E+02 0.  0.
        -11    1    3    3    0    0  0.74984770946E+02  0.90478012957E+02 -0.62217854430E+02  0.13296634203E+03  0.00000000000E+00 0.  1.
         11    1    3    3    0    0  0.22747547113E+02 -0.14026495070E+02 -0.40345828476E+02  0.48394001064E+02  0.00000000000E+00 0. -1.
        -15    1    4    4    0    0 -0.36158918109E+02  0.12196234640E+02  0.51767617781E+02  0.64337077008E+02  0.17770000000E+01 0.  1.
         15    1    4    4    0    0 -0.61573399950E+02 -0.88647752527E+02  0.50796065125E+02  0.11930257990E+03  0.17770000000E+01 0. -1.
</event>
<event>
 8    1  0.1807540E-005  0.1832674E+03  0.7546771E-02  0.1067846E+00
        -11   -1    0    0    0    0  0.00000000000E+00  0.00000000000E+00  0.18250000000E+03  0.18250000000E+03  0.00000000000E+00 0.  1.
         11   -1    0    0    0    0 -0.00000000000E+00 -0.00000000000E+00 -0.18250000000E+03  0.18250000000E+03  0.00000000000E+00 0. -1.
         23    2    1    2    0    0 -0.21116034626E+01 -0.61079924538E+02 -0.14486057748E+03  0.18326743500E+03  0.94165544517E+02 0.  0.
         23    2    1    2    0    0  0.21116034626E+01  0.61079924538E+02  0.14486057748E+03  0.18173256500E+03  0.91142318499E+02 0.  0.
        -11    1    3    3    0    0  0.37578215567E+02 -0.16411333815E+02 -0.21738770588E+02  0.46411510528E+02  0.00000000000E+00 0.  1.
         11    1    3    3    0    0 -0.39689819030E+02 -0.44668590723E+02 -0.12312180689E+03  0.13685592448E+03  0.00000000000E+00 0. -1.
        -15    1    4    4    0    0  0.80823162904E+01  0.42644468570E+02  0.15416121960E+03  0.16016464620E+03  0.17770000000E+01 0.  1.
         15    1    4    4    0    0 -0.59707128278E+01  0.18435455968E+02 -0.93006421152E+01  0.21567918796E+02  0.17770000000E+01 0. -1.
</event>
<event>
 8    1  0.1807540E-005  0.1864979E+03  0.7546771E-02  0.1065316E+00
        -11   -1    0    0    0    0  0.00000000000E+00  0.00000000000E+00  0.18250000000E+03  0.18250000000E+03  0.00000000000E+00 0.  1.
         11   -1    0    0    0    0 -0.00000000000E+00 -0.00000000000E+00 -0.18250000000E+03  0.18250000000E+03  0.00000000000E+00 0.  1.
         23    2    1    2    0    0 -0.40954396505E+02 -0.55100826763E+01 -0.15745667014E+03  0.17850210263E+03  0.73230963854E+02 0.  0.
         23    2    1    2    0    0  0.40954396505E+02  0.55100826763E+01  0.15745667014E+03  0.18649789737E+03  0.91001313980E+02 0.  0.
        -11    1    3    3    0    0 -0.13348044825E+02  0.42914171782E+00 -0.14817818165E+03  0.14877878875E+03  0.00000000000E+00 0.  1.
         11    1    3    3    0    0 -0.27606351680E+02 -0.59392243941E+01 -0.92784884888E+01  0.29723313882E+02  0.00000000000E+00 0.  1.
        -15    1    4    4    0    0  0.45444522245E+02  0.42727957988E+02  0.96907093219E+02  0.11526068472E+03  0.17770000000E+01 0.  1.
         15    1    4    4    0    0 -0.44901257403E+01 -0.37217875312E+02  0.60549576925E+02  0.71237212653E+02  0.17770000000E+01 0. -1.
</event>
<event>
 7    1  0.1807540E-005  0.1811700E+03  0.7546771E-02  0.1069518E+00
        -11   -1    0    0    0    0  0.00000000000E+00  0.00000000000E+00  0.18250000000E+03  0.18250000000E+03  0.00000000000E+00 0. -1.
         11   -1    0    0    0    0 -0.00000000000E+00 -0.00000000000E+00 -0.18250000000E+03  0.18250000000E+03  0.00000000000E+00 0.  1.
         23    2    1    2    0    0  0.13727418462E+02 -0.83793180803E+02  0.11590969268E+03  0.17127091127E+03  0.93214424978E+02 0.  0.
        -11    1    1    2    0    0  0.16976775894E+02 -0.63270506527E+01  0.20513663036E+02  0.27368830097E+02  0.00000000000E+00 0. -1.
         11    1    1    2    0    0 -0.30704194356E+02  0.90120231455E+02 -0.13642335571E+03  0.16636025863E+03  0.00000000000E+00 0.  1.
        -15    1    3    3    0    0  0.51256086408E+02 -0.61297850998E+02  0.58397634957E+02  0.98985122258E+02  0.17770000000E+01 0.  1.
         15    1    3    3    0    0 -0.37528667946E+02 -0.22495329805E+02  0.57512057720E+02  0.72285789012E+02  0.17770000000E+01 0. -1.
</event>
<event>
 8    1  0.1807540E-005  0.1825934E+03  0.7546771E-02  0.1068380E+00
        -11   -1    0    0    0    0  0.00000000000E+00  0.00000000000E+00  0.18250000000E+03  0.18250000000E+03  0.00000000000E+00 0. -1.
         11   -1    0    0    0    0 -0.00000000000E+00 -0.00000000000E+00 -0.18250000000E+03  0.18250000000E+03  0.00000000000E+00 0.  1.
         23    2    1    2    0    0  0.54978644138E+02  0.10079245492E+03  0.11111230419E+03  0.18240659802E+03  0.88002571432E+02 0.  0.
         23    2    1    2    0    0 -0.54978644138E+02 -0.10079245492E+03 -0.11111230419E+03  0.18259340198E+03  0.88389117118E+02 0.  0.
        -11    1    3    3    0    0  0.47427004337E+02  0.20385470625E+02  0.93017076704E+01  0.52453883732E+02  0.00000000000E+00 0.  1.
         11    1    3    3    0    0  0.75516398013E+01  0.80406984294E+02  0.10181059652E+03  0.12995271429E+03  0.00000000000E+00 0. -1.
        -15    1    4    4    0    0 -0.66791887699E+02 -0.10729145617E+03 -0.82566151610E+02  0.15097330874E+03  0.17770000000E+01 0.  1.
         15    1    4    4    0    0  0.11813243561E+02  0.64990012541E+01 -0.28546152579E+02  0.31620093244E+02  0.17770000000E+01 0. -1.
</event>
<event>
 8    1  0.1807540E-005  0.1828067E+03  0.7546771E-02  0.1068211E+00
        -11   -1    0    0    0    0  0.00000000000E+00  0.00000000000E+00  0.18250000000E+03  0.18250000000E+03  0.00000000000E+00 0.  1.
         11   -1    0    0    0    0 -0.00000000000E+00 -0.00000000000E+00 -0.18250000000E+03  0.18250000000E+03  0.00000000000E+00 0. -1.
         23    2    1    2    0    0  0.40179562654E+02  0.11417065705E+03  0.10209577112E+03  0.18219328569E+03  0.90119424560E+02 0.  0.
         23    2    1    2    0    0 -0.40179562654E+02 -0.11417065705E+03 -0.10209577112E+03  0.18280671431E+03  0.91353227258E+02 0.  0.
        -11    1    3    3    0    0  0.34284480214E+02  0.32627892806E+02  0.87021933548E+02  0.99059688527E+02  0.00000000000E+00 0.  1.
         11    1    3    3    0    0  0.58950824406E+01  0.81542764247E+02  0.15073837568E+02  0.83133597162E+02  0.00000000000E+00 0. -1.
        -15    1    4    4    0    0 -0.57302753602E+01 -0.79256644910E+02 -0.12239894388E+02  0.80420299439E+02  0.17770000000E+01 0. -1.
         15    1    4    4    0    0 -0.34449287294E+02 -0.34914012143E+02 -0.89855876728E+02  0.10238641487E+03  0.17770000000E+01 0.  1.
</event>
<event>
 8    1  0.1807540E-005  0.1837711E+03  0.7546771E-02  0.1067447E+00
        -11   -1    0    0    0    0  0.00000000000E+00  0.00000000000E+00  0.18250000000E+03  0.18250000000E+03  0.00000000000E+00 0.  1.
         11   -1    0    0    0    0 -0.00000000000E+00 -0.00000000000E+00 -0.18250000000E+03  0.18250000000E+03  0.00000000000E+00 0. -1.
         23    2    1    2    0    0 -0.71289730014E+02  0.51045365896E+02  0.12940757275E+03  0.18122887238E+03  0.91704576311E+02 0.  0.
         23    2    1    2    0    0  0.71289730014E+02 -0.51045365896E+02 -0.12940757275E+03  0.18377112762E+03  0.96631529412E+02 0.  0.
        -11    1    3    3    0    0 -0.59021161826E+02  0.76304468291E+02  0.11349410688E+03  0.14895228001E+03  0.00000000000E+00 0.  1.
         11    1    3    3    0    0 -0.12268568188E+02 -0.25259102395E+02  0.15913465867E+02  0.32276592371E+02  0.00000000000E+00 0. -1.
        -15    1    4    4    0    0  0.19326519060E+02  0.29080532559E+02 -0.34148978387E+02  0.48872304701E+02  0.17770000000E+01 0.  1.
         15    1    4    4    0    0  0.51963210954E+02 -0.80125898454E+02 -0.95258594359E+02  0.13489882292E+03  0.17770000000E+01 0. -1.
</event>
<event>
 8    1  0.1807540E-005  0.1828285E+03  0.7546771E-02  0.1068194E+00
        -11   -1    0    0    0    0  0.00000000000E+00  0.00000000000E+00  0.18250000000E+03  0.18250000000E+03  0.00000000000E+00 0.  1.
         11   -1    0    0    0    0 -0.00000000000E+00 -0.00000000000E+00 -0.18250000000E+03  0.18250000000E+03  0.00000000000E+00 0. -1.
         23    2    1    2    0    0 -0.50240379668E+02 -0.33195268898E+02  0.14605464207E+03  0.18282847033E+03  0.92023200695E+02 0.  0.
         23    2    1    2    0    0  0.50240379668E+02  0.33195268898E+02 -0.14605464207E+03  0.18217152967E+03  0.90711003325E+02 0.  0.
        -11    1    3    3    0    0  0.25556388419E+02 -0.51164561209E+01  0.56308053291E+02  0.62047594456E+02  0.00000000000E+00 0. -1.
         11    1    3    3    0    0 -0.75796768086E+02 -0.28078812777E+02  0.89746588782E+02  0.12078087588E+03  0.00000000000E+00 0.  1.
        -15    1    4    4    0    0  0.52439285903E+02  0.12943357144E+02 -0.15163334940E+03  0.16097589751E+03  0.17770000000E+01 0. -1.
         15    1    4    4    0    0 -0.21989062356E+01  0.20251911754E+02  0.55787073228E+01  0.21195632161E+02  0.17770000000E+01 0.  1.
</event>
<event>
 8    1  0.1807540E-005  0.1829675E+03  0.7546771E-02  0.1068083E+00
        -11   -1    0    0    0    0  0.00000000000E+00  0.00000000000E+00  0.18250000000E+03  0.18250000000E+03  0.00000000000E+00 0.  1.
         11   -1    0    0    0    0 -0.00000000000E+00 -0.00000000000E+00 -0.18250000000E+03  0.18250000000E+03  0.00000000000E+00 0. -1.
         23    2    1    2    0    0  0.75395542694E+01 -0.63763736015E+02  0.14531415889E+03  0.18203248899E+03  0.88864860132E+02 0.  0.
         23    2    1    2    0    0 -0.75395542694E+01  0.63763736015E+02 -0.14531415889E+03  0.18296751101E+03  0.90764786139E+02 0.  0.
        -11    1    3    3    0    0  0.23097084013E+01  0.22778414302E+02  0.28418295984E+02  0.36493704356E+02  0.00000000000E+00 0.  1.
         11    1    3    3    0    0  0.52298458680E+01 -0.86542150317E+02  0.11689586290E+03  0.14553878463E+03  0.00000000000E+00 0. -1.
        -15    1    4    4    0    0  0.93181254142E+01 -0.21246590735E+02 -0.42807669763E+02  0.48722678484E+02  0.17770000000E+01 0.  1.
         15    1    4    4    0    0 -0.16857679684E+02  0.85010326750E+02 -0.10250648912E+03  0.13424483253E+03  0.17770000000E+01 0. -1.
</event>
<event>
 8    1  0.1807540E-005  0.1830713E+03  0.7546771E-02  0.1068001E+00
        -11   -1    0    0    0    0  0.00000000000E+00  0.00000000000E+00  0.18250000000E+03  0.18250000000E+03  0.00000000000E+00 0.  1.
         11   -1    0    0    0    0 -0.00000000000E+00 -0.00000000000E+00 -0.18250000000E+03  0.18250000000E+03  0.00000000000E+00 0. -1.
         23    2    1    2    0    0 -0.29820693072E+02  0.69510729328E+01  0.15594688300E+03  0.18192866397E+03  0.88549518962E+02 0.  0.
         23    2    1    2    0    0  0.29820693072E+02 -0.69510729328E+01 -0.15594688300E+03  0.18307133603E+03  0.90874048040E+02 0.  0.
        -11    1    3    3    0    0 -0.61227378045E+02  0.57766037433E+01  0.11378999924E+03  0.12934575718E+03  0.00000000000E+00 0.  1.
         11    1    3    3    0    0  0.31406684973E+02  0.11744691895E+01  0.42156883761E+02  0.52582906798E+02  0.00000000000E+00 0. -1.
        -15    1    4    4    0    0  0.30637234111E+02 -0.12472627874E+02 -0.68097105764E+01  0.33819172775E+02  0.17770000000E+01 0.  1.
         15    1    4    4    0    0 -0.81654103839E+00  0.55215549407E+01 -0.14913717242E+03  0.14925216325E+03  0.17770000000E+01 0. -1.
</event>
<event>
 8    1  0.1807540E-005  0.1830505E+03  0.7546771E-02  0.1068017E+00
        -11   -1    0    0    0    0  0.00000000000E+00  0.00000000000E+00  0.18250000000E+03  0.18250000000E+03  0.00000000000E+00 0. -1.
         11   -1    0    0    0    0 -0.00000000000E+00 -0.00000000000E+00 -0.18250000000E+03  0.18250000000E+03  0.00000000000E+00 0.  1.
         23    2    1    2    0    0  0.12040963865E+03  0.10158953673E+02  0.10171644181E+03  0.18194953963E+03  0.90320069849E+02 0.  0.
         23    2    1    2    0    0 -0.12040963865E+03 -0.10158953673E+02 -0.10171644181E+03  0.18305046037E+03  0.92517841999E+02 0.  0.
        -11    1    3    3    0    0  0.71188007741E+02 -0.29056769164E+02  0.89232015322E+02  0.11778956167E+03  0.00000000000E+00 0. -1.
         11    1    3    3    0    0  0.49221630907E+02  0.39215722837E+02  0.12484426489E+02  0.64159977958E+02  0.00000000000E+00 0.  1.
        -15    1    4    4    0    0 -0.81224553528E+02 -0.15739074489E+02 -0.11462882295E+03  0.14137917577E+03  0.17770000000E+01 0.  1.
         15    1    4    4    0    0 -0.39185085120E+02  0.55801208160E+01  0.12912381143E+02  0.41671284597E+02  0.17770000000E+01 0. -1.
</event>
<event>
 8    1  0.1807540E-005  0.1842189E+03  0.7546771E-02  0.1067095E+00
        -11   -1    0    0    0    0  0.00000000000E+00  0.00000000000E+00  0.18250000000E+03  0.18250000000E+03  0.00000000000E+00 0.  1.
         11   -1    0    0    0    0 -0.00000000000E+00 -0.00000000000E+00 -0.18250000000E+03  0.18250000000E+03  0.00000000000E+00 0. -1.
         23    2    1    2    0    0 -0.27536976031E+02  0.64758575208E+02  0.14449273097E+03  0.18078106044E+03  0.82774901989E+02 0.  0.
         23    2    1    2    0    0  0.27536976031E+02 -0.64758575208E+02 -0.14449273097E+03  0.18421893956E+03  0.90036160950E+02 0.  0.
        -11    1    3    3    0    0 -0.28653338794E+02  0.81767751230E+02  0.95691413975E+02  0.12908844129E+03  0.00000000000E+00 0. -1.
         11    1    3    3    0    0  0.11163627625E+01 -0.17009176021E+02  0.48801316992E+02  0.51692619153E+02  0.00000000000E+00 0.  1.
        -15    1    4    4    0    0  0.54555106855E+02 -0.67783067007E+02 -0.11020495642E+03  0.14042469158E+03  0.17770000000E+01 0.  1.
         15    1    4    4    0    0 -0.27018130823E+02  0.30244917986E+01 -0.34287774543E+02  0.43794247978E+02  0.17770000000E+01 0. -1.
</event>
<event>
 8    1  0.1807540E-005  0.1828754E+03  0.7546771E-02  0.1068156E+00
        -11   -1    0    0    0    0  0.00000000000E+00  0.00000000000E+00  0.18250000000E+03  0.18250000000E+03  0.00000000000E+00 0.  1.
         11   -1    0    0    0    0 -0.00000000000E+00 -0.00000000000E+00 -0.18250000000E+03  0.18250000000E+03  0.00000000000E+00 0. -1.
         23    2    1    2    0    0 -0.52314765701E+01  0.14245921427E+03  0.68051185968E+02  0.18287540907E+03  0.92143666370E+02 0.  0.
         23    2    1    2    0    0  0.52314765701E+01 -0.14245921427E+03 -0.68051185968E+02  0.18212459093E+03  0.90644396587E+02 0.  0.
        -11    1    3    3    0    0 -0.38445654838E+02  0.11737882332E+03  0.31461166959E+02  0.12745846997E+03  0.00000000000E+00 0.  1.
         11    1    3    3    0    0  0.33214178268E+02  0.25080390952E+02  0.36590019008E+02  0.55416939101E+02  0.00000000000E+00 0. -1.
        -15    1    4    4    0    0 -0.22435510508E+02  0.31501761375E+00 -0.26774214414E+01  0.22666664564E+02  0.17770000000E+01 0.  1.
         15    1    4    4    0    0  0.27666987078E+02 -0.14277423189E+03 -0.65373764527E+02  0.15945792637E+03  0.17770000000E+01 0. -1.
</event>
<event>
 7    1  0.1807540E-005  0.1710381E+03  0.7546771E-02  0.1077963E+00
        -11   -1    0    0    0    0  0.00000000000E+00  0.00000000000E+00  0.18250000000E+03  0.18250000000E+03  0.00000000000E+00 0.  1.
         11   -1    0    0    0    0 -0.00000000000E+00 -0.00000000000E+00 -0.18250000000E+03  0.18250000000E+03  0.00000000000E+00 0. -1.
         23    2    1    2    0    0 -0.43048888669E+02  0.13325233143E+03  0.17569735190E+02  0.16839325120E+03  0.91859679993E+02 0.  0.
        -11    1    1    2    0    0 -0.44112622086E+02 -0.11130430701E+02 -0.86135844400E+01  0.46303388124E+02  0.00000000000E+00 0.  1.
         11    1    1    2    0    0  0.87161510755E+02 -0.12212190073E+03 -0.89561507505E+01  0.15030336068E+03  0.00000000000E+00 0. -1.
        -15    1    3    3    0    0 -0.61058282081E+02  0.53791278294E+02 -0.10788340656E+02  0.82104576330E+02  0.17770000000E+01 0. -1.
         15    1    3    3    0    0  0.18009393412E+02  0.79461053133E+02  0.28358075846E+02  0.86288674870E+02  0.17770000000E+01 0.  1.
</event>
<event>
 8    1  0.1807540E-005  0.1828943E+03  0.7546771E-02  0.1068141E+00
        -11   -1    0    0    0    0  0.00000000000E+00  0.00000000000E+00  0.18250000000E+03  0.18250000000E+03  0.00000000000E+00 0.  1.
         11   -1    0    0    0    0 -0.00000000000E+00 -0.00000000000E+00 -0.18250000000E+03  0.18250000000E+03  0.00000000000E+00 0. -1.
         23    2    1    2    0    0  0.11016815776E+03 -0.58055970875E+02 -0.96235253222E+02  0.18210568958E+03  0.91617353565E+02 0.  0.
         23    2    1    2    0    0 -0.11016815776E+03  0.58055970875E+02  0.96235253222E+02  0.18289431042E+03  0.93175029295E+02 0.  0.
        -11    1    3    3    0    0  0.38459997571E+02 -0.41359561599E+02  0.52547160284E+01  0.56722101419E+02  0.00000000000E+00 0.  1.
         11    1    3    3    0    0  0.71708160191E+02 -0.16696409276E+02 -0.10148996925E+03  0.12538358816E+03  0.00000000000E+00 0. -1.
        -15    1    4    4    0    0 -0.44007595404E+02  0.74876200231E+02  0.47586417795E+02  0.99049173151E+02  0.17770000000E+01 0.  1.
         15    1    4    4    0    0 -0.66160562358E+02 -0.16820229356E+02  0.48648835426E+02  0.83845137274E+02  0.17770000000E+01 0. -1.
</event>
<event>
 8    1  0.1807540E-005  0.1825325E+03  0.7546771E-02  0.1068429E+00
        -11   -1    0    0    0    0  0.00000000000E+00  0.00000000000E+00  0.18250000000E+03  0.18250000000E+03  0.00000000000E+00 0.  1.
         11   -1    0    0    0    0 -0.00000000000E+00 -0.00000000000E+00 -0.18250000000E+03  0.18250000000E+03  0.00000000000E+00 0. -1.
         23    2    1    2    0    0 -0.75130971318E+02 -0.35927370988E+02  0.13465314180E+03  0.18246746122E+03  0.90705385568E+02 0.  0.
         23    2    1    2    0    0  0.75130971318E+02  0.35927370988E+02 -0.13465314180E+03  0.18253253878E+03  0.90836227778E+02 0.  0.
        -11    1    3    3    0    0 -0.79903809197E+02 -0.15985546721E+02  0.13935430631E+03  0.16143041570E+03  0.00000000000E+00 0.  1.
         11    1    3    3    0    0  0.47728378792E+01 -0.19941824267E+02 -0.47011645043E+01  0.21037045520E+02  0.00000000000E+00 0. -1.
        -15    1    4    4    0    0  0.70200421973E+02  0.63367781627E+02 -0.11176169886E+03  0.14641519749E+03  0.17770000000E+01 0.  1.
         15    1    4    4    0    0  0.49305493446E+01 -0.27440410638E+02 -0.22891442940E+02  0.36117341288E+02  0.17770000000E+01 0. -1.
</event>
<event>
 8    1  0.1807540E-005  0.1827173E+03  0.7546771E-02  0.1068282E+00
        -11   -1    0    0    0    0  0.00000000000E+00  0.00000000000E+00  0.18250000000E+03  0.18250000000E+03  0.00000000000E+00 0.  1.
         11   -1    0    0    0    0 -0.00000000000E+00 -0.00000000000E+00 -0.18250000000E+03  0.18250000000E+03  0.00000000000E+00 0. -1.
         23    2    1    2    0    0 -0.88982972556E+02 -0.13093432784E+03 -0.39931646644E+01  0.18271732463E+03  0.91147724843E+02 0.  0.
         23    2    1    2    0    0  0.88982972556E+02  0.13093432784E+03  0.39931646644E+01  0.18228267537E+03  0.90273256072E+02 0.  0.
        -11    1    3    3    0    0  0.18481292050E+02 -0.12685095444E+02  0.38281955747E+01  0.22740380024E+02  0.00000000000E+00 0.  1.
         11    1    3    3    0    0 -0.10746426461E+03 -0.11824923240E+03 -0.78213602391E+01  0.15997694461E+03  0.00000000000E+00 0. -1.
        -15    1    4    4    0    0 -0.66527268002E+01  0.49395461309E+02  0.23423590079E+02  0.55099842767E+02  0.17770000000E+01 0. -1.
         15    1    4    4    0    0  0.95635699356E+02  0.81538866536E+02 -0.19430425415E+02  0.12718283260E+03  0.17770000000E+01 0.  1.
</event>
<event>
 8    1  0.1807540E-005  0.1840367E+03  0.7546771E-02  0.1067238E+00
        -11   -1    0    0    0    0  0.00000000000E+00  0.00000000000E+00  0.18250000000E+03  0.18250000000E+03  0.00000000000E+00 0. -1.
         11   -1    0    0    0    0 -0.00000000000E+00 -0.00000000000E+00 -0.18250000000E+03  0.18250000000E+03  0.00000000000E+00 0.  1.
         23    2    1    2    0    0 -0.60646383215E+02  0.12822898367E+03  0.54954647039E+02  0.18096329919E+03  0.98015541484E+02 0.  0.
         23    2    1    2    0    0  0.60646383215E+02 -0.12822898367E+03 -0.54954647039E+02  0.18403670081E+03  0.10358010409E+03 0.  0.
        -11    1    3    3    0    0 -0.21306456048E+02  0.42242002897E+02  0.70732943294E+02  0.85097010200E+02  0.00000000000E+00 0. -1.
         11    1    3    3    0    0 -0.39339927167E+02  0.85986980772E+02 -0.15778296255E+02  0.95866288989E+02  0.00000000000E+00 0.  1.
        -15    1    4    4    0    0 -0.17024854837E+02 -0.34035444511E+02 -0.48625780320E+02  0.61772820933E+02  0.17770000000E+01 0.  1.
         15    1    4    4    0    0  0.77671238051E+02 -0.94193539159E+02 -0.63288667187E+01  0.12226387988E+03  0.17770000000E+01 0. -1.
</event>
<event>
 8    1  0.1807540E-005  0.1825122E+03  0.7546771E-02  0.1068445E+00
        -11   -1    0    0    0    0  0.00000000000E+00  0.00000000000E+00  0.18250000000E+03  0.18250000000E+03  0.00000000000E+00 0. -1.
         11   -1    0    0    0    0 -0.00000000000E+00 -0.00000000000E+00 -0.18250000000E+03  0.18250000000E+03  0.00000000000E+00 0.  1.
         23    2    1    2    0    0  0.12859394794E+03 -0.75469995000E+02  0.51941027947E+02  0.18251220540E+03  0.91546224072E+02 0.  0.
         23    2    1    2    0    0 -0.12859394794E+03  0.75469995000E+02 -0.51941027947E+02  0.18248779460E+03  0.91497547515E+02 0.  0.
        -11    1    3    3    0    0  0.32572804312E+02  0.58819554311E+00  0.50394612709E+02  0.60007920684E+02  0.00000000000E+00 0. -1.
         11    1    3    3    0    0  0.96021143632E+02 -0.76058190543E+02  0.15464152381E+01  0.12250428471E+03  0.00000000000E+00 0.  1.
        -15    1    4    4    0    0 -0.57155060974E+02  0.14314280822E+02 -0.64749450978E+02  0.87562827509E+02  0.17770000000E+01 0.  1.
         15    1    4    4    0    0 -0.71438886970E+02  0.61155714178E+02  0.12808423030E+02  0.94924967093E+02  0.17770000000E+01 0. -1.
</event>
<event>
 8    1  0.1807540E-005  0.1830464E+03  0.7546771E-02  0.1068021E+00
        -11   -1    0    0    0    0  0.00000000000E+00  0.00000000000E+00  0.18250000000E+03  0.18250000000E+03  0.00000000000E+00 0.  1.
         11   -1    0    0    0    0 -0.00000000000E+00 -0.00000000000E+00 -0.18250000000E+03  0.18250000000E+03  0.00000000000E+00 0. -1.
         23    2    1    2    0    0 -0.42012531772E+02  0.11764265581E+03  0.96400357106E+02  0.18304639861E+03  0.92779889543E+02 0.  0.
         23    2    1    2    0    0  0.42012531772E+02 -0.11764265581E+03 -0.96400357106E+02  0.18195360139E+03  0.90604839358E+02 0.  0.
        -11    1    3    3    0    0  0.24062097923E+02  0.76377737927E+01  0.27744318378E+02  0.37510896379E+02  0.00000000000E+00 0. -1.
         11    1    3    3    0    0 -0.66074629695E+02  0.11000488202E+03  0.68656038729E+02  0.14553550224E+03  0.00000000000E+00 0.  1.
        -15    1    4    4    0    0  0.36074333504E+02 -0.11659314526E+03 -0.44876437256E+02  0.13004757363E+03  0.17770000000E+01 0.  1.
         15    1    4    4    0    0  0.59381982677E+01 -0.10495105535E+01 -0.51523919851E+02  0.51906027751E+02  0.17770000000E+01 0. -1.
</event>
<event>
 8    1  0.1807540E-005  0.1826185E+03  0.7546771E-02  0.1068361E+00
        -11   -1    0    0    0    0  0.00000000000E+00  0.00000000000E+00  0.18250000000E+03  0.18250000000E+03  0.00000000000E+00 0.  1.
         11   -1    0    0    0    0 -0.00000000000E+00 -0.00000000000E+00 -0.18250000000E+03  0.18250000000E+03  0.00000000000E+00 0. -1.
         23    2    1    2    0    0  0.26882995722E+02 -0.30151295654E+02 -0.15363998959E+03  0.18261849881E+03  0.90069271205E+02 0.  0.
         23    2    1    2    0    0 -0.26882995722E+02  0.30151295654E+02  0.15363998959E+03  0.18238150119E+03  0.89587775316E+02 0.  0.
        -11    1    3    3    0    0 -0.47941788079E+01  0.23843733949E+02 -0.10698791995E+02  0.26570132653E+02  0.00000000000E+00 0.  1.
         11    1    3    3    0    0  0.31677174530E+02 -0.53995029603E+02 -0.14294119760E+03  0.15604836615E+03  0.00000000000E+00 0. -1.
        -15    1    4    4    0    0  0.30838135471E+02  0.93481763437E+01  0.28744800715E+02  0.43218055225E+02  0.17770000000E+01 0.  1.
         15    1    4    4    0    0 -0.57721131194E+02  0.20803119310E+02  0.12489518888E+03  0.13916344597E+03  0.17770000000E+01 0. -1.
</event>
<event>
 8    1  0.1807540E-005  0.1828521E+03  0.7546771E-02  0.1068175E+00
        -11   -1    0    0    0    0  0.00000000000E+00  0.00000000000E+00  0.18250000000E+03  0.18250000000E+03  0.00000000000E+00 0.  1.
         11   -1    0    0    0    0 -0.00000000000E+00 -0.00000000000E+00 -0.18250000000E+03  0.18250000000E+03  0.00000000000E+00 0. -1.
         23    2    1    2    0    0  0.11658370089E+03  0.16518725687E+02 -0.10594177974E+03  0.18214789917E+03  0.89942030589E+02 0.  0.
         23    2    1    2    0    0 -0.11658370089E+03 -0.16518725687E+02  0.10594177974E+03  0.18285210083E+03  0.91359742084E+02 0.  0.
        -11    1    3    3    0    0 -0.26215147072E+01  0.21933831007E+02 -0.40298912546E+02  0.45956149038E+02  0.00000000000E+00 0.  1.
         11    1    3    3    0    0  0.11920521559E+03 -0.54151053206E+01 -0.65642867195E+02  0.13619175013E+03  0.00000000000E+00 0. -1.
        -15    1    4    4    0    0 -0.51981322075E+02  0.36596136257E+02  0.31947982837E+02  0.71169982225E+02  0.17770000000E+01 0. -1.
         15    1    4    4    0    0 -0.64602378810E+02 -0.53114861943E+02  0.73993796904E+02  0.11168211861E+03  0.17770000000E+01 0.  1.
</event>
<event>
 8    1  0.1807540E-005  0.1830758E+03  0.7546771E-02  0.1067997E+00
        -11   -1    0    0    0    0  0.00000000000E+00  0.00000000000E+00  0.18250000000E+03  0.18250000000E+03  0.00000000000E+00 0. -1.
         11   -1    0    0    0    0 -0.00000000000E+00 -0.00000000000E+00 -0.18250000000E+03  0.18250000000E+03  0.00000000000E+00 0.  1.
         23    2    1    2    0    0 -0.19245290766E+02 -0.15068758203E+02  0.15686495074E+03  0.18192423134E+03  0.88838980689E+02 0.  0.
         23    2    1    2    0    0  0.19245290766E+02  0.15068758203E+02 -0.15686495074E+03  0.18307576866E+03  0.91173875695E+02 0.  0.
        -11    1    3    3    0    0 -0.51594790156E+02  0.79597039296E+01  0.82734273810E+02  0.97828111096E+02  0.00000000000E+00 0. -1.
         11    1    3    3    0    0  0.32349499390E+02 -0.23028462133E+02  0.74130676927E+02  0.84096120247E+02  0.00000000000E+00 0.  1.
        -15    1    4    4    0    0  0.48476422540E+02  0.33837671956E+02 -0.89805773062E+02  0.10753225651E+03  0.17770000000E+01 0.  1.
         15    1    4    4    0    0 -0.29231131774E+02 -0.18768913753E+02 -0.67059177674E+02  0.75543512148E+02  0.17770000000E+01 0. -1.
</event>
<event>
 8    1  0.1807540E-005  0.1830413E+03  0.7546771E-02  0.1068025E+00
        -11   -1    0    0    0    0  0.00000000000E+00  0.00000000000E+00  0.18250000000E+03  0.18250000000E+03  0.00000000000E+00 0. -1.
         11   -1    0    0    0    0 -0.00000000000E+00 -0.00000000000E+00 -0.18250000000E+03  0.18250000000E+03  0.00000000000E+00 0.  1.
         23    2    1    2    0    0  0.28844719867E+02  0.16771800779E+00 -0.15554613684E+03  0.18304131508E+03  0.92073211871E+02 0.  0.
         23    2    1    2    0    0 -0.28844719867E+02 -0.16771800779E+00  0.15554613684E+03  0.18195868492E+03  0.89901703757E+02 0.  0.
        -11    1    3    3    0    0  0.28720953211E+02  0.21908102076E+02 -0.15714360986E+03  0.16124196789E+03  0.00000000000E+00 0.  1.
         11    1    3    3    0    0  0.12376665604E+00 -0.21740384068E+02  0.15974730162E+01  0.21799347184E+02  0.00000000000E+00 0. -1.
        -15    1    4    4    0    0 -0.31252508129E+02  0.42463920342E+01  0.16666220398E+03  0.16962959374E+03  0.17770000000E+01 0. -1.
         15    1    4    4    0    0  0.24077882620E+01 -0.44141100420E+01 -0.11116067134E+02  0.12329091180E+02  0.17770000000E+01 0.  1.
</event>
<event>
 8    1  0.1807540E-005  0.1856043E+03  0.7546771E-02  0.1066010E+00
        -11   -1    0    0    0    0  0.00000000000E+00  0.00000000000E+00  0.18250000000E+03  0.18250000000E+03  0.00000000000E+00 0. -1.
         11   -1    0    0    0    0 -0.00000000000E+00 -0.00000000000E+00 -0.18250000000E+03  0.18250000000E+03  0.00000000000E+00 0.  1.
         23    2    1    2    0    0 -0.67653203293E+01 -0.46340368523E+02  0.15413977558E+03  0.17939565786E+03  0.78933721117E+02 0.  0.
         23    2    1    2    0    0  0.67653203293E+01  0.46340368523E+02 -0.15413977558E+03  0.18560434214E+03  0.92177557413E+02 0.  0.
        -11    1    3    3    0    0 -0.42331085848E+02 -0.24599292059E+02  0.69074000357E+02  0.84665598233E+02  0.00000000000E+00 0.  1.
         11    1    3    3    0    0  0.35565765519E+02 -0.21741076464E+02  0.85065775224E+02  0.94730059628E+02  0.00000000000E+00 0. -1.
        -15    1    4    4    0    0  0.67688104526E+01  0.61487447755E+02 -0.47849932754E+02  0.78225934446E+02  0.17770000000E+01 0. -1.
         15    1    4    4    0    0 -0.34901232951E-02 -0.15147079232E+02 -0.10628984283E+03  0.10737840769E+03  0.17770000000E+01 0.  1.
</event>
<event>
 8    1  0.1807540E-005  0.1830611E+03  0.7546771E-02  0.1068009E+00
        -11   -1    0    0    0    0  0.00000000000E+00  0.00000000000E+00  0.18250000000E+03  0.18250000000E+03  0.00000000000E+00 0. -1.
         11   -1    0    0    0    0 -0.00000000000E+00 -0.00000000000E+00 -0.18250000000E+03  0.18250000000E+03  0.00000000000E+00 0.  1.
         23    2    1    2    0    0  0.10976915517E+03 -0.11178348193E+03 -0.25347798496E+02  0.18193888241E+03  0.88963092278E+02 0.  0.
         23    2    1    2    0    0 -0.10976915517E+03  0.11178348193E+03  0.25347798496E+02  0.18306111759E+03  0.91236218825E+02 0.  0.
        -11    1    3    3    0    0  0.24775505487E+02 -0.67069997717E+02  0.22076223335E+02  0.74830273971E+02  0.00000000000E+00 0.  1.
         11    1    3    3    0    0  0.84993649678E+02 -0.44713484212E+02 -0.47424021830E+02  0.10710860844E+03  0.00000000000E+00 0. -1.
        -15    1    4    4    0    0 -0.92128716490E+02  0.78150530400E+02  0.56996333581E+02  0.13359246077E+03  0.17770000000E+01 0.  1.
         15    1    4    4    0    0 -0.17640438675E+02  0.33632951529E+02 -0.31648535085E+02  0.49468656816E+02  0.17770000000E+01 0. -1.
</event>
<event>
 8    1  0.1807540E-005  0.1832604E+03  0.7546771E-02  0.1067851E+00
        -11   -1    0    0    0    0  0.00000000000E+00  0.00000000000E+00  0.18250000000E+03  0.18250000000E+03  0.00000000000E+00 0.  1.
         11   -1    0    0    0    0 -0.00000000000E+00 -0.00000000000E+00 -0.18250000000E+03  0.18250000000E+03  0.00000000000E+00 0. -1.
         23    2    1    2    0    0  0.52734393397E+02 -0.14230881707E+03  0.40413392742E+02  0.18173961086E+03  0.91451233896E+02 0.  0.
         23    2    1    2    0    0 -0.52734393397E+02  0.14230881707E+03 -0.40413392742E+02  0.18326038914E+03  0.94437345636E+02 0.  0.
        -11    1    3    3    0    0  0.71374507325E+02 -0.14143152748E+03  0.38081556168E+02  0.16293373556E+03  0.00000000000E+00 0.  1.
         11    1    3    3    0    0 -0.18640113929E+02 -0.87728958799E+00  0.23318365737E+01  0.18805875308E+02  0.00000000000E+00 0. -1.
        -15    1    4    4    0    0  0.13050016751E+02  0.98563824538E+02 -0.27672816468E+02  0.10321856880E+03  0.17770000000E+01 0.  1.
         15    1    4    4    0    0 -0.65784410147E+02  0.43744992533E+02 -0.12740576274E+02  0.80041820337E+02  0.17770000000E+01 0. -1.
</event>
<event>
 8    1  0.1807540E-005  0.1827725E+03  0.7546771E-02  0.1068238E+00
        -11   -1    0    0    0    0  0.00000000000E+00  0.00000000000E+00  0.18250000000E+03  0.18250000000E+03  0.00000000000E+00 0.  1.
         11   -1    0    0    0    0 -0.00000000000E+00 -0.00000000000E+00 -0.18250000000E+03  0.18250000000E+03  0.00000000000E+00 0. -1.
         23    2    1    2    0    0 -0.73051383330E+01 -0.31009710232E+02 -0.15451793323E+03  0.18277251657E+03  0.92276941600E+02 0.  0.
         23    2    1    2    0    0  0.73051383330E+01  0.31009710232E+02  0.15451793323E+03  0.18222748343E+03  0.91192635956E+02 0.  0.
        -11    1    3    3    0    0 -0.27396735801E+02  0.10074326794E+02 -0.12494696221E+03  0.12831140463E+03  0.00000000000E+00 0. -1.
         11    1    3    3    0    0  0.20091597468E+02 -0.41084037026E+02 -0.29570971019E+02  0.54461111944E+02  0.00000000000E+00 0.  1.
        -15    1    4    4    0    0  0.90169515788E+00 -0.94338508748E+01  0.13751840628E+03  0.13785601326E+03  0.17770000000E+01 0.  1.
         15    1    4    4    0    0  0.64034431751E+01  0.40443561107E+02  0.16999526946E+02  0.44371470168E+02  0.17770000000E+01 0. -1.
</event>
<event>
 8    1  0.1807540E-005  0.1832099E+03  0.7546771E-02  0.1067891E+00
        -11   -1    0    0    0    0  0.00000000000E+00  0.00000000000E+00  0.18250000000E+03  0.18250000000E+03  0.00000000000E+00 0.  1.
         11   -1    0    0    0    0 -0.00000000000E+00 -0.00000000000E+00 -0.18250000000E+03  0.18250000000E+03  0.00000000000E+00 0. -1.
         23    2    1    2    0    0  0.13319317887E+03  0.17960705206E+02 -0.83295480594E+02  0.18320993807E+03  0.92545850755E+02 0.  0.
         23    2    1    2    0    0 -0.13319317887E+03 -0.17960705206E+02  0.83295480594E+02  0.18179006193E+03  0.89702172218E+02 0.  0.
        -11    1    3    3    0    0  0.11334351948E+03  0.18000601642E+02 -0.10374889270E+03  0.15470813749E+03  0.00000000000E+00 0. -1.
         11    1    3    3    0    0  0.19849659387E+02 -0.39896436097E-01  0.20453412110E+02  0.28501800582E+02  0.00000000000E+00 0.  1.
        -15    1    4    4    0    0 -0.32390895157E+02  0.18466706560E+02 -0.11113180974E+02  0.38946756740E+02  0.17770000000E+01 0. -1.
         15    1    4    4    0    0 -0.10080228371E+03 -0.36427411766E+02  0.94408661568E+02  0.14284330519E+03  0.17770000000E+01 0.  1.
</event>
<event>
 8    1  0.1807540E-005  0.1841906E+03  0.7546771E-02  0.1067117E+00
        -11   -1    0    0    0    0  0.00000000000E+00  0.00000000000E+00  0.18250000000E+03  0.18250000000E+03  0.00000000000E+00 0.  1.
         11   -1    0    0    0    0 -0.00000000000E+00 -0.00000000000E+00 -0.18250000000E+03  0.18250000000E+03  0.00000000000E+00 0.  1.
         23    2    1    2    0    0 -0.75666005979E+02 -0.90513411772E+02 -0.10116623575E+03  0.18419064355E+03  0.98861335936E+02 0.  0.
         23    2    1    2    0    0  0.75666005979E+02  0.90513411772E+02  0.10116623575E+03  0.18080935645E+03  0.92408841324E+02 0.  0.
        -11    1    3    3    0    0 -0.50124895225E+02 -0.10477318796E+03 -0.10250154003E+03  0.15490801059E+03  0.00000000000E+00 0.  1.
         11    1    3    3    0    0 -0.25541110755E+02  0.14259776187E+02  0.13353042787E+01  0.29282632959E+02  0.00000000000E+00 0.  1.
        -15    1    4    4    0    0  0.90904378338E+01  0.66805581621E+02  0.84612755868E+02  0.10820396472E+03  0.17770000000E+01 0.  1.
         15    1    4    4    0    0  0.66575568146E+02  0.23707830151E+02  0.16553479879E+02  0.72605391738E+02  0.17770000000E+01 0. -1.
</event>
<event>
 8    1  0.1807540E-005  0.1856576E+03  0.7546771E-02  0.1065969E+00
        -11   -1    0    0    0    0  0.00000000000E+00  0.00000000000E+00  0.18250000000E+03  0.18250000000E+03  0.00000000000E+00 0. -1.
         11   -1    0    0    0    0 -0.00000000000E+00 -0.00000000000E+00 -0.18250000000E+03  0.18250000000E+03  0.00000000000E+00 0.  1.
         23    2    1    2    0    0  0.63018826240E+02 -0.13186009217E+02 -0.14818101464E+03  0.17934237672E+03  0.77851343525E+02 0.  0.
         23    2    1    2    0    0 -0.63018826240E+02  0.13186009217E+02  0.14818101464E+03  0.18565762328E+03  0.91465275835E+02 0.  0.
        -11    1    3    3    0    0  0.60943819378E+02 -0.29805877798E+02 -0.14775777550E+03  0.16258812900E+03  0.00000000000E+00 0.  1.
         11    1    3    3    0    0  0.20750068617E+01  0.16619868581E+02 -0.42323913416E+00  0.16754247714E+02  0.00000000000E+00 0. -1.
        -15    1    4    4    0    0 -0.85225657203E+02  0.88236004540E+00  0.10204788773E+03  0.13297037386E+03  0.17770000000E+01 0.  1.
         15    1    4    4    0    0  0.22206830964E+02  0.12303649172E+02  0.46133126908E+02  0.52687249422E+02  0.17770000000E+01 0. -1.
</event>
<event>
 8    1  0.1807540E-005  0.1828107E+03  0.7546771E-02  0.1068208E+00
        -11   -1    0    0    0    0  0.00000000000E+00  0.00000000000E+00  0.18250000000E+03  0.18250000000E+03  0.00000000000E+00 0.  1.
         11   -1    0    0    0    0 -0.00000000000E+00 -0.00000000000E+00 -0.18250000000E+03  0.18250000000E+03  0.00000000000E+00 0. -1.
         23    2    1    2    0    0 -0.82300741952E+02 -0.36377903717E+02 -0.12953167800E+03  0.18218932335E+03  0.91201589530E+02 0.  0.
         23    2    1    2    0    0  0.82300741952E+02  0.36377903717E+02  0.12953167800E+03  0.18281067665E+03  0.92436593879E+02 0.  0.
        -11    1    3    3    0    0 -0.15625809250E+02 -0.43781347147E+02 -0.97148041268E+02  0.10769732678E+03  0.00000000000E+00 0.  1.
         11    1    3    3    0    0 -0.66674932702E+02  0.74034434305E+01 -0.32383636730E+02  0.74491996572E+02  0.00000000000E+00 0. -1.
        -15    1    4    4    0    0  0.70218592949E+02 -0.37319328361E+01  0.33264330971E+02  0.77809071209E+02  0.17770000000E+01 0.  1.
         15    1    4    4    0    0  0.12082149003E+02  0.40109836553E+02  0.96267347027E+02  0.10500160544E+03  0.17770000000E+01 0. -1.
</event>
<event>
 8    1  0.1807540E-005  0.1836437E+03  0.7546771E-02  0.1067548E+00
        -11   -1    0    0    0    0  0.00000000000E+00  0.00000000000E+00  0.18250000000E+03  0.18250000000E+03  0.00000000000E+00 0.  1.
         11   -1    0    0    0    0 -0.00000000000E+00 -0.00000000000E+00 -0.18250000000E+03  0.18250000000E+03  0.00000000000E+00 0. -1.
         23    2    1    2    0    0  0.99984121289E+01 -0.52680348696E+02 -0.14982482272E+03  0.18364369310E+03  0.91664284906E+02 0.  0.
         23    2    1    2    0    0 -0.99984121289E+01  0.52680348696E+02  0.14982482272E+03  0.18135630690E+03  0.86991063716E+02 0.  0.
        -11    1    3    3    0    0 -0.53950305090E+00  0.48577508928E+01  0.11255628630E+02  0.12271022090E+02  0.00000000000E+00 0.  1.
         11    1    3    3    0    0  0.10537915180E+02 -0.57538099589E+02 -0.16108045135E+03  0.17137267101E+03  0.00000000000E+00 0. -1.
        -15    1    4    4    0    0 -0.22843907401E+02  0.73719294919E+02  0.11900510046E+03  0.14185115513E+03  0.17770000000E+01 0.  1.
         15    1    4    4    0    0  0.12845495272E+02 -0.21038946223E+02  0.30819722263E+02  0.39505151769E+02  0.17770000000E+01 0. -1.
</event>
<event>
 8    1  0.1807540E-005  0.1825369E+03  0.7546771E-02  0.1068425E+00
        -11   -1    0    0    0    0  0.00000000000E+00  0.00000000000E+00  0.18250000000E+03  0.18250000000E+03  0.00000000000E+00 0.  1.
         11   -1    0    0    0    0 -0.00000000000E+00 -0.00000000000E+00 -0.18250000000E+03  0.18250000000E+03  0.00000000000E+00 0. -1.
         23    2    1    2    0    0  0.12653365867E+02  0.45300036104E+02 -0.15123275693E+03  0.18253691771E+03  0.90753394544E+02 0.  0.
         23    2    1    2    0    0 -0.12653365867E+02 -0.45300036104E+02  0.15123275693E+03  0.18246308229E+03  0.90604793964E+02 0.  0.
        -11    1    3    3    0    0 -0.37850449797E+02  0.77793419455E+01 -0.47719514552E+02  0.61402986735E+02  0.00000000000E+00 0.  1.
         11    1    3    3    0    0  0.50503815664E+02  0.37520694158E+02 -0.10351324238E+03  0.12113393098E+03  0.00000000000E+00 0. -1.
        -15    1    4    4    0    0 -0.35955674167E+02 -0.11253165258E+02  0.13129680351E+03  0.13660692725E+03  0.17770000000E+01 0.  1.
         15    1    4    4    0    0  0.23302308300E+02 -0.34046870845E+02  0.19935953424E+02  0.45856155033E+02  0.17770000000E+01 0. -1.
</event>
<event>
 8    1  0.1807540E-005  0.1827561E+03  0.7546771E-02  0.1068251E+00
        -11   -1    0    0    0    0  0.00000000000E+00  0.00000000000E+00  0.18250000000E+03  0.18250000000E+03  0.00000000000E+00 0.  1.
         11   -1    0    0    0    0 -0.00000000000E+00 -0.00000000000E+00 -0.18250000000E+03  0.18250000000E+03  0.00000000000E+00 0. -1.
         23    2    1    2    0    0 -0.11825311423E+03 -0.41861724902E+02 -0.97806494670E+02  0.18224386541E+03  0.88941064992E+02 0.  0.
         23    2    1    2    0    0  0.11825311423E+03  0.41861724902E+02  0.97806494670E+02  0.18275613459E+03  0.89986061671E+02 0.  0.
        -11    1    3    3    0    0  0.13734945317E+02 -0.75581492910E+01 -0.19383148584E+02  0.24929516493E+02  0.00000000000E+00 0. -1.
         11    1    3    3    0    0 -0.13198805955E+03 -0.34303575611E+02 -0.78423346086E+02  0.15731434891E+03  0.00000000000E+00 0.  1.
        -15    1    4    4    0    0  0.10068090860E+03  0.60309780677E+02  0.10361230495E+03  0.15656494649E+03  0.17770000000E+01 0. -1.
         15    1    4    4    0    0  0.17572205626E+02 -0.18448055774E+02 -0.58058102800E+01  0.26191188106E+02  0.17770000000E+01 0.  1.
</event>
<event>
 8    1  0.1807540E-005  0.1826894E+03  0.7546771E-02  0.1068304E+00
        -11   -1    0    0    0    0  0.00000000000E+00  0.00000000000E+00  0.18250000000E+03  0.18250000000E+03  0.00000000000E+00 0.  1.
         11   -1    0    0    0    0 -0.00000000000E+00 -0.00000000000E+00 -0.18250000000E+03  0.18250000000E+03  0.00000000000E+00 0. -1.
         23    2    1    2    0    0  0.25710100904E+02 -0.21097901764E+02 -0.15536846729E+03  0.18268937544E+03  0.90166049733E+02 0.  0.
         23    2    1    2    0    0 -0.25710100904E+02  0.21097901764E+02  0.15536846729E+03  0.18231062456E+03  0.89396154576E+02 0.  0.
        -11    1    3    3    0    0 -0.30592083183E+02  0.82872419758E+01 -0.63979820846E+02  0.71400079891E+02  0.00000000000E+00 0.  1.
         11    1    3    3    0    0  0.56302184087E+02 -0.29385143739E+02 -0.91388646441E+02  0.11128929555E+03  0.00000000000E+00 0. -1.
        -15    1    4    4    0    0  0.24790833878E+02 -0.16453006325E+02  0.31535628364E+02  0.43392861703E+02  0.17770000000E+01 0. -1.
         15    1    4    4    0    0 -0.50500934783E+02  0.37550908089E+02  0.12383283892E+03  0.13891776286E+03  0.17770000000E+01 0.  1.
</event>
<event>
 8    1  0.1807540E-005  0.1842679E+03  0.7546771E-02  0.1067056E+00
        -11   -1    0    0    0    0  0.00000000000E+00  0.00000000000E+00  0.18250000000E+03  0.18250000000E+03  0.00000000000E+00 0.  1.
         11   -1    0    0    0    0 -0.00000000000E+00 -0.00000000000E+00 -0.18250000000E+03  0.18250000000E+03  0.00000000000E+00 0. -1.
         23    2    1    2    0    0  0.11647546198E+03  0.12955599064E+02 -0.10827531791E+03  0.18073206324E+03  0.84889065400E+02 0.  0.
         23    2    1    2    0    0 -0.11647546198E+03 -0.12955599064E+02  0.10827531791E+03  0.18426793676E+03  0.92177802408E+02 0.  0.
        -11    1    3    3    0    0  0.12368509541E+03 -0.29711670333E+01 -0.10634288528E+03  0.16314300448E+03  0.00000000000E+00 0.  1.
         11    1    3    3    0    0 -0.72096334244E+01  0.15926766098E+02 -0.19324326278E+01  0.17589058767E+02  0.00000000000E+00 0. -1.
        -15    1    4    4    0    0  0.85779767576E+01  0.18177132938E+02  0.16146234399E+02  0.25842764198E+02  0.17770000000E+01 0.  1.
         15    1    4    4    0    0 -0.12505343874E+03 -0.31132732003E+02  0.92129083511E+02  0.15842517256E+03  0.17770000000E+01 0. -1.
</event>
<event>
 8    1  0.1807540E-005  0.1825697E+03  0.7546771E-02  0.1068399E+00
        -11   -1    0    0    0    0  0.00000000000E+00  0.00000000000E+00  0.18250000000E+03  0.18250000000E+03  0.00000000000E+00 0. -1.
         11   -1    0    0    0    0 -0.00000000000E+00 -0.00000000000E+00 -0.18250000000E+03  0.18250000000E+03  0.00000000000E+00 0.  1.
         23    2    1    2    0    0  0.12863084586E+03 -0.85219500592E+02 -0.34133984933E+02  0.18256965100E+03  0.91423688119E+02 0.  0.
         23    2    1    2    0    0 -0.12863084586E+03  0.85219500592E+02  0.34133984933E+02  0.18243034900E+03  0.91145189243E+02 0.  0.
        -11    1    3    3    0    0  0.14170202365E+03 -0.86055214452E+02 -0.35011131206E+02  0.16944244672E+03  0.00000000000E+00 0. -1.
         11    1    3    3    0    0 -0.13071177792E+02  0.83571386042E+00  0.87714627302E+00  0.13127204276E+02  0.00000000000E+00 0.  1.
        -15    1    4    4    0    0 -0.13439954498E+03  0.94906858995E+02  0.40374129864E+02  0.16942189252E+03  0.17770000000E+01 0.  1.
         15    1    4    4    0    0  0.57686991150E+01 -0.96873584032E+01 -0.62401449308E+01  0.13008456483E+02  0.17770000000E+01 0. -1.
</event>
<event>
 8    1  0.1807540E-005  0.1835154E+03  0.7546771E-02  0.1067649E+00
        -11   -1    0    0    0    0  0.00000000000E+00  0.00000000000E+00  0.18250000000E+03  0.18250000000E+03  0.00000000000E+00 0. -1.
         11   -1    0    0    0    0 -0.00000000000E+00 -0.00000000000E+00 -0.18250000000E+03  0.18250000000E+03  0.00000000000E+00 0.  1.
         23    2    1    2    0    0 -0.32116946915E+02  0.13979451291E+02 -0.15548113449E+03  0.18148463240E+03  0.86806481775E+02 0.  0.
         23    2    1    2    0    0  0.32116946915E+02 -0.13979451291E+02  0.15548113449E+03  0.18351536760E+03  0.90975730969E+02 0.  0.
        -11    1    3    3    0    0 -0.44747618686E+01 -0.23262992048E+02 -0.12200980429E+03  0.12428830450E+03  0.00000000000E+00 0.  1.
         11    1    3    3    0    0 -0.27642185047E+02  0.37242443339E+02 -0.33471330201E+02  0.57196327902E+02  0.00000000000E+00 0. -1.
        -15    1    4    4    0    0 -0.53530989742E+00  0.36746992628E+02  0.66437130018E+02  0.75945230251E+02  0.17770000000E+01 0.  1.
         15    1    4    4    0    0  0.32652256813E+02 -0.50726443920E+02  0.89044004472E+02  0.10757013735E+03  0.17770000000E+01 0. -1.
</event>
<event>
 8    1  0.1807540E-005  0.1828997E+03  0.7546771E-02  0.1068137E+00
        -11   -1    0    0    0    0  0.00000000000E+00  0.00000000000E+00  0.18250000000E+03  0.18250000000E+03  0.00000000000E+00 0. -1.
         11   -1    0    0    0    0 -0.00000000000E+00 -0.00000000000E+00 -0.18250000000E+03  0.18250000000E+03  0.00000000000E+00 0.  1.
         23    2    1    2    0    0  0.69250368415E+02 -0.83978130524E+01 -0.14212678618E+03  0.18289966280E+03  0.91575796544E+02 0.  0.
         23    2    1    2    0    0 -0.69250368415E+02  0.83978130524E+01  0.14212678618E+03  0.18210033720E+03  0.89968731633E+02 0.  0.
        -11    1    3    3    0    0  0.77583941472E+02 -0.32391890121E+02 -0.12984144591E+03  0.15468452927E+03  0.00000000000E+00 0.  1.
         11    1    3    3    0    0 -0.83335730573E+01  0.23994077069E+02 -0.12285340262E+02  0.28215133522E+02  0.00000000000E+00 0. -1.
        -15    1    4    4    0    0 -0.11337508650E+02  0.43207485144E+02  0.42321760542E+02  0.61560661297E+02  0.17770000000E+01 0. -1.
         15    1    4    4    0    0 -0.57912859765E+02 -0.34809672092E+02  0.99805025633E+02  0.12053967591E+03  0.17770000000E+01 0.  1.
</event>
<event>
 8    1  0.1807540E-005  0.1830209E+03  0.7546771E-02  0.1068041E+00
        -11   -1    0    0    0    0  0.00000000000E+00  0.00000000000E+00  0.18250000000E+03  0.18250000000E+03  0.00000000000E+00 0.  1.
         11   -1    0    0    0    0 -0.00000000000E+00 -0.00000000000E+00 -0.18250000000E+03  0.18250000000E+03  0.00000000000E+00 0. -1.
         23    2    1    2    0    0  0.11504750234E+03  0.23040212445E+01  0.10925157955E+03  0.18302092535E+03  0.91211376333E+02 0.  0.
         23    2    1    2    0    0 -0.11504750234E+03 -0.23040212445E+01 -0.10925157955E+03  0.18197907465E+03  0.89102411107E+02 0.  0.
        -11    1    3    3    0    0  0.10847421476E+03  0.10290656094E+02  0.44910600475E+02  0.11785378613E+03  0.00000000000E+00 0.  1.
         11    1    3    3    0    0  0.65732875882E+01 -0.79866348499E+01  0.64340979078E+02  0.65167139224E+02  0.00000000000E+00 0. -1.
        -15    1    4    4    0    0 -0.98555678487E+02  0.82414873237E+01 -0.12311286086E+03  0.15792744573E+03  0.17770000000E+01 0. -1.
         15    1    4    4    0    0 -0.16491823857E+02 -0.10545508568E+02  0.13861281310E+02  0.24051628919E+02  0.17770000000E+01 0.  1.
</event>
<event>
 8    1  0.1807540E-005  0.1825574E+03  0.7546771E-02  0.1068409E+00
        -11   -1    0    0    0    0  0.00000000000E+00  0.00000000000E+00  0.18250000000E+03  0.18250000000E+03  0.00000000000E+00 0.  1.
         11   -1    0    0    0    0 -0.00000000000E+00 -0.00000000000E+00 -0.18250000000E+03  0.18250000000E+03  0.00000000000E+00 0. -1.
         23    2    1    2    0    0 -0.17725762542E+02  0.14847835291E+02 -0.15645594241E+03  0.18255735867E+03  0.91181502611E+02 0.  0.
         23    2    1    2    0    0  0.17725762542E+02 -0.14847835291E+02  0.15645594241E+03  0.18244264133E+03  0.90951605766E+02 0.  0.
        -11    1    3    3    0    0 -0.11501700079E+00  0.40079234987E+02 -0.14380993438E+03  0.14929050718E+03  0.00000000000E+00 0. -1.
         11    1    3    3    0    0 -0.17610745541E+02 -0.25231399697E+02 -0.12646008026E+02  0.33266851491E+02  0.00000000000E+00 0.  1.
        -15    1    4    4    0    0  0.28764894970E+02 -0.33648871852E+02  0.15421589181E+03  0.16045362189E+03  0.17770000000E+01 0.  1.
         15    1    4    4    0    0 -0.11039132428E+02  0.18801036562E+02  0.22400505937E+01  0.21989019446E+02  0.17770000000E+01 0. -1.
</event>
<event>
 8    1  0.1807540E-005  0.1825144E+03  0.7546771E-02  0.1068443E+00
        -11   -1    0    0    0    0  0.00000000000E+00  0.00000000000E+00  0.18250000000E+03  0.18250000000E+03  0.00000000000E+00 0.  1.
         11   -1    0    0    0    0 -0.00000000000E+00 -0.00000000000E+00 -0.18250000000E+03  0.18250000000E+03  0.00000000000E+00 0. -1.
         23    2    1    2    0    0 -0.85850240451E+02 -0.76758129928E+01 -0.13188765326E+03  0.18251435033E+03  0.92130087947E+02 0.  0.
         23    2    1    2    0    0  0.85850240451E+02  0.76758129928E+01  0.13188765326E+03  0.18248564967E+03  0.92073217403E+02 0.  0.
        -11    1    3    3    0    0  0.77543870014E+01 -0.26125093394E+02 -0.49289333234E+02  0.56321304967E+02  0.00000000000E+00 0.  1.
         11    1    3    3    0    0 -0.93604627452E+02  0.18449280401E+02 -0.82598320022E+02  0.12619304536E+03  0.00000000000E+00 0. -1.
        -15    1    4    4    0    0  0.10312018141E+03  0.17290060636E+02  0.12071164386E+03  0.15970966378E+03  0.17770000000E+01 0.  1.
         15    1    4    4    0    0 -0.17269940957E+02 -0.96142476430E+01  0.11176009394E+02  0.22775985893E+02  0.17770000000E+01 0. -1.
</event>
<event>
 8    1  0.1807540E-005  0.1825586E+03  0.7546771E-02  0.1068408E+00
        -11   -1    0    0    0    0  0.00000000000E+00  0.00000000000E+00  0.18250000000E+03  0.18250000000E+03  0.00000000000E+00 0.  1.
         11   -1    0    0    0    0 -0.00000000000E+00 -0.00000000000E+00 -0.18250000000E+03  0.18250000000E+03  0.00000000000E+00 0. -1.
         23    2    1    2    0    0  0.22669865597E+02  0.10997336416E+02 -0.15910617924E+03  0.18255863497E+03  0.85895370752E+02 0.  0.
         23    2    1    2    0    0 -0.22669865597E+02 -0.10997336416E+02  0.15910617924E+03  0.18244136503E+03  0.85645847451E+02 0.  0.
        -11    1    3    3    0    0  0.32787481648E+02  0.31636305686E+02 -0.15172315365E+03  0.15841650843E+03  0.00000000000E+00 0. -1.
         11    1    3    3    0    0 -0.10117616051E+02 -0.20638969271E+02 -0.73830255914E+01  0.24142126543E+02  0.00000000000E+00 0.  1.
        -15    1    4    4    0    0  0.94814874986E+01 -0.13249439400E+02 -0.34187876860E+01  0.16741926049E+02  0.17770000000E+01 0. -1.
         15    1    4    4    0    0 -0.32151353095E+02  0.22521029844E+01  0.16252496693E+03  0.16569943898E+03  0.17770000000E+01 0.  1.
</event>
<event>
 8    1  0.1807540E-005  0.1842221E+03  0.7546771E-02  0.1067092E+00
        -11   -1    0    0    0    0  0.00000000000E+00  0.00000000000E+00  0.18250000000E+03  0.18250000000E+03  0.00000000000E+00 0. -1.
         11   -1    0    0    0    0 -0.00000000000E+00 -0.00000000000E+00 -0.18250000000E+03  0.18250000000E+03  0.00000000000E+00 0.  1.
         23    2    1    2    0    0  0.83938120955E+02 -0.88627683265E+02 -0.94650304682E+02  0.18422213480E+03  0.10039243189E+03 0.  0.
         23    2    1    2    0    0 -0.83938120955E+02  0.88627683265E+02  0.94650304682E+02  0.18077786520E+03  0.93922744750E+02 0.  0.
        -11    1    3    3    0    0  0.52024257607E+02 -0.86498586535E+02 -0.10952839163E+03  0.14894629040E+03  0.00000000000E+00 0. -1.
         11    1    3    3    0    0  0.31913863348E+02 -0.21290967299E+01  0.14878086943E+02  0.35275844394E+02  0.00000000000E+00 0.  1.
        -15    1    4    4    0    0  0.15272393340E+02  0.17569365236E+00  0.28308917682E+02  0.32215359938E+02  0.17770000000E+01 0.  1.
         15    1    4    4    0    0 -0.99210514295E+02  0.88451989613E+02  0.66341387000E+02  0.14856250527E+03  0.17770000000E+01 0. -1.
</event>
<event>
 7    1  0.1807540E-005  0.3650000E+03  0.7546771E-02  0.9765871E-01
        -11   -1    0    0    0    0  0.00000000000E+00  0.00000000000E+00  0.18250000000E+03  0.18250000000E+03  0.00000000000E+00 0.  1.
         11   -1    0    0    0    0 -0.00000000000E+00 -0.00000000000E+00 -0.18250000000E+03  0.18250000000E+03  0.00000000000E+00 0. -1.
         23    2    1    2    0    0  0.65384606140E+02 -0.42376085138E+02 -0.48239217248E+02  0.13037842813E+03  0.92739598503E+02 0.  0.
        -11    1    3    3    0    0  0.49302558254E+01 -0.19544698813E+02  0.25386336550E+02  0.32415563509E+02  0.00000000000E+00 0.  1.
         11    1    3    3    0    0  0.60454350315E+02 -0.22831386325E+02 -0.73625553799E+02  0.97962864626E+02  0.00000000000E+00 0. -1.
        -15    1    1    2    0    0 -0.12900612641E+03  0.42554474810E+02  0.85836104065E+02  0.16069990189E+03  0.17770000000E+01 0.  1.
         15    1    1    2    0    0  0.63621520270E+02 -0.17838967214E+00 -0.37596886817E+02  0.73921669974E+02  0.17770000000E+01 0. -1.
</event>
<event>
 8    1  0.1807540E-005  0.1832380E+03  0.7546771E-02  0.1067869E+00
        -11   -1    0    0    0    0  0.00000000000E+00  0.00000000000E+00  0.18250000000E+03  0.18250000000E+03  0.00000000000E+00 0. -1.
         11   -1    0    0    0    0 -0.00000000000E+00 -0.00000000000E+00 -0.18250000000E+03  0.18250000000E+03  0.00000000000E+00 0.  1.
         23    2    1    2    0    0 -0.35478989557E+02 -0.27315812503E+00 -0.15367730422E+03  0.18323800037E+03  0.93277101323E+02 0.  0.
         23    2    1    2    0    0  0.35478989557E+02  0.27315812503E+00  0.15367730422E+03  0.18176199963E+03  0.90343109101E+02 0.  0.
        -11    1    3    3    0    0  0.22229463698E+02 -0.18535735268E+02 -0.93531544142E+02  0.97907467988E+02  0.00000000000E+00 0.  1.
         11    1    3    3    0    0 -0.57708453254E+02  0.18262577143E+02 -0.60145760079E+02  0.85330532381E+02  0.00000000000E+00 0. -1.
        -15    1    4    4    0    0  0.27392240018E+02  0.34858448489E+02  0.13392245650E+03  0.14108092829E+03  0.17770000000E+01 0. -1.
         15    1    4    4    0    0  0.80867495387E+01 -0.34585290364E+02  0.19754847720E+02  0.40681071337E+02  0.17770000000E+01 0.  1.
</event>
<event>
 8    1  0.1807540E-005  0.1839597E+03  0.7546771E-02  0.1067299E+00
        -11   -1    0    0    0    0  0.00000000000E+00  0.00000000000E+00  0.18250000000E+03  0.18250000000E+03  0.00000000000E+00 0.  1.
         11   -1    0    0    0    0 -0.00000000000E+00 -0.00000000000E+00 -0.18250000000E+03  0.18250000000E+03  0.00000000000E+00 0. -1.
         23    2    1    2    0    0  0.62315710548E+02 -0.31379083199E+01 -0.14732393849E+03  0.18104029877E+03  0.84723979347E+02 0.  0.
         23    2    1    2    0    0 -0.62315710548E+02  0.31379083199E+01  0.14732393849E+03  0.18395970123E+03  0.90795014036E+02 0.  0.
        -11    1    3    3    0    0  0.79706095934E+02  0.12792249542E+02 -0.12329528683E+03  0.14737174469E+03  0.00000000000E+00 0. -1.
         11    1    3    3    0    0 -0.17390385386E+02 -0.15930157862E+02 -0.24028651661E+02  0.33668554083E+02  0.00000000000E+00 0.  1.
        -15    1    4    4    0    0 -0.24563416704E+02  0.11298382521E+02  0.14243204180E+03  0.14498641022E+03  0.17770000000E+01 0.  1.
         15    1    4    4    0    0 -0.37752293844E+02 -0.81604742015E+01  0.48918966879E+01  0.38973291007E+02  0.17770000000E+01 0. -1.
</event>
<event>
 8    1  0.1807540E-005  0.1825670E+03  0.7546771E-02  0.1068402E+00
        -11   -1    0    0    0    0  0.00000000000E+00  0.00000000000E+00  0.18250000000E+03  0.18250000000E+03  0.00000000000E+00 0.  1.
         11   -1    0    0    0    0 -0.00000000000E+00 -0.00000000000E+00 -0.18250000000E+03  0.18250000000E+03  0.00000000000E+00 0. -1.
         23    2    1    2    0    0  0.96458954133E+02  0.79209990531E+02 -0.96802737730E+02  0.18256696811E+03  0.91549851885E+02 0.  0.
         23    2    1    2    0    0 -0.96458954133E+02 -0.79209990531E+02  0.96802737730E+02  0.18243303189E+03  0.91282466337E+02 0.  0.
        -11    1    3    3    0    0  0.74786161021E+02  0.97556985749E+02 -0.62077035723E+02  0.13770945397E+03  0.00000000000E+00 0. -1.
         11    1    3    3    0    0  0.21672793112E+02 -0.18346995218E+02 -0.34725702006E+02  0.44857514138E+02  0.00000000000E+00 0.  1.
        -15    1    4    4    0    0 -0.80135457245E+02 -0.99085681563E+02  0.70695469202E+02  0.14574179529E+03  0.17770000000E+01 0.  1.
         15    1    4    4    0    0 -0.16323496888E+02  0.19875691031E+02  0.26107268528E+02  0.36691236605E+02  0.17770000000E+01 0. -1.
</event>
<event>
 8    1  0.1807540E-005  0.1828528E+03  0.7546771E-02  0.1068174E+00
        -11   -1    0    0    0    0  0.00000000000E+00  0.00000000000E+00  0.18250000000E+03  0.18250000000E+03  0.00000000000E+00 0.  1.
         11   -1    0    0    0    0 -0.00000000000E+00 -0.00000000000E+00 -0.18250000000E+03  0.18250000000E+03  0.00000000000E+00 0. -1.
         23    2    1    2    0    0  0.26115985520E+02  0.12375550530E+03 -0.90833040295E+02  0.18214722730E+03  0.94496039126E+02 0.  0.
         23    2    1    2    0    0 -0.26115985520E+02 -0.12375550530E+03  0.90833040295E+02  0.18285277270E+03  0.95848972258E+02 0.  0.
        -11    1    3    3    0    0  0.18349370063E+02 -0.11382807804E+02 -0.60450099359E+01  0.22423421691E+02  0.00000000000E+00 0.  1.
         11    1    3    3    0    0  0.77666154564E+01  0.13513831311E+03 -0.84788030359E+02  0.15972380561E+03  0.00000000000E+00 0. -1.
        -15    1    4    4    0    0 -0.30402810022E+02 -0.88160328272E+02  0.10830296763E+03  0.14293097938E+03  0.17770000000E+01 0.  1.
         15    1    4    4    0    0  0.42868245028E+01 -0.35595177032E+02 -0.17469927337E+02  0.39921793327E+02  0.17770000000E+01 0. -1.
</event>
<event>
 8    1  0.1807540E-005  0.1835928E+03  0.7546771E-02  0.1067588E+00
        -11   -1    0    0    0    0  0.00000000000E+00  0.00000000000E+00  0.18250000000E+03  0.18250000000E+03  0.00000000000E+00 0.  1.
         11   -1    0    0    0    0 -0.00000000000E+00 -0.00000000000E+00 -0.18250000000E+03  0.18250000000E+03  0.00000000000E+00 0. -1.
         23    2    1    2    0    0  0.62194379480E+02 -0.50579854018E+02 -0.13746029193E+03  0.18359275181E+03  0.91566938296E+02 0.  0.
         23    2    1    2    0    0 -0.62194379480E+02  0.50579854018E+02  0.13746029193E+03  0.18140724819E+03  0.87102212188E+02 0.  0.
        -11    1    3    3    0    0  0.12756233305E+01  0.20486356119E+02 -0.45404872501E+01  0.21022226961E+02  0.00000000000E+00 0.  1.
         11    1    3    3    0    0  0.60918756150E+02 -0.71066210138E+02 -0.13291980468E+03  0.16257052485E+03  0.00000000000E+00 0. -1.
        -15    1    4    4    0    0 -0.50716146578E+02  0.16446669778E+02  0.17495694477E+02  0.56141584630E+02  0.17770000000E+01 0. -1.
         15    1    4    4    0    0 -0.11478232902E+02  0.34133184240E+02  0.11996459745E+03  0.12526566356E+03  0.17770000000E+01 0.  1.
</event>
<event>
 8    1  0.1807540E-005  0.1841486E+03  0.7546771E-02  0.1067150E+00
        -11   -1    0    0    0    0  0.00000000000E+00  0.00000000000E+00  0.18250000000E+03  0.18250000000E+03  0.00000000000E+00 0. -1.
         11   -1    0    0    0    0 -0.00000000000E+00 -0.00000000000E+00 -0.18250000000E+03  0.18250000000E+03  0.00000000000E+00 0.  1.
         23    2    1    2    0    0 -0.57949236460E+02  0.10558046909E+03  0.98492318940E+02  0.18414859963E+03  0.98512031724E+02 0.  0.
         23    2    1    2    0    0  0.57949236460E+02 -0.10558046909E+03 -0.98492318940E+02  0.18085140037E+03  0.92201641340E+02 0.  0.
        -11    1    3    3    0    0 -0.72610662219E+02  0.50390888823E+02  0.90482581452E+02  0.12648576003E+03  0.00000000000E+00 0. -1.
         11    1    3    3    0    0  0.14661425759E+02  0.55189580272E+02  0.80097374875E+01  0.57662839598E+02  0.00000000000E+00 0.  1.
        -15    1    4    4    0    0  0.46651645994E+02 -0.95674795747E+02 -0.11617794589E+03  0.15757701436E+03  0.17770000000E+01 0.  1.
         15    1    4    4    0    0  0.11297590466E+02 -0.99056733475E+01  0.17685626946E+02  0.23274386013E+02  0.17770000000E+01 0. -1.
</event>
<event>
 7    1  0.1807540E-005  0.1946599E+03  0.7546771E-02  0.1059167E+00
        -11   -1    0    0    0    0  0.00000000000E+00  0.00000000000E+00  0.18250000000E+03  0.18250000000E+03  0.00000000000E+00 0.  1.
         11   -1    0    0    0    0 -0.00000000000E+00 -0.00000000000E+00 -0.18250000000E+03  0.18250000000E+03  0.00000000000E+00 0. -1.
         23    2    1    2    0    0  0.46416030653E+02  0.12862344161E+03  0.45841843893E+02  0.17034009641E+03  0.90641249765E+02 0.  0.
        -11    1    3    3    0    0  0.16629608514E+02 -0.44320244416E+01  0.27948380168E+02  0.32822228352E+02  0.00000000000E+00 0.  1.
         11    1    3    3    0    0  0.29786422140E+02  0.13305546605E+03  0.17893463724E+02  0.13751786805E+03  0.00000000000E+00 0. -1.
        -15    1    1    2    0    0  0.86392213846E+01  0.17911336974E+02  0.16753489739E+02  0.26063178735E+02  0.17770000000E+01 0.  1.
         15    1    1    2    0    0 -0.55055252038E+02 -0.14653477858E+03 -0.62595333632E+02  0.16859672486E+03  0.17770000000E+01 0. -1.
</event>
<event>
 8    1  0.1807540E-005  0.1840642E+03  0.7546771E-02  0.1067217E+00
        -11   -1    0    0    0    0  0.00000000000E+00  0.00000000000E+00  0.18250000000E+03  0.18250000000E+03  0.00000000000E+00 0.  1.
         11   -1    0    0    0    0 -0.00000000000E+00 -0.00000000000E+00 -0.18250000000E+03  0.18250000000E+03  0.00000000000E+00 0. -1.
         23    2    1    2    0    0 -0.21974385602E+02 -0.36890405349E+02 -0.15067060185E+03  0.18093583863E+03  0.90511721951E+02 0.  0.
         23    2    1    2    0    0  0.21974385602E+02  0.36890405349E+02  0.15067060185E+03  0.18406416137E+03  0.96613713350E+02 0.  0.
        -11    1    3    3    0    0 -0.47802603165E+02  0.76560159764E+01 -0.66314549454E+02  0.82105559613E+02  0.00000000000E+00 0. -1.
         11    1    3    3    0    0  0.25828217563E+02 -0.44546421326E+02 -0.84356052398E+02  0.98830279022E+02  0.00000000000E+00 0.  1.
        -15    1    4    4    0    0  0.57595515612E+02  0.18203614989E+02  0.61481628294E+02  0.86207675783E+02  0.17770000000E+01 0.  1.
         15    1    4    4    0    0 -0.35621130010E+02  0.18686790360E+02  0.89188973558E+02  0.97856485582E+02  0.17770000000E+01 0. -1.
</event>
<event>
 8    1  0.1807540E-005  0.1848259E+03  0.7546771E-02  0.1066618E+00
        -11   -1    0    0    0    0  0.00000000000E+00  0.00000000000E+00  0.18250000000E+03  0.18250000000E+03  0.00000000000E+00 0. -1.
         11   -1    0    0    0    0 -0.00000000000E+00 -0.00000000000E+00 -0.18250000000E+03  0.18250000000E+03  0.00000000000E+00 0.  1.
         23    2    1    2    0    0  0.16328983857E+02 -0.96853462543E+02 -0.12278810200E+03  0.18482594395E+03  0.97141559819E+02 0.  0.
         23    2    1    2    0    0 -0.16328983857E+02  0.96853462543E+02  0.12278810200E+03  0.18017405605E+03  0.87968992050E+02 0.  0.
        -11    1    3    3    0    0 -0.35062238661E+01 -0.19994271857E+02  0.15388152987E+02  0.25472725909E+02  0.00000000000E+00 0. -1.
         11    1    3    3    0    0  0.19835207723E+02 -0.76859190686E+02 -0.13817625498E+03  0.15935321804E+03  0.00000000000E+00 0.  1.
        -15    1    4    4    0    0  0.29900712678E+02  0.40385362715E+02  0.20026047705E+02  0.54122365580E+02  0.17770000000E+01 0.  1.
         15    1    4    4    0    0 -0.46229696535E+02  0.56468099828E+02  0.10276205429E+03  0.12605169047E+03  0.17770000000E+01 0. -1.
</event>
<event>
 8    1  0.1807540E-005  0.1855522E+03  0.7546771E-02  0.1066051E+00
        -11   -1    0    0    0    0  0.00000000000E+00  0.00000000000E+00  0.18250000000E+03  0.18250000000E+03  0.00000000000E+00 0. -1.
         11   -1    0    0    0    0 -0.00000000000E+00 -0.00000000000E+00 -0.18250000000E+03  0.18250000000E+03  0.00000000000E+00 0. -1.
         23    2    1    2    0    0  0.70215266661E+01 -0.21835250944E+02  0.15620003867E+03  0.18555216998E+03  0.97493977662E+02 0.  0.
         23    2    1    2    0    0 -0.70215266661E+01  0.21835250944E+02 -0.15620003867E+03  0.17944783002E+03  0.85305284703E+02 0.  0.
        -11    1    3    3    0    0 -0.13113514533E+02 -0.57617102708E+02  0.91075807108E+02  0.10856563650E+03  0.00000000000E+00 0. -1.
         11    1    3    3    0    0  0.20135041199E+02  0.35781851764E+02  0.65124231566E+02  0.76986533477E+02  0.00000000000E+00 0. -1.
        -15    1    4    4    0    0 -0.14938992861E+01 -0.31718505009E+02 -0.38004756789E+02  0.49556175828E+02  0.17770000000E+01 0.  1.
         15    1    4    4    0    0 -0.55276273800E+01  0.53553755953E+02 -0.11819528188E+03  0.12989165420E+03  0.17770000000E+01 0. -1.
</event>
<event>
 8    1  0.1807540E-005  0.1827727E+03  0.7546771E-02  0.1068238E+00
        -11   -1    0    0    0    0  0.00000000000E+00  0.00000000000E+00  0.18250000000E+03  0.18250000000E+03  0.00000000000E+00 0.  1.
         11   -1    0    0    0    0 -0.00000000000E+00 -0.00000000000E+00 -0.18250000000E+03  0.18250000000E+03  0.00000000000E+00 0. -1.
         23    2    1    2    0    0 -0.12436587026E+02 -0.11482593665E+03  0.10778956404E+03  0.18222733585E+03  0.90821513925E+02 0.  0.
         23    2    1    2    0    0  0.12436587026E+02  0.11482593665E+03 -0.10778956404E+03  0.18277266415E+03  0.91910784031E+02 0.  0.
        -11    1    3    3    0    0 -0.51246721375E+02 -0.61690482059E+02  0.69330116642E+02  0.10601229694E+03  0.00000000000E+00 0.  1.
         11    1    3    3    0    0  0.38810134349E+02 -0.53135454587E+02  0.38459447397E+02  0.76215038912E+02  0.00000000000E+00 0. -1.
        -15    1    4    4    0    0 -0.31425434406E+02  0.34390430549E+02 -0.80155139770E+01  0.47303972712E+02  0.17770000000E+01 0.  1.
         15    1    4    4    0    0  0.43862021432E+02  0.80435506097E+02 -0.99774050062E+02  0.13546869144E+03  0.17770000000E+01 0. -1.
</event>
<event>
 8    1  0.1807540E-005  0.1855858E+03  0.7546771E-02  0.1066025E+00
        -11   -1    0    0    0    0  0.00000000000E+00  0.00000000000E+00  0.18250000000E+03  0.18250000000E+03  0.00000000000E+00 0. -1.
         11   -1    0    0    0    0 -0.00000000000E+00 -0.00000000000E+00 -0.18250000000E+03  0.18250000000E+03  0.00000000000E+00 0.  1.
         23    2    1    2    0    0 -0.29922191110E+02  0.39031833907E+02 -0.15407485828E+03  0.18558584216E+03  0.91017697599E+02 0.  0.
         23    2    1    2    0    0  0.29922191110E+02 -0.39031833907E+02  0.15407485828E+03  0.17941415784E+03  0.77663096128E+02 0.  0.
        -11    1    3    3    0    0  0.10156432974E+02 -0.13215249113E+02 -0.97069808840E+02  0.98490323018E+02  0.00000000000E+00 0. -1.
         11    1    3    3    0    0 -0.40078624084E+02  0.52247083020E+02 -0.57005049442E+02  0.87095519141E+02  0.00000000000E+00 0.  1.
        -15    1    4    4    0    0  0.30522499149E+02 -0.76089708242E+01  0.11712995108E+02  0.33613559387E+02  0.17770000000E+01 0.  1.
         15    1    4    4    0    0 -0.60030803873E+00 -0.31422863083E+02  0.14236186317E+03  0.14580059845E+03  0.17770000000E+01 0. -1.
</event>
<event>
 8    1  0.1807540E-005  0.1838760E+03  0.7546771E-02  0.1067365E+00
        -11   -1    0    0    0    0  0.00000000000E+00  0.00000000000E+00  0.18250000000E+03  0.18250000000E+03  0.00000000000E+00 0.  1.
         11   -1    0    0    0    0 -0.00000000000E+00 -0.00000000000E+00 -0.18250000000E+03  0.18250000000E+03  0.00000000000E+00 0. -1.
         23    2    1    2    0    0  0.35552135283E+02  0.23292920523E+02 -0.15043961422E+03  0.18387602378E+03  0.96808058164E+02 0.  0.
         23    2    1    2    0    0 -0.35552135283E+02 -0.23292920523E+02  0.15043961422E+03  0.18112397622E+03  0.91472961944E+02 0.  0.
        -11    1    3    3    0    0 -0.31427050464E+01 -0.28417769990E+02 -0.93504024829E+02  0.97777548064E+02  0.00000000000E+00 0.  1.
         11    1    3    3    0    0  0.38694840330E+02  0.51710690514E+02 -0.56935589387E+02  0.86098475715E+02  0.00000000000E+00 0. -1.
        -15    1    4    4    0    0 -0.11005175313E+02 -0.35655035382E+01  0.14909489394E+03  0.14955357511E+03  0.17770000000E+01 0.  1.
         15    1    4    4    0    0 -0.24546959970E+02 -0.19727416985E+02  0.13447202722E+01  0.31570401110E+02  0.17770000000E+01 0. -1.
</event>
<event>
 8    1  0.1807540E-005  0.1829251E+03  0.7546771E-02  0.1068117E+00
        -11   -1    0    0    0    0  0.00000000000E+00  0.00000000000E+00  0.18250000000E+03  0.18250000000E+03  0.00000000000E+00 0. -1.
         11   -1    0    0    0    0 -0.00000000000E+00 -0.00000000000E+00 -0.18250000000E+03  0.18250000000E+03  0.00000000000E+00 0.  1.
         23    2    1    2    0    0 -0.10239528840E+03 -0.11665656219E+03  0.29141000133E+02  0.18292511767E+03  0.92297628353E+02 0.  0.
         23    2    1    2    0    0  0.10239528840E+03  0.11665656219E+03 -0.29141000133E+02  0.18207488233E+03  0.90600862574E+02 0.  0.
        -11    1    3    3    0    0 -0.94081022876E+02 -0.10227842467E+03  0.57231668077E+02  0.15029164597E+03  0.00000000000E+00 0. -1.
         11    1    3    3    0    0 -0.83142655208E+01 -0.14378137516E+02 -0.28090667944E+02  0.32633471699E+02  0.00000000000E+00 0.  1.
        -15    1    4    4    0    0  0.11227038407E+03  0.11900665342E+03 -0.14619563663E+02  0.16426841470E+03  0.17770000000E+01 0.  1.
         15    1    4    4    0    0 -0.98750956740E+01 -0.23500912292E+01 -0.14521436470E+02  0.17806467631E+02  0.17770000000E+01 0. -1.
</event>
<event>
 8    1  0.1807540E-005  0.1827071E+03  0.7546771E-02  0.1068290E+00
        -11   -1    0    0    0    0  0.00000000000E+00  0.00000000000E+00  0.18250000000E+03  0.18250000000E+03  0.00000000000E+00 0.  1.
         11   -1    0    0    0    0 -0.00000000000E+00 -0.00000000000E+00 -0.18250000000E+03  0.18250000000E+03  0.00000000000E+00 0. -1.
         23    2    1    2    0    0  0.50282858291E+02  0.14560583763E+03 -0.33936045304E+02  0.18270708297E+03  0.92199767934E+02 0.  0.
         23    2    1    2    0    0 -0.50282858291E+02 -0.14560583763E+03  0.33936045304E+02  0.18229291703E+03  0.91376291446E+02 0.  0.
        -11    1    3    3    0    0 -0.23341046437E+02  0.11516213452E+02 -0.99562221387E+01  0.27866718147E+02  0.00000000000E+00 0. -1.
         11    1    3    3    0    0  0.73623904728E+02  0.13408962418E+03 -0.23979823165E+02  0.15484036482E+03  0.00000000000E+00 0.  1.
        -15    1    4    4    0    0 -0.42277758959E+02 -0.58706095209E+02 -0.25460063241E+02  0.76714972896E+02  0.17770000000E+01 0.  1.
         15    1    4    4    0    0 -0.80050993324E+01 -0.86899742421E+02  0.59396108544E+02  0.10557794413E+03  0.17770000000E+01 0. -1.
</event>
<event>
 8    1  0.1807540E-005  0.1832256E+03  0.7546771E-02  0.1067879E+00
        -11   -1    0    0    0    0  0.00000000000E+00  0.00000000000E+00  0.18250000000E+03  0.18250000000E+03  0.00000000000E+00 0.  1.
         11   -1    0    0    0    0 -0.00000000000E+00 -0.00000000000E+00 -0.18250000000E+03  0.18250000000E+03  0.00000000000E+00 0. -1.
         23    2    1    2    0    0 -0.55690487481E+02 -0.14364464461E+02 -0.14660696298E+03  0.18322557341E+03  0.93649564453E+02 0.  0.
         23    2    1    2    0    0  0.55690487481E+02  0.14364464461E+02  0.14660696298E+03  0.18177442659E+03  0.90777598175E+02 0.  0.
        -11    1    3    3    0    0  0.15827882208E+02 -0.13021337107E+02 -0.44706005695E+00  0.20500657013E+02  0.00000000000E+00 0.  1.
         11    1    3    3    0    0 -0.71518369689E+02 -0.13431273537E+01 -0.14615990293E+03  0.16272491640E+03  0.00000000000E+00 0. -1.
        -15    1    4    4    0    0  0.96264004325E+01  0.41446973717E+02  0.10721872956E+03  0.11536694896E+03  0.17770000000E+01 0.  1.
         15    1    4    4    0    0  0.46064087048E+02 -0.27082509256E+02  0.39388233427E+02  0.66407477626E+02  0.17770000000E+01 0. -1.
</event>
<event>
 8    1  0.1807540E-005  0.1825959E+03  0.7546771E-02  0.1068378E+00
        -11   -1    0    0    0    0  0.00000000000E+00  0.00000000000E+00  0.18250000000E+03  0.18250000000E+03  0.00000000000E+00 0.  1.
         11   -1    0    0    0    0 -0.00000000000E+00 -0.00000000000E+00 -0.18250000000E+03  0.18250000000E+03  0.00000000000E+00 0. -1.
         23    2    1    2    0    0  0.93910979463E+02  0.92911331090E+01 -0.12617895839E+03  0.18240406323E+03  0.91894045090E+02 0.  0.
         23    2    1    2    0    0 -0.93910979463E+02 -0.92911331090E+01  0.12617895839E+03  0.18259593677E+03  0.92274315862E+02 0.  0.
        -11    1    3    3    0    0  0.32751182024E+02 -0.27476360986E+02 -0.67506277313E+01  0.43280033639E+02  0.00000000000E+00 0.  1.
         11    1    3    3    0    0  0.61159797438E+02  0.36767494095E+02 -0.11942833066E+03  0.13912402959E+03  0.00000000000E+00 0. -1.
        -15    1    4    4    0    0  0.14034476345E+02  0.91662091011E+01  0.39412513111E+02  0.42865951924E+02  0.17770000000E+01 0. -1.
         15    1    4    4    0    0 -0.10794545581E+03 -0.18457342210E+02  0.86766445278E+02  0.13972998485E+03  0.17770000000E+01 0.  1.
</event>
<event>
 8    1  0.1807540E-005  0.1826875E+03  0.7546771E-02  0.1068306E+00
        -11   -1    0    0    0    0  0.00000000000E+00  0.00000000000E+00  0.18250000000E+03  0.18250000000E+03  0.00000000000E+00 0.  1.
         11   -1    0    0    0    0 -0.00000000000E+00 -0.00000000000E+00 -0.18250000000E+03  0.18250000000E+03  0.00000000000E+00 0. -1.
         23    2    1    2    0    0  0.64537106604E+02  0.43736372748E+02  0.13747324758E+03  0.18231245300E+03  0.90890199077E+02 0.  0.
         23    2    1    2    0    0 -0.64537106604E+02 -0.43736372748E+02 -0.13747324758E+03  0.18268754700E+03  0.91640261889E+02 0.  0.
        -11    1    3    3    0    0 -0.16959218070E+02  0.30301813278E+02  0.58541255735E+02  0.68065362619E+02  0.00000000000E+00 0. -1.
         11    1    3    3    0    0  0.81496324674E+02  0.13434559470E+02  0.78931991845E+02  0.11424709038E+03  0.00000000000E+00 0.  1.
        -15    1    4    4    0    0 -0.16348737933E+02  0.26922265024E+02 -0.57481901629E+02  0.65569934649E+02  0.17770000000E+01 0.  1.
         15    1    4    4    0    0 -0.48188368672E+02 -0.70658637772E+02 -0.79991345951E+02  0.11711761235E+03  0.17770000000E+01 0. -1.
</event>
<event>
 8    1  0.1807540E-005  0.1845041E+03  0.7546771E-02  0.1066871E+00
        -11   -1    0    0    0    0  0.00000000000E+00  0.00000000000E+00  0.18250000000E+03  0.18250000000E+03  0.00000000000E+00 0. -1.
         11   -1    0    0    0    0 -0.00000000000E+00 -0.00000000000E+00 -0.18250000000E+03  0.18250000000E+03  0.00000000000E+00 0.  1.
         23    2    1    2    0    0  0.68583393745E+02  0.21292178617E+02  0.14217575838E+03  0.18049591261E+03  0.84898700980E+02 0.  0.
         23    2    1    2    0    0 -0.68583393745E+02 -0.21292178617E+02 -0.14217575838E+03  0.18450408739E+03  0.93116986775E+02 0.  0.
        -11    1    3    3    0    0  0.41516409549E+02  0.53773619789E+02  0.98983169662E+02  0.12005366435E+03  0.00000000000E+00 0. -1.
         11    1    3    3    0    0  0.27066984197E+02 -0.32481441173E+02  0.43192588720E+02  0.60442248258E+02  0.00000000000E+00 0.  1.
        -15    1    4    4    0    0 -0.15622767642E+02  0.29468607960E+02 -0.12805223219E+02  0.35771513731E+02  0.17770000000E+01 0. -1.
         15    1    4    4    0    0 -0.52960626103E+02 -0.50760786577E+02 -0.12937053516E+03  0.14873257366E+03  0.17770000000E+01 0.  1.
</event>
<event>
 8    1  0.1807540E-005  0.1826616E+03  0.7546771E-02  0.1068326E+00
        -11   -1    0    0    0    0  0.00000000000E+00  0.00000000000E+00  0.18250000000E+03  0.18250000000E+03  0.00000000000E+00 0.  1.
         11   -1    0    0    0    0 -0.00000000000E+00 -0.00000000000E+00 -0.18250000000E+03  0.18250000000E+03  0.00000000000E+00 0. -1.
         23    2    1    2    0    0  0.63637093928E+02 -0.13964959312E+03 -0.38768686073E+02  0.18233838231E+03  0.90512905501E+02 0.  0.
         23    2    1    2    0    0 -0.63637093928E+02  0.13964959312E+03  0.38768686073E+02  0.18266161769E+03  0.91162311164E+02 0.  0.
        -11    1    3    3    0    0  0.67986151945E+02 -0.49462999567E+02  0.37353965536E-03  0.84075592074E+02  0.00000000000E+00 0.  1.
         11    1    3    3    0    0 -0.43490580166E+01 -0.90186593549E+02 -0.38769059613E+02  0.98262790235E+02  0.00000000000E+00 0. -1.
        -15    1    4    4    0    0  0.16960132639E+01  0.16823055518E+02  0.40064756073E+02  0.43522799383E+02  0.17770000000E+01 0. -1.
         15    1    4    4    0    0 -0.65333107192E+02  0.12282653760E+03 -0.12960700002E+01  0.13913881831E+03  0.17770000000E+01 0.  1.
</event>
<event>
 8    1  0.1807540E-005  0.1825921E+03  0.7546771E-02  0.1068382E+00
        -11   -1    0    0    0    0  0.00000000000E+00  0.00000000000E+00  0.18250000000E+03  0.18250000000E+03  0.00000000000E+00 0.  1.
         11   -1    0    0    0    0 -0.00000000000E+00 -0.00000000000E+00 -0.18250000000E+03  0.18250000000E+03  0.00000000000E+00 0. -1.
         23    2    1    2    0    0 -0.41138027940E+02  0.34484691278E+01 -0.15257889191E+03  0.18240788664E+03  0.91038945341E+02 0.  0.
         23    2    1    2    0    0  0.41138027940E+02 -0.34484691278E+01  0.15257889191E+03  0.18259211336E+03  0.91407506929E+02 0.  0.
        -11    1    3    3    0    0  0.92751482983E+00 -0.76070379594E+01  0.10853881571E+02  0.13286611887E+02  0.00000000000E+00 0.  1.
         11    1    3    3    0    0 -0.42065542770E+02  0.11055507087E+02 -0.16343277348E+03  0.16912127475E+03  0.00000000000E+00 0. -1.
        -15    1    4    4    0    0  0.27355442106E+01 -0.31386604578E+02  0.12215416379E+03  0.12616417720E+03  0.17770000000E+01 0.  1.
         15    1    4    4    0    0  0.38402483730E+02  0.27938135450E+02  0.30424728123E+02  0.56427936161E+02  0.17770000000E+01 0. -1.
</event>
<event>
 8    1  0.1807540E-005  0.1828443E+03  0.7546771E-02  0.1068181E+00
        -11   -1    0    0    0    0  0.00000000000E+00  0.00000000000E+00  0.18250000000E+03  0.18250000000E+03  0.00000000000E+00 0.  1.
         11   -1    0    0    0    0 -0.00000000000E+00 -0.00000000000E+00 -0.18250000000E+03  0.18250000000E+03  0.00000000000E+00 0. -1.
         23    2    1    2    0    0 -0.15224101036E+02 -0.90050689757E+02  0.12943797452E+03  0.18284427182E+03  0.91306837147E+02 0.  0.
         23    2    1    2    0    0  0.15224101036E+02  0.90050689757E+02 -0.12943797452E+03  0.18215572818E+03  0.89920076088E+02 0.  0.
        -11    1    3    3    0    0 -0.92741988055E+01 -0.10894224175E+03  0.10952364832E+03  0.15475739834E+03  0.00000000000E+00 0.  1.
         11    1    3    3    0    0 -0.59499022310E+01  0.18891551994E+02  0.19914326204E+02  0.28086873473E+02  0.00000000000E+00 0. -1.
        -15    1    4    4    0    0  0.41415542582E+02  0.12386330726E+02 -0.27185712919E+02  0.51096859709E+02  0.17770000000E+01 0.  1.
         15    1    4    4    0    0 -0.26191441546E+02  0.77664359031E+02 -0.10225226160E+03  0.13105886847E+03  0.17770000000E+01 0. -1.
</event>
<event>
 8    1  0.1807540E-005  0.1827615E+03  0.7546771E-02  0.1068247E+00
        -11   -1    0    0    0    0  0.00000000000E+00  0.00000000000E+00  0.18250000000E+03  0.18250000000E+03  0.00000000000E+00 0. -1.
         11   -1    0    0    0    0 -0.00000000000E+00 -0.00000000000E+00 -0.18250000000E+03  0.18250000000E+03  0.00000000000E+00 0. -1.
         23    2    1    2    0    0  0.24586538604E+02  0.62228270140E+01 -0.15631929960E+03  0.18223850776E+03  0.90177207919E+02 0.  0.
         23    2    1    2    0    0 -0.24586538604E+02 -0.62228270140E+01  0.15631929960E+03  0.18276149224E+03  0.91229480779E+02 0.  0.
        -11    1    3    3    0    0 -0.16298832536E+02 -0.62198222731E+01  0.26315224627E+01  0.17642648373E+02  0.00000000000E+00 0. -1.
         11    1    3    3    0    0  0.40885371139E+02  0.12442649287E+02 -0.15895082206E+03  0.16459585939E+03  0.00000000000E+00 0. -1.
        -15    1    4    4    0    0  0.12123332495E+02 -0.14116162011E+02 -0.31199221092E+01  0.18950801135E+02  0.17770000000E+01 0.  1.
         15    1    4    4    0    0 -0.36709871099E+02  0.78933349966E+01  0.15943922170E+03  0.16381069110E+03  0.17770000000E+01 0. -1.
</event>
<event>
 8    1  0.1807540E-005  0.1827870E+03  0.7546771E-02  0.1068227E+00
        -11   -1    0    0    0    0  0.00000000000E+00  0.00000000000E+00  0.18250000000E+03  0.18250000000E+03  0.00000000000E+00 0. -1.
         11   -1    0    0    0    0 -0.00000000000E+00 -0.00000000000E+00 -0.18250000000E+03  0.18250000000E+03  0.00000000000E+00 0.  1.
         23    2    1    2    0    0  0.12710540793E+03  0.85040433878E+02 -0.43207079668E+02  0.18278704618E+03  0.90313854961E+02 0.  0.
         23    2    1    2    0    0 -0.12710540793E+03 -0.85040433878E+02  0.43207079668E+02  0.18221295382E+03  0.89146220819E+02 0.  0.
        -11    1    3    3    0    0  0.26949279919E+02  0.19038141403E+02  0.28017480415E+02  0.43286183997E+02  0.00000000000E+00 0. -1.
         11    1    3    3    0    0  0.10015612801E+03  0.66002292476E+02 -0.71224560084E+02  0.13950086218E+03  0.00000000000E+00 0.  1.
        -15    1    4    4    0    0 -0.20351048056E+02  0.44283290587E+01 -0.20283782633E+02  0.29126702906E+02  0.17770000000E+01 0.  1.
         15    1    4    4    0    0 -0.10675435988E+03 -0.89468762937E+02  0.63490862301E+02  0.15308625091E+03  0.17770000000E+01 0. -1.
</event>
<event>
 8    1  0.1807540E-005  0.1869344E+03  0.7546771E-02  0.1064979E+00
        -11   -1    0    0    0    0  0.00000000000E+00  0.00000000000E+00  0.18250000000E+03  0.18250000000E+03  0.00000000000E+00 0.  1.
         11   -1    0    0    0    0 -0.00000000000E+00 -0.00000000000E+00 -0.18250000000E+03  0.18250000000E+03  0.00000000000E+00 0. -1.
         23    2    1    2    0    0  0.47773236683E+01  0.10060474017E+03  0.11509927527E+03  0.17806560066E+03  0.91188696683E+02 0.  0.
         23    2    1    2    0    0 -0.47773236683E+01 -0.10060474017E+03 -0.11509927527E+03  0.18693439934E+03  0.10748250985E+03 0.  0.
        -11    1    3    3    0    0 -0.56445320436E+01  0.11580647337E+03  0.10755922106E+03  0.15815178169E+03  0.00000000000E+00 0. -1.
         11    1    3    3    0    0  0.10421855712E+02 -0.15201733192E+02  0.75400542102E+01  0.19913818971E+02  0.00000000000E+00 0.  1.
        -15    1    4    4    0    0 -0.38984807063E+02 -0.97849789117E+02 -0.10980164033E+03  0.15216423483E+03  0.17770000000E+01 0.  1.
         15    1    4    4    0    0  0.34207483394E+02 -0.27549510573E+01 -0.52976349339E+01  0.34770164515E+02  0.17770000000E+01 0. -1.
</event>
<event>
 8    1  0.1807540E-005  0.1827757E+03  0.7546771E-02  0.1068236E+00
        -11   -1    0    0    0    0  0.00000000000E+00  0.00000000000E+00  0.18250000000E+03  0.18250000000E+03  0.00000000000E+00 0. -1.
         11   -1    0    0    0    0 -0.00000000000E+00 -0.00000000000E+00 -0.18250000000E+03  0.18250000000E+03  0.00000000000E+00 0.  1.
         23    2    1    2    0    0 -0.24536774717E+02 -0.52342704339E+02 -0.14631909722E+03  0.18222431026E+03  0.91948947939E+02 0.  0.
         23    2    1    2    0    0  0.24536774717E+02  0.52342704339E+02  0.14631909722E+03  0.18277568974E+03  0.93036888047E+02 0.  0.
        -11    1    3    3    0    0 -0.11126058832E+02  0.18785639109E+01  0.10710073343E+02  0.15557116009E+02  0.00000000000E+00 0. -1.
         11    1    3    3    0    0 -0.13410715884E+02 -0.54221268250E+02 -0.15702917056E+03  0.16666719425E+03  0.00000000000E+00 0.  1.
        -15    1    4    4    0    0  0.55209809409E+02  0.83588026875E+01  0.73163693856E+02  0.92054747107E+02  0.17770000000E+01 0. -1.
         15    1    4    4    0    0 -0.30673034692E+02  0.43983901652E+02  0.73155403365E+02  0.90720942633E+02  0.17770000000E+01 0.  1.
</event>
<event>
 8    1  0.1807540E-005  0.1832950E+03  0.7546771E-02  0.1067824E+00
        -11   -1    0    0    0    0  0.00000000000E+00  0.00000000000E+00  0.18250000000E+03  0.18250000000E+03  0.00000000000E+00 0. -1.
         11   -1    0    0    0    0 -0.00000000000E+00 -0.00000000000E+00 -0.18250000000E+03  0.18250000000E+03  0.00000000000E+00 0.  1.
         23    2    1    2    0    0  0.44247673530E+02 -0.23893638647E+02  0.14904472769E+03  0.18170503274E+03  0.90959471688E+02 0.  0.
         23    2    1    2    0    0 -0.44247673530E+02  0.23893638647E+02 -0.14904472769E+03  0.18329496726E+03  0.94095438728E+02 0.  0.
        -11    1    3    3    0    0  0.39092253158E+02  0.28041763015E+02  0.95494899916E+02  0.10692904488E+03  0.00000000000E+00 0. -1.
         11    1    3    3    0    0  0.51554203718E+01 -0.51935401662E+02  0.53549827776E+02  0.74775987856E+02  0.00000000000E+00 0.  1.
        -15    1    4    4    0    0  0.22805262369E+02 -0.16291400294E+02 -0.46780098371E+02  0.54562120999E+02  0.17770000000E+01 0. -1.
         15    1    4    4    0    0 -0.67052935899E+02  0.40185038941E+02 -0.10226462932E+03  0.12873284626E+03  0.17770000000E+01 0.  1.
</event>
<event>
 8    1  0.1807540E-005  0.1828233E+03  0.7546771E-02  0.1068198E+00
        -11   -1    0    0    0    0  0.00000000000E+00  0.00000000000E+00  0.18250000000E+03  0.18250000000E+03  0.00000000000E+00 0. -1.
         11   -1    0    0    0    0 -0.00000000000E+00 -0.00000000000E+00 -0.18250000000E+03  0.18250000000E+03  0.00000000000E+00 0.  1.
         23    2    1    2    0    0  0.74096417368E+02 -0.64869847512E+02 -0.12344882792E+03  0.18217666997E+03  0.90831436092E+02 0.  0.
         23    2    1    2    0    0 -0.74096417368E+02  0.64869847512E+02  0.12344882792E+03  0.18282333003E+03  0.92121553963E+02 0.  0.
        -11    1    3    3    0    0  0.52753199729E+02  0.77778120368E+01 -0.75928094615E+02  0.92781840862E+02  0.00000000000E+00 0.  1.
         11    1    3    3    0    0  0.21343217639E+02 -0.72647659549E+02 -0.47520733308E+02  0.89394829108E+02  0.00000000000E+00 0. -1.
        -15    1    4    4    0    0  0.35553015745E+01 -0.19091499649E+02  0.26392664115E+02  0.32815483788E+02  0.17770000000E+01 0.  1.
         15    1    4    4    0    0 -0.77651718943E+02  0.83961347162E+02  0.97056163808E+02  0.15000784624E+03  0.17770000000E+01 0. -1.
</event>
<event>
 8    1  0.1807540E-005  0.1828006E+03  0.7546771E-02  0.1068216E+00
        -11   -1    0    0    0    0  0.00000000000E+00  0.00000000000E+00  0.18250000000E+03  0.18250000000E+03  0.00000000000E+00 0.  1.
         11   -1    0    0    0    0 -0.00000000000E+00 -0.00000000000E+00 -0.18250000000E+03  0.18250000000E+03  0.00000000000E+00 0. -1.
         23    2    1    2    0    0  0.80979218912E+02  0.84987462910E+02  0.10609501454E+03  0.18280057106E+03  0.91539029506E+02 0.  0.
         23    2    1    2    0    0 -0.80979218912E+02 -0.84987462910E+02 -0.10609501454E+03  0.18219942894E+03  0.90332591286E+02 0.  0.
        -11    1    3    3    0    0  0.11373886118E+02 -0.19913110460E+02  0.14902172561E+02  0.27349076779E+02  0.00000000000E+00 0. -1.
         11    1    3    3    0    0  0.69605332794E+02  0.10490057337E+03  0.91192841977E+02  0.15545149428E+03  0.00000000000E+00 0.  1.
        -15    1    4    4    0    0 -0.31015782355E+02 -0.67661161678E+02 -0.13665373597E+02  0.75696180347E+02  0.17770000000E+01 0.  1.
         15    1    4    4    0    0 -0.49963436557E+02 -0.17326301232E+02 -0.92429640942E+02  0.10650324859E+03  0.17770000000E+01 0. -1.
</event>
<event>
 8    1  0.1807540E-005  0.1827130E+03  0.7546771E-02  0.1068285E+00
        -11   -1    0    0    0    0  0.00000000000E+00  0.00000000000E+00  0.18250000000E+03  0.18250000000E+03  0.00000000000E+00 0. -1.
         11   -1    0    0    0    0 -0.00000000000E+00 -0.00000000000E+00 -0.18250000000E+03  0.18250000000E+03  0.00000000000E+00 0.  1.
         23    2    1    2    0    0 -0.57001771750E+02  0.13004980199E+03 -0.71651991071E+02  0.18271295264E+03  0.89932542808E+02 0.  0.
         23    2    1    2    0    0  0.57001771750E+02 -0.13004980199E+03  0.71651991071E+02  0.18228704736E+03  0.89064060265E+02 0.  0.
        -11    1    3    3    0    0  0.20266383066E+02  0.13804259927E+02  0.25141503040E+01  0.24649641508E+02  0.00000000000E+00 0. -1.
         11    1    3    3    0    0 -0.77268154816E+02  0.11624554207E+03 -0.74166141375E+02  0.15806331113E+03  0.00000000000E+00 0.  1.
        -15    1    4    4    0    0  0.14982223945E+02 -0.93274372477E+02  0.40310916326E+01  0.94572633589E+02  0.17770000000E+01 0.  1.
         15    1    4    4    0    0  0.42019547805E+02 -0.36775429516E+02  0.67620899438E+02  0.87714413774E+02  0.17770000000E+01 0. -1.
</event>
<event>
 8    1  0.1807540E-005  0.1838293E+03  0.7546771E-02  0.1067402E+00
        -11   -1    0    0    0    0  0.00000000000E+00  0.00000000000E+00  0.18250000000E+03  0.18250000000E+03  0.00000000000E+00 0.  1.
         11   -1    0    0    0    0 -0.00000000000E+00 -0.00000000000E+00 -0.18250000000E+03  0.18250000000E+03  0.00000000000E+00 0. -1.
         23    2    1    2    0    0 -0.29469271659E+02 -0.12919497225E+03 -0.87742747995E+02  0.18382933329E+03  0.92383197201E+02 0.  0.
         23    2    1    2    0    0  0.29469271659E+02  0.12919497225E+03  0.87742747995E+02  0.18117066671E+03  0.86972649852E+02 0.  0.
        -11    1    3    3    0    0  0.71787013480E+01 -0.81471452557E+02 -0.55632311234E+01  0.81976099416E+02  0.00000000000E+00 0.  1.
         11    1    3    3    0    0 -0.36647973007E+02 -0.47723519695E+02 -0.82179516872E+02  0.10185323388E+03  0.00000000000E+00 0. -1.
        -15    1    4    4    0    0  0.37430207473E+02  0.12758145805E+03  0.99987787617E+02  0.16636936097E+03  0.17770000000E+01 0.  1.
         15    1    4    4    0    0 -0.79609358132E+01  0.16135142034E+01 -0.12245039621E+02  0.14801305734E+02  0.17770000000E+01 0. -1.
</event>
<event>
 8    1  0.1807540E-005  0.1827020E+03  0.7546771E-02  0.1068294E+00
        -11   -1    0    0    0    0  0.00000000000E+00  0.00000000000E+00  0.18250000000E+03  0.18250000000E+03  0.00000000000E+00 0.  1.
         11   -1    0    0    0    0 -0.00000000000E+00 -0.00000000000E+00 -0.18250000000E+03  0.18250000000E+03  0.00000000000E+00 0. -1.
         23    2    1    2    0    0  0.92042950259E+02  0.12895852649E+03  0.63164928571E+01  0.18229803792E+03  0.89947041647E+02 0.  0.
         23    2    1    2    0    0 -0.92042950259E+02 -0.12895852649E+03 -0.63164928571E+01  0.18270196208E+03  0.90762892306E+02 0.  0.
        -11    1    3    3    0    0  0.31617535752E+02 -0.76975093249E+01 -0.23645825529E+01  0.32626851940E+02  0.00000000000E+00 0. -1.
         11    1    3    3    0    0  0.60425414507E+02  0.13665603581E+03  0.86810754100E+01  0.14967118598E+03  0.00000000000E+00 0.  1.
        -15    1    4    4    0    0 -0.13110370285E+02 -0.80810022994E+01  0.30051192885E+02  0.33814439667E+02  0.17770000000E+01 0.  1.
         15    1    4    4    0    0 -0.78932579974E+02 -0.12087752419E+03 -0.36367685742E+02  0.14888752241E+03  0.17770000000E+01 0. -1.
</event>
<event>
 8    1  0.1807540E-005  0.1825075E+03  0.7546771E-02  0.1068449E+00
        -11   -1    0    0    0    0  0.00000000000E+00  0.00000000000E+00  0.18250000000E+03  0.18250000000E+03  0.00000000000E+00 0.  1.
         11   -1    0    0    0    0 -0.00000000000E+00 -0.00000000000E+00 -0.18250000000E+03  0.18250000000E+03  0.00000000000E+00 0. -1.
         23    2    1    2    0    0 -0.53331002331E+02 -0.65980666670E+02  0.13383758939E+03  0.18250752689E+03  0.90547517091E+02 0.  0.
         23    2    1    2    0    0  0.53331002331E+02  0.65980666670E+02 -0.13383758939E+03  0.18249247311E+03  0.90517170885E+02 0.  0.
        -11    1    3    3    0    0 -0.10900721537E+01  0.21539174236E+02  0.17012828515E+02  0.27469266793E+02  0.00000000000E+00 0. -1.
         11    1    3    3    0    0 -0.52240930177E+02 -0.87519840907E+02  0.11682476088E+03  0.15503826009E+03  0.00000000000E+00 0.  1.
        -15    1    4    4    0    0  0.41042230675E+02  0.12235776997E+02 -0.60257856915E+01  0.43285641496E+02  0.17770000000E+01 0.  1.
         15    1    4    4    0    0  0.12288771656E+02  0.53744889674E+02 -0.12781180370E+03  0.13920683162E+03  0.17770000000E+01 0. -1.
</event>
<event>
 8    1  0.1807540E-005  0.1840062E+03  0.7546771E-02  0.1067262E+00
        -11   -1    0    0    0    0  0.00000000000E+00  0.00000000000E+00  0.18250000000E+03  0.18250000000E+03  0.00000000000E+00 0.  1.
         11   -1    0    0    0    0 -0.00000000000E+00 -0.00000000000E+00 -0.18250000000E+03  0.18250000000E+03  0.00000000000E+00 0. -1.
         23    2    1    2    0    0 -0.40798994041E+01  0.55111236535E+02  0.14827208703E+03  0.18099377604E+03  0.87864903132E+02 0.  0.
         23    2    1    2    0    0  0.40798994041E+01 -0.55111236535E+02 -0.14827208703E+03  0.18400622396E+03  0.93913708746E+02 0.  0.
        -11    1    3    3    0    0  0.13190655876E+02  0.26348515242E+02  0.14422134556E+03  0.14720065955E+03  0.00000000000E+00 0.  1.
         11    1    3    3    0    0 -0.17270555280E+02  0.28762721294E+02  0.40507414752E+01  0.33793116494E+02  0.00000000000E+00 0. -1.
        -15    1    4    4    0    0 -0.23101834334E+02  0.47724421469E+01 -0.99067988566E+02  0.10185330157E+03  0.17770000000E+01 0.  1.
         15    1    4    4    0    0  0.27181733738E+02 -0.59883678682E+02 -0.49204098465E+02  0.82152922384E+02  0.17770000000E+01 0. -1.
</event>
<event>
 8    1  0.1807540E-005  0.1827486E+03  0.7546771E-02  0.1068257E+00
        -11   -1    0    0    0    0  0.00000000000E+00  0.00000000000E+00  0.18250000000E+03  0.18250000000E+03  0.00000000000E+00 0. -1.
         11   -1    0    0    0    0 -0.00000000000E+00 -0.00000000000E+00 -0.18250000000E+03  0.18250000000E+03  0.00000000000E+00 0.  1.
         23    2    1    2    0    0  0.68382317918E+02  0.14919782358E+02 -0.14286700614E+03  0.18225138357E+03  0.88914813489E+02 0.  0.
         23    2    1    2    0    0 -0.68382317918E+02 -0.14919782358E+02  0.14286700614E+03  0.18274861643E+03  0.89929606110E+02 0.  0.
        -11    1    3    3    0    0  0.24194852652E+02  0.49506035389E+02 -0.87613626480E+02  0.10350065691E+03  0.00000000000E+00 0. -1.
         11    1    3    3    0    0  0.44187465266E+02 -0.34586253031E+02 -0.55253379663E+02  0.78750726660E+02  0.00000000000E+00 0.  1.
        -15    1    4    4    0    0 -0.20510025402E+02  0.35348805157E+02  0.32023470602E+02  0.51950549241E+02  0.17770000000E+01 0.  1.
         15    1    4    4    0    0 -0.47872292515E+02 -0.50268587515E+02  0.11084353554E+03  0.13079806719E+03  0.17770000000E+01 0. -1.
</event>
<event>
 8    1  0.1807540E-005  0.1833477E+03  0.7546771E-02  0.1067782E+00
        -11   -1    0    0    0    0  0.00000000000E+00  0.00000000000E+00  0.18250000000E+03  0.18250000000E+03  0.00000000000E+00 0.  1.
         11   -1    0    0    0    0 -0.00000000000E+00 -0.00000000000E+00 -0.18250000000E+03  0.18250000000E+03  0.00000000000E+00 0. -1.
         23    2    1    2    0    0  0.38133011104E+00  0.13965918367E+02 -0.15805670935E+03  0.18334770327E+03  0.91865470320E+02 0.  0.
         23    2    1    2    0    0 -0.38133011104E+00 -0.13965918367E+02  0.15805670935E+03  0.18165229673E+03  0.88433258723E+02 0.  0.
        -11    1    3    3    0    0 -0.28737646767E+02 -0.17550969138E+02 -0.20891862573E+02  0.39627752664E+02  0.00000000000E+00 0.  1.
         11    1    3    3    0    0  0.29118976879E+02  0.31516887504E+02 -0.13716484677E+03  0.14371995061E+03  0.00000000000E+00 0. -1.
        -15    1    4    4    0    0 -0.13530047730E+02 -0.16677965120E+02 -0.14252014530E+01  0.21596426563E+02  0.17770000000E+01 0. -1.
         15    1    4    4    0    0  0.13148717619E+02  0.27120467534E+01  0.15948191080E+03  0.16005587016E+03  0.17770000000E+01 0.  1.
</event>
<event>
 8    1  0.1807540E-005  0.1827336E+03  0.7546771E-02  0.1068269E+00
        -11   -1    0    0    0    0  0.00000000000E+00  0.00000000000E+00  0.18250000000E+03  0.18250000000E+03  0.00000000000E+00 0.  1.
         11   -1    0    0    0    0 -0.00000000000E+00 -0.00000000000E+00 -0.18250000000E+03  0.18250000000E+03  0.00000000000E+00 0. -1.
         23    2    1    2    0    0  0.76498309267E+01 -0.11102650557E+01 -0.15815879319E+03  0.18273359386E+03  0.91200931246E+02 0.  0.
         23    2    1    2    0    0 -0.76498309267E+01  0.11102650557E+01  0.15815879319E+03  0.18226640614E+03  0.90261211736E+02 0.  0.
        -11    1    3    3    0    0 -0.21003364185E+01 -0.91557693058E+01  0.10219853850E+02  0.13881100006E+02  0.00000000000E+00 0.  1.
         11    1    3    3    0    0  0.97501673452E+01  0.80455042501E+01 -0.16837864704E+03  0.16885249385E+03  0.00000000000E+00 0. -1.
        -15    1    4    4    0    0 -0.29118786492E+02  0.15617846940E+02  0.15201872232E+03  0.15557850281E+03  0.17770000000E+01 0.  1.
         15    1    4    4    0    0  0.21468955565E+02 -0.14507581885E+02  0.61400708630E+01  0.26687903335E+02  0.17770000000E+01 0. -1.
</event>
<event>
 8    1  0.1807540E-005  0.1829954E+03  0.7546771E-02  0.1068061E+00
        -11   -1    0    0    0    0  0.00000000000E+00  0.00000000000E+00  0.18250000000E+03  0.18250000000E+03  0.00000000000E+00 0. -1.
         11   -1    0    0    0    0 -0.00000000000E+00 -0.00000000000E+00 -0.18250000000E+03  0.18250000000E+03  0.00000000000E+00 0.  1.
         23    2    1    2    0    0 -0.10656970051E+03  0.10617179449E+03 -0.45301387093E+02  0.18200457101E+03  0.91890680622E+02 0.  0.
         23    2    1    2    0    0  0.10656970051E+03 -0.10617179449E+03  0.45301387093E+02  0.18299542899E+03  0.93837947255E+02 0.  0.
        -11    1    3    3    0    0 -0.11230195488E+03  0.10921005133E+03 -0.58566342189E+02  0.16723809620E+03  0.00000000000E+00 0.  1.
         11    1    3    3    0    0  0.57322543662E+01 -0.30382568477E+01  0.13264955096E+02  0.14766474816E+02  0.00000000000E+00 0. -1.
        -15    1    4    4    0    0  0.85793270395E+02 -0.12300672837E+03  0.33311627589E+02  0.15363581201E+03  0.17770000000E+01 0. -1.
         15    1    4    4    0    0  0.20776430119E+02  0.16834933882E+02  0.11989759504E+02  0.29359616981E+02  0.17770000000E+01 0.  1.
</event>
<event>
 8    1  0.1807540E-005  0.1825483E+03  0.7546771E-02  0.1068416E+00
        -11   -1    0    0    0    0  0.00000000000E+00  0.00000000000E+00  0.18250000000E+03  0.18250000000E+03  0.00000000000E+00 0. -1.
         11   -1    0    0    0    0 -0.00000000000E+00 -0.00000000000E+00 -0.18250000000E+03  0.18250000000E+03  0.00000000000E+00 0.  1.
         23    2    1    2    0    0 -0.14236494368E+01 -0.30972072747E+02 -0.15508925504E+03  0.18254827672E+03  0.91158654202E+02 0.  0.
         23    2    1    2    0    0  0.14236494368E+01  0.30972072747E+02  0.15508925504E+03  0.18245172328E+03  0.90965148448E+02 0.  0.
        -11    1    3    3    0    0  0.10073142259E+02 -0.29414906224E+02 -0.43867075490E+01  0.31399810609E+02  0.00000000000E+00 0. -1.
         11    1    3    3    0    0 -0.11496791696E+02 -0.15571665228E+01 -0.15070254749E+03  0.15114846611E+03  0.00000000000E+00 0.  1.
        -15    1    4    4    0    0 -0.36318354086E+02 -0.12447072087E+02  0.57789841422E+02  0.69402996677E+02  0.17770000000E+01 0.  1.
         15    1    4    4    0    0  0.37742003523E+02  0.43419144834E+02  0.97299413617E+02  0.11304872661E+03  0.17770000000E+01 0. -1.
</event>
<event>
 7    1  0.1807540E-005  0.1664137E+03  0.7546771E-02  0.1082033E+00
        -11   -1    0    0    0    0  0.00000000000E+00  0.00000000000E+00  0.18250000000E+03  0.18250000000E+03  0.00000000000E+00 0. -1.
         11   -1    0    0    0    0 -0.00000000000E+00 -0.00000000000E+00 -0.18250000000E+03  0.18250000000E+03  0.00000000000E+00 0. -1.
         23    2    1    2    0    0 -0.39672283505E+00  0.44111514489E+02  0.13938537470E+03  0.16930991642E+03  0.85390760738E+02 0.  0.
        -11    1    1    2    0    0 -0.37703113873E+02  0.28332353444E+02 -0.20671316296E+02  0.51493206978E+02  0.00000000000E+00 0. -1.
         11    1    1    2    0    0  0.38099836708E+02 -0.72443867933E+02 -0.11871405840E+03  0.14419687660E+03  0.00000000000E+00 0. -1.
        -15    1    3    3    0    0  0.10145863822E+02  0.43271118414E+02  0.18868334279E+02  0.48316663884E+02  0.17770000000E+01 0.  1.
         15    1    3    3    0    0 -0.10542586657E+02  0.84039607547E+00  0.12051704042E+03  0.12099325254E+03  0.17770000000E+01 0. -1.
</event>
<event>
 8    1  0.1807540E-005  0.1879112E+03  0.7546771E-02  0.1064227E+00
        -11   -1    0    0    0    0  0.00000000000E+00  0.00000000000E+00  0.18250000000E+03  0.18250000000E+03  0.00000000000E+00 0. -1.
         11   -1    0    0    0    0 -0.00000000000E+00 -0.00000000000E+00 -0.18250000000E+03  0.18250000000E+03  0.00000000000E+00 0. -1.
         23    2    1    2    0    0  0.44441520271E+02  0.25560739201E+02  0.15602684520E+03  0.17708877283E+03  0.66239391052E+02 0.  0.
         23    2    1    2    0    0 -0.44441520271E+02 -0.25560739201E+02 -0.15602684520E+03  0.18791122717E+03  0.91311843485E+02 0.  0.
        -11    1    3    3    0    0  0.34977982793E+02 -0.17360075038E+02  0.61600019989E+02  0.72934175448E+02  0.00000000000E+00 0. -1.
         11    1    3    3    0    0  0.94635374784E+01  0.42920814239E+02  0.94426825211E+02  0.10415459738E+03  0.00000000000E+00 0. -1.
        -15    1    4    4    0    0  0.51755029716E+01 -0.20447478055E+02  0.28692168383E+01  0.21360602147E+02  0.17770000000E+01 0.  1.
         15    1    4    4    0    0 -0.49617023243E+02 -0.51132611459E+01 -0.15889606204E+03  0.16655062502E+03  0.17770000000E+01 0. -1.
</event>
<event>
 8    1  0.1807540E-005  0.1829958E+03  0.7546771E-02  0.1068061E+00
        -11   -1    0    0    0    0  0.00000000000E+00  0.00000000000E+00  0.18250000000E+03  0.18250000000E+03  0.00000000000E+00 0. -1.
         11   -1    0    0    0    0 -0.00000000000E+00 -0.00000000000E+00 -0.18250000000E+03  0.18250000000E+03  0.00000000000E+00 0.  1.
         23    2    1    2    0    0 -0.88262326876E+02 -0.79703749827E+02 -0.10654917884E+03  0.18299579997E+03  0.89396919478E+02 0.  0.
         23    2    1    2    0    0  0.88262326876E+02  0.79703749827E+02  0.10654917884E+03  0.18200420003E+03  0.87349157035E+02 0.  0.
        -11    1    3    3    0    0 -0.93237342814E+02 -0.47652624442E+02 -0.10813393492E+03  0.15052216645E+03  0.00000000000E+00 0.  1.
         11    1    3    3    0    0  0.49750159376E+01 -0.32051125386E+02  0.15847560800E+01  0.32473633519E+02  0.00000000000E+00 0. -1.
        -15    1    4    4    0    0  0.32245514574E+01  0.34820138756E+02 -0.42693942584E+01  0.35273577241E+02  0.17770000000E+01 0.  1.
         15    1    4    4    0    0  0.85037775419E+02  0.44883611071E+02  0.11081857310E+03  0.14673062279E+03  0.17770000000E+01 0. -1.
</event>
<event>
 8    1  0.1807540E-005  0.1828325E+03  0.7546771E-02  0.1068190E+00
        -11   -1    0    0    0    0  0.00000000000E+00  0.00000000000E+00  0.18250000000E+03  0.18250000000E+03  0.00000000000E+00 0.  1.
         11   -1    0    0    0    0 -0.00000000000E+00 -0.00000000000E+00 -0.18250000000E+03  0.18250000000E+03  0.00000000000E+00 0. -1.
         23    2    1    2    0    0  0.60492595769E+02  0.13984465629E+03  0.41212256760E+02  0.18283249379E+03  0.92268026106E+02 0.  0.
         23    2    1    2    0    0 -0.60492595769E+02 -0.13984465629E+03 -0.41212256760E+02  0.18216750621E+03  0.90943214032E+02 0.  0.
        -11    1    3    3    0    0  0.67878033631E+02  0.83071759466E+02  0.59574207391E+02  0.12270872364E+03  0.00000000000E+00 0.  1.
         11    1    3    3    0    0 -0.73854378624E+01  0.56772896821E+02 -0.18361950630E+02  0.60123770148E+02  0.00000000000E+00 0. -1.
        -15    1    4    4    0    0 -0.12457003728E+02 -0.59805202808E+02 -0.61415695758E+02  0.86642279744E+02  0.17770000000E+01 0.  1.
         15    1    4    4    0    0 -0.48035592041E+02 -0.80039453479E+02  0.20203438998E+02  0.95525226471E+02  0.17770000000E+01 0. -1.
</event>
<event>
 8    1  0.1807540E-005  0.1825378E+03  0.7546771E-02  0.1068425E+00
        -11   -1    0    0    0    0  0.00000000000E+00  0.00000000000E+00  0.18250000000E+03  0.18250000000E+03  0.00000000000E+00 0.  1.
         11   -1    0    0    0    0 -0.00000000000E+00 -0.00000000000E+00 -0.18250000000E+03  0.18250000000E+03  0.00000000000E+00 0. -1.
         23    2    1    2    0    0 -0.21520175720E+02 -0.27370296717E+02 -0.15393357711E+03  0.18246224199E+03  0.91567857271E+02 0.  0.
         23    2    1    2    0    0  0.21520175720E+02  0.27370296717E+02  0.15393357711E+03  0.18253775801E+03  0.91718241543E+02 0.  0.
        -11    1    3    3    0    0 -0.28151337104E+02  0.28213736029E+02 -0.83236588301E+02  0.92286739640E+02  0.00000000000E+00 0.  1.
         11    1    3    3    0    0  0.66311613834E+01 -0.55584032746E+02 -0.70696988809E+02  0.90175502351E+02  0.00000000000E+00 0. -1.
        -15    1    4    4    0    0 -0.20865210163E+02  0.27503482607E+02  0.12851458174E+03  0.13308250824E+03  0.17770000000E+01 0.  1.
         15    1    4    4    0    0  0.42385385884E+02 -0.13318588938E+00  0.25418995368E+02  0.49455249767E+02  0.17770000000E+01 0. -1.
</event>
<event>
 8    1  0.1807540E-005  0.1833334E+03  0.7546771E-02  0.1067793E+00
        -11   -1    0    0    0    0  0.00000000000E+00  0.00000000000E+00  0.18250000000E+03  0.18250000000E+03  0.00000000000E+00 0.  1.
         11   -1    0    0    0    0 -0.00000000000E+00 -0.00000000000E+00 -0.18250000000E+03  0.18250000000E+03  0.00000000000E+00 0. -1.
         23    2    1    2    0    0  0.75052630160E+02  0.21687559963E+02 -0.13674086974E+03  0.18166659308E+03  0.90561791238E+02 0.  0.
         23    2    1    2    0    0 -0.75052630160E+02 -0.21687559963E+02  0.13674086974E+03  0.18333340692E+03  0.93860668468E+02 0.  0.
        -11    1    3    3    0    0 -0.10416379612E+02  0.83260964901E+01  0.61067095167E+01  0.14666858836E+02  0.00000000000E+00 0.  1.
         11    1    3    3    0    0  0.85469009772E+02  0.13361463473E+02 -0.14284757926E+03  0.16699973424E+03  0.00000000000E+00 0. -1.
        -15    1    4    4    0    0 -0.89237623556E+02 -0.33306002198E+02  0.13443456108E+03  0.16476787363E+03  0.17770000000E+01 0.  1.
         15    1    4    4    0    0  0.14184993396E+02  0.11618442235E+02  0.23063086609E+01  0.18565533288E+02  0.17770000000E+01 0. -1.
</event>
<event>
 8    1  0.1807540E-005  0.1868660E+03  0.7546771E-02  0.1065032E+00
        -11   -1    0    0    0    0  0.00000000000E+00  0.00000000000E+00  0.18250000000E+03  0.18250000000E+03  0.00000000000E+00 0.  1.
         11   -1    0    0    0    0 -0.00000000000E+00 -0.00000000000E+00 -0.18250000000E+03  0.18250000000E+03  0.00000000000E+00 0.  1.
         23    2    1    2    0    0  0.15291044094E+03  0.53253557657E+02 -0.98534723464E+01  0.17813403730E+03  0.73600950924E+02 0.  0.
         23    2    1    2    0    0 -0.15291044094E+03 -0.53253557657E+02  0.98534723464E+01  0.18686596270E+03  0.92759111401E+02 0.  0.
        -11    1    3    3    0    0  0.10008009039E+03  0.69123476699E+02  0.22825452989E+01  0.12165233059E+03  0.00000000000E+00 0.  1.
         11    1    3    3    0    0  0.52830350544E+02 -0.15869919042E+02 -0.12136017645E+02  0.56481706714E+02  0.00000000000E+00 0.  1.
        -15    1    4    4    0    0 -0.14626376325E+03 -0.35312663054E+02  0.35705780659E+02  0.15465488390E+03  0.17770000000E+01 0.  1.
         15    1    4    4    0    0 -0.66466776847E+01 -0.17940894603E+02 -0.25852308312E+02  0.32211078800E+02  0.17770000000E+01 0. -1.
</event>
<event>
 8    1  0.1807540E-005  0.1826843E+03  0.7546771E-02  0.1068308E+00
        -11   -1    0    0    0    0  0.00000000000E+00  0.00000000000E+00  0.18250000000E+03  0.18250000000E+03  0.00000000000E+00 0. -1.
         11   -1    0    0    0    0 -0.00000000000E+00 -0.00000000000E+00 -0.18250000000E+03  0.18250000000E+03  0.00000000000E+00 0.  1.
         23    2    1    2    0    0  0.20728017517E+02 -0.36454302757E+02 -0.15160990481E+03  0.18231570402E+03  0.92167704735E+02 0.  0.
         23    2    1    2    0    0 -0.20728017517E+02  0.36454302757E+02  0.15160990481E+03  0.18268429598E+03  0.92894681552E+02 0.  0.
        -11    1    3    3    0    0 -0.25949437418E+02  0.15162734141E+02 -0.31761268837E+02  0.43727108378E+02  0.00000000000E+00 0. -1.
         11    1    3    3    0    0  0.46677454935E+02 -0.51617036898E+02 -0.11984863597E+03  0.13858859564E+03  0.00000000000E+00 0.  1.
        -15    1    4    4    0    0  0.13242365868E+02 -0.78210563458E+00 -0.77967174916E+01  0.15489301974E+02  0.17770000000E+01 0.  1.
         15    1    4    4    0    0 -0.33970383385E+02  0.37236408392E+02  0.15940662230E+03  0.16719499400E+03  0.17770000000E+01 0. -1.
</event>
<event>
 8    1  0.1807540E-005  0.1831969E+03  0.7546771E-02  0.1067901E+00
        -11   -1    0    0    0    0  0.00000000000E+00  0.00000000000E+00  0.18250000000E+03  0.18250000000E+03  0.00000000000E+00 0.  1.
         11   -1    0    0    0    0 -0.00000000000E+00 -0.00000000000E+00 -0.18250000000E+03  0.18250000000E+03  0.00000000000E+00 0. -1.
         23    2    1    2    0    0  0.21265318245E+02 -0.14907509868E+03 -0.48887337524E+02  0.18319691115E+03  0.92171241053E+02 0.  0.
         23    2    1    2    0    0 -0.21265318245E+02  0.14907509868E+03  0.48887337524E+02  0.18180308885E+03  0.89368856664E+02 0.  0.
        -11    1    3    3    0    0  0.77629910484E+01 -0.15071198849E+03 -0.21258554466E+02  0.15240175079E+03  0.00000000000E+00 0.  1.
         11    1    3    3    0    0  0.13502327196E+02  0.16368898173E+01 -0.27628783059E+02  0.30795160355E+02  0.00000000000E+00 0. -1.
        -15    1    4    4    0    0 -0.51532424372E+02  0.12568677369E+03  0.45890746470E+02  0.14339412185E+03  0.17770000000E+01 0. -1.
         15    1    4    4    0    0  0.30267106127E+02  0.23388324988E+02  0.29965910546E+01  0.38408967000E+02  0.17770000000E+01 0.  1.
</event>
<event>
 8    1  0.1807540E-005  0.1857763E+03  0.7546771E-02  0.1065876E+00
        -11   -1    0    0    0    0  0.00000000000E+00  0.00000000000E+00  0.18250000000E+03  0.18250000000E+03  0.00000000000E+00 0.  1.
         11   -1    0    0    0    0 -0.00000000000E+00 -0.00000000000E+00 -0.18250000000E+03  0.18250000000E+03  0.00000000000E+00 0. -1.
         23    2    1    2    0    0  0.29222328248E+02 -0.30912547381E+02  0.15639006856E+03  0.17922365708E+03  0.76509709574E+02 0.  0.
         23    2    1    2    0    0 -0.29222328248E+02  0.30912547381E+02 -0.15639006856E+03  0.18577634292E+03  0.90804548285E+02 0.  0.
        -11    1    3    3    0    0  0.44975669536E+02 -0.27294140170E+02  0.15418120581E+03  0.16290986822E+03  0.00000000000E+00 0.  1.
         11    1    3    3    0    0 -0.15753341289E+02 -0.36184072116E+01  0.22088627552E+01  0.16313788867E+02  0.00000000000E+00 0. -1.
        -15    1    4    4    0    0  0.30702740161E+02  0.16610666303E+01 -0.71206181537E+02  0.77581540420E+02  0.17770000000E+01 0.  1.
         15    1    4    4    0    0 -0.59925068409E+02  0.29251480751E+02 -0.85183887025E+02  0.10819480250E+03  0.17770000000E+01 0. -1.
</event>
<event>
 8    1  0.1807540E-005  0.1827296E+03  0.7546771E-02  0.1068272E+00
        -11   -1    0    0    0    0  0.00000000000E+00  0.00000000000E+00  0.18250000000E+03  0.18250000000E+03  0.00000000000E+00 0.  1.
         11   -1    0    0    0    0 -0.00000000000E+00 -0.00000000000E+00 -0.18250000000E+03  0.18250000000E+03  0.00000000000E+00 0. -1.
         23    2    1    2    0    0  0.24512133171E+02 -0.10534672514E+03 -0.11480593474E+03  0.18272959081E+03  0.92254666741E+02 0.  0.
         23    2    1    2    0    0 -0.24512133171E+02  0.10534672514E+03  0.11480593474E+03  0.18227040919E+03  0.91341788059E+02 0.  0.
        -11    1    3    3    0    0 -0.11362905977E+02 -0.58451209367E+02 -0.10795670883E+03  0.12328953925E+03  0.00000000000E+00 0. -1.
         11    1    3    3    0    0  0.35875039149E+02 -0.46895515768E+02 -0.68492259147E+01  0.59440051554E+02  0.00000000000E+00 0.  1.
        -15    1    4    4    0    0 -0.43599515057E+02  0.11246707779E+03  0.10321222920E+03  0.15876297832E+03  0.17770000000E+01 0.  1.
         15    1    4    4    0    0  0.19087381886E+02 -0.71203526505E+01  0.11593705541E+02  0.23507430874E+02  0.17770000000E+01 0. -1.
</event>
<event>
 8    1  0.1807540E-005  0.1828433E+03  0.7546771E-02  0.1068182E+00
        -11   -1    0    0    0    0  0.00000000000E+00  0.00000000000E+00  0.18250000000E+03  0.18250000000E+03  0.00000000000E+00 0. -1.
         11   -1    0    0    0    0 -0.00000000000E+00 -0.00000000000E+00 -0.18250000000E+03  0.18250000000E+03  0.00000000000E+00 0.  1.
         23    2    1    2    0    0  0.50454207686E+02  0.13609420575E+03 -0.60533236582E+02  0.18284329164E+03  0.93274523081E+02 0.  0.
         23    2    1    2    0    0 -0.50454207686E+02 -0.13609420575E+03  0.60533236582E+02  0.18215670836E+03  0.91921345495E+02 0.  0.
        -11    1    3    3    0    0  0.40002198062E+02  0.33217345207E+02 -0.60053877122E+02  0.79435735219E+02  0.00000000000E+00 0.  1.
         11    1    3    3    0    0  0.10452009624E+02  0.10287686054E+03 -0.47935946034E+00  0.10340755642E+03  0.00000000000E+00 0. -1.
        -15    1    4    4    0    0  0.25810389757E+02 -0.19671209703E+02  0.14086799190E+02  0.35422144923E+02  0.17770000000E+01 0. -1.
         15    1    4    4    0    0 -0.76264597442E+02 -0.11642299604E+03  0.46446437392E+02  0.14673456344E+03  0.17770000000E+01 0.  1.
</event>
<event>
 8    1  0.1807540E-005  0.1853387E+03  0.7546771E-02  0.1066217E+00
        -11   -1    0    0    0    0  0.00000000000E+00  0.00000000000E+00  0.18250000000E+03  0.18250000000E+03  0.00000000000E+00 0.  1.
         11   -1    0    0    0    0 -0.00000000000E+00 -0.00000000000E+00 -0.18250000000E+03  0.18250000000E+03  0.00000000000E+00 0. -1.
         23    2    1    2    0    0 -0.23340109150E+02 -0.10753175348E+03  0.11972751140E+03  0.18533872238E+03  0.88926522041E+02 0.  0.
         23    2    1    2    0    0  0.23340109150E+02  0.10753175348E+03 -0.11972751140E+03  0.17966127762E+03  0.76391485050E+02 0.  0.
        -11    1    3    3    0    0 -0.30050681964E+02 -0.50972641976E+01  0.41594531210E+01  0.30762422516E+02  0.00000000000E+00 0. -1.
         11    1    3    3    0    0  0.67105728139E+01 -0.10243448929E+03  0.11556805828E+03  0.15457629986E+03  0.00000000000E+00 0.  1.
        -15    1    4    4    0    0 -0.19353632953E+02  0.79329072629E+02 -0.62290639826E+02  0.10271779988E+03  0.17770000000E+01 0. -1.
         15    1    4    4    0    0  0.42693742103E+02  0.28202680856E+02 -0.57436871577E+02  0.76943477747E+02  0.17770000000E+01 0.  1.
</event>
<event>
 8    1  0.1807540E-005  0.1829674E+03  0.7546771E-02  0.1068083E+00
        -11   -1    0    0    0    0  0.00000000000E+00  0.00000000000E+00  0.18250000000E+03  0.18250000000E+03  0.00000000000E+00 0.  1.
         11   -1    0    0    0    0 -0.00000000000E+00 -0.00000000000E+00 -0.18250000000E+03  0.18250000000E+03  0.00000000000E+00 0. -1.
         23    2    1    2    0    0 -0.36822550094E+02  0.25903395316E+02 -0.15136120707E+03  0.18296741568E+03  0.92411980355E+02 0.  0.
         23    2    1    2    0    0  0.36822550094E+02 -0.25903395316E+02  0.15136120707E+03  0.18203258432E+03  0.90547008031E+02 0.  0.
        -11    1    3    3    0    0 -0.36476554245E+02  0.58830203706E+02 -0.11181069198E+03  0.13150347037E+03  0.00000000000E+00 0. -1.
         11    1    3    3    0    0 -0.34599584846E+00 -0.32926808390E+02 -0.39550515085E+02  0.51463945315E+02  0.00000000000E+00 0.  1.
        -15    1    4    4    0    0  0.40993341608E+02 -0.28099727359E+02  0.16242932013E+03  0.16987198268E+03  0.17770000000E+01 0.  1.
         15    1    4    4    0    0 -0.41707915142E+01  0.21963320438E+01 -0.11068113062E+02  0.12160601632E+02  0.17770000000E+01 0. -1.
</event>
<event>
 8    1  0.1807540E-005  0.1827420E+03  0.7546771E-02  0.1068262E+00
        -11   -1    0    0    0    0  0.00000000000E+00  0.00000000000E+00  0.18250000000E+03  0.18250000000E+03  0.00000000000E+00 0.  1.
         11   -1    0    0    0    0 -0.00000000000E+00 -0.00000000000E+00 -0.18250000000E+03  0.18250000000E+03  0.00000000000E+00 0. -1.
         23    2    1    2    0    0  0.75973490115E+02  0.73288333594E+02 -0.11715341052E+03  0.18274201713E+03  0.92339440033E+02 0.  0.
         23    2    1    2    0    0 -0.75973490115E+02 -0.73288333594E+02  0.11715341052E+03  0.18225798287E+03  0.91377785494E+02 0.  0.
        -11    1    3    3    0    0  0.53646379762E+02  0.80613992050E+02 -0.12486382510E+03  0.15801115339E+03  0.00000000000E+00 0. -1.
         11    1    3    3    0    0  0.22327110354E+02 -0.73256584560E+01  0.77104145758E+01  0.24730863743E+02  0.00000000000E+00 0.  1.
        -15    1    4    4    0    0 -0.40168611267E+02 -0.73639049486E+02  0.11985784255E+03  0.14630545817E+03  0.17770000000E+01 0.  1.
         15    1    4    4    0    0 -0.35804878848E+02  0.35071589271E+00 -0.27044320251E+01  0.35952524703E+02  0.17770000000E+01 0. -1.
</event>
<event>
 8    1  0.1807540E-005  0.1825840E+03  0.7546771E-02  0.1068388E+00
        -11   -1    0    0    0    0  0.00000000000E+00  0.00000000000E+00  0.18250000000E+03  0.18250000000E+03  0.00000000000E+00 0.  1.
         11   -1    0    0    0    0 -0.00000000000E+00 -0.00000000000E+00 -0.18250000000E+03  0.18250000000E+03  0.00000000000E+00 0. -1.
         23    2    1    2    0    0 -0.91948510756E+02 -0.23574089002E+02 -0.12464249342E+03  0.18258400545E+03  0.93759807899E+02 0.  0.
         23    2    1    2    0    0  0.91948510756E+02  0.23574089002E+02  0.12464249342E+03  0.18241599455E+03  0.93432208566E+02 0.  0.
        -11    1    3    3    0    0 -0.15722788050E+02 -0.49781102576E+02 -0.40589551592E+02  0.66127724414E+02  0.00000000000E+00 0. -1.
         11    1    3    3    0    0 -0.76225722706E+02  0.26207013573E+02 -0.84052941833E+02  0.11645628104E+03  0.00000000000E+00 0.  1.
        -15    1    4    4    0    0  0.52786435384E+02  0.59785764705E+02  0.77102862753E+02  0.11094482681E+03  0.17770000000E+01 0.  1.
         15    1    4    4    0    0  0.39162075372E+02 -0.36211675703E+02  0.47539630672E+02  0.71471167740E+02  0.17770000000E+01 0. -1.
</event>
<event>
 8    1  0.1807540E-005  0.1827478E+03  0.7546771E-02  0.1068258E+00
        -11   -1    0    0    0    0  0.00000000000E+00  0.00000000000E+00  0.18250000000E+03  0.18250000000E+03  0.00000000000E+00 0.  1.
         11   -1    0    0    0    0 -0.00000000000E+00 -0.00000000000E+00 -0.18250000000E+03  0.18250000000E+03  0.00000000000E+00 0. -1.
         23    2    1    2    0    0  0.10227028697E+03  0.47616223691E+01  0.12063037910E+03  0.18225218438E+03  0.90455987674E+02 0.  0.
         23    2    1    2    0    0 -0.10227028697E+03 -0.47616223691E+01 -0.12063037910E+03  0.18274781562E+03  0.91450484466E+02 0.  0.
        -11    1    3    3    0    0  0.11368320303E+03  0.12423941177E+02  0.12338520723E+03  0.16823238193E+03  0.00000000000E+00 0.  1.
         11    1    3    3    0    0 -0.11412916066E+02 -0.76623188079E+01 -0.27548281354E+01  0.14019802449E+02  0.00000000000E+00 0. -1.
        -15    1    4    4    0    0 -0.64833475371E+02 -0.46535071889E+02 -0.83127025906E+02  0.11524822172E+03  0.17770000000E+01 0. -1.
         15    1    4    4    0    0 -0.37436811596E+02  0.41773449520E+02 -0.37503353192E+02  0.67499593901E+02  0.17770000000E+01 0.  1.
</event>
<event>
 8    1  0.1807540E-005  0.1825167E+03  0.7546771E-02  0.1068442E+00
        -11   -1    0    0    0    0  0.00000000000E+00  0.00000000000E+00  0.18250000000E+03  0.18250000000E+03  0.00000000000E+00 0.  1.
         11   -1    0    0    0    0 -0.00000000000E+00 -0.00000000000E+00 -0.18250000000E+03  0.18250000000E+03  0.00000000000E+00 0. -1.
         23    2    1    2    0    0 -0.18803307394E+02  0.10233904929E+02  0.15872882306E+03  0.18251668168E+03  0.87516870613E+02 0.  0.
         23    2    1    2    0    0  0.18803307394E+02 -0.10233904929E+02 -0.15872882306E+03  0.18248331832E+03  0.87447269923E+02 0.  0.
        -11    1    3    3    0    0 -0.48745696131E+02 -0.13066270979E+02  0.72766763602E+02  0.88554346103E+02  0.00000000000E+00 0.  1.
         11    1    3    3    0    0  0.29942388737E+02  0.23300175908E+02  0.85962059457E+02  0.93962335575E+02  0.00000000000E+00 0. -1.
        -15    1    4    4    0    0  0.32307424408E+02 -0.23261142964E+02 -0.24161311280E+02  0.46602329724E+02  0.17770000000E+01 0.  1.
         15    1    4    4    0    0 -0.13504117014E+02  0.13027238035E+02 -0.13456751178E+03  0.13588098860E+03  0.17770000000E+01 0. -1.
</event>
<event>
 8    1  0.1807540E-005  0.1852969E+03  0.7546771E-02  0.1066250E+00
        -11   -1    0    0    0    0  0.00000000000E+00  0.00000000000E+00  0.18250000000E+03  0.18250000000E+03  0.00000000000E+00 0.  1.
         11   -1    0    0    0    0 -0.00000000000E+00 -0.00000000000E+00 -0.18250000000E+03  0.18250000000E+03  0.00000000000E+00 0. -1.
         23    2    1    2    0    0 -0.31279720017E+02  0.44923034846E+01 -0.15027658687E+03  0.17970306083E+03  0.93335608625E+02 0.  0.
         23    2    1    2    0    0  0.31279720017E+02 -0.44923034846E+01  0.15027658687E+03  0.18529693917E+03  0.10369812645E+03 0.  0.
        -11    1    3    3    0    0 -0.18986291548E+02  0.35817835733E+02 -0.13808270028E+03  0.14391048864E+03  0.00000000000E+00 0. -1.
         11    1    3    3    0    0 -0.12293428470E+02 -0.31325532249E+02 -0.12193886586E+02  0.35792572194E+02  0.00000000000E+00 0.  1.
        -15    1    4    4    0    0  0.22359802603E+02 -0.21604582628E+02  0.16042599106E+03  0.16342085271E+03  0.17770000000E+01 0.  1.
         15    1    4    4    0    0  0.89199174147E+01  0.17112279144E+02 -0.10149404195E+02  0.21876086457E+02  0.17770000000E+01 0. -1.
</event>
<event>
 8    1  0.1807540E-005  0.1839551E+03  0.7546771E-02  0.1067302E+00
        -11   -1    0    0    0    0  0.00000000000E+00  0.00000000000E+00  0.18250000000E+03  0.18250000000E+03  0.00000000000E+00 0. -1.
         11   -1    0    0    0    0 -0.00000000000E+00 -0.00000000000E+00 -0.18250000000E+03  0.18250000000E+03  0.00000000000E+00 0.  1.
         23    2    1    2    0    0  0.25699127824E+02 -0.63495138401E+02 -0.14274684235E+03  0.18104487910E+03  0.87798117716E+02 0.  0.
         23    2    1    2    0    0 -0.25699127824E+02  0.63495138401E+02  0.14274684235E+03  0.18395512090E+03  0.93652270302E+02 0.  0.
        -11    1    3    3    0    0 -0.15608261408E+02 -0.68016034638E+02 -0.91120480502E+02  0.11477256100E+03  0.00000000000E+00 0. -1.
         11    1    3    3    0    0  0.41307389231E+02  0.45208962369E+01 -0.51626361851E+02  0.66272318096E+02  0.00000000000E+00 0.  1.
        -15    1    4    4    0    0  0.47507343789E+01  0.12175502119E+02 -0.12161695984E+02  0.17940928270E+02  0.17770000000E+01 0.  1.
         15    1    4    4    0    0 -0.30449862202E+02  0.51319636282E+02  0.15490853834E+03  0.16601419263E+03  0.17770000000E+01 0. -1.
</event>
<event>
 8    1  0.1807540E-005  0.1828168E+03  0.7546771E-02  0.1068203E+00
        -11   -1    0    0    0    0  0.00000000000E+00  0.00000000000E+00  0.18250000000E+03  0.18250000000E+03  0.00000000000E+00 0.  1.
         11   -1    0    0    0    0 -0.00000000000E+00 -0.00000000000E+00 -0.18250000000E+03  0.18250000000E+03  0.00000000000E+00 0. -1.
         23    2    1    2    0    0  0.21236180673E+02 -0.60686669094E+02 -0.14475649164E+03  0.18281676236E+03  0.91288989224E+02 0.  0.
         23    2    1    2    0    0 -0.21236180673E+02  0.60686669094E+02  0.14475649164E+03  0.18218323764E+03  0.90013571357E+02 0.  0.
        -11    1    3    3    0    0 -0.35305253194E+02 -0.14155810680E+02 -0.56935698252E+02  0.68472780100E+02  0.00000000000E+00 0.  1.
         11    1    3    3    0    0  0.56541433867E+02 -0.46530858415E+02 -0.87820793388E+02  0.11434398226E+03  0.00000000000E+00 0. -1.
        -15    1    4    4    0    0  0.10315429771E+02  0.46035881505E+02  0.13910121708E+03  0.14689457716E+03  0.17770000000E+01 0.  1.
         15    1    4    4    0    0 -0.31551610444E+02  0.14650787589E+02  0.56552745569E+01  0.35288660472E+02  0.17770000000E+01 0. -1.
</event>
<event>
 8    1  0.1807540E-005  0.1856501E+03  0.7546771E-02  0.1065975E+00
        -11   -1    0    0    0    0  0.00000000000E+00  0.00000000000E+00  0.18250000000E+03  0.18250000000E+03  0.00000000000E+00 0.  1.
         11   -1    0    0    0    0 -0.00000000000E+00 -0.00000000000E+00 -0.18250000000E+03  0.18250000000E+03  0.00000000000E+00 0. -1.
         23    2    1    2    0    0 -0.31444332081E+00 -0.14124802471E+01 -0.15481139886E+03  0.17934988463E+03  0.90541249856E+02 0.  0.
         23    2    1    2    0    0  0.31444332081E+00  0.14124802471E+01  0.15481139886E+03  0.18565011537E+03  0.10245634262E+03 0.  0.
        -11    1    3    3    0    0  0.48065317916E+01 -0.43776679070E+02 -0.10436069366E+03  0.11327248015E+03  0.00000000000E+00 0.  1.
         11    1    3    3    0    0 -0.51209751124E+01  0.42364198822E+02 -0.50450705207E+02  0.66077404488E+02  0.00000000000E+00 0. -1.
        -15    1    4    4    0    0  0.67781970693E+01 -0.49753680635E+02  0.66203347400E+02  0.83110851447E+02  0.17770000000E+01 0.  1.
         15    1    4    4    0    0 -0.64637537485E+01  0.51166160882E+02  0.88608051462E+02  0.10253926392E+03  0.17770000000E+01 0. -1.
</event>
<event>
 8    1  0.1807540E-005  0.1827728E+03  0.7546771E-02  0.1068238E+00
        -11   -1    0    0    0    0  0.00000000000E+00  0.00000000000E+00  0.18250000000E+03  0.18250000000E+03  0.00000000000E+00 0. -1.
         11   -1    0    0    0    0 -0.00000000000E+00 -0.00000000000E+00 -0.18250000000E+03  0.18250000000E+03  0.00000000000E+00 0.  1.
         23    2    1    2    0    0  0.75988432212E+02 -0.71966463697E+02 -0.11821533005E+03  0.18277280533E+03  0.92073994059E+02 0.  0.
         23    2    1    2    0    0 -0.75988432212E+02  0.71966463697E+02  0.11821533005E+03  0.18222719467E+03  0.90986111527E+02 0.  0.
        -11    1    3    3    0    0  0.33473730219E+02 -0.65097511529E+02 -0.11898687877E+03  0.13969987094E+03  0.00000000000E+00 0.  1.
         11    1    3    3    0    0  0.42514701993E+02 -0.68689521677E+01  0.77154871636E+00  0.43072934389E+02  0.00000000000E+00 0. -1.
        -15    1    4    4    0    0 -0.12664096852E+01 -0.12927693796E+02 -0.58365002366E+01  0.14351011267E+02  0.17770000000E+01 0. -1.
         15    1    4    4    0    0 -0.74722022527E+02  0.84894157493E+02  0.12405183029E+03  0.16787618340E+03  0.17770000000E+01 0.  1.
</event>
<event>
 8    1  0.1807540E-005  0.1830660E+03  0.7546771E-02  0.1068005E+00
        -11   -1    0    0    0    0  0.00000000000E+00  0.00000000000E+00  0.18250000000E+03  0.18250000000E+03  0.00000000000E+00 0. -1.
         11   -1    0    0    0    0 -0.00000000000E+00 -0.00000000000E+00 -0.18250000000E+03  0.18250000000E+03  0.00000000000E+00 0.  1.
         23    2    1    2    0    0  0.38898648953E+02  0.14917552709E+03 -0.26670890340E+02  0.18306599400E+03  0.95054610598E+02 0.  0.
         23    2    1    2    0    0 -0.38898648953E+02 -0.14917552709E+03  0.26670890340E+02  0.18193400600E+03  0.92855820368E+02 0.  0.
        -11    1    3    3    0    0  0.41788825234E+02  0.12369437627E+02 -0.13363129865E+02  0.45583792531E+02  0.00000000000E+00 0. -1.
         11    1    3    3    0    0 -0.28901762819E+01  0.13680608946E+03 -0.13307760475E+02  0.13748220147E+03  0.00000000000E+00 0.  1.
        -15    1    4    4    0    0 -0.31861680955E+02 -0.11913161370E+03  0.59422987545E+02  0.13690053788E+03  0.17770000000E+01 0. -1.
         15    1    4    4    0    0 -0.70369679974E+01 -0.30043913390E+02 -0.32752097204E+02  0.45033468117E+02  0.17770000000E+01 0.  1.
</event>
<event>
 8    1  0.1807540E-005  0.1828122E+03  0.7546771E-02  0.1068207E+00
        -11   -1    0    0    0    0  0.00000000000E+00  0.00000000000E+00  0.18250000000E+03  0.18250000000E+03  0.00000000000E+00 0.  1.
         11   -1    0    0    0    0 -0.00000000000E+00 -0.00000000000E+00 -0.18250000000E+03  0.18250000000E+03  0.00000000000E+00 0. -1.
         23    2    1    2    0    0  0.29593424223E+00 -0.50081237222E+02 -0.15021240944E+03  0.18281222607E+03  0.91369164118E+02 0.  0.
         23    2    1    2    0    0 -0.29593424223E+00  0.50081237222E+02  0.15021240944E+03  0.18218777393E+03  0.90113257194E+02 0.  0.
        -11    1    3    3    0    0  0.73669546667E+00  0.60939908667E+01  0.10722007001E+02  0.12354791744E+02  0.00000000000E+00 0.  1.
         11    1    3    3    0    0 -0.44076122444E+00 -0.56175228089E+02 -0.16093441644E+03  0.17045743432E+03  0.00000000000E+00 0. -1.
        -15    1    4    4    0    0 -0.12487736117E+02  0.48134583696E+02  0.15921189989E+03  0.16680668001E+03  0.17770000000E+01 0.  1.
         15    1    4    4    0    0  0.12191801874E+02  0.19466535263E+01 -0.89994904495E+01  0.15381093922E+02  0.17770000000E+01 0. -1.
</event>
<event>
 8    1  0.1807540E-005  0.1825314E+03  0.7546771E-02  0.1068430E+00
        -11   -1    0    0    0    0  0.00000000000E+00  0.00000000000E+00  0.18250000000E+03  0.18250000000E+03  0.00000000000E+00 0. -1.
         11   -1    0    0    0    0 -0.00000000000E+00 -0.00000000000E+00 -0.18250000000E+03  0.18250000000E+03  0.00000000000E+00 0.  1.
         23    2    1    2    0    0 -0.30758706509E+02 -0.44306206553E+02 -0.14788934307E+03  0.18246858065E+03  0.92273436930E+02 0.  0.
         23    2    1    2    0    0  0.30758706509E+02  0.44306206553E+02  0.14788934307E+03  0.18253141935E+03  0.92397636830E+02 0.  0.
        -11    1    3    3    0    0  0.30354645035E+02 -0.69450835754E+01 -0.23812441009E+02  0.39200395507E+02  0.00000000000E+00 0. -1.
         11    1    3    3    0    0 -0.61113351544E+02 -0.37361122977E+02 -0.12407690206E+03  0.14326818514E+03  0.00000000000E+00 0.  1.
        -15    1    4    4    0    0 -0.14341282341E+02  0.50614785866E+02  0.11454937708E+03  0.12606445354E+03  0.17770000000E+01 0. -1.
         15    1    4    4    0    0  0.45099988849E+02 -0.63085793135E+01  0.33339965996E+02  0.56466965819E+02  0.17770000000E+01 0.  1.
</event>
<event>
 8    1  0.1807540E-005  0.1844937E+03  0.7546771E-02  0.1066879E+00
        -11   -1    0    0    0    0  0.00000000000E+00  0.00000000000E+00  0.18250000000E+03  0.18250000000E+03  0.00000000000E+00 0.  1.
         11   -1    0    0    0    0 -0.00000000000E+00 -0.00000000000E+00 -0.18250000000E+03  0.18250000000E+03  0.00000000000E+00 0. -1.
         23    2    1    2    0    0  0.10443597199E+03  0.97284883722E+02 -0.62604216721E+02  0.18449374837E+03  0.98729095955E+02 0.  0.
         23    2    1    2    0    0 -0.10443597199E+03 -0.97284883722E+02  0.62604216721E+02  0.18050625163E+03  0.91060408961E+02 0.  0.
        -11    1    3    3    0    0  0.51505538148E+02  0.53315234850E+02  0.20196610101E+02  0.76832530784E+02  0.00000000000E+00 0.  1.
         11    1    3    3    0    0  0.52930433846E+02  0.43969648872E+02 -0.82800826823E+02  0.10766121758E+03  0.00000000000E+00 0. -1.
        -15    1    4    4    0    0 -0.60512038504E+02 -0.10047441323E+03  0.68810843614E+02  0.13599597217E+03  0.17770000000E+01 0. -1.
         15    1    4    4    0    0 -0.43923933491E+02  0.31895295079E+01 -0.62066268925E+01  0.44510279466E+02  0.17770000000E+01 0.  1.
</event>
<event>
 8    1  0.1807540E-005  0.1826516E+03  0.7546771E-02  0.1068334E+00
        -11   -1    0    0    0    0  0.00000000000E+00  0.00000000000E+00  0.18250000000E+03  0.18250000000E+03  0.00000000000E+00 0.  1.
         11   -1    0    0    0    0 -0.00000000000E+00 -0.00000000000E+00 -0.18250000000E+03  0.18250000000E+03  0.00000000000E+00 0. -1.
         23    2    1    2    0    0  0.95526375221E+02 -0.53731236774E+02  0.11331253295E+03  0.18265159115E+03  0.92247165054E+02 0.  0.
         23    2    1    2    0    0 -0.95526375221E+02  0.53731236774E+02 -0.11331253295E+03  0.18234840885E+03  0.91645392235E+02 0.  0.
        -11    1    3    3    0    0 -0.16605389630E+02 -0.11892411706E+02  0.45359919946E+01  0.20922324066E+02  0.00000000000E+00 0. -1.
         11    1    3    3    0    0  0.11213176485E+03 -0.41838825068E+02  0.10877654095E+03  0.16172926709E+03  0.00000000000E+00 0.  1.
        -15    1    4    4    0    0  0.14686999973E+02 -0.45637740544E+01 -0.28052441578E+01  0.15734138859E+02  0.17770000000E+01 0.  1.
         15    1    4    4    0    0 -0.11021337519E+03  0.58295010829E+02 -0.11050728879E+03  0.16661426999E+03  0.17770000000E+01 0. -1.
</event>
<event>
 8    1  0.1807540E-005  0.1825295E+03  0.7546771E-02  0.1068431E+00
        -11   -1    0    0    0    0  0.00000000000E+00  0.00000000000E+00  0.18250000000E+03  0.18250000000E+03  0.00000000000E+00 0. -1.
         11   -1    0    0    0    0 -0.00000000000E+00 -0.00000000000E+00 -0.18250000000E+03  0.18250000000E+03  0.00000000000E+00 0.  1.
         23    2    1    2    0    0  0.13482147522E+02 -0.59772751566E+02 -0.14576310558E+03  0.18247045874E+03  0.91071594004E+02 0.  0.
         23    2    1    2    0    0 -0.13482147522E+02  0.59772751566E+02  0.14576310558E+03  0.18252954126E+03  0.91189913658E+02 0.  0.
        -11    1    3    3    0    0 -0.20426521311E+02 -0.48270407847E+02 -0.13540533042E+03  0.14519600047E+03  0.00000000000E+00 0.  1.
         11    1    3    3    0    0  0.33908668834E+02 -0.11502343719E+02 -0.10357775155E+02  0.37274458269E+02  0.00000000000E+00 0. -1.
        -15    1    4    4    0    0 -0.47433259928E+02  0.86242098143E+01  0.69676848702E+02  0.84748522797E+02  0.17770000000E+01 0. -1.
         15    1    4    4    0    0  0.33951112406E+02  0.51148541752E+02  0.76086256875E+02  0.97781018461E+02  0.17770000000E+01 0.  1.
</event>
<event>
 8    1  0.1807540E-005  0.1838465E+03  0.7546771E-02  0.1067388E+00
        -11   -1    0    0    0    0  0.00000000000E+00  0.00000000000E+00  0.18250000000E+03  0.18250000000E+03  0.00000000000E+00 0.  1.
         11   -1    0    0    0    0 -0.00000000000E+00 -0.00000000000E+00 -0.18250000000E+03  0.18250000000E+03  0.00000000000E+00 0. -1.
         23    2    1    2    0    0 -0.42709583715E+02 -0.53387886564E+02  0.14264118449E+03  0.18384647427E+03  0.93694416135E+02 0.  0.
         23    2    1    2    0    0  0.42709583715E+02  0.53387886564E+02 -0.14264118449E+03  0.18115352573E+03  0.88293359880E+02 0.  0.
        -11    1    3    3    0    0 -0.67645380702E+02 -0.13600705898E+02  0.87010936137E+02  0.11104854676E+03  0.00000000000E+00 0. -1.
         11    1    3    3    0    0  0.24935796987E+02 -0.39787180667E+02  0.55630248355E+02  0.72797927503E+02  0.00000000000E+00 0.  1.
        -15    1    4    4    0    0  0.42352175215E+01  0.69610176507E+02 -0.85174210040E+02  0.11009685520E+03  0.17770000000E+01 0. -1.
         15    1    4    4    0    0  0.38474366193E+02 -0.16222289942E+02 -0.57466974452E+02  0.71056670529E+02  0.17770000000E+01 0.  1.
</event>
<event>
 8    1  0.1807540E-005  0.1826739E+03  0.7546771E-02  0.1068316E+00
        -11   -1    0    0    0    0  0.00000000000E+00  0.00000000000E+00  0.18250000000E+03  0.18250000000E+03  0.00000000000E+00 0.  1.
         11   -1    0    0    0    0 -0.00000000000E+00 -0.00000000000E+00 -0.18250000000E+03  0.18250000000E+03  0.00000000000E+00 0. -1.
         23    2    1    2    0    0 -0.14549670618E+02 -0.41061914784E+02 -0.15247471878E+03  0.18267393419E+03  0.90683254264E+02 0.  0.
         23    2    1    2    0    0  0.14549670618E+02  0.41061914784E+02  0.15247471878E+03  0.18232606581E+03  0.89980445905E+02 0.  0.
        -11    1    3    3    0    0 -0.34441869657E+02  0.11875977885E+02 -0.27979126156E+02  0.45935963435E+02  0.00000000000E+00 0.  1.
         11    1    3    3    0    0  0.19892199039E+02 -0.52937892669E+02 -0.12449559263E+03  0.13673797076E+03  0.00000000000E+00 0. -1.
        -15    1    4    4    0    0 -0.26815647160E+02  0.45132730703E+02  0.11460019629E+03  0.12606508253E+03  0.17770000000E+01 0.  1.
         15    1    4    4    0    0  0.41365317778E+02 -0.40708159193E+01  0.37874522490E+02  0.56260983284E+02  0.17770000000E+01 0. -1.
</event>
<event>
 8    1  0.1807540E-005  0.1827387E+03  0.7546771E-02  0.1068265E+00
        -11   -1    0    0    0    0  0.00000000000E+00  0.00000000000E+00  0.18250000000E+03  0.18250000000E+03  0.00000000000E+00 0.  1.
         11   -1    0    0    0    0 -0.00000000000E+00 -0.00000000000E+00 -0.18250000000E+03  0.18250000000E+03  0.00000000000E+00 0. -1.
         23    2    1    2    0    0 -0.74526756424E+02  0.71270112747E+02 -0.12158602948E+03  0.18226126279E+03  0.88330849394E+02 0.  0.
         23    2    1    2    0    0  0.74526756424E+02 -0.71270112747E+02  0.12158602948E+03  0.18273873721E+03  0.89311909177E+02 0.  0.
        -11    1    3    3    0    0 -0.79025662058E+02  0.54950320961E+02 -0.13125572428E+03  0.16276565422E+03  0.00000000000E+00 0. -1.
         11    1    3    3    0    0  0.44989056342E+01  0.16319791785E+02  0.96696948027E+01  0.19495608567E+02  0.00000000000E+00 0.  1.
        -15    1    4    4    0    0  0.74546810988E+02 -0.74541592792E+02  0.13358145436E+03  0.17017884346E+03  0.17770000000E+01 0.  1.
         15    1    4    4    0    0 -0.20054564172E-01  0.32714800451E+01 -0.11995424885E+02  0.12559893751E+02  0.17770000000E+01 0. -1.
</event>
<event>
 8    1  0.1807540E-005  0.1825736E+03  0.7546771E-02  0.1068396E+00
        -11   -1    0    0    0    0  0.00000000000E+00  0.00000000000E+00  0.18250000000E+03  0.18250000000E+03  0.00000000000E+00 0. -1.
         11   -1    0    0    0    0 -0.00000000000E+00 -0.00000000000E+00 -0.18250000000E+03  0.18250000000E+03  0.00000000000E+00 0.  1.
         23    2    1    2    0    0 -0.72045025991E+02 -0.70124816320E+01  0.14042770551E+03  0.18257363043E+03  0.91506990910E+02 0.  0.
         23    2    1    2    0    0  0.72045025991E+02  0.70124816320E+01 -0.14042770551E+03  0.18242636957E+03  0.91212823502E+02 0.  0.
        -11    1    3    3    0    0 -0.73252095138E+02 -0.22688514714E+02  0.14678908506E+03  0.16561302375E+03  0.00000000000E+00 0. -1.
         11    1    3    3    0    0  0.12070691465E+01  0.15676033082E+02 -0.63613795551E+01  0.16960606680E+02  0.00000000000E+00 0.  1.
        -15    1    4    4    0    0  0.49984029194E+02  0.47211564932E+02 -0.99370904882E+02  0.12085143567E+03  0.17770000000E+01 0.  1.
         15    1    4    4    0    0  0.22060996797E+02 -0.40199083300E+02 -0.41056800627E+02  0.61574933898E+02  0.17770000000E+01 0. -1.
</event>
<event>
 8    1  0.1807540E-005  0.1829264E+03  0.7546771E-02  0.1068116E+00
        -11   -1    0    0    0    0  0.00000000000E+00  0.00000000000E+00  0.18250000000E+03  0.18250000000E+03  0.00000000000E+00 0.  1.
         11   -1    0    0    0    0 -0.00000000000E+00 -0.00000000000E+00 -0.18250000000E+03  0.18250000000E+03  0.00000000000E+00 0. -1.
         23    2    1    2    0    0  0.13011782961E+03 -0.22899147745E+02 -0.88247274346E+02  0.18292643063E+03  0.90661331594E+02 0.  0.
         23    2    1    2    0    0 -0.13011782961E+03  0.22899147745E+02  0.88247274346E+02  0.18207356937E+03  0.88927963448E+02 0.  0.
        -11    1    3    3    0    0  0.46630579573E+02 -0.53418149926E+02 -0.45872351155E+02  0.84452248598E+02  0.00000000000E+00 0.  1.
         11    1    3    3    0    0  0.83487250034E+02  0.30519002181E+02 -0.42374923191E+02  0.98474182036E+02  0.00000000000E+00 0. -1.
        -15    1    4    4    0    0 -0.54749419517E+02  0.65925341050E+01 -0.11119836472E+02  0.56282936451E+02  0.17770000000E+01 0. -1.
         15    1    4    4    0    0 -0.75368410090E+02  0.16306613640E+02  0.99367110817E+02  0.12579063291E+03  0.17770000000E+01 0.  1.
</event>
<event>
 8    1  0.1807540E-005  0.1876157E+03  0.7546771E-02  0.1064454E+00
        -11   -1    0    0    0    0  0.00000000000E+00  0.00000000000E+00  0.18250000000E+03  0.18250000000E+03  0.00000000000E+00 0.  1.
         11   -1    0    0    0    0 -0.00000000000E+00 -0.00000000000E+00 -0.18250000000E+03  0.18250000000E+03  0.00000000000E+00 0. -1.
         23    2    1    2    0    0 -0.67451326204E+02 -0.12595957250E+03 -0.76878119527E+02  0.17738427360E+03  0.71689887350E+02 0.  0.
         23    2    1    2    0    0  0.67451326204E+02  0.12595957250E+03  0.76878119527E+02  0.18761572640E+03  0.94201487350E+02 0.  0.
        -11    1    3    3    0    0 -0.62766720043E+02 -0.61429765125E+02 -0.70021681317E+02  0.11232236217E+03  0.00000000000E+00 0. -1.
         11    1    3    3    0    0 -0.46846061610E+01 -0.64529807374E+02 -0.68564382103E+01  0.65061911434E+02  0.00000000000E+00 0.  1.
        -15    1    4    4    0    0  0.91102157256E+02  0.90827620140E+02  0.55077618068E+02  0.13994985308E+03  0.17770000000E+01 0.  1.
         15    1    4    4    0    0 -0.23650831051E+02  0.35131952360E+02  0.21800501459E+02  0.47665873315E+02  0.17770000000E+01 0. -1.
</event>
<event>
 8    1  0.1807540E-005  0.1833833E+03  0.7546771E-02  0.1067754E+00
        -11   -1    0    0    0    0  0.00000000000E+00  0.00000000000E+00  0.18250000000E+03  0.18250000000E+03  0.00000000000E+00 0.  1.
         11   -1    0    0    0    0 -0.00000000000E+00 -0.00000000000E+00 -0.18250000000E+03  0.18250000000E+03  0.00000000000E+00 0. -1.
         23    2    1    2    0    0 -0.45537608886E+02  0.14144542067E+03 -0.51784786391E+02  0.18161671896E+03  0.90677933666E+02 0.  0.
         23    2    1    2    0    0  0.45537608886E+02 -0.14144542067E+03  0.51784786391E+02  0.18338328104E+03  0.94166250915E+02 0.  0.
        -11    1    3    3    0    0  0.17450407517E+02  0.61903304776E+02  0.64369085879E+01  0.64637215727E+02  0.00000000000E+00 0. -1.
         11    1    3    3    0    0 -0.62988016403E+02  0.79542115892E+02 -0.58221694979E+02  0.11697950324E+03  0.00000000000E+00 0.  1.
        -15    1    4    4    0    0 -0.25550764644E+02 -0.14366143144E+02  0.15942769775E+02  0.33414926004E+02  0.17770000000E+01 0.  1.
         15    1    4    4    0    0  0.71088373530E+02 -0.12707927752E+03  0.35842016616E+02  0.14996835503E+03  0.17770000000E+01 0. -1.
</event>
<event>
 8    1  0.1807540E-005  0.1837546E+03  0.7546771E-02  0.1067461E+00
        -11   -1    0    0    0    0  0.00000000000E+00  0.00000000000E+00  0.18250000000E+03  0.18250000000E+03  0.00000000000E+00 0.  1.
         11   -1    0    0    0    0 -0.00000000000E+00 -0.00000000000E+00 -0.18250000000E+03  0.18250000000E+03  0.00000000000E+00 0. -1.
         23    2    1    2    0    0  0.82608742916E+02 -0.12412718331E+03 -0.53600133901E+02  0.18124540958E+03  0.88006602582E+02 0.  0.
         23    2    1    2    0    0 -0.82608742916E+02  0.12412718331E+03  0.53600133901E+02  0.18375459042E+03  0.93064564163E+02 0.  0.
        -11    1    3    3    0    0  0.36543769626E+02 -0.11397250132E+03 -0.15656200727E+02  0.12070747606E+03  0.00000000000E+00 0. -1.
         11    1    3    3    0    0  0.46064973289E+02 -0.10154681990E+02 -0.37943933174E+02  0.60537933522E+02  0.00000000000E+00 0.  1.
        -15    1    4    4    0    0  0.17042348294E+02  0.97867760928E+01  0.20597713171E+02  0.28524483142E+02  0.17770000000E+01 0. -1.
         15    1    4    4    0    0 -0.99651091210E+02  0.11434040722E+03  0.33002420731E+02  0.15523010728E+03  0.17770000000E+01 0.  1.
</event>
<event>
 8    1  0.1807540E-005  0.1836770E+03  0.7546771E-02  0.1067522E+00
        -11   -1    0    0    0    0  0.00000000000E+00  0.00000000000E+00  0.18250000000E+03  0.18250000000E+03  0.00000000000E+00 0.  1.
         11   -1    0    0    0    0 -0.00000000000E+00 -0.00000000000E+00 -0.18250000000E+03  0.18250000000E+03  0.00000000000E+00 0. -1.
         23    2    1    2    0    0  0.61273156051E+02  0.37571621679E+01 -0.14484016276E+03  0.18367703275E+03  0.94815946400E+02 0.  0.
         23    2    1    2    0    0 -0.61273156051E+02 -0.37571621679E+01  0.14484016276E+03  0.18132296725E+03  0.90171113915E+02 0.  0.
        -11    1    3    3    0    0  0.79118188825E+02  0.18018098687E+02 -0.13754604264E+03  0.15969738110E+03  0.00000000000E+00 0. -1.
         11    1    3    3    0    0 -0.17845032774E+02 -0.14260936519E+02 -0.72941201191E+01  0.23979651653E+02  0.00000000000E+00 0.  1.
        -15    1    4    4    0    0 -0.22856011712E+02 -0.23851668489E+02  0.13198393787E+03  0.13606695759E+03  0.17770000000E+01 0.  1.
         15    1    4    4    0    0 -0.38417144340E+02  0.20094506321E+02  0.12856224885E+02  0.45256009665E+02  0.17770000000E+01 0. -1.
</event>
<event>
 8    1  0.1807540E-005  0.1829646E+03  0.7546771E-02  0.1068086E+00
        -11   -1    0    0    0    0  0.00000000000E+00  0.00000000000E+00  0.18250000000E+03  0.18250000000E+03  0.00000000000E+00 0.  1.
         11   -1    0    0    0    0 -0.00000000000E+00 -0.00000000000E+00 -0.18250000000E+03  0.18250000000E+03  0.00000000000E+00 0. -1.
         23    2    1    2    0    0 -0.14950217439E+03  0.50738934714E+02  0.28787225549E+01  0.18296460553E+03  0.92425214041E+02 0.  0.
         23    2    1    2    0    0  0.14950217439E+03 -0.50738934714E+02 -0.28787225549E+01  0.18203539447E+03  0.90571839733E+02 0.  0.
        -11    1    3    3    0    0 -0.15630478945E+03  0.32995694895E+02  0.14957246770E+02  0.16044819200E+03  0.00000000000E+00 0.  1.
         11    1    3    3    0    0  0.68026150593E+01  0.17743239819E+02 -0.12078524215E+02  0.22516413528E+02  0.00000000000E+00 0. -1.
        -15    1    4    4    0    0  0.14429978105E+03 -0.24172658846E+02  0.18511932431E+02  0.14748760496E+03  0.17770000000E+01 0. -1.
         15    1    4    4    0    0  0.52023933399E+01 -0.26566275867E+02 -0.21390654986E+02  0.34547789505E+02  0.17770000000E+01 0.  1.
</event>
<event>
 8    1  0.1807540E-005  0.1828510E+03  0.7546771E-02  0.1068176E+00
        -11   -1    0    0    0    0  0.00000000000E+00  0.00000000000E+00  0.18250000000E+03  0.18250000000E+03  0.00000000000E+00 0.  1.
         11   -1    0    0    0    0 -0.00000000000E+00 -0.00000000000E+00 -0.18250000000E+03  0.18250000000E+03  0.00000000000E+00 0. -1.
         23    2    1    2    0    0  0.68643464632E+02 -0.11994790391E+03  0.76433457150E+02  0.18285104392E+03  0.92157506483E+02 0.  0.
         23    2    1    2    0    0 -0.68643464632E+02  0.11994790391E+03 -0.76433457150E+02  0.18214895608E+03  0.90756509091E+02 0.  0.
        -11    1    3    3    0    0  0.25236232902E+02 -0.90113345593E+02  0.88516118604E+02  0.12881143489E+03  0.00000000000E+00 0.  1.
         11    1    3    3    0    0  0.43407231730E+02 -0.29834558313E+02 -0.12082661454E+02  0.54039609029E+02  0.00000000000E+00 0. -1.
        -15    1    4    4    0    0 -0.86449484748E+02  0.78162225498E+02 -0.70719708097E+02  0.13633518163E+03  0.17770000000E+01 0. -1.
         15    1    4    4    0    0  0.17806020116E+02  0.41785678408E+02 -0.57137490534E+01  0.45813774453E+02  0.17770000000E+01 0.  1.
</event>
<event>
 8    1  0.1807540E-005  0.1833898E+03  0.7546771E-02  0.1067749E+00
        -11   -1    0    0    0    0  0.00000000000E+00  0.00000000000E+00  0.18250000000E+03  0.18250000000E+03  0.00000000000E+00 0.  1.
         11   -1    0    0    0    0 -0.00000000000E+00 -0.00000000000E+00 -0.18250000000E+03  0.18250000000E+03  0.00000000000E+00 0. -1.
         23    2    1    2    0    0 -0.10991935367E+03  0.11039296448E+03 -0.27194204629E+01  0.18338980250E+03  0.96724110200E+02 0.  0.
         23    2    1    2    0    0  0.10991935367E+03 -0.11039296448E+03  0.27194204629E+01  0.18161019750E+03  0.93305935873E+02 0.  0.
        -11    1    3    3    0    0 -0.11529306626E+03  0.59136529549E+02  0.11049005583E+02  0.13004499521E+03  0.00000000000E+00 0. -1.
         11    1    3    3    0    0  0.53737125859E+01  0.51256434935E+02 -0.13768426046E+02  0.53344807292E+02  0.00000000000E+00 0.  1.
        -15    1    4    4    0    0  0.22141318614E+02 -0.87452698542E+02 -0.61215389443E+01  0.90436958376E+02  0.17770000000E+01 0.  1.
         15    1    4    4    0    0  0.87778035058E+02 -0.22940265942E+02  0.88409594071E+01  0.91173239124E+02  0.17770000000E+01 0. -1.
</event>
<event>
 8    1  0.1807540E-005  0.1831762E+03  0.7546771E-02  0.1067918E+00
        -11   -1    0    0    0    0  0.00000000000E+00  0.00000000000E+00  0.18250000000E+03  0.18250000000E+03  0.00000000000E+00 0.  1.
         11   -1    0    0    0    0 -0.00000000000E+00 -0.00000000000E+00 -0.18250000000E+03  0.18250000000E+03  0.00000000000E+00 0. -1.
         23    2    1    2    0    0  0.10604265590E+03 -0.57316970703E+02 -0.10137925047E+03  0.18317622998E+03  0.93517371659E+02 0.  0.
         23    2    1    2    0    0 -0.10604265590E+03  0.57316970703E+02  0.10137925047E+03  0.18182377002E+03  0.90839699024E+02 0.  0.
        -11    1    3    3    0    0 -0.82758552768E+01  0.14984865780E+02 -0.86529059010E+01  0.19180947931E+02  0.00000000000E+00 0.  1.
         11    1    3    3    0    0  0.11431851117E+03 -0.72301836483E+02 -0.92726344571E+02  0.16399528205E+03  0.00000000000E+00 0. -1.
        -15    1    4    4    0    0 -0.19393000391E+02  0.61055804496E+02  0.46399152300E+02  0.79119774962E+02  0.17770000000E+01 0. -1.
         15    1    4    4    0    0 -0.86649655506E+02 -0.37388337935E+01  0.54980098173E+02  0.10270399506E+03  0.17770000000E+01 0.  1.
</event>
<event>
 8    1  0.1807540E-005  0.1825480E+03  0.7546771E-02  0.1068417E+00
        -11   -1    0    0    0    0  0.00000000000E+00  0.00000000000E+00  0.18250000000E+03  0.18250000000E+03  0.00000000000E+00 0.  1.
         11   -1    0    0    0    0 -0.00000000000E+00 -0.00000000000E+00 -0.18250000000E+03  0.18250000000E+03  0.00000000000E+00 0.  1.
         23    2    1    2    0    0  0.66808338222E+01 -0.29474953349E+02  0.15580421986E+03  0.18254797852E+03  0.90196469557E+02 0.  0.
         23    2    1    2    0    0 -0.66808338222E+01  0.29474953349E+02 -0.15580421986E+03  0.18245202148E+03  0.90002104428E+02 0.  0.
        -11    1    3    3    0    0  0.32909453983E+02  0.18100057839E+02  0.41387170850E+02  0.55888658655E+02  0.00000000000E+00 0.  1.
         11    1    3    3    0    0 -0.26228620161E+02 -0.47575011188E+02  0.11441704901E+03  0.12665931986E+03  0.00000000000E+00 0.  1.
        -15    1    4    4    0    0 -0.41433230620E+02 -0.96417856127E+01 -0.71125944801E+02  0.82895925004E+02  0.17770000000E+01 0.  1.
         15    1    4    4    0    0  0.34752396798E+02  0.39116738962E+02 -0.84678275056E+02  0.99556096477E+02  0.17770000000E+01 0. -1.
</event>
<event>
 8    1  0.1807540E-005  0.1847297E+03  0.7546771E-02  0.1066694E+00
        -11   -1    0    0    0    0  0.00000000000E+00  0.00000000000E+00  0.18250000000E+03  0.18250000000E+03  0.00000000000E+00 0.  1.
         11   -1    0    0    0    0 -0.00000000000E+00 -0.00000000000E+00 -0.18250000000E+03  0.18250000000E+03  0.00000000000E+00 0. -1.
         23    2    1    2    0    0  0.64181250119E+02  0.12200255116E+02 -0.14206729576E+03  0.18027025759E+03  0.89700446793E+02 0.  0.
         23    2    1    2    0    0 -0.64181250119E+02 -0.12200255116E+02  0.14206729576E+03  0.18472974241E+03  0.98355895157E+02 0.  0.
        -11    1    3    3    0    0 -0.21978426053E+02  0.27477275685E+01 -0.44869562785E+02  0.50038773797E+02  0.00000000000E+00 0.  1.
         11    1    3    3    0    0  0.86159676173E+02  0.94525275477E+01 -0.97197732980E+02  0.13023148380E+03  0.00000000000E+00 0. -1.
        -15    1    4    4    0    0 -0.55653322886E+02 -0.41454613943E+02  0.13727915002E+03  0.15383270174E+03  0.17770000000E+01 0.  1.
         15    1    4    4    0    0 -0.85279272334E+01  0.29254358827E+02  0.47881457436E+01  0.30897040666E+02  0.17770000000E+01 0. -1.
</event>
<event>
 8    1  0.1807540E-005  0.1825223E+03  0.7546771E-02  0.1068437E+00
        -11   -1    0    0    0    0  0.00000000000E+00  0.00000000000E+00  0.18250000000E+03  0.18250000000E+03  0.00000000000E+00 0. -1.
         11   -1    0    0    0    0 -0.00000000000E+00 -0.00000000000E+00 -0.18250000000E+03  0.18250000000E+03  0.00000000000E+00 0.  1.
         23    2    1    2    0    0 -0.26070254778E+02  0.81269207470E+01 -0.15660492762E+03  0.18252230501E+03  0.89686027037E+02 0.  0.
         23    2    1    2    0    0  0.26070254778E+02 -0.81269207470E+01  0.15660492762E+03  0.18247769499E+03  0.89595205174E+02 0.  0.
        -11    1    3    3    0    0 -0.72570263267E+01  0.44341620057E+02 -0.44576552990E+02  0.63292280547E+02  0.00000000000E+00 0. -1.
         11    1    3    3    0    0 -0.18813228451E+02 -0.36214699310E+02 -0.11202837463E+03  0.11923002446E+03  0.00000000000E+00 0.  1.
        -15    1    4    4    0    0  0.16561700292E+02 -0.45653768607E+02  0.53229504343E+02  0.72077003032E+02  0.17770000000E+01 0.  1.
         15    1    4    4    0    0  0.95085544856E+01  0.37526847859E+02  0.10337542328E+03  0.11040069196E+03  0.17770000000E+01 0. -1.
</event>
<event>
 8    1  0.1807540E-005  0.1834960E+03  0.7546771E-02  0.1067665E+00
        -11   -1    0    0    0    0  0.00000000000E+00  0.00000000000E+00  0.18250000000E+03  0.18250000000E+03  0.00000000000E+00 0.  1.
         11   -1    0    0    0    0 -0.00000000000E+00 -0.00000000000E+00 -0.18250000000E+03  0.18250000000E+03  0.00000000000E+00 0. -1.
         23    2    1    2    0    0  0.21406864217E+02 -0.22720377986E+01 -0.15685325737E+03  0.18349603348E+03  0.92760088199E+02 0.  0.
         23    2    1    2    0    0 -0.21406864217E+02  0.22720377986E+01  0.15685325737E+03  0.18150396652E+03  0.88754321151E+02 0.  0.
        -11    1    3    3    0    0 -0.36820821819E+02  0.14950396524E+01 -0.58690559778E+02  0.69300720560E+02  0.00000000000E+00 0.  1.
         11    1    3    3    0    0  0.58227686036E+02 -0.37670774510E+01 -0.98162697595E+02  0.11419531292E+03  0.00000000000E+00 0. -1.
        -15    1    4    4    0    0  0.71243147067E+01 -0.85299187772E+01 -0.80216020402E+01  0.13820969672E+02  0.17770000000E+01 0. -1.
         15    1    4    4    0    0 -0.28531178924E+02  0.10801956576E+02  0.16487485941E+03  0.16768299685E+03  0.17770000000E+01 0.  1.
</event>
<event>
 8    1  0.1807540E-005  0.1840034E+03  0.7546771E-02  0.1067264E+00
        -11   -1    0    0    0    0  0.00000000000E+00  0.00000000000E+00  0.18250000000E+03  0.18250000000E+03  0.00000000000E+00 0.  1.
         11   -1    0    0    0    0 -0.00000000000E+00 -0.00000000000E+00 -0.18250000000E+03  0.18250000000E+03  0.00000000000E+00 0. -1.
         23    2    1    2    0    0  0.53053137263E+02 -0.83181182428E+01 -0.15027785731E+03  0.18099659839E+03  0.85396181220E+02 0.  0.
         23    2    1    2    0    0 -0.53053137263E+02  0.83181182428E+01  0.15027785731E+03  0.18400340161E+03  0.91596893725E+02 0.  0.
        -11    1    3    3    0    0  0.53444434959E+02  0.53566113112E+01 -0.15687007026E+03  0.16581079536E+03  0.00000000000E+00 0. -1.
         11    1    3    3    0    0 -0.39129769667E+00 -0.13674729554E+02  0.65922129503E+01  0.15185803036E+02  0.00000000000E+00 0.  1.
        -15    1    4    4    0    0 -0.11073276981E+02  0.43936721480E+02  0.98359546354E+02  0.10830886873E+03  0.17770000000E+01 0. -1.
         15    1    4    4    0    0 -0.41979860282E+02 -0.35618603237E+02  0.51918310958E+02  0.75694532878E+02  0.17770000000E+01 0.  1.
</event>
<event>
 8    1  0.1807540E-005  0.1826510E+03  0.7546771E-02  0.1068335E+00
        -11   -1    0    0    0    0  0.00000000000E+00  0.00000000000E+00  0.18250000000E+03  0.18250000000E+03  0.00000000000E+00 0. -1.
         11   -1    0    0    0    0 -0.00000000000E+00 -0.00000000000E+00 -0.18250000000E+03  0.18250000000E+03  0.00000000000E+00 0.  1.
         23    2    1    2    0    0 -0.30068459121E+02 -0.53124489864E+02 -0.14517512714E+03  0.18234897978E+03  0.91918492319E+02 0.  0.
         23    2    1    2    0    0  0.30068459121E+02  0.53124489864E+02  0.14517512714E+03  0.18265102022E+03  0.92516236366E+02 0.  0.
        -11    1    3    3    0    0 -0.50719797349E+02 -0.55155984731E+02 -0.14305336582E+03  0.16148977047E+03  0.00000000000E+00 0.  1.
         11    1    3    3    0    0  0.20651338228E+02  0.20314948668E+01 -0.21217613213E+01  0.20859209311E+02  0.00000000000E+00 0. -1.
        -15    1    4    4    0    0  0.41993724134E+02  0.35463169048E+02  0.24687627115E+02  0.60280559778E+02  0.17770000000E+01 0.  1.
         15    1    4    4    0    0 -0.11925265012E+02  0.17661320816E+02  0.12048750002E+03  0.12237046044E+03  0.17770000000E+01 0. -1.
</event>
<event>
 8    1  0.1807540E-005  0.1835418E+03  0.7546771E-02  0.1067629E+00
        -11   -1    0    0    0    0  0.00000000000E+00  0.00000000000E+00  0.18250000000E+03  0.18250000000E+03  0.00000000000E+00 0.  1.
         11   -1    0    0    0    0 -0.00000000000E+00 -0.00000000000E+00 -0.18250000000E+03  0.18250000000E+03  0.00000000000E+00 0. -1.
         23    2    1    2    0    0 -0.28695916679E+02 -0.28117015393E+02  0.15196512856E+03  0.18145819279E+03  0.90662303321E+02 0.  0.
         23    2    1    2    0    0  0.28695916679E+02  0.28117015393E+02 -0.15196512856E+03  0.18354180721E+03  0.94763772134E+02 0.  0.
        -11    1    3    3    0    0 -0.18769926207E+02 -0.50128918760E+02  0.14748695422E+03  0.15690003280E+03  0.00000000000E+00 0.  1.
         11    1    3    3    0    0 -0.99259904714E+01  0.22011903368E+02  0.44781743347E+01  0.24558159990E+02  0.00000000000E+00 0. -1.
        -15    1    4    4    0    0  0.10949140289E+02 -0.91984011533E+01  0.92384233436E+01  0.17117255963E+02  0.17770000000E+01 0.  1.
         15    1    4    4    0    0  0.17746776390E+02  0.37315416546E+02 -0.16120355190E+03  0.16642455125E+03  0.17770000000E+01 0. -1.
</event>
<event>
 8    1  0.1807540E-005  0.1835879E+03  0.7546771E-02  0.1067592E+00
        -11   -1    0    0    0    0  0.00000000000E+00  0.00000000000E+00  0.18250000000E+03  0.18250000000E+03  0.00000000000E+00 0.  1.
         11   -1    0    0    0    0 -0.00000000000E+00 -0.00000000000E+00 -0.18250000000E+03  0.18250000000E+03  0.00000000000E+00 0. -1.
         23    2    1    2    0    0 -0.93591468220E+02 -0.86198893525E+02 -0.92725050820E+02  0.18141213020E+03  0.90126654022E+02 0.  0.
         23    2    1    2    0    0  0.93591468220E+02  0.86198893525E+02  0.92725050820E+02  0.18358786980E+03  0.94429649582E+02 0.  0.
        -11    1    3    3    0    0  0.12783343835E+02 -0.24527542187E+02 -0.37560059029E+02  0.46645173808E+02  0.00000000000E+00 0.  1.
         11    1    3    3    0    0 -0.10637481205E+03 -0.61671351338E+02 -0.55164991791E+02  0.13476695639E+03  0.00000000000E+00 0. -1.
        -15    1    4    4    0    0  0.19417329209E+02  0.68818177335E+02  0.11912061926E+02  0.72512268987E+02  0.17770000000E+01 0. -1.
         15    1    4    4    0    0  0.74174139011E+02  0.17380716190E+02  0.80812988893E+02  0.11107560081E+03  0.17770000000E+01 0.  1.
</event>
<event>
 8    1  0.1807540E-005  0.1830086E+03  0.7546771E-02  0.1068051E+00
        -11   -1    0    0    0    0  0.00000000000E+00  0.00000000000E+00  0.18250000000E+03  0.18250000000E+03  0.00000000000E+00 0.  1.
         11   -1    0    0    0    0 -0.00000000000E+00 -0.00000000000E+00 -0.18250000000E+03  0.18250000000E+03  0.00000000000E+00 0. -1.
         23    2    1    2    0    0  0.14800789589E+03 -0.25245442640E+02  0.51298452374E+02  0.18199137860E+03  0.89138437545E+02 0.  0.
         23    2    1    2    0    0 -0.14800789589E+03  0.25245442640E+02 -0.51298452374E+02  0.18300862140E+03  0.91197339179E+02 0.  0.
        -11    1    3    3    0    0  0.79617720399E+02  0.22788246594E+02  0.53140300826E+02  0.98398054637E+02  0.00000000000E+00 0. -1.
         11    1    3    3    0    0  0.68390175488E+02 -0.48033689234E+02 -0.18418484526E+01  0.83593323958E+02  0.00000000000E+00 0.  1.
        -15    1    4    4    0    0 -0.95651776040E+02 -0.97307251419E+01  0.80060661683E+01  0.96494580656E+02  0.17770000000E+01 0.  1.
         15    1    4    4    0    0 -0.52356119847E+02  0.34976167782E+02 -0.59304518542E+02  0.86514040749E+02  0.17770000000E+01 0. -1.
</event>
<event>
 8    1  0.1807540E-005  0.1837718E+03  0.7546771E-02  0.1067447E+00
        -11   -1    0    0    0    0  0.00000000000E+00  0.00000000000E+00  0.18250000000E+03  0.18250000000E+03  0.00000000000E+00 0. -1.
         11   -1    0    0    0    0 -0.00000000000E+00 -0.00000000000E+00 -0.18250000000E+03  0.18250000000E+03  0.00000000000E+00 0.  1.
         23    2    1    2    0    0  0.15252448807E+03 -0.43874110737E+02  0.16946723690E+02  0.18377181501E+03  0.91083651094E+02 0.  0.
         23    2    1    2    0    0 -0.15252448807E+03  0.43874110737E+02 -0.16946723690E+02  0.18122818499E+03  0.85835928003E+02 0.  0.
        -11    1    3    3    0    0  0.14770114240E+03 -0.29261282195E+02 -0.11937471293E+02  0.15104420983E+03  0.00000000000E+00 0. -1.
         11    1    3    3    0    0  0.48233456683E+01 -0.14612828542E+02  0.28884194983E+02  0.32727605186E+02  0.00000000000E+00 0.  1.
        -15    1    4    4    0    0 -0.14795284783E+03  0.52958533917E+02 -0.34468671714E+02  0.16089095237E+03  0.17770000000E+01 0.  1.
         15    1    4    4    0    0 -0.45716402387E+01 -0.90844231803E+01  0.17521948024E+02  0.20337232617E+02  0.17770000000E+01 0. -1.
</event>
<event>
 8    1  0.1807540E-005  0.1836619E+03  0.7546771E-02  0.1067534E+00
        -11   -1    0    0    0    0  0.00000000000E+00  0.00000000000E+00  0.18250000000E+03  0.18250000000E+03  0.00000000000E+00 0. -1.
         11   -1    0    0    0    0 -0.00000000000E+00 -0.00000000000E+00 -0.18250000000E+03  0.18250000000E+03  0.00000000000E+00 0.  1.
         23    2    1    2    0    0  0.88963473740E+02  0.32906607314E+02 -0.12784793688E+03  0.18133808178E+03  0.86839279569E+02 0.  0.
         23    2    1    2    0    0 -0.88963473740E+02 -0.32906607314E+02  0.12784793688E+03  0.18366191822E+03  0.91592907890E+02 0.  0.
        -11    1    3    3    0    0 -0.11750452570E+02 -0.11398461060E+02 -0.29617805462E+02  0.33840987729E+02  0.00000000000E+00 0. -1.
         11    1    3    3    0    0  0.10071392631E+03  0.44305068374E+02 -0.98230131414E+02  0.14749709405E+03  0.00000000000E+00 0.  1.
        -15    1    4    4    0    0 -0.86442289291E+02 -0.22560928704E+02  0.14082488422E+03  0.16678150565E+03  0.17770000000E+01 0. -1.
         15    1    4    4    0    0 -0.25211844493E+01 -0.10345678610E+02 -0.12976947349E+02  0.16880412567E+02  0.17770000000E+01 0.  1.
</event>
<event>
 8    1  0.1807540E-005  0.1825349E+03  0.7546771E-02  0.1068427E+00
        -11   -1    0    0    0    0  0.00000000000E+00  0.00000000000E+00  0.18250000000E+03  0.18250000000E+03  0.00000000000E+00 0.  1.
         11   -1    0    0    0    0 -0.00000000000E+00 -0.00000000000E+00 -0.18250000000E+03  0.18250000000E+03  0.00000000000E+00 0. -1.
         23    2    1    2    0    0  0.70631335847E+02 -0.12860510064E+02 -0.14164308717E+03  0.18253489150E+03  0.90011355658E+02 0.  0.
         23    2    1    2    0    0 -0.70631335847E+02  0.12860510064E+02  0.14164308717E+03  0.18246510850E+03  0.89869757736E+02 0.  0.
        -11    1    3    3    0    0  0.17710762154E+02 -0.31348917331E+02 -0.69884544924E+01  0.36677843585E+02  0.00000000000E+00 0.  1.
         11    1    3    3    0    0  0.52920573693E+02  0.18488407267E+02 -0.13465463268E+03  0.14585704791E+03  0.00000000000E+00 0. -1.
        -15    1    4    4    0    0  0.21679986987E+02  0.43120895926E+01  0.24064544350E+02  0.32724241415E+02  0.17770000000E+01 0. -1.
         15    1    4    4    0    0 -0.92311322834E+02  0.85484204712E+01  0.11757854282E+03  0.14974086709E+03  0.17770000000E+01 0.  1.
</event>
<event>
 8    1  0.1807540E-005  0.1831067E+03  0.7546771E-02  0.1067973E+00
        -11   -1    0    0    0    0  0.00000000000E+00  0.00000000000E+00  0.18250000000E+03  0.18250000000E+03  0.00000000000E+00 0. -1.
         11   -1    0    0    0    0 -0.00000000000E+00 -0.00000000000E+00 -0.18250000000E+03  0.18250000000E+03  0.00000000000E+00 0. -1.
         23    2    1    2    0    0 -0.45609924267E+02  0.68526784085E+01  0.14991620543E+03  0.18310669771E+03  0.94477350213E+02 0.  0.
         23    2    1    2    0    0  0.45609924267E+02 -0.68526784085E+01 -0.14991620543E+03  0.18189330229E+03  0.92103639297E+02 0.  0.
        -11    1    3    3    0    0 -0.55023513088E+02  0.17818472603E+02  0.15677966301E+03  0.16710759316E+03  0.00000000000E+00 0. -1.
         11    1    3    3    0    0  0.94135888217E+01 -0.10965794194E+02 -0.68634575718E+01  0.15999104558E+02  0.00000000000E+00 0. -1.
        -15    1    4    4    0    0 -0.24684712706E+02  0.61791147039E+01 -0.70753622485E+02  0.75211364325E+02  0.17770000000E+01 0.  1.
         15    1    4    4    0    0  0.70294636973E+02 -0.13031793112E+02 -0.79162582949E+02  0.10668193796E+03  0.17770000000E+01 0. -1.
</event>
<event>
 8    1  0.1807540E-005  0.1826290E+03  0.7546771E-02  0.1068352E+00
        -11   -1    0    0    0    0  0.00000000000E+00  0.00000000000E+00  0.18250000000E+03  0.18250000000E+03  0.00000000000E+00 0. -1.
         11   -1    0    0    0    0 -0.00000000000E+00 -0.00000000000E+00 -0.18250000000E+03  0.18250000000E+03  0.00000000000E+00 0.  1.
         23    2    1    2    0    0  0.28583145213E+02 -0.26855311697E+02 -0.15319502411E+03  0.18262902895E+03  0.91358868461E+02 0.  0.
         23    2    1    2    0    0 -0.28583145213E+02  0.26855311697E+02  0.15319502411E+03  0.18237097105E+03  0.90841905065E+02 0.  0.
        -11    1    3    3    0    0  0.37237713800E+02 -0.28073409656E+02 -0.16297327845E+03  0.16951416798E+03  0.00000000000E+00 0.  1.
         11    1    3    3    0    0 -0.86545685866E+01  0.12180979587E+01  0.97782543436E+01  0.13114860962E+02  0.00000000000E+00 0. -1.
        -15    1    4    4    0    0 -0.32402619725E+02 -0.19915330343E+02  0.11712133204E+03  0.12315483870E+03  0.17770000000E+01 0. -1.
         15    1    4    4    0    0  0.38194745124E+01  0.46770642040E+02  0.36073692062E+02  0.59216132349E+02  0.17770000000E+01 0.  1.
</event>
<event>
 8    1  0.1807540E-005  0.1837796E+03  0.7546771E-02  0.1067441E+00
        -11   -1    0    0    0    0  0.00000000000E+00  0.00000000000E+00  0.18250000000E+03  0.18250000000E+03  0.00000000000E+00 0.  1.
         11   -1    0    0    0    0 -0.00000000000E+00 -0.00000000000E+00 -0.18250000000E+03  0.18250000000E+03  0.00000000000E+00 0. -1.
         23    2    1    2    0    0  0.54599632656E+02 -0.13596435977E+03  0.60764496929E+02  0.18377958485E+03  0.92818019295E+02 0.  0.
         23    2    1    2    0    0 -0.54599632656E+02  0.13596435977E+03 -0.60764496929E+02  0.18122041515E+03  0.87641815173E+02 0.  0.
        -11    1    3    3    0    0  0.77482695387E+02 -0.12606331198E+03  0.56969083566E+02  0.15855914730E+03  0.00000000000E+00 0.  1.
         11    1    3    3    0    0 -0.22883062732E+02 -0.99010477951E+01  0.37954133626E+01  0.25220437546E+02  0.00000000000E+00 0. -1.
        -15    1    4    4    0    0 -0.97015891332E+01  0.41769241859E+02  0.21808886990E+02  0.48141205614E+02  0.17770000000E+01 0.  1.
         15    1    4    4    0    0 -0.44898043523E+02  0.94195117911E+02 -0.82573383919E+02  0.13307920954E+03  0.17770000000E+01 0. -1.
</event>
<event>
 8    1  0.1807540E-005  0.1826405E+03  0.7546771E-02  0.1068343E+00
        -11   -1    0    0    0    0  0.00000000000E+00  0.00000000000E+00  0.18250000000E+03  0.18250000000E+03  0.00000000000E+00 0.  1.
         11   -1    0    0    0    0 -0.00000000000E+00 -0.00000000000E+00 -0.18250000000E+03  0.18250000000E+03  0.00000000000E+00 0. -1.
         23    2    1    2    0    0  0.12161920421E+03  0.53922039532E+02 -0.85551882583E+02  0.18264045344E+03  0.91321374497E+02 0.  0.
         23    2    1    2    0    0 -0.12161920421E+03 -0.53922039532E+02  0.85551882583E+02  0.18235954656E+03  0.90758263692E+02 0.  0.
        -11    1    3    3    0    0  0.48846559927E+01 -0.15316713980E+02 -0.33719715331E+02  0.37356134614E+02  0.00000000000E+00 0.  1.
         11    1    3    3    0    0  0.11673454822E+03  0.69238753512E+02 -0.51832167252E+02  0.14528431883E+03  0.00000000000E+00 0. -1.
        -15    1    4    4    0    0 -0.69708365119E+02 -0.31610960333E+02  0.98113387267E+02  0.12445040567E+03  0.17770000000E+01 0.  1.
         15    1    4    4    0    0 -0.51910839089E+02 -0.22311079199E+02 -0.12561504684E+02  0.57909140892E+02  0.17770000000E+01 0. -1.
</event>
<event>
 8    1  0.1807540E-005  0.1826801E+03  0.7546771E-02  0.1068312E+00
        -11   -1    0    0    0    0  0.00000000000E+00  0.00000000000E+00  0.18250000000E+03  0.18250000000E+03  0.00000000000E+00 0.  1.
         11   -1    0    0    0    0 -0.00000000000E+00 -0.00000000000E+00 -0.18250000000E+03  0.18250000000E+03  0.00000000000E+00 0. -1.
         23    2    1    2    0    0  0.31490029847E+02 -0.29171715564E+01 -0.15438324255E+03  0.18231990592E+03  0.91685498543E+02 0.  0.
         23    2    1    2    0    0 -0.31490029847E+02  0.29171715564E+01  0.15438324255E+03  0.18268009408E+03  0.92399671657E+02 0.  0.
        -11    1    3    3    0    0  0.13533246686E+02  0.43240987487E+02 -0.92974544342E+02  0.10342725782E+03  0.00000000000E+00 0.  1.
         11    1    3    3    0    0  0.17956783161E+02 -0.46158159044E+02 -0.61408698212E+02  0.78892648098E+02  0.00000000000E+00 0. -1.
        -15    1    4    4    0    0 -0.18269685756E+02  0.47488643022E+02  0.86832815997E+02  0.10065807616E+03  0.17770000000E+01 0. -1.
         15    1    4    4    0    0 -0.13220344092E+02 -0.44571471466E+02  0.67550426557E+02  0.82022017919E+02  0.17770000000E+01 0.  1.
</event>
<event>
 8    1  0.1807540E-005  0.1831605E+03  0.7546771E-02  0.1067930E+00
        -11   -1    0    0    0    0  0.00000000000E+00  0.00000000000E+00  0.18250000000E+03  0.18250000000E+03  0.00000000000E+00 0.  1.
         11   -1    0    0    0    0 -0.00000000000E+00 -0.00000000000E+00 -0.18250000000E+03  0.18250000000E+03  0.00000000000E+00 0. -1.
         23    2    1    2    0    0  0.76387939327E+02  0.74105452447E+00 -0.13722857717E+03  0.18183952369E+03  0.91642040292E+02 0.  0.
         23    2    1    2    0    0 -0.76387939327E+02 -0.74105452447E+00  0.13722857717E+03  0.18316047631E+03  0.94235933978E+02 0.  0.
        -11    1    3    3    0    0 -0.13534311526E+02  0.10839790159E+02  0.14633200092E+00  0.17340705068E+02  0.00000000000E+00 0.  1.
         11    1    3    3    0    0  0.89922250854E+02 -0.10098735635E+02 -0.13737490917E+03  0.16449881863E+03  0.00000000000E+00 0. -1.
        -15    1    4    4    0    0 -0.49381346315E+02  0.29729602197E+02  0.12938912615E+03  0.14165828711E+03  0.17770000000E+01 0.  1.
         15    1    4    4    0    0 -0.27006593012E+02 -0.30470656721E+02  0.78394510167E+01  0.41502189200E+02  0.17770000000E+01 0. -1.
</event>
<event>
 8    1  0.1807540E-005  0.1826347E+03  0.7546771E-02  0.1068348E+00
        -11   -1    0    0    0    0  0.00000000000E+00  0.00000000000E+00  0.18250000000E+03  0.18250000000E+03  0.00000000000E+00 0.  1.
         11   -1    0    0    0    0 -0.00000000000E+00 -0.00000000000E+00 -0.18250000000E+03  0.18250000000E+03  0.00000000000E+00 0. -1.
         23    2    1    2    0    0 -0.12679508259E+03 -0.15273565407E+02 -0.92651939744E+02  0.18263473111E+03  0.91982543456E+02 0.  0.
         23    2    1    2    0    0  0.12679508259E+03  0.15273565407E+02  0.92651939744E+02  0.18236526889E+03  0.91446348152E+02 0.  0.
        -11    1    3    3    0    0 -0.10645063735E+03  0.13311250866E+02 -0.10014494382E+03  0.14675809131E+03  0.00000000000E+00 0. -1.
         11    1    3    3    0    0 -0.20344445239E+02 -0.28584816274E+02  0.74930040752E+01  0.35876639803E+02  0.00000000000E+00 0.  1.
        -15    1    4    4    0    0  0.22304395112E+02 -0.17814487857E+02 -0.11810288438E+02  0.30943216719E+02  0.17770000000E+01 0. -1.
         15    1    4    4    0    0  0.10449068748E+03  0.33088053264E+02  0.10446222818E+03  0.15142205217E+03  0.17770000000E+01 0.  1.
</event>
<event>
 8    1  0.1807540E-005  0.1836197E+03  0.7546771E-02  0.1067567E+00
        -11   -1    0    0    0    0  0.00000000000E+00  0.00000000000E+00  0.18250000000E+03  0.18250000000E+03  0.00000000000E+00 0. -1.
         11   -1    0    0    0    0 -0.00000000000E+00 -0.00000000000E+00 -0.18250000000E+03  0.18250000000E+03  0.00000000000E+00 0.  1.
         23    2    1    2    0    0  0.24351968446E+02  0.11037896567E+03  0.10861733407E+03  0.18361974032E+03  0.95613541633E+02 0.  0.
         23    2    1    2    0    0 -0.24351968446E+02 -0.11037896567E+03 -0.10861733407E+03  0.18138025968E+03  0.91238911180E+02 0.  0.
        -11    1    3    3    0    0 -0.18561549915E+02 -0.93111911973E+01  0.12621404551E+02  0.24300808003E+02  0.00000000000E+00 0.  1.
         11    1    3    3    0    0  0.42913518361E+02  0.11969015687E+03  0.95995929515E+02  0.15931893231E+03  0.00000000000E+00 0. -1.
        -15    1    4    4    0    0 -0.24208409461E+02 -0.12660191498E+03 -0.95159845570E+02  0.16022685762E+03  0.17770000000E+01 0.  1.
         15    1    4    4    0    0 -0.14355898539E+00  0.16222949304E+02 -0.13457488495E+02  0.21153402065E+02  0.17770000000E+01 0. -1.
</event>
<event>
 8    1  0.1807540E-005  0.1832980E+03  0.7546771E-02  0.1067821E+00
        -11   -1    0    0    0    0  0.00000000000E+00  0.00000000000E+00  0.18250000000E+03  0.18250000000E+03  0.00000000000E+00 0.  1.
         11   -1    0    0    0    0 -0.00000000000E+00 -0.00000000000E+00 -0.18250000000E+03  0.18250000000E+03  0.00000000000E+00 0. -1.
         23    2    1    2    0    0 -0.14427670141E+03 -0.56626400611E+02 -0.34801333961E+02  0.18170199811E+03  0.88216593985E+02 0.  0.
         23    2    1    2    0    0  0.14427670141E+03  0.56626400611E+02  0.34801333961E+02  0.18329800189E+03  0.91458782165E+02 0.  0.
        -11    1    3    3    0    0 -0.39934545967E+02 -0.58933668788E+02 -0.29916481680E+02  0.77220082585E+02  0.00000000000E+00 0.  1.
         11    1    3    3    0    0 -0.10434215545E+03  0.23072681770E+01 -0.48848522816E+01  0.10448191552E+03  0.00000000000E+00 0. -1.
        -15    1    4    4    0    0 -0.34645453948E+01  0.28901753732E+01 -0.17067197904E+02  0.17742693194E+02  0.17770000000E+01 0. -1.
         15    1    4    4    0    0  0.14774124681E+03  0.53736225237E+02  0.51868531865E+02  0.16555530870E+03  0.17770000000E+01 0.  1.
</event>
<event>
 7    1  0.1807540E-005  0.2231362E+03  0.7546771E-02  0.1040043E+00
        -11   -1    0    0    0    0  0.00000000000E+00  0.00000000000E+00  0.18250000000E+03  0.18250000000E+03  0.00000000000E+00 0. -1.
         11   -1    0    0    0    0 -0.00000000000E+00 -0.00000000000E+00 -0.18250000000E+03  0.18250000000E+03  0.00000000000E+00 0. -1.
         23    2    1    2    0    0  0.92355248928E+01  0.11013955766E+03  0.15210243758E+02  0.14186382925E+03  0.87624068904E+02 0.  0.
        -11    1    3    3    0    0 -0.25228472585E+02  0.53537362912E+02  0.39643219348E+02  0.71234190504E+02  0.00000000000E+00 0. -1.
         11    1    3    3    0    0  0.34463997478E+02  0.56602194751E+02 -0.24432975590E+02  0.70629638743E+02  0.00000000000E+00 0. -1.
        -15    1    1    2    0    0  0.76230731886E+02 -0.83090139814E+02 -0.54487616313E+02  0.12524836877E+03  0.17770000000E+01 0.  1.
         15    1    1    2    0    0 -0.85466256779E+02 -0.27049417849E+02  0.39277372555E+02  0.97887801986E+02  0.17770000000E+01 0. -1.
</event>
<event>
 8    1  0.1807540E-005  0.1836694E+03  0.7546771E-02  0.1067528E+00
        -11   -1    0    0    0    0  0.00000000000E+00  0.00000000000E+00  0.18250000000E+03  0.18250000000E+03  0.00000000000E+00 0.  1.
         11   -1    0    0    0    0 -0.00000000000E+00 -0.00000000000E+00 -0.18250000000E+03  0.18250000000E+03  0.00000000000E+00 0. -1.
         23    2    1    2    0    0 -0.82617868943E+02  0.11688547610E+03 -0.64980454254E+02  0.18366942782E+03  0.94995118248E+02 0.  0.
         23    2    1    2    0    0  0.82617868943E+02 -0.11688547610E+03  0.64980454254E+02  0.18133057218E+03  0.90390210644E+02 0.  0.
        -11    1    3    3    0    0  0.24185798899E+01  0.15622490611E+02  0.20744000199E+02  0.26081128922E+02  0.00000000000E+00 0. -1.
         11    1    3    3    0    0 -0.85036448833E+02  0.10126298548E+03 -0.85724454453E+02  0.15758829890E+03  0.00000000000E+00 0.  1.
        -15    1    4    4    0    0  0.52129569399E+02 -0.12570012099E+03  0.43149726105E+02  0.14276928597E+03  0.17770000000E+01 0.  1.
         15    1    4    4    0    0  0.30488299543E+02  0.88146448971E+01  0.21830728150E+02  0.38561286211E+02  0.17770000000E+01 0. -1.
</event>
<event>
 8    1  0.1807540E-005  0.1828906E+03  0.7546771E-02  0.1068144E+00
        -11   -1    0    0    0    0  0.00000000000E+00  0.00000000000E+00  0.18250000000E+03  0.18250000000E+03  0.00000000000E+00 0.  1.
         11   -1    0    0    0    0 -0.00000000000E+00 -0.00000000000E+00 -0.18250000000E+03  0.18250000000E+03  0.00000000000E+00 0.  1.
         23    2    1    2    0    0  0.96231871962E+01 -0.96294817036E+01 -0.15934902432E+03  0.18289059873E+03  0.88721625895E+02 0.  0.
         23    2    1    2    0    0 -0.96231871962E+01  0.96294817036E+01  0.15934902432E+03  0.18210940127E+03  0.87099884225E+02 0.  0.
        -11    1    3    3    0    0  0.31859419747E+02  0.22420073050E+02 -0.12494812963E+03  0.13088054630E+03  0.00000000000E+00 0.  1.
         11    1    3    3    0    0 -0.22236232550E+02 -0.32049554754E+02 -0.34400894692E+02  0.52010052428E+02  0.00000000000E+00 0.  1.
        -15    1    4    4    0    0  0.34018761436E+01 -0.33337823775E+02  0.29413303029E+02  0.44623798353E+02  0.17770000000E+01 0. -1.
         15    1    4    4    0    0 -0.13025063340E+02  0.42967305479E+02  0.12993572129E+03  0.13748560292E+03  0.17770000000E+01 0.  1.
</event>
<event>
 8    1  0.1807540E-005  0.1825682E+03  0.7546771E-02  0.1068401E+00
        -11   -1    0    0    0    0  0.00000000000E+00  0.00000000000E+00  0.18250000000E+03  0.18250000000E+03  0.00000000000E+00 0.  1.
         11   -1    0    0    0    0 -0.00000000000E+00 -0.00000000000E+00 -0.18250000000E+03  0.18250000000E+03  0.00000000000E+00 0. -1.
         23    2    1    2    0    0  0.61602193443E+02  0.79647824118E+01 -0.14546787501E+03  0.18243183708E+03  0.90896669491E+02 0.  0.
         23    2    1    2    0    0 -0.61602193443E+02 -0.79647824118E+01  0.14546787501E+03  0.18256816292E+03  0.91169970155E+02 0.  0.
        -11    1    3    3    0    0  0.85223803037E+02  0.25995826378E+01 -0.12079468230E+03  0.14785536752E+03  0.00000000000E+00 0. -1.
         11    1    3    3    0    0 -0.23621609593E+02  0.53651997740E+01 -0.24673192710E+02  0.34576469555E+02  0.00000000000E+00 0.  1.
        -15    1    4    4    0    0  0.22979999894E+02 -0.14469217815E+00  0.48143004412E+02  0.53376098900E+02  0.17770000000E+01 0. -1.
         15    1    4    4    0    0 -0.84582193338E+02 -0.78200902337E+01  0.97324870595E+02  0.12919206402E+03  0.17770000000E+01 0.  1.
</event>
<event>
 8    1  0.1807540E-005  0.1828018E+03  0.7546771E-02  0.1068215E+00
        -11   -1    0    0    0    0  0.00000000000E+00  0.00000000000E+00  0.18250000000E+03  0.18250000000E+03  0.00000000000E+00 0. -1.
         11   -1    0    0    0    0 -0.00000000000E+00 -0.00000000000E+00 -0.18250000000E+03  0.18250000000E+03  0.00000000000E+00 0.  1.
         23    2    1    2    0    0  0.93359616900E+02  0.25974449564E+02  0.12460266579E+03  0.18219822327E+03  0.90992736762E+02 0.  0.
         23    2    1    2    0    0 -0.93359616900E+02 -0.25974449564E+02 -0.12460266579E+03  0.18280177673E+03  0.92195309845E+02 0.  0.
        -11    1    3    3    0    0  0.16697610832E+02  0.20600692117E+02 -0.90555992033E+01  0.28021466774E+02  0.00000000000E+00 0.  1.
         11    1    3    3    0    0  0.76662006068E+02  0.53737574473E+01  0.13365826499E+03  0.15417675649E+03  0.00000000000E+00 0. -1.
        -15    1    4    4    0    0 -0.67241533892E+02 -0.45878606554E+02 -0.12585002680E+03  0.14989215255E+03  0.17770000000E+01 0.  1.
         15    1    4    4    0    0 -0.26118083008E+02  0.19904156990E+02  0.12473610180E+01  0.32909624185E+02  0.17770000000E+01 0. -1.
</event>
<event>
 8    1  0.1807540E-005  0.1841676E+03  0.7546771E-02  0.1067135E+00
        -11   -1    0    0    0    0  0.00000000000E+00  0.00000000000E+00  0.18250000000E+03  0.18250000000E+03  0.00000000000E+00 0. -1.
         11   -1    0    0    0    0 -0.00000000000E+00 -0.00000000000E+00 -0.18250000000E+03  0.18250000000E+03  0.00000000000E+00 0.  1.
         23    2    1    2    0    0  0.16171920780E+02  0.12429970035E+03  0.95076391890E+02  0.18416764837E+03  0.95740565489E+02 0.  0.
         23    2    1    2    0    0 -0.16171920780E+02 -0.12429970035E+03 -0.95076391890E+02  0.18083235163E+03  0.89156449980E+02 0.  0.
        -11    1    3    3    0    0 -0.39040628757E+02  0.66512151701E+02  0.38152392698E+02  0.86044419262E+02  0.00000000000E+00 0.  1.
         11    1    3    3    0    0  0.55212549538E+02  0.57787548653E+02  0.56923999192E+02  0.98123229104E+02  0.00000000000E+00 0. -1.
        -15    1    4    4    0    0  0.19323531181E+01 -0.12076714597E+03 -0.10478605146E+03  0.15991157508E+03  0.17770000000E+01 0.  1.
         15    1    4    4    0    0 -0.18104273899E+02 -0.35325543787E+01  0.97096595649E+01  0.20920776556E+02  0.17770000000E+01 0. -1.
</event>
<event>
 8    1  0.1807540E-005  0.1833946E+03  0.7546771E-02  0.1067745E+00
        -11   -1    0    0    0    0  0.00000000000E+00  0.00000000000E+00  0.18250000000E+03  0.18250000000E+03  0.00000000000E+00 0.  1.
         11   -1    0    0    0    0 -0.00000000000E+00 -0.00000000000E+00 -0.18250000000E+03  0.18250000000E+03  0.00000000000E+00 0. -1.
         23    2    1    2    0    0 -0.55357882116E+02  0.94441670411E+02 -0.11585437985E+03  0.18339461074E+03  0.90706238472E+02 0.  0.
         23    2    1    2    0    0  0.55357882116E+02 -0.94441670411E+02  0.11585437985E+03  0.18160538926E+03  0.87031924339E+02 0.  0.
        -11    1    3    3    0    0 -0.51137227888E+02  0.86131903647E+02 -0.13142600825E+03  0.16524683521E+03  0.00000000000E+00 0. -1.
         11    1    3    3    0    0 -0.42206542278E+01  0.83097667644E+01  0.15571628402E+02  0.18147775536E+02  0.00000000000E+00 0.  1.
        -15    1    4    4    0    0 -0.17003390744E+01  0.14923294370E+02  0.55319484163E+01  0.16104535079E+02  0.17770000000E+01 0. -1.
         15    1    4    4    0    0  0.57058221190E+02 -0.10936496478E+03  0.11032243143E+03  0.16550085418E+03  0.17770000000E+01 0.  1.
</event>
<event>
 8    1  0.1807540E-005  0.1828346E+03  0.7546771E-02  0.1068189E+00
        -11   -1    0    0    0    0  0.00000000000E+00  0.00000000000E+00  0.18250000000E+03  0.18250000000E+03  0.00000000000E+00 0. -1.
         11   -1    0    0    0    0 -0.00000000000E+00 -0.00000000000E+00 -0.18250000000E+03  0.18250000000E+03  0.00000000000E+00 0.  1.
         23    2    1    2    0    0  0.50501995470E+01 -0.65738251121E+02 -0.14422835377E+03  0.18216544761E+03  0.89640448998E+02 0.  0.
         23    2    1    2    0    0 -0.50501995470E+01  0.65738251121E+02  0.14422835377E+03  0.18283455239E+03  0.90992490578E+02 0.  0.
        -11    1    3    3    0    0 -0.18732950430E+02 -0.74230685566E+02 -0.13515342642E+03  0.15533050822E+03  0.00000000000E+00 0.  1.
         11    1    3    3    0    0  0.23783149977E+02  0.84924344450E+01 -0.90749273486E+01  0.26834939389E+02  0.00000000000E+00 0. -1.
        -15    1    4    4    0    0  0.23174625363E+01 -0.66413913425E+01 -0.99670905373E+01  0.12327989875E+02  0.17770000000E+01 0.  1.
         15    1    4    4    0    0 -0.73676620833E+01  0.72379642464E+02  0.15419544430E+03  0.17050656252E+03  0.17770000000E+01 0. -1.
</event>
<event>
 8    1  0.1807540E-005  0.1836189E+03  0.7546771E-02  0.1067568E+00
        -11   -1    0    0    0    0  0.00000000000E+00  0.00000000000E+00  0.18250000000E+03  0.18250000000E+03  0.00000000000E+00 0. -1.
         11   -1    0    0    0    0 -0.00000000000E+00 -0.00000000000E+00 -0.18250000000E+03  0.18250000000E+03  0.00000000000E+00 0.  1.
         23    2    1    2    0    0 -0.39133775527E+02 -0.41080273434E+01  0.15376857912E+03  0.18361886875E+03  0.92318929580E+02 0.  0.
         23    2    1    2    0    0  0.39133775527E+02  0.41080273434E+01 -0.15376857912E+03  0.18138113125E+03  0.87783885614E+02 0.  0.
        -11    1    3    3    0    0  0.20854826689E+02 -0.25231927264E+02  0.29705240864E+02  0.44203792648E+02  0.00000000000E+00 0.  1.
         11    1    3    3    0    0 -0.59988602216E+02  0.21123899921E+02  0.12406333826E+03  0.13941507610E+03  0.00000000000E+00 0. -1.
        -15    1    4    4    0    0  0.64021239036E+02 -0.40611018257E+01 -0.13380622749E+03  0.14839971644E+03  0.17770000000E+01 0.  1.
         15    1    4    4    0    0 -0.24887463508E+02  0.81691291692E+01 -0.19962351632E+02  0.32981414811E+02  0.17770000000E+01 0. -1.
</event>
<event>
 8    1  0.1807540E-005  0.1829291E+03  0.7546771E-02  0.1068114E+00
        -11   -1    0    0    0    0  0.00000000000E+00  0.00000000000E+00  0.18250000000E+03  0.18250000000E+03  0.00000000000E+00 0. -1.
         11   -1    0    0    0    0 -0.00000000000E+00 -0.00000000000E+00 -0.18250000000E+03  0.18250000000E+03  0.00000000000E+00 0.  1.
         23    2    1    2    0    0 -0.31455726273E+02 -0.46783884114E+02 -0.14804098487E+03  0.18292912755E+03  0.91480806596E+02 0.  0.
         23    2    1    2    0    0  0.31455726273E+02  0.46783884114E+02  0.14804098487E+03  0.18207087245E+03  0.89752297261E+02 0.  0.
        -11    1    3    3    0    0 -0.48925564932E+02  0.37748517381E+01 -0.43848931239E+02  0.65807972012E+02  0.00000000000E+00 0. -1.
         11    1    3    3    0    0  0.17469838659E+02 -0.50558735853E+02 -0.10419205364E+03  0.11712115554E+03  0.00000000000E+00 0.  1.
        -15    1    4    4    0    0 -0.17972020610E-02 -0.21339483122E+02  0.74016382454E+01  0.22656467529E+02  0.17770000000E+01 0.  1.
         15    1    4    4    0    0  0.31457523475E+02  0.68123367237E+02  0.14063934663E+03  0.15941440492E+03  0.17770000000E+01 0. -1.
</event>
<event>
 8    1  0.1807540E-005  0.1827335E+03  0.7546771E-02  0.1068269E+00
        -11   -1    0    0    0    0  0.00000000000E+00  0.00000000000E+00  0.18250000000E+03  0.18250000000E+03  0.00000000000E+00 0. -1.
         11   -1    0    0    0    0 -0.00000000000E+00 -0.00000000000E+00 -0.18250000000E+03  0.18250000000E+03  0.00000000000E+00 0.  1.
         23    2    1    2    0    0 -0.53234296132E+02 -0.12872574668E+03  0.71647081511E+02  0.18226652996E+03  0.93185704446E+02 0.  0.
         23    2    1    2    0    0  0.53234296132E+02  0.12872574668E+03 -0.71647081511E+02  0.18273347004E+03  0.94095741886E+02 0.  0.
        -11    1    3    3    0    0  0.10126561487E+02 -0.94945955584E+02  0.35421238040E+02  0.10184275052E+03  0.00000000000E+00 0. -1.
         11    1    3    3    0    0 -0.63360857619E+02 -0.33779791093E+02  0.36225843472E+02  0.80423779442E+02  0.00000000000E+00 0.  1.
        -15    1    4    4    0    0 -0.42005067394E+01  0.99562635428E+02 -0.62514876282E+02  0.11765045735E+03  0.17770000000E+01 0.  1.
         15    1    4    4    0    0  0.57434802872E+02  0.29163111249E+02 -0.91322052294E+01  0.65083012684E+02  0.17770000000E+01 0. -1.
</event>
<event>
 8    1  0.1807540E-005  0.1842054E+03  0.7546771E-02  0.1067105E+00
        -11   -1    0    0    0    0  0.00000000000E+00  0.00000000000E+00  0.18250000000E+03  0.18250000000E+03  0.00000000000E+00 0. -1.
         11   -1    0    0    0    0 -0.00000000000E+00 -0.00000000000E+00 -0.18250000000E+03  0.18250000000E+03  0.00000000000E+00 0.  1.
         23    2    1    2    0    0  0.36501583580E+02  0.19637211951E+02  0.15671046608E+03  0.18420537851E+03  0.87495517579E+02 0.  0.
         23    2    1    2    0    0 -0.36501583580E+02 -0.19637211951E+02 -0.15671046608E+03  0.18079462149E+03  0.80065843434E+02 0.  0.
        -11    1    3    3    0    0  0.30188334479E+02 -0.30841900871E+02  0.94160537256E+02  0.10357975268E+03  0.00000000000E+00 0.  1.
         11    1    3    3    0    0  0.63132491005E+01  0.50479112822E+02  0.62549928821E+02  0.80625625833E+02  0.00000000000E+00 0. -1.
        -15    1    4    4    0    0 -0.57775988680E+02 -0.12258791449E+02 -0.14209427536E+03  0.15389049241E+03  0.17770000000E+01 0.  1.
         15    1    4    4    0    0  0.21274405101E+02 -0.73784205018E+01 -0.14616190722E+02  0.26904129083E+02  0.17770000000E+01 0. -1.
</event>
<event>
 8    1  0.1807540E-005  0.1836557E+03  0.7546771E-02  0.1067539E+00
        -11   -1    0    0    0    0  0.00000000000E+00  0.00000000000E+00  0.18250000000E+03  0.18250000000E+03  0.00000000000E+00 0.  1.
         11   -1    0    0    0    0 -0.00000000000E+00 -0.00000000000E+00 -0.18250000000E+03  0.18250000000E+03  0.00000000000E+00 0. -1.
         23    2    1    2    0    0 -0.13308895279E+02  0.11284223958E+03 -0.10881973640E+03  0.18134428115E+03  0.90186005285E+02 0.  0.
         23    2    1    2    0    0  0.13308895279E+02 -0.11284223958E+03  0.10881973640E+03  0.18365571885E+03  0.94748035904E+02 0.  0.
        -11    1    3    3    0    0 -0.39334017088E+02  0.52249299748E+02 -0.15733310285E+02  0.67265825476E+02  0.00000000000E+00 0.  1.
         11    1    3    3    0    0  0.26025121809E+02  0.60592939835E+02 -0.93086426113E+02  0.11407845568E+03  0.00000000000E+00 0. -1.
        -15    1    4    4    0    0 -0.53192676986E+00 -0.11466768742E+03  0.11977148948E+03  0.16582318567E+03  0.17770000000E+01 0.  1.
         15    1    4    4    0    0  0.13840822049E+02  0.18254478367E+01 -0.10951753085E+02  0.17832533175E+02  0.17770000000E+01 0. -1.
</event>
<event>
 8    1  0.1807540E-005  0.1873758E+03  0.7546771E-02  0.1064639E+00
        -11   -1    0    0    0    0  0.00000000000E+00  0.00000000000E+00  0.18250000000E+03  0.18250000000E+03  0.00000000000E+00 0. -1.
         11   -1    0    0    0    0 -0.00000000000E+00 -0.00000000000E+00 -0.18250000000E+03  0.18250000000E+03  0.00000000000E+00 0.  1.
         23    2    1    2    0    0  0.15941045556E+02 -0.24100686842E+02 -0.16075696133E+03  0.18737584343E+03  0.91825628467E+02 0.  0.
         23    2    1    2    0    0 -0.15941045556E+02  0.24100686842E+02  0.16075696133E+03  0.17762415657E+03  0.69803870540E+02 0.  0.
        -11    1    3    3    0    0  0.36439044762E+02 -0.64817417859E+01 -0.15549484363E+03  0.15983886685E+03  0.00000000000E+00 0.  1.
         11    1    3    3    0    0 -0.20497999206E+02 -0.17618945057E+02 -0.52621177016E+01  0.27536976578E+02  0.00000000000E+00 0. -1.
        -15    1    4    4    0    0 -0.34934241043E+02  0.24680299134E+02  0.14940716598E+03  0.15541935960E+03  0.17770000000E+01 0. -1.
         15    1    4    4    0    0  0.18993195487E+02 -0.57961229155E+00  0.11349795351E+02  0.22204796976E+02  0.17770000000E+01 0.  1.
</event>
<event>
 8    1  0.1807540E-005  0.1832585E+03  0.7546771E-02  0.1067853E+00
        -11   -1    0    0    0    0  0.00000000000E+00  0.00000000000E+00  0.18250000000E+03  0.18250000000E+03  0.00000000000E+00 0.  1.
         11   -1    0    0    0    0 -0.00000000000E+00 -0.00000000000E+00 -0.18250000000E+03  0.18250000000E+03  0.00000000000E+00 0. -1.
         23    2    1    2    0    0  0.46257326681E+02 -0.11866475652E+02 -0.15055529903E+03  0.18325851669E+03  0.92931331397E+02 0.  0.
         23    2    1    2    0    0 -0.46257326681E+02  0.11866475652E+02  0.15055529903E+03  0.18174148331E+03  0.89902809605E+02 0.  0.
        -11    1    3    3    0    0  0.59700705142E+02 -0.38929845217E+02 -0.12403158144E+03  0.14305083096E+03  0.00000000000E+00 0. -1.
         11    1    3    3    0    0 -0.13443378460E+02  0.27063369566E+02 -0.26523717586E+02  0.40207685724E+02  0.00000000000E+00 0.  1.
        -15    1    4    4    0    0 -0.31242687687E+02 -0.29996639492E+02  0.28639002196E+02  0.51954346214E+02  0.17770000000E+01 0. -1.
         15    1    4    4    0    0 -0.15014638994E+02  0.41863115144E+02  0.12191629684E+03  0.12978713710E+03  0.17770000000E+01 0.  1.
</event>
<event>
 8    1  0.1807540E-005  0.1832060E+03  0.7546771E-02  0.1067894E+00
        -11   -1    0    0    0    0  0.00000000000E+00  0.00000000000E+00  0.18250000000E+03  0.18250000000E+03  0.00000000000E+00 0.  1.
         11   -1    0    0    0    0 -0.00000000000E+00 -0.00000000000E+00 -0.18250000000E+03  0.18250000000E+03  0.00000000000E+00 0. -1.
         23    2    1    2    0    0  0.19467343720E+02  0.21979703664E+02 -0.15489088339E+03  0.18179403174E+03  0.90530654335E+02 0.  0.
         23    2    1    2    0    0 -0.19467343720E+02 -0.21979703664E+02  0.15489088339E+03  0.18320596826E+03  0.93333574894E+02 0.  0.
        -11    1    3    3    0    0  0.17502855373E+02 -0.56321849629E+00 -0.15798723152E+03  0.15895481272E+03  0.00000000000E+00 0. -1.
         11    1    3    3    0    0  0.19644883477E+01  0.22542922161E+02  0.30963481299E+01  0.22839219027E+02  0.00000000000E+00 0.  1.
        -15    1    4    4    0    0 -0.52954289494E+02 -0.26183474129E+02  0.12423894432E+03  0.13757980995E+03  0.17770000000E+01 0.  1.
         15    1    4    4    0    0  0.33486945774E+02  0.42037704648E+01  0.30651939076E+02  0.45626158303E+02  0.17770000000E+01 0. -1.
</event>
<event>
 8    1  0.1807540E-005  0.1837557E+03  0.7546771E-02  0.1067460E+00
        -11   -1    0    0    0    0  0.00000000000E+00  0.00000000000E+00  0.18250000000E+03  0.18250000000E+03  0.00000000000E+00 0.  1.
         11   -1    0    0    0    0 -0.00000000000E+00 -0.00000000000E+00 -0.18250000000E+03  0.18250000000E+03  0.00000000000E+00 0. -1.
         23    2    1    2    0    0  0.85032829035E+02 -0.85231432763E+02 -0.10390753791E+03  0.18375572208E+03  0.92056557706E+02 0.  0.
         23    2    1    2    0    0 -0.85032829035E+02  0.85231432763E+02  0.10390753791E+03  0.18124427792E+03  0.86935221296E+02 0.  0.
        -11    1    3    3    0    0  0.58927351785E+02 -0.24066965907E+02 -0.40513752415E+01  0.63781386608E+02  0.00000000000E+00 0.  1.
         11    1    3    3    0    0  0.26105477250E+02 -0.61164466855E+02 -0.99856162667E+02  0.11997433547E+03  0.00000000000E+00 0. -1.
        -15    1    4    4    0    0 -0.49954928835E+01  0.33023479069E+02  0.73821019617E+02  0.81044467950E+02  0.17770000000E+01 0. -1.
         15    1    4    4    0    0 -0.80037336152E+02  0.52207953694E+02  0.30086518291E+02  0.10019980997E+03  0.17770000000E+01 0.  1.
</event>
<event>
 8    1  0.1807540E-005  0.1832891E+03  0.7546771E-02  0.1067828E+00
        -11   -1    0    0    0    0  0.00000000000E+00  0.00000000000E+00  0.18250000000E+03  0.18250000000E+03  0.00000000000E+00 0.  1.
         11   -1    0    0    0    0 -0.00000000000E+00 -0.00000000000E+00 -0.18250000000E+03  0.18250000000E+03  0.00000000000E+00 0. -1.
         23    2    1    2    0    0  0.11160529019E+02  0.78733621706E+02 -0.13710949385E+03  0.18171091602E+03  0.88861145072E+02 0.  0.
         23    2    1    2    0    0 -0.11160529019E+02 -0.78733621706E+02  0.13710949385E+03  0.18328908398E+03  0.92045284545E+02 0.  0.
        -11    1    3    3    0    0  0.10312800842E+02  0.48133250557E+01  0.11219340283E+02  0.15981099952E+02  0.00000000000E+00 0.  1.
         11    1    3    3    0    0  0.84772817674E+00  0.73920296651E+02 -0.14832883413E+03  0.16572981607E+03  0.00000000000E+00 0. -1.
        -15    1    4    4    0    0  0.14422138280E+01 -0.47866279976E+02  0.63567632455E+01  0.48340737556E+02  0.17770000000E+01 0. -1.
         15    1    4    4    0    0 -0.12602742847E+02 -0.30867341730E+02  0.13075273060E+03  0.13494834642E+03  0.17770000000E+01 0.  1.
</event>
<event>
 8    1  0.1807540E-005  0.1831957E+03  0.7546771E-02  0.1067902E+00
        -11   -1    0    0    0    0  0.00000000000E+00  0.00000000000E+00  0.18250000000E+03  0.18250000000E+03  0.00000000000E+00 0.  1.
         11   -1    0    0    0    0 -0.00000000000E+00 -0.00000000000E+00 -0.18250000000E+03  0.18250000000E+03  0.00000000000E+00 0.  1.
         23    2    1    2    0    0 -0.46671125880E+02  0.15347319699E+02 -0.15368830276E+03  0.18180426596E+03  0.83779248649E+02 0.  0.
         23    2    1    2    0    0  0.46671125880E+02 -0.15347319699E+02  0.15368830276E+03  0.18319573404E+03  0.86757410939E+02 0.  0.
        -11    1    3    3    0    0 -0.17561854632E+02  0.12844382428E+02 -0.15089365940E+03  0.15245423361E+03  0.00000000000E+00 0.  1.
         11    1    3    3    0    0 -0.29109271247E+02  0.25029372711E+01 -0.27946433568E+01  0.29350032351E+02  0.00000000000E+00 0.  1.
        -15    1    4    4    0    0  0.38068547654E+02  0.12017456649E+02  0.16842090219E+02  0.43364124767E+02  0.17770000000E+01 0. -1.
         15    1    4    4    0    0  0.86025782253E+01 -0.27364776349E+02  0.13684621254E+03  0.13983160927E+03  0.17770000000E+01 0.  1.
</event>
<event>
 8    1  0.1807540E-005  0.1826876E+03  0.7546771E-02  0.1068306E+00
        -11   -1    0    0    0    0  0.00000000000E+00  0.00000000000E+00  0.18250000000E+03  0.18250000000E+03  0.00000000000E+00 0.  1.
         11   -1    0    0    0    0 -0.00000000000E+00 -0.00000000000E+00 -0.18250000000E+03  0.18250000000E+03  0.00000000000E+00 0. -1.
         23    2    1    2    0    0 -0.67202599044E+02 -0.47658638336E+02  0.13392396154E+03  0.18268755900E+03  0.93013878609E+02 0.  0.
         23    2    1    2    0    0  0.67202599044E+02  0.47658638336E+02 -0.13392396154E+03  0.18231244100E+03  0.92274934530E+02 0.  0.
        -11    1    3    3    0    0 -0.90205425247E+02 -0.45465490725E+02  0.10562891470E+03  0.14615607142E+03  0.00000000000E+00 0.  1.
         11    1    3    3    0    0  0.23002826203E+02 -0.21931476115E+01  0.28295046836E+02  0.36531487586E+02  0.00000000000E+00 0. -1.
        -15    1    4    4    0    0  0.32019125825E+02  0.66332827559E+02 -0.48970761880E+02  0.88467856754E+02  0.17770000000E+01 0. -1.
         15    1    4    4    0    0  0.35183473218E+02 -0.18674189223E+02 -0.84953199658E+02  0.93844584244E+02  0.17770000000E+01 0.  1.
</event>
<event>
 8    1  0.1807540E-005  0.1827235E+03  0.7546771E-02  0.1068277E+00
        -11   -1    0    0    0    0  0.00000000000E+00  0.00000000000E+00  0.18250000000E+03  0.18250000000E+03  0.00000000000E+00 0.  1.
         11   -1    0    0    0    0 -0.00000000000E+00 -0.00000000000E+00 -0.18250000000E+03  0.18250000000E+03  0.00000000000E+00 0. -1.
         23    2    1    2    0    0 -0.32725564031E+01  0.14177611318E+02 -0.15728126907E+03  0.18227645926E+03  0.90970301262E+02 0.  0.
         23    2    1    2    0    0  0.32725564031E+01 -0.14177611318E+02  0.15728126907E+03  0.18272354074E+03  0.91862835002E+02 0.  0.
        -11    1    3    3    0    0  0.37832247123E+02 -0.58470232730E+01 -0.35553580121E+02  0.52244843410E+02  0.00000000000E+00 0.  1.
         11    1    3    3    0    0 -0.41104803526E+02  0.20024634591E+02 -0.12172768895E+03  0.13003161585E+03  0.00000000000E+00 0. -1.
        -15    1    4    4    0    0  0.17045157274E+02 -0.39378956825E+02  0.14537062116E+03  0.15158171015E+03  0.17770000000E+01 0.  1.
         15    1    4    4    0    0 -0.13772600871E+02  0.25201345507E+02  0.11910647909E+02  0.31141830594E+02  0.17770000000E+01 0. -1.
</event>
<event>
 8    1  0.1807540E-005  0.1830326E+03  0.7546771E-02  0.1068032E+00
        -11   -1    0    0    0    0  0.00000000000E+00  0.00000000000E+00  0.18250000000E+03  0.18250000000E+03  0.00000000000E+00 0.  1.
         11   -1    0    0    0    0 -0.00000000000E+00 -0.00000000000E+00 -0.18250000000E+03  0.18250000000E+03  0.00000000000E+00 0. -1.
         23    2    1    2    0    0 -0.99411652516E+01 -0.21600218802E+02 -0.15623169293E+03  0.18196738003E+03  0.90213021778E+02 0.  0.
         23    2    1    2    0    0  0.99411652516E+01  0.21600218802E+02  0.15623169293E+03  0.18303261997E+03  0.92342849638E+02 0.  0.
        -11    1    3    3    0    0 -0.44654076102E+02  0.14420374220E+01 -0.46004356679E+02  0.64128517977E+02  0.00000000000E+00 0. -1.
         11    1    3    3    0    0  0.34712910851E+02 -0.23042256224E+02 -0.11022733625E+03  0.11783886205E+03  0.00000000000E+00 0.  1.
        -15    1    4    4    0    0  0.18286385830E+02 -0.92393685912E+01  0.14875867120E+03  0.15017342583E+03  0.17770000000E+01 0.  1.
         15    1    4    4    0    0 -0.83452205788E+01  0.30839587394E+02  0.74730217317E+01  0.32859194146E+02  0.17770000000E+01 0. -1.
</event>
<event>
 8    1  0.1807540E-005  0.1827379E+03  0.7546771E-02  0.1068266E+00
        -11   -1    0    0    0    0  0.00000000000E+00  0.00000000000E+00  0.18250000000E+03  0.18250000000E+03  0.00000000000E+00 0.  1.
         11   -1    0    0    0    0 -0.00000000000E+00 -0.00000000000E+00 -0.18250000000E+03  0.18250000000E+03  0.00000000000E+00 0. -1.
         23    2    1    2    0    0 -0.73820890972E+02 -0.10424011298E+03 -0.92639516978E+02  0.18273789055E+03  0.92171207210E+02 0.  0.
         23    2    1    2    0    0  0.73820890972E+02  0.10424011298E+03  0.92639516978E+02  0.18226210945E+03  0.91224291387E+02 0.  0.
        -11    1    3    3    0    0 -0.73362027002E+01 -0.30785043305E+02  0.16204672362E+02  0.35554608249E+02  0.00000000000E+00 0.  1.
         11    1    3    3    0    0 -0.66484688271E+02 -0.73455069672E+02 -0.10884418934E+03  0.14718328230E+03  0.00000000000E+00 0. -1.
        -15    1    4    4    0    0  0.89965564994E+01 -0.10906805870E+02  0.35561995378E+02  0.38310699385E+02  0.17770000000E+01 0. -1.
         15    1    4    4    0    0  0.64824334472E+02  0.11514691885E+03  0.57077521600E+02  0.14395141007E+03  0.17770000000E+01 0.  1.
</event>
<event>
 8    1  0.1807540E-005  0.1870342E+03  0.7546771E-02  0.1064902E+00
        -11   -1    0    0    0    0  0.00000000000E+00  0.00000000000E+00  0.18250000000E+03  0.18250000000E+03  0.00000000000E+00 0.  1.
         11   -1    0    0    0    0 -0.00000000000E+00 -0.00000000000E+00 -0.18250000000E+03  0.18250000000E+03  0.00000000000E+00 0. -1.
         23    2    1    2    0    0  0.21094020482E+02 -0.93884008417E+01 -0.16154667714E+03  0.17796577949E+03  0.71002746466E+02 0.  0.
         23    2    1    2    0    0 -0.21094020482E+02  0.93884008417E+01  0.16154667714E+03  0.18703422051E+03  0.91385835752E+02 0.  0.
        -11    1    3    3    0    0 -0.15420645495E+02  0.13295874957E+02 -0.15124640550E+02  0.25363977411E+02  0.00000000000E+00 0.  1.
         11    1    3    3    0    0  0.36514665978E+02 -0.22684275798E+02 -0.14642203659E+03  0.15260180208E+03  0.00000000000E+00 0. -1.
        -15    1    4    4    0    0  0.22660041072E+02 -0.14955869747E+02  0.12786316291E+02  0.30063318423E+02  0.17770000000E+01 0. -1.
         15    1    4    4    0    0 -0.43754061555E+02  0.24344270589E+02  0.14876036085E+03  0.15697090208E+03  0.17770000000E+01 0.  1.
</event>
<event>
 8    1  0.1807540E-005  0.1908067E+03  0.7546771E-02  0.1062028E+00
        -11   -1    0    0    0    0  0.00000000000E+00  0.00000000000E+00  0.18250000000E+03  0.18250000000E+03  0.00000000000E+00 0.  1.
         11   -1    0    0    0    0 -0.00000000000E+00 -0.00000000000E+00 -0.18250000000E+03  0.18250000000E+03  0.00000000000E+00 0.  1.
         23    2    1    2    0    0  0.20471959883E+02  0.17222813361E+01 -0.14774243408E+03  0.19080669883E+03  0.11898446157E+03 0.  0.
         23    2    1    2    0    0 -0.20471959883E+02 -0.17222813361E+01  0.14774243408E+03  0.17419330117E+03  0.89963392285E+02 0.  0.
        -11    1    3    3    0    0 -0.16052092329E+02  0.53492764150E+02 -0.54186266077E+02  0.77815788346E+02  0.00000000000E+00 0.  1.
         11    1    3    3    0    0  0.36524052211E+02 -0.51770482814E+02 -0.93556168000E+02  0.11299091048E+03  0.00000000000E+00 0.  1.
        -15    1    4    4    0    0  0.26659084601E+02 -0.63441563745E+01  0.11194039541E+02  0.29655005683E+02  0.17770000000E+01 0. -1.
         15    1    4    4    0    0 -0.47131044483E+02  0.46218750385E+01  0.13654839454E+03  0.14453829549E+03  0.17770000000E+01 0.  1.
</event>
<event>
 8    1  0.1807540E-005  0.1828498E+03  0.7546771E-02  0.1068177E+00
        -11   -1    0    0    0    0  0.00000000000E+00  0.00000000000E+00  0.18250000000E+03  0.18250000000E+03  0.00000000000E+00 0.  1.
         11   -1    0    0    0    0 -0.00000000000E+00 -0.00000000000E+00 -0.18250000000E+03  0.18250000000E+03  0.00000000000E+00 0. -1.
         23    2    1    2    0    0 -0.58724656695E+02 -0.62720779952E+02 -0.13299752646E+03  0.18215019774E+03  0.90043716876E+02 0.  0.
         23    2    1    2    0    0  0.58724656695E+02  0.62720779952E+02  0.13299752646E+03  0.18284980226E+03  0.91450678521E+02 0.  0.
        -11    1    3    3    0    0  0.39712901897E+01  0.11149943225E+02 -0.59159244326E+02  0.60331654784E+02  0.00000000000E+00 0.  1.
         11    1    3    3    0    0 -0.62695946884E+02 -0.73870723177E+02 -0.73838282134E+02  0.12181854295E+03  0.00000000000E+00 0. -1.
        -15    1    4    4    0    0  0.56370328258E+02 -0.59811187947E+01  0.60641248537E+02  0.83029551625E+02  0.17770000000E+01 0.  1.
         15    1    4    4    0    0  0.23543284368E+01  0.68701898747E+02  0.72356277924E+02  0.99820250640E+02  0.17770000000E+01 0. -1.
</event>
<event>
 8    1  0.1807540E-005  0.1826653E+03  0.7546771E-02  0.1068323E+00
        -11   -1    0    0    0    0  0.00000000000E+00  0.00000000000E+00  0.18250000000E+03  0.18250000000E+03  0.00000000000E+00 0.  1.
         11   -1    0    0    0    0 -0.00000000000E+00 -0.00000000000E+00 -0.18250000000E+03  0.18250000000E+03  0.00000000000E+00 0. -1.
         23    2    1    2    0    0  0.25520638798E+02  0.18415488894E+02 -0.15513004638E+03  0.18266527057E+03  0.91163789663E+02 0.  0.
         23    2    1    2    0    0 -0.25520638798E+02 -0.18415488894E+02  0.15513004638E+03  0.18233472943E+03  0.90499663160E+02 0.  0.
        -11    1    3    3    0    0 -0.32233390484E+02  0.94923661215E+00 -0.80343619028E+02  0.86573608165E+02  0.00000000000E+00 0. -1.
         11    1    3    3    0    0  0.57754029282E+02  0.17466252282E+02 -0.74786427351E+02  0.96091662401E+02  0.00000000000E+00 0.  1.
        -15    1    4    4    0    0 -0.11434464960E+02  0.26332643186E+02  0.12079514795E+03  0.12417238253E+03  0.17770000000E+01 0. -1.
         15    1    4    4    0    0 -0.14086173838E+02 -0.44748132081E+02  0.34334898430E+02  0.58162346903E+02  0.17770000000E+01 0.  1.
</event>
<event>
 8    1  0.1807540E-005  0.1831410E+03  0.7546771E-02  0.1067946E+00
        -11   -1    0    0    0    0  0.00000000000E+00  0.00000000000E+00  0.18250000000E+03  0.18250000000E+03  0.00000000000E+00 0.  1.
         11   -1    0    0    0    0 -0.00000000000E+00 -0.00000000000E+00 -0.18250000000E+03  0.18250000000E+03  0.00000000000E+00 0. -1.
         23    2    1    2    0    0 -0.36728708087E+02 -0.48068961577E+02 -0.14608425986E+03  0.18185900457E+03  0.89846889209E+02 0.  0.
         23    2    1    2    0    0  0.36728708087E+02  0.48068961577E+02  0.14608425986E+03  0.18314099543E+03  0.92414231378E+02 0.  0.
        -11    1    3    3    0    0 -0.38258500865E+02  0.89300185941E+01 -0.21357762675E+02  0.44717023011E+02  0.00000000000E+00 0.  1.
         11    1    3    3    0    0  0.15297927780E+01 -0.56998980171E+02 -0.12472649719E+03  0.13714198156E+03  0.00000000000E+00 0. -1.
        -15    1    4    4    0    0  0.32579901345E+02  0.10459917501E+02  0.14078338478E+03  0.14489299156E+03  0.17770000000E+01 0.  1.
         15    1    4    4    0    0  0.41488067417E+01  0.37609044076E+02  0.53008750833E+01  0.38248003861E+02  0.17770000000E+01 0. -1.
</event>
<event>
 8    1  0.1807540E-005  0.1845062E+03  0.7546771E-02  0.1066869E+00
        -11   -1    0    0    0    0  0.00000000000E+00  0.00000000000E+00  0.18250000000E+03  0.18250000000E+03  0.00000000000E+00 0. -1.
         11   -1    0    0    0    0 -0.00000000000E+00 -0.00000000000E+00 -0.18250000000E+03  0.18250000000E+03  0.00000000000E+00 0.  1.
         23    2    1    2    0    0 -0.73996210498E+02  0.34464607478E+02 -0.13243575497E+03  0.18450617634E+03  0.99197034101E+02 0.  0.
         23    2    1    2    0    0  0.73996210498E+02 -0.34464607478E+02  0.13243575497E+03  0.18049382366E+03  0.91517991940E+02 0.  0.
        -11    1    3    3    0    0 -0.46023316184E+02  0.54742005665E+02 -0.13179702027E+03  0.14995094988E+03  0.00000000000E+00 0.  1.
         11    1    3    3    0    0 -0.27972894313E+02 -0.20277398187E+02 -0.63873470021E+00  0.34555226457E+02  0.00000000000E+00 0. -1.
        -15    1    4    4    0    0  0.63811511149E+02 -0.66354465753E+01  0.13620443027E+03  0.15056806653E+03  0.17770000000E+01 0. -1.
         15    1    4    4    0    0  0.10184699348E+02 -0.27829160902E+02 -0.37686752931E+01  0.29925757130E+02  0.17770000000E+01 0.  1.
</event>
<event>
 8    1  0.1807540E-005  0.1842326E+03  0.7546771E-02  0.1067084E+00
        -11   -1    0    0    0    0  0.00000000000E+00  0.00000000000E+00  0.18250000000E+03  0.18250000000E+03  0.00000000000E+00 0.  1.
         11   -1    0    0    0    0 -0.00000000000E+00 -0.00000000000E+00 -0.18250000000E+03  0.18250000000E+03  0.00000000000E+00 0.  1.
         23    2    1    2    0    0  0.12210416393E+02  0.42817893657E+02 -0.14788333198E+03  0.18423257846E+03  0.10044748281E+03 0.  0.
         23    2    1    2    0    0 -0.12210416393E+02 -0.42817893657E+02  0.14788333198E+03  0.18076742154E+03  0.93941016223E+02 0.  0.
        -11    1    3    3    0    0 -0.29727691241E+02  0.38142708328E+01 -0.51144723726E+01  0.30404639714E+02  0.00000000000E+00 0.  1.
         11    1    3    3    0    0  0.41938107634E+02  0.39003622825E+02 -0.14276885960E+03  0.15382793874E+03  0.00000000000E+00 0.  1.
        -15    1    4    4    0    0 -0.62556858560E+01 -0.56818658530E+02  0.15399792978E+03  0.16427420269E+03  0.17770000000E+01 0.  1.
         15    1    4    4    0    0 -0.59547305371E+01  0.14000764872E+02 -0.61145978076E+01  0.16493218853E+02  0.17770000000E+01 0. -1.
</event>
<event>
 8    1  0.1807540E-005  0.1854221E+03  0.7546771E-02  0.1066152E+00
        -11   -1    0    0    0    0  0.00000000000E+00  0.00000000000E+00  0.18250000000E+03  0.18250000000E+03  0.00000000000E+00 0. -1.
         11   -1    0    0    0    0 -0.00000000000E+00 -0.00000000000E+00 -0.18250000000E+03  0.18250000000E+03  0.00000000000E+00 0.  1.
         23    2    1    2    0    0  0.13098387085E+02  0.13289121173E+02 -0.16159118421E+03  0.17957794644E+03  0.76081269358E+02 0.  0.
         23    2    1    2    0    0 -0.13098387085E+02 -0.13289121173E+02  0.16159118421E+03  0.18542205356E+03  0.89002576640E+02 0.  0.
        -11    1    3    3    0    0 -0.76908184432E+01  0.58088582037E+01 -0.15663964803E+03  0.15693588136E+03  0.00000000000E+00 0.  1.
         11    1    3    3    0    0  0.20789205528E+02  0.74802629689E+01 -0.49515361759E+01  0.22642065080E+02  0.00000000000E+00 0. -1.
        -15    1    4    4    0    0  0.84998388314E+00  0.94355883014E+01 -0.87375059943E+01  0.13009786286E+02  0.17770000000E+01 0.  1.
         15    1    4    4    0    0 -0.13948370968E+02 -0.22724709474E+02  0.17032869020E+03  0.17241226728E+03  0.17770000000E+01 0. -1.
</event>
<event>
 8    1  0.1807540E-005  0.1827490E+03  0.7546771E-02  0.1068257E+00
        -11   -1    0    0    0    0  0.00000000000E+00  0.00000000000E+00  0.18250000000E+03  0.18250000000E+03  0.00000000000E+00 0. -1.
         11   -1    0    0    0    0 -0.00000000000E+00 -0.00000000000E+00 -0.18250000000E+03  0.18250000000E+03  0.00000000000E+00 0.  1.
         23    2    1    2    0    0  0.13966925901E+03  0.68022092783E+02  0.29899881077E+02  0.18274898867E+03  0.91480505858E+02 0.  0.
         23    2    1    2    0    0 -0.13966925901E+03 -0.68022092783E+02 -0.29899881077E+02  0.18225101133E+03  0.90481607097E+02 0.  0.
        -11    1    3    3    0    0  0.55893287306E+02  0.70261021802E+02 -0.92368730004E+01  0.90255141534E+02  0.00000000000E+00 0.  1.
         11    1    3    3    0    0  0.83775971706E+02 -0.22389290184E+01  0.39136754077E+02  0.92493847136E+02  0.00000000000E+00 0. -1.
        -15    1    4    4    0    0 -0.65210866884E+02  0.16276968061E+02 -0.13439307510E+02  0.68565075398E+02  0.17770000000E+01 0.  1.
         15    1    4    4    0    0 -0.74458392128E+02 -0.84299060844E+02 -0.16460573567E+02  0.11368593593E+03  0.17770000000E+01 0. -1.
</event>
<event>
 8    1  0.1807540E-005  0.1826522E+03  0.7546771E-02  0.1068334E+00
        -11   -1    0    0    0    0  0.00000000000E+00  0.00000000000E+00  0.18250000000E+03  0.18250000000E+03  0.00000000000E+00 0.  1.
         11   -1    0    0    0    0 -0.00000000000E+00 -0.00000000000E+00 -0.18250000000E+03  0.18250000000E+03  0.00000000000E+00 0. -1.
         23    2    1    2    0    0 -0.13250641543E+03 -0.26350258388E+02 -0.82774795195E+02  0.18234780171E+03  0.90259447262E+02 0.  0.
         23    2    1    2    0    0  0.13250641543E+03  0.26350258388E+02  0.82774795195E+02  0.18265219829E+03  0.90872837375E+02 0.  0.
        -11    1    3    3    0    0 -0.51749809511E+02 -0.20281880771E+02  0.12839437073E+02  0.57046021915E+02  0.00000000000E+00 0.  1.
         11    1    3    3    0    0 -0.80756605923E+02 -0.60683776171E+01 -0.95614232268E+02  0.12530177979E+03  0.00000000000E+00 0. -1.
        -15    1    4    4    0    0 -0.94627935578E+00  0.21360238901E+02 -0.60045946322E+01  0.22279320820E+02  0.17770000000E+01 0. -1.
         15    1    4    4    0    0  0.13345269479E+03  0.49900194876E+01  0.88779389828E+02  0.16037287747E+03  0.17770000000E+01 0.  1.
</event>
<event>
 8    1  0.1807540E-005  0.1831268E+03  0.7546771E-02  0.1067957E+00
        -11   -1    0    0    0    0  0.00000000000E+00  0.00000000000E+00  0.18250000000E+03  0.18250000000E+03  0.00000000000E+00 0.  1.
         11   -1    0    0    0    0 -0.00000000000E+00 -0.00000000000E+00 -0.18250000000E+03  0.18250000000E+03  0.00000000000E+00 0. -1.
         23    2    1    2    0    0 -0.51422969536E+01  0.78761756241E+01 -0.15751639940E+03  0.18312684491E+03  0.92927648671E+02 0.  0.
         23    2    1    2    0    0  0.51422969536E+01 -0.78761756241E+01  0.15751639940E+03  0.18187315509E+03  0.90432024766E+02 0.  0.
        -11    1    3    3    0    0 -0.30070304321E+02 -0.21003819922E+02 -0.22974610242E+02  0.43280669693E+02  0.00000000000E+00 0.  1.
         11    1    3    3    0    0  0.24928007367E+02  0.28879995546E+02 -0.13454178915E+03  0.13984617522E+03  0.00000000000E+00 0. -1.
        -15    1    4    4    0    0 -0.31395039993E+02 -0.33738423946E+02  0.79771950704E+02  0.92144731996E+02  0.17770000000E+01 0.  1.
         15    1    4    4    0    0  0.36537336947E+02  0.25862248322E+02  0.77744448692E+02  0.89728423094E+02  0.17770000000E+01 0. -1.
</event>
<event>
 8    1  0.1807540E-005  0.1830185E+03  0.7546771E-02  0.1068043E+00
        -11   -1    0    0    0    0  0.00000000000E+00  0.00000000000E+00  0.18250000000E+03  0.18250000000E+03  0.00000000000E+00 0.  1.
         11   -1    0    0    0    0 -0.00000000000E+00 -0.00000000000E+00 -0.18250000000E+03  0.18250000000E+03  0.00000000000E+00 0. -1.
         23    2    1    2    0    0 -0.21632705370E+00  0.36675772116E+02 -0.15307470596E+03  0.18301849889E+03  0.93374227024E+02 0.  0.
         23    2    1    2    0    0  0.21632705370E+00 -0.36675772116E+02  0.15307470596E+03  0.18198150111E+03  0.91324925861E+02 0.  0.
        -11    1    3    3    0    0  0.27061702294E+02  0.48017866868E+01 -0.13425221860E+03  0.13703667789E+03  0.00000000000E+00 0. -1.
         11    1    3    3    0    0 -0.27278029348E+02  0.31873985429E+02 -0.18822487358E+02  0.45981821001E+02  0.00000000000E+00 0.  1.
        -15    1    4    4    0    0  0.13707280913E+02 -0.64172642711E+02  0.85714343164E+02  0.10796353077E+03  0.17770000000E+01 0.  1.
         15    1    4    4    0    0 -0.13490953860E+02  0.27496870595E+02  0.67360362799E+02  0.74017970345E+02  0.17770000000E+01 0. -1.
</event>
<event>
 8    1  0.1807540E-005  0.1839439E+03  0.7546771E-02  0.1067311E+00
        -11   -1    0    0    0    0  0.00000000000E+00  0.00000000000E+00  0.18250000000E+03  0.18250000000E+03  0.00000000000E+00 0. -1.
         11   -1    0    0    0    0 -0.00000000000E+00 -0.00000000000E+00 -0.18250000000E+03  0.18250000000E+03  0.00000000000E+00 0.  1.
         23    2    1    2    0    0 -0.14660631369E+01 -0.15753130416E+02 -0.15782687524E+03  0.18105612339E+03  0.87302272655E+02 0.  0.
         23    2    1    2    0    0  0.14660631369E+01  0.15753130416E+02  0.15782687524E+03  0.18394387661E+03  0.93143527601E+02 0.  0.
        -11    1    3    3    0    0  0.37230258705E+01 -0.24517033174E+02 -0.16609602435E+03  0.16793699754E+03  0.00000000000E+00 0.  1.
         11    1    3    3    0    0 -0.51890890074E+01  0.87639027575E+01  0.82691491074E+01  0.13119125856E+02  0.00000000000E+00 0. -1.
        -15    1    4    4    0    0  0.46273386014E+01 -0.31487441475E+02  0.18665803476E+02  0.36938342973E+02  0.17770000000E+01 0.  1.
         15    1    4    4    0    0 -0.31612754646E+01  0.47240571892E+02  0.13916107177E+03  0.14700553363E+03  0.17770000000E+01 0. -1.
</event>
<event>
 8    1  0.1807540E-005  0.1829131E+03  0.7546771E-02  0.1068126E+00
        -11   -1    0    0    0    0  0.00000000000E+00  0.00000000000E+00  0.18250000000E+03  0.18250000000E+03  0.00000000000E+00 0.  1.
         11   -1    0    0    0    0 -0.00000000000E+00 -0.00000000000E+00 -0.18250000000E+03  0.18250000000E+03  0.00000000000E+00 0. -1.
         23    2    1    2    0    0 -0.35510896674E+02 -0.40907934146E+02 -0.14865118857E+03  0.18291312230E+03  0.91790803404E+02 0.  0.
         23    2    1    2    0    0  0.35510896674E+02  0.40907934146E+02  0.14865118857E+03  0.18208687770E+03  0.90133081105E+02 0.  0.
        -11    1    3    3    0    0 -0.32623991814E+02 -0.67509207420E+02 -0.13073994685E+03  0.15071413879E+03  0.00000000000E+00 0. -1.
         11    1    3    3    0    0 -0.28869048599E+01  0.26601273274E+02 -0.17911241714E+02  0.32198983512E+02  0.00000000000E+00 0.  1.
        -15    1    4    4    0    0  0.63246251143E+01  0.65292938943E+02  0.10812938967E+03  0.12648435239E+03  0.17770000000E+01 0.  1.
         15    1    4    4    0    0  0.29186271560E+02 -0.24385004797E+02  0.40521798891E+02  0.55602525311E+02  0.17770000000E+01 0. -1.
</event>
<event>
 8    1  0.1807540E-005  0.1832398E+03  0.7546771E-02  0.1067867E+00
        -11   -1    0    0    0    0  0.00000000000E+00  0.00000000000E+00  0.18250000000E+03  0.18250000000E+03  0.00000000000E+00 0. -1.
         11   -1    0    0    0    0 -0.00000000000E+00 -0.00000000000E+00 -0.18250000000E+03  0.18250000000E+03  0.00000000000E+00 0.  1.
         23    2    1    2    0    0  0.43161491366E+02  0.46098991596E+02 -0.14563079329E+03  0.18323984129E+03  0.91544962277E+02 0.  0.
         23    2    1    2    0    0 -0.43161491366E+02 -0.46098991596E+02  0.14563079329E+03  0.18176015871E+03  0.88546010496E+02 0.  0.
        -11    1    3    3    0    0  0.68172742512E+02  0.36046537796E+02 -0.13237914719E+03  0.15320285350E+03  0.00000000000E+00 0.  1.
         11    1    3    3    0    0 -0.25011251147E+02  0.10052453799E+02 -0.13251646102E+02  0.30036987794E+02  0.00000000000E+00 0. -1.
        -15    1    4    4    0    0 -0.40851826285E+02 -0.13192748697E+02  0.12725657196E+02  0.44810940730E+02  0.17770000000E+01 0.  1.
         15    1    4    4    0    0 -0.23096650807E+01 -0.32906242899E+02  0.13290513610E+03  0.13694921798E+03  0.17770000000E+01 0. -1.
</event>
<event>
 8    1  0.1807540E-005  0.1825940E+03  0.7546771E-02  0.1068380E+00
        -11   -1    0    0    0    0  0.00000000000E+00  0.00000000000E+00  0.18250000000E+03  0.18250000000E+03  0.00000000000E+00 0.  1.
         11   -1    0    0    0    0 -0.00000000000E+00 -0.00000000000E+00 -0.18250000000E+03  0.18250000000E+03  0.00000000000E+00 0. -1.
         23    2    1    2    0    0  0.15873949822E+00 -0.41280754409E+02  0.15239458772E+03  0.18240603699E+03  0.91343998608E+02 0.  0.
         23    2    1    2    0    0 -0.15873949822E+00  0.41280754409E+02 -0.15239458772E+03  0.18259396301E+03  0.91718695343E+02 0.  0.
        -11    1    3    3    0    0  0.85908592301E+01  0.15336411500E+02 -0.20473492092E+01  0.17697457976E+02  0.00000000000E+00 0. -1.
         11    1    3    3    0    0 -0.84321197319E+01 -0.56617165909E+02  0.15444193693E+03  0.16470857902E+03  0.00000000000E+00 0.  1.
        -15    1    4    4    0    0  0.13321335990E+02  0.32542590505E+02 -0.16063760896E+03  0.16445083561E+03  0.17770000000E+01 0. -1.
         15    1    4    4    0    0 -0.13480075489E+02  0.87381639040E+01  0.82430212400E+01  0.18143127397E+02  0.17770000000E+01 0.  1.
</event>
<event>
 8    1  0.1807540E-005  0.1829509E+03  0.7546771E-02  0.1068096E+00
        -11   -1    0    0    0    0  0.00000000000E+00  0.00000000000E+00  0.18250000000E+03  0.18250000000E+03  0.00000000000E+00 0.  1.
         11   -1    0    0    0    0 -0.00000000000E+00 -0.00000000000E+00 -0.18250000000E+03  0.18250000000E+03  0.00000000000E+00 0. -1.
         23    2    1    2    0    0 -0.11771574572E+02 -0.13375164132E+03 -0.82347069879E+02  0.18295085637E+03  0.93069352654E+02 0.  0.
         23    2    1    2    0    0  0.11771574572E+02  0.13375164132E+03  0.82347069879E+02  0.18204914363E+03  0.91284058060E+02 0.  0.
        -11    1    3    3    0    0  0.39710532786E+02 -0.77645512924E+02 -0.45117774129E+02  0.98190455920E+02  0.00000000000E+00 0.  1.
         11    1    3    3    0    0 -0.51482107358E+02 -0.56106128398E+02 -0.37229295750E+02  0.84760400446E+02  0.00000000000E+00 0. -1.
        -15    1    4    4    0    0 -0.72625927132E+01 -0.10573643276E+02  0.19657389318E+02  0.23539708342E+02  0.17770000000E+01 0.  1.
         15    1    4    4    0    0  0.19034167285E+02  0.14432528460E+03  0.62689680561E+02  0.15850943529E+03  0.17770000000E+01 0. -1.
</event>
<event>
 8    1  0.1807540E-005  0.1825618E+03  0.7546771E-02  0.1068406E+00
        -11   -1    0    0    0    0  0.00000000000E+00  0.00000000000E+00  0.18250000000E+03  0.18250000000E+03  0.00000000000E+00 0.  1.
         11   -1    0    0    0    0 -0.00000000000E+00 -0.00000000000E+00 -0.18250000000E+03  0.18250000000E+03  0.00000000000E+00 0. -1.
         23    2    1    2    0    0 -0.86333380917E+02  0.13671727994E+02 -0.13162873153E+03  0.18256175889E+03  0.91445634318E+02 0.  0.
         23    2    1    2    0    0  0.86333380917E+02 -0.13671727994E+02  0.13162873153E+03  0.18243824111E+03  0.91198794123E+02 0.  0.
        -11    1    3    3    0    0  0.26297282544E+01 -0.69017546797E+01 -0.74471540608E+02  0.74836889626E+02  0.00000000000E+00 0.  1.
         11    1    3    3    0    0 -0.88963109171E+02  0.20573482674E+02 -0.57157190924E+02  0.10772486926E+03  0.00000000000E+00 0. -1.
        -15    1    4    4    0    0  0.60080546218E+02 -0.72918856339E+01  0.14126930600E+03  0.15369781448E+03  0.17770000000E+01 0.  1.
         15    1    4    4    0    0  0.26252834699E+02 -0.63798423600E+01 -0.96405744638E+01  0.28740426636E+02  0.17770000000E+01 0. -1.
</event>
<event>
 8    1  0.1807540E-005  0.1827551E+03  0.7546771E-02  0.1068252E+00
        -11   -1    0    0    0    0  0.00000000000E+00  0.00000000000E+00  0.18250000000E+03  0.18250000000E+03  0.00000000000E+00 0.  1.
         11   -1    0    0    0    0 -0.00000000000E+00 -0.00000000000E+00 -0.18250000000E+03  0.18250000000E+03  0.00000000000E+00 0. -1.
         23    2    1    2    0    0 -0.73586553496E+01 -0.60954348593E+02  0.14595401760E+03  0.18224488548E+03  0.90227715300E+02 0.  0.
         23    2    1    2    0    0  0.73586553496E+01  0.60954348593E+02 -0.14595401760E+03  0.18275511452E+03  0.91253899688E+02 0.  0.
        -11    1    3    3    0    0 -0.19591156372E+02 -0.71305446831E+02  0.61196540725E+02  0.95985919553E+02  0.00000000000E+00 0.  1.
         11    1    3    3    0    0  0.12232501023E+02  0.10351098238E+02  0.84757476878E+02  0.86258965926E+02  0.00000000000E+00 0. -1.
        -15    1    4    4    0    0  0.85713794006E+01 -0.11493272444E+02 -0.90100854044E+02  0.91251769763E+02  0.17770000000E+01 0. -1.
         15    1    4    4    0    0 -0.12127240510E+01  0.72447621037E+02 -0.55853163558E+02  0.91503344758E+02  0.17770000000E+01 0.  1.
</event>
<event>
 8    1  0.1807540E-005  0.1832334E+03  0.7546771E-02  0.1067872E+00
        -11   -1    0    0    0    0  0.00000000000E+00  0.00000000000E+00  0.18250000000E+03  0.18250000000E+03  0.00000000000E+00 0. -1.
         11   -1    0    0    0    0 -0.00000000000E+00 -0.00000000000E+00 -0.18250000000E+03  0.18250000000E+03  0.00000000000E+00 0.  1.
         23    2    1    2    0    0  0.17371936484E+02 -0.39346939213E+02 -0.15307720668E+03  0.18176656473E+03  0.88070920542E+02 0.  0.
         23    2    1    2    0    0 -0.17371936484E+02  0.39346939213E+02  0.15307720668E+03  0.18323343527E+03  0.91059841820E+02 0.  0.
        -11    1    3    3    0    0 -0.13056934679E+02 -0.22403909159E+02 -0.14325095065E+03  0.14557902854E+03  0.00000000000E+00 0.  1.
         11    1    3    3    0    0  0.30428871163E+02 -0.16943030055E+02 -0.98262560315E+01  0.36187536187E+02  0.00000000000E+00 0. -1.
        -15    1    4    4    0    0 -0.31538805548E+02 -0.15319114142E+02  0.24560930209E+02  0.42845869524E+02  0.17770000000E+01 0.  1.
         15    1    4    4    0    0  0.14166869063E+02  0.54666053356E+02  0.12851627647E+03  0.14038756575E+03  0.17770000000E+01 0. -1.
</event>
<event>
 8    1  0.1807540E-005  0.1842204E+03  0.7546771E-02  0.1067094E+00
        -11   -1    0    0    0    0  0.00000000000E+00  0.00000000000E+00  0.18250000000E+03  0.18250000000E+03  0.00000000000E+00 0. -1.
         11   -1    0    0    0    0 -0.00000000000E+00 -0.00000000000E+00 -0.18250000000E+03  0.18250000000E+03  0.00000000000E+00 0.  1.
         23    2    1    2    0    0  0.37441608041E+02 -0.10174623912E+03 -0.11642323274E+03  0.18422039569E+03  0.92890332546E+02 0.  0.
         23    2    1    2    0    0 -0.37441608041E+02  0.10174623912E+03  0.11642323274E+03  0.18077960431E+03  0.85864573747E+02 0.  0.
        -11    1    3    3    0    0 -0.12220386025E+02 -0.75562503953E+01  0.11049977194E+02  0.18125582767E+02  0.00000000000E+00 0. -1.
         11    1    3    3    0    0  0.49661994067E+02 -0.94189988725E+02 -0.12747320993E+03  0.16609481293E+03  0.00000000000E+00 0.  1.
        -15    1    4    4    0    0 -0.42251478968E+02  0.11265340447E+02  0.59124142134E+02  0.73558937475E+02  0.17770000000E+01 0.  1.
         15    1    4    4    0    0  0.48098709269E+01  0.90480898673E+02  0.57299090603E+02  0.10722066683E+03  0.17770000000E+01 0. -1.
</event>
<event>
 8    1  0.1807540E-005  0.1830489E+03  0.7546771E-02  0.1068019E+00
        -11   -1    0    0    0    0  0.00000000000E+00  0.00000000000E+00  0.18250000000E+03  0.18250000000E+03  0.00000000000E+00 0.  1.
         11   -1    0    0    0    0 -0.00000000000E+00 -0.00000000000E+00 -0.18250000000E+03  0.18250000000E+03  0.00000000000E+00 0. -1.
         23    2    1    2    0    0 -0.76656598243E+02 -0.13700841014E+03 -0.14932615055E+02  0.18304887259E+03  0.92932062616E+02 0.  0.
         23    2    1    2    0    0  0.76656598243E+02  0.13700841014E+03  0.14932615055E+02  0.18195112741E+03  0.90750709465E+02 0.  0.
        -11    1    3    3    0    0 -0.36842357788E+02 -0.17983167388E+01 -0.20093900055E+02  0.42004262758E+02  0.00000000000E+00 0. -1.
         11    1    3    3    0    0 -0.39814240456E+02 -0.13521009340E+03  0.51612850004E+01  0.14104460984E+03  0.00000000000E+00 0.  1.
        -15    1    4    4    0    0  0.54957155117E+02  0.51376737606E+02  0.46109455141E+02  0.88255864666E+02  0.17770000000E+01 0.  1.
         15    1    4    4    0    0  0.21699443126E+02  0.85631672535E+02 -0.31176840086E+02  0.93695262740E+02  0.17770000000E+01 0. -1.
</event>
<event>
 8    1  0.1807540E-005  0.1825821E+03  0.7546771E-02  0.1068389E+00
        -11   -1    0    0    0    0  0.00000000000E+00  0.00000000000E+00  0.18250000000E+03  0.18250000000E+03  0.00000000000E+00 0.  1.
         11   -1    0    0    0    0 -0.00000000000E+00 -0.00000000000E+00 -0.18250000000E+03  0.18250000000E+03  0.00000000000E+00 0. -1.
         23    2    1    2    0    0  0.50140686867E+01 -0.41925177777E+02  0.15207914053E+03  0.18258210680E+03  0.91789429250E+02 0.  0.
         23    2    1    2    0    0 -0.50140686867E+01  0.41925177777E+02 -0.15207914053E+03  0.18241789320E+03  0.91462349414E+02 0.  0.
        -11    1    3    3    0    0 -0.11538613483E+02 -0.43863751475E+02  0.15839408397E+03  0.16475998948E+03  0.00000000000E+00 0.  1.
         11    1    3    3    0    0  0.16552682170E+02  0.19385736980E+01 -0.63149434461E+01  0.17822117319E+02  0.00000000000E+00 0. -1.
        -15    1    4    4    0    0  0.29866891240E+02  0.43398815955E+02 -0.13192632317E+03  0.14206759269E+03  0.17770000000E+01 0.  1.
         15    1    4    4    0    0 -0.34880959926E+02 -0.14736381782E+01 -0.20152817355E+02  0.40350300509E+02  0.17770000000E+01 0. -1.
</event>
<event>
 8    1  0.1807540E-005  0.1826843E+03  0.7546771E-02  0.1068308E+00
        -11   -1    0    0    0    0  0.00000000000E+00  0.00000000000E+00  0.18250000000E+03  0.18250000000E+03  0.00000000000E+00 0.  1.
         11   -1    0    0    0    0 -0.00000000000E+00 -0.00000000000E+00 -0.18250000000E+03  0.18250000000E+03  0.00000000000E+00 0. -1.
         23    2    1    2    0    0  0.47331183614E+02 -0.57766633243E+02 -0.13945728119E+03  0.18268427344E+03  0.91367311586E+02 0.  0.
         23    2    1    2    0    0 -0.47331183614E+02  0.57766633243E+02  0.13945728119E+03  0.18231572656E+03  0.90628174500E+02 0.  0.
        -11    1    3    3    0    0  0.59020047089E+02 -0.34133898448E+02 -0.14063727317E+03  0.15629245531E+03  0.00000000000E+00 0.  1.
         11    1    3    3    0    0 -0.11688863475E+02 -0.23632734795E+02  0.11799919781E+01  0.26391818131E+02  0.00000000000E+00 0. -1.
        -15    1    4    4    0    0 -0.26357386255E+02  0.64339415995E+02  0.14389493532E+03  0.15982234638E+03  0.17770000000E+01 0.  1.
         15    1    4    4    0    0 -0.20973797360E+02 -0.65727827522E+01 -0.44376541279E+01  0.22493380181E+02  0.17770000000E+01 0. -1.
</event>
<event>
 7    1  0.1807540E-005  0.1709202E+03  0.7546771E-02  0.1078065E+00
        -11   -1    0    0    0    0  0.00000000000E+00  0.00000000000E+00  0.18250000000E+03  0.18250000000E+03  0.00000000000E+00 0.  1.
         11   -1    0    0    0    0 -0.00000000000E+00 -0.00000000000E+00 -0.18250000000E+03  0.18250000000E+03  0.00000000000E+00 0.  1.
         23    2    1    2    0    0  0.91251567318E+01  0.11308591428E+03  0.66871279428E+02  0.17153210797E+03  0.10990815965E+03 0.  0.
        -11    1    1    2    0    0 -0.57421778749E+02 -0.57538044302E+01  0.77650626733E+00  0.57714555374E+02  0.00000000000E+00 0.  1.
         11    1    1    2    0    0  0.48296622017E+02 -0.10733210985E+03 -0.67647785696E+02  0.13575333665E+03  0.00000000000E+00 0.  1.
        -15    1    3    3    0    0  0.53641496560E+02  0.94315897952E+02  0.36747957425E+02  0.11457080284E+03  0.17770000000E+01 0.  1.
         15    1    3    3    0    0 -0.44516339828E+02  0.18770016329E+02  0.30123322003E+02  0.56961305131E+02  0.17770000000E+01 0. -1.
</event>
<event>
 8    1  0.1807540E-005  0.1825787E+03  0.7546771E-02  0.1068392E+00
        -11   -1    0    0    0    0  0.00000000000E+00  0.00000000000E+00  0.18250000000E+03  0.18250000000E+03  0.00000000000E+00 0. -1.
         11   -1    0    0    0    0 -0.00000000000E+00 -0.00000000000E+00 -0.18250000000E+03  0.18250000000E+03  0.00000000000E+00 0.  1.
         23    2    1    2    0    0  0.21879427362E+02  0.29468600160E+02 -0.15371051742E+03  0.18242132717E+03  0.91123595748E+02 0.  0.
         23    2    1    2    0    0 -0.21879427362E+02 -0.29468600160E+02  0.15371051742E+03  0.18257867283E+03  0.91438180586E+02 0.  0.
        -11    1    3    3    0    0  0.13402882584E+02 -0.10900502757E+02  0.53609310602E+01  0.18088609779E+02  0.00000000000E+00 0. -1.
         11    1    3    3    0    0  0.84765447780E+01  0.40369102916E+02 -0.15907144848E+03  0.16433271739E+03  0.00000000000E+00 0.  1.
        -15    1    4    4    0    0  0.33415340760E+02 -0.31411599031E+01  0.79712490904E+02  0.86508328032E+02  0.17770000000E+01 0.  1.
         15    1    4    4    0    0 -0.55294768121E+02 -0.26327440256E+02  0.73998026520E+02  0.96070344800E+02  0.17770000000E+01 0. -1.
</event>
<event>
 8    1  0.1807540E-005  0.1839910E+03  0.7546771E-02  0.1067274E+00
        -11   -1    0    0    0    0  0.00000000000E+00  0.00000000000E+00  0.18250000000E+03  0.18250000000E+03  0.00000000000E+00 0.  1.
         11   -1    0    0    0    0 -0.00000000000E+00 -0.00000000000E+00 -0.18250000000E+03  0.18250000000E+03  0.00000000000E+00 0. -1.
         23    2    1    2    0    0 -0.15262283701E+02  0.55992042493E+02 -0.14785364114E+03  0.18100895007E+03  0.86807227127E+02 0.  0.
         23    2    1    2    0    0  0.15262283701E+02 -0.55992042493E+02  0.14785364114E+03  0.18399104993E+03  0.92865284837E+02 0.  0.
        -11    1    3    3    0    0  0.73832346568E+01  0.59255636721E+02 -0.14636932087E+03  0.15808137376E+03  0.00000000000E+00 0. -1.
         11    1    3    3    0    0 -0.22645518358E+02 -0.32635942280E+01 -0.14843202700E+01  0.22927576314E+02  0.00000000000E+00 0.  1.
        -15    1    4    4    0    0  0.89941110973E+01 -0.17892334088E+02 -0.93018258616E+01  0.22152005483E+02  0.17770000000E+01 0. -1.
         15    1    4    4    0    0  0.62681726035E+01 -0.38099708405E+02  0.15715546700E+03  0.16183904444E+03  0.17770000000E+01 0.  1.
</event>
<event>
 8    1  0.1807540E-005  0.1831164E+03  0.7546771E-02  0.1067965E+00
        -11   -1    0    0    0    0  0.00000000000E+00  0.00000000000E+00  0.18250000000E+03  0.18250000000E+03  0.00000000000E+00 0.  1.
         11   -1    0    0    0    0 -0.00000000000E+00 -0.00000000000E+00 -0.18250000000E+03  0.18250000000E+03  0.00000000000E+00 0. -1.
         23    2    1    2    0    0  0.98095451086E+02  0.13216461304E+02 -0.12332839299E+03  0.18311635439E+03  0.92327213523E+02 0.  0.
         23    2    1    2    0    0 -0.98095451086E+02 -0.13216461304E+02  0.12332839299E+03  0.18188364561E+03  0.89857529728E+02 0.  0.
        -11    1    3    3    0    0  0.86694963245E+02 -0.29090308363E+02 -0.80113453660E+02  0.12157478419E+03  0.00000000000E+00 0. -1.
         11    1    3    3    0    0  0.11400487841E+02  0.42306769667E+02 -0.43214939327E+02  0.61541570208E+02  0.00000000000E+00 0.  1.
        -15    1    4    4    0    0 -0.36158665303E+02 -0.12683680818E+02 -0.56680294539E+01  0.38776399040E+02  0.17770000000E+01 0. -1.
         15    1    4    4    0    0 -0.61936785783E+02 -0.53278048588E+00  0.12899642244E+03  0.14310724657E+03  0.17770000000E+01 0.  1.
</event>
<event>
 8    1  0.1807540E-005  0.1835500E+03  0.7546771E-02  0.1067622E+00
        -11   -1    0    0    0    0  0.00000000000E+00  0.00000000000E+00  0.18250000000E+03  0.18250000000E+03  0.00000000000E+00 0. -1.
         11   -1    0    0    0    0 -0.00000000000E+00 -0.00000000000E+00 -0.18250000000E+03  0.18250000000E+03  0.00000000000E+00 0. -1.
         23    2    1    2    0    0  0.25751646721E+02 -0.29796995716E+02 -0.15126659229E+03  0.18355001005E+03  0.96218584404E+02 0.  0.
         23    2    1    2    0    0 -0.25751646721E+02  0.29796995716E+02  0.15126659229E+03  0.18144998995E+03  0.92149382245E+02 0.  0.
        -11    1    3    3    0    0  0.56112174842E+02 -0.39389884056E+02 -0.12373105770E+03  0.14145498849E+03  0.00000000000E+00 0. -1.
         11    1    3    3    0    0 -0.30360528121E+02  0.95928883399E+01 -0.27535534591E+02  0.42095021555E+02  0.00000000000E+00 0. -1.
        -15    1    4    4    0    0 -0.28466509298E+02  0.41173117252E+02  0.27540155633E+02  0.57159300531E+02  0.17770000000E+01 0.  1.
         15    1    4    4    0    0  0.27148625776E+01 -0.11376121536E+02  0.12372643665E+03  0.12429068942E+03  0.17770000000E+01 0. -1.
</event>
<event>
 8    1  0.1807540E-005  0.1826897E+03  0.7546771E-02  0.1068304E+00
        -11   -1    0    0    0    0  0.00000000000E+00  0.00000000000E+00  0.18250000000E+03  0.18250000000E+03  0.00000000000E+00 0.  1.
         11   -1    0    0    0    0 -0.00000000000E+00 -0.00000000000E+00 -0.18250000000E+03  0.18250000000E+03  0.00000000000E+00 0. -1.
         23    2    1    2    0    0  0.64873369254E+02  0.11669178499E+03 -0.84394716831E+02  0.18268974235E+03  0.91801672132E+02 0.  0.
         23    2    1    2    0    0 -0.64873369254E+02 -0.11669178499E+03  0.84394716831E+02  0.18231025765E+03  0.91044138165E+02 0.  0.
        -11    1    3    3    0    0 -0.56268505119E+01  0.83246120017E+02 -0.51187594466E+02  0.97886402385E+02  0.00000000000E+00 0. -1.
         11    1    3    3    0    0  0.70500219766E+02  0.33445664974E+02 -0.33207122365E+02  0.84803339960E+02  0.00000000000E+00 0.  1.
        -15    1    4    4    0    0 -0.23611967801E+02 -0.69149771542E+02  0.93501438137E+02  0.11867979015E+03  0.17770000000E+01 0.  1.
         15    1    4    4    0    0 -0.41261401454E+02 -0.47542013450E+02 -0.91067213058E+01  0.63630467504E+02  0.17770000000E+01 0. -1.
</event>
<event>
 8    1  0.1807540E-005  0.1834085E+03  0.7546771E-02  0.1067734E+00
        -11   -1    0    0    0    0  0.00000000000E+00  0.00000000000E+00  0.18250000000E+03  0.18250000000E+03  0.00000000000E+00 0.  1.
         11   -1    0    0    0    0 -0.00000000000E+00 -0.00000000000E+00 -0.18250000000E+03  0.18250000000E+03  0.00000000000E+00 0. -1.
         23    2    1    2    0    0 -0.37406690687E+02  0.60701687929E+02 -0.14071883046E+03  0.18159146108E+03  0.89942837776E+02 0.  0.
         23    2    1    2    0    0  0.37406690687E+02 -0.60701687929E+02  0.14071883046E+03  0.18340853892E+03  0.93557188266E+02 0.  0.
        -11    1    3    3    0    0 -0.23027658821E+02 -0.20170539207E+02 -0.54496441909E+02  0.62505886950E+02  0.00000000000E+00 0.  1.
         11    1    3    3    0    0 -0.14379031866E+02  0.80872227136E+02 -0.86222388550E+02  0.11908557413E+03  0.00000000000E+00 0. -1.
        -15    1    4    4    0    0 -0.95253683336E+01 -0.66342693957E+02  0.10304069698E+03  0.12293343177E+03  0.17770000000E+01 0.  1.
         15    1    4    4    0    0  0.46932059021E+02  0.56410060279E+01  0.37678133474E+02  0.60475107144E+02  0.17770000000E+01 0. -1.
</event>
<event>
 8    1  0.1807540E-005  0.1827589E+03  0.7546771E-02  0.1068249E+00
        -11   -1    0    0    0    0  0.00000000000E+00  0.00000000000E+00  0.18250000000E+03  0.18250000000E+03  0.00000000000E+00 0.  1.
         11   -1    0    0    0    0 -0.00000000000E+00 -0.00000000000E+00 -0.18250000000E+03  0.18250000000E+03  0.00000000000E+00 0. -1.
         23    2    1    2    0    0 -0.11478542213E+03  0.10532018907E+03 -0.24391522230E+02  0.18275894604E+03  0.92400490485E+02 0.  0.
         23    2    1    2    0    0  0.11478542213E+03 -0.10532018907E+03  0.24391522230E+02  0.18224105396E+03  0.91371877686E+02 0.  0.
        -11    1    3    3    0    0 -0.81608968193E+02  0.27956691007E+02  0.18587439052E+02  0.88244507773E+02  0.00000000000E+00 0.  1.
         11    1    3    3    0    0 -0.33176453940E+02  0.77363498060E+02 -0.42978961283E+02  0.94514438268E+02  0.00000000000E+00 0. -1.
        -15    1    4    4    0    0  0.11349218662E+03 -0.49308374159E+02  0.24654331118E+02  0.12618552198E+03  0.17770000000E+01 0.  1.
         15    1    4    4    0    0  0.12932355100E+01 -0.56011814909E+02 -0.26280888782E+00  0.56055531975E+02  0.17770000000E+01 0. -1.
</event>
<event>
 8    1  0.1807540E-005  0.1825453E+03  0.7546771E-02  0.1068419E+00
        -11   -1    0    0    0    0  0.00000000000E+00  0.00000000000E+00  0.18250000000E+03  0.18250000000E+03  0.00000000000E+00 0.  1.
         11   -1    0    0    0    0 -0.00000000000E+00 -0.00000000000E+00 -0.18250000000E+03  0.18250000000E+03  0.00000000000E+00 0. -1.
         23    2    1    2    0    0 -0.18266349023E+02  0.51250824709E+02 -0.14933374608E+03  0.18254534045E+03  0.89788234543E+02 0.  0.
         23    2    1    2    0    0  0.18266349023E+02 -0.51250824709E+02  0.14933374608E+03  0.18245465955E+03  0.89603730580E+02 0.  0.
        -11    1    3    3    0    0 -0.38668212863E+02  0.23692775764E+01 -0.21808779790E+02  0.44457474491E+02  0.00000000000E+00 0.  1.
         11    1    3    3    0    0  0.20401863840E+02  0.48881547133E+02 -0.12752496629E+03  0.13808786596E+03  0.00000000000E+00 0. -1.
        -15    1    4    4    0    0  0.10235487190E+02 -0.52312759336E+02  0.16016574298E+03  0.16881236015E+03  0.17770000000E+01 0.  1.
         15    1    4    4    0    0  0.80308618334E+01  0.10619346271E+01 -0.10831996902E+02  0.13642299396E+02  0.17770000000E+01 0. -1.
</event>
<event>
 8    1  0.1807540E-005  0.1827724E+03  0.7546771E-02  0.1068238E+00
        -11   -1    0    0    0    0  0.00000000000E+00  0.00000000000E+00  0.18250000000E+03  0.18250000000E+03  0.00000000000E+00 0.  1.
         11   -1    0    0    0    0 -0.00000000000E+00 -0.00000000000E+00 -0.18250000000E+03  0.18250000000E+03  0.00000000000E+00 0. -1.
         23    2    1    2    0    0 -0.30744445384E+02  0.27102564630E+01  0.15565379775E+03  0.18277237252E+03  0.90692166085E+02 0.  0.
         23    2    1    2    0    0  0.30744445384E+02 -0.27102564630E+01 -0.15565379775E+03  0.18222762748E+03  0.89589268611E+02 0.  0.
        -11    1    3    3    0    0 -0.46592969518E+02  0.18534691011E+02  0.37763488506E+02  0.62773566440E+02  0.00000000000E+00 0.  1.
         11    1    3    3    0    0  0.15848524134E+02 -0.15824434549E+02  0.11789030925E+03  0.11999880608E+03  0.00000000000E+00 0. -1.
        -15    1    4    4    0    0  0.85898002324E+01 -0.45486517714E+02 -0.69994472800E+02  0.83935641496E+02  0.17770000000E+01 0.  1.
         15    1    4    4    0    0  0.22154645151E+02  0.42776261251E+02 -0.85659324953E+02  0.98291985985E+02  0.17770000000E+01 0. -1.
</event>
<event>
 8    1  0.1807540E-005  0.1875441E+03  0.7546771E-02  0.1064509E+00
        -11   -1    0    0    0    0  0.00000000000E+00  0.00000000000E+00  0.18250000000E+03  0.18250000000E+03  0.00000000000E+00 0.  1.
         11   -1    0    0    0    0 -0.00000000000E+00 -0.00000000000E+00 -0.18250000000E+03  0.18250000000E+03  0.00000000000E+00 0. -1.
         23    2    1    2    0    0 -0.12679219157E+03  0.64437059557E+02 -0.51923165692E+02  0.17745587489E+03  0.92553648825E+02 0.  0.
         23    2    1    2    0    0  0.12679219157E+03 -0.64437059557E+02  0.51923165692E+02  0.18754412511E+03  0.11067244120E+03 0.  0.
        -11    1    3    3    0    0  0.10500440358E+02  0.22346823318E+02 -0.16031039601E+02  0.29438647910E+02  0.00000000000E+00 0.  1.
         11    1    3    3    0    0 -0.13729263192E+03  0.42090236240E+02 -0.35892126092E+02  0.14801722698E+03  0.00000000000E+00 0. -1.
        -15    1    4    4    0    0  0.81985528393E+02 -0.95091754722E+02  0.31020815585E+02  0.12934263570E+03  0.17770000000E+01 0.  1.
         15    1    4    4    0    0  0.44806663172E+02  0.30654695165E+02  0.20902350108E+02  0.58201489408E+02  0.17770000000E+01 0. -1.
</event>
<event>
 8    1  0.1807540E-005  0.1826059E+03  0.7546771E-02  0.1068371E+00
        -11   -1    0    0    0    0  0.00000000000E+00  0.00000000000E+00  0.18250000000E+03  0.18250000000E+03  0.00000000000E+00 0.  1.
         11   -1    0    0    0    0 -0.00000000000E+00 -0.00000000000E+00 -0.18250000000E+03  0.18250000000E+03  0.00000000000E+00 0. -1.
         23    2    1    2    0    0 -0.10532786199E+03 -0.60007878792E+02 -0.10203688656E+03  0.18239413400E+03  0.90339304125E+02 0.  0.
         23    2    1    2    0    0  0.10532786199E+03  0.60007878792E+02  0.10203688656E+03  0.18260586600E+03  0.90766029158E+02 0.  0.
        -11    1    3    3    0    0 -0.58471656301E+02 -0.48193686962E+01 -0.92267934019E+02  0.10934135793E+03  0.00000000000E+00 0. -1.
         11    1    3    3    0    0 -0.46856205691E+02 -0.55188510096E+02 -0.97689525438E+01  0.73052776074E+02  0.00000000000E+00 0.  1.
        -15    1    4    4    0    0  0.53990453556E+02  0.78136554009E+02  0.78644287008E+02  0.12332222734E+03  0.17770000000E+01 0.  1.
         15    1    4    4    0    0  0.51337408435E+02 -0.18128675217E+02  0.23392599554E+02  0.59283638661E+02  0.17770000000E+01 0. -1.
</event>
<event>
 8    1  0.1807540E-005  0.1826229E+03  0.7546771E-02  0.1068357E+00
        -11   -1    0    0    0    0  0.00000000000E+00  0.00000000000E+00  0.18250000000E+03  0.18250000000E+03  0.00000000000E+00 0. -1.
         11   -1    0    0    0    0 -0.00000000000E+00 -0.00000000000E+00 -0.18250000000E+03  0.18250000000E+03  0.00000000000E+00 0.  1.
         23    2    1    2    0    0 -0.20362773260E+02 -0.72390632067E+02  0.13936280845E+03  0.18237714471E+03  0.90467587495E+02 0.  0.
         23    2    1    2    0    0  0.20362773260E+02  0.72390632067E+02 -0.13936280845E+03  0.18262285529E+03  0.90961908247E+02 0.  0.
        -11    1    3    3    0    0  0.51590144141E+01 -0.46948591130E+01 -0.12413957898E+02  0.14239504293E+02  0.00000000000E+00 0.  1.
         11    1    3    3    0    0 -0.25521787674E+02 -0.67695772954E+02  0.15177676634E+03  0.16813764041E+03  0.00000000000E+00 0. -1.
        -15    1    4    4    0    0 -0.48039209472E+01  0.25731450226E+02 -0.12492413980E+03  0.12764945601E+03  0.17770000000E+01 0. -1.
         15    1    4    4    0    0  0.25166694207E+02  0.46659181842E+02 -0.14438668651E+02  0.54973399284E+02  0.17770000000E+01 0.  1.
</event>
<event>
 8    1  0.1807540E-005  0.1838909E+03  0.7546771E-02  0.1067353E+00
        -11   -1    0    0    0    0  0.00000000000E+00  0.00000000000E+00  0.18250000000E+03  0.18250000000E+03  0.00000000000E+00 0.  1.
         11   -1    0    0    0    0 -0.00000000000E+00 -0.00000000000E+00 -0.18250000000E+03  0.18250000000E+03  0.00000000000E+00 0. -1.
         23    2    1    2    0    0  0.11607307207E+03 -0.10495763415E+03 -0.72789598552E+01  0.18389091542E+03  0.96300687896E+02 0.  0.
         23    2    1    2    0    0 -0.11607307207E+03  0.10495763415E+03  0.72789598552E+01  0.18110908458E+03  0.90876037740E+02 0.  0.
        -11    1    3    3    0    0  0.33398832716E+02  0.16954008949E+01 -0.32474448217E+02  0.46614870997E+02  0.00000000000E+00 0. -1.
         11    1    3    3    0    0  0.82674239353E+02 -0.10665303505E+03  0.25195488362E+02  0.13727604442E+03  0.00000000000E+00 0.  1.
        -15    1    4    4    0    0 -0.10741205861E+02 -0.15912101424E+02 -0.60850412295E+01  0.20217663832E+02  0.17770000000E+01 0.  1.
         15    1    4    4    0    0 -0.10533186621E+03  0.12086973558E+03  0.13364001085E+02  0.16089142075E+03  0.17770000000E+01 0. -1.
</event>
<event>
 8    1  0.1807540E-005  0.1828034E+03  0.7546771E-02  0.1068214E+00
        -11   -1    0    0    0    0  0.00000000000E+00  0.00000000000E+00  0.18250000000E+03  0.18250000000E+03  0.00000000000E+00 0.  1.
         11   -1    0    0    0    0 -0.00000000000E+00 -0.00000000000E+00 -0.18250000000E+03  0.18250000000E+03  0.00000000000E+00 0. -1.
         23    2    1    2    0    0  0.56832139171E+01  0.36459644900E+02 -0.15390431416E+03  0.18219658799E+03  0.90263249054E+02 0.  0.
         23    2    1    2    0    0 -0.56832139171E+01 -0.36459644900E+02  0.15390431416E+03  0.18280341201E+03  0.91481937558E+02 0.  0.
        -11    1    3    3    0    0 -0.19637929064E+02  0.31814244718E+02 -0.15183449069E+03  0.15636977645E+03  0.00000000000E+00 0. -1.
         11    1    3    3    0    0  0.25321142981E+02  0.46454001818E+01 -0.20698234703E+01  0.25826811532E+02  0.00000000000E+00 0.  1.
        -15    1    4    4    0    0 -0.35486277524E+02 -0.17363352615E+02  0.13871989084E+03  0.14424675993E+03  0.17770000000E+01 0.  1.
         15    1    4    4    0    0  0.29803063607E+02 -0.19096292285E+02  0.15184423325E+02  0.38556652086E+02  0.17770000000E+01 0. -1.
</event>
<event>
 8    1  0.1807540E-005  0.1825610E+03  0.7546771E-02  0.1068406E+00
        -11   -1    0    0    0    0  0.00000000000E+00  0.00000000000E+00  0.18250000000E+03  0.18250000000E+03  0.00000000000E+00 0.  1.
         11   -1    0    0    0    0 -0.00000000000E+00 -0.00000000000E+00 -0.18250000000E+03  0.18250000000E+03  0.00000000000E+00 0. -1.
         23    2    1    2    0    0 -0.36878414010E+01  0.71926422452E+02 -0.14182366384E+03  0.18243899029E+03  0.89347765128E+02 0.  0.
         23    2    1    2    0    0  0.36878414010E+01 -0.71926422452E+02  0.14182366384E+03  0.18256100971E+03  0.89596652941E+02 0.  0.
        -11    1    3    3    0    0  0.21304730595E+02 -0.13217089134E+02 -0.22137227690E+02  0.33446073621E+02  0.00000000000E+00 0.  1.
         11    1    3    3    0    0 -0.24992571996E+02  0.85143511586E+02 -0.11968643615E+03  0.14899291667E+03  0.00000000000E+00 0. -1.
        -15    1    4    4    0    0  0.13809068303E+02 -0.52216457312E+02  0.14956108870E+03  0.15902492183E+03  0.17770000000E+01 0.  1.
         15    1    4    4    0    0 -0.10121226903E+02 -0.19709965141E+02 -0.77374248599E+01  0.23536087872E+02  0.17770000000E+01 0. -1.
</event>
<event>
 8    1  0.1807540E-005  0.1910091E+03  0.7546771E-02  0.1061876E+00
        -11   -1    0    0    0    0  0.00000000000E+00  0.00000000000E+00  0.18250000000E+03  0.18250000000E+03  0.00000000000E+00 0.  1.
         11   -1    0    0    0    0 -0.00000000000E+00 -0.00000000000E+00 -0.18250000000E+03  0.18250000000E+03  0.00000000000E+00 0.  1.
         23    2    1    2    0    0  0.95117015245E+02 -0.86918681515E+02 -0.77202045337E+02  0.17399086183E+03  0.87809796781E+02 0.  0.
         23    2    1    2    0    0 -0.95117015245E+02  0.86918681515E+02  0.77202045337E+02  0.19100913817E+03  0.11799250516E+03 0.  0.
        -11    1    3    3    0    0  0.41560065674E+01  0.12345019317E+02  0.73982420619E+01  0.14980182847E+02  0.00000000000E+00 0.  1.
         11    1    3    3    0    0  0.90961008677E+02 -0.99263700832E+02 -0.84600287399E+02  0.15901067898E+03  0.00000000000E+00 0.  1.
        -15    1    4    4    0    0 -0.59893482272E+02  0.10874787043E+03  0.82678574978E+02  0.14917182385E+03  0.17770000000E+01 0.  1.
         15    1    4    4    0    0 -0.35223532973E+02 -0.21829188913E+02 -0.54765296407E+01  0.41837314321E+02  0.17770000000E+01 0. -1.
</event>
<event>
 8    1  0.1807540E-005  0.1830874E+03  0.7546771E-02  0.1067988E+00
        -11   -1    0    0    0    0  0.00000000000E+00  0.00000000000E+00  0.18250000000E+03  0.18250000000E+03  0.00000000000E+00 0.  1.
         11   -1    0    0    0    0 -0.00000000000E+00 -0.00000000000E+00 -0.18250000000E+03  0.18250000000E+03  0.00000000000E+00 0. -1.
         23    2    1    2    0    0 -0.51063484494E+02 -0.40172875490E+02 -0.14423504752E+03  0.18308743234E+03  0.92173312699E+02 0.  0.
         23    2    1    2    0    0  0.51063484494E+02  0.40172875490E+02  0.14423504752E+03  0.18191256766E+03  0.89817002665E+02 0.  0.
        -11    1    3    3    0    0 -0.19536531416E+02 -0.44245183350E+02 -0.15959262668E+02  0.50931428160E+02  0.00000000000E+00 0.  1.
         11    1    3    3    0    0 -0.31526953077E+02  0.40723078603E+01 -0.12827578485E+03  0.13215600418E+03  0.00000000000E+00 0. -1.
        -15    1    4    4    0    0  0.26258997422E+02 -0.18804211355E+02  0.11112066011E+02  0.34201886649E+02  0.17770000000E+01 0. -1.
         15    1    4    4    0    0  0.24804487071E+02  0.58977086845E+02  0.13312298151E+03  0.14771068101E+03  0.17770000000E+01 0.  1.
</event>
<event>
 8    1  0.1807540E-005  0.1836750E+03  0.7546771E-02  0.1067523E+00
        -11   -1    0    0    0    0  0.00000000000E+00  0.00000000000E+00  0.18250000000E+03  0.18250000000E+03  0.00000000000E+00 0. -1.
         11   -1    0    0    0    0 -0.00000000000E+00 -0.00000000000E+00 -0.18250000000E+03  0.18250000000E+03  0.00000000000E+00 0.  1.
         23    2    1    2    0    0  0.23903555332E+02 -0.22674257884E+02 -0.15424153238E+03  0.18132503538E+03  0.89458460839E+02 0.  0.
         23    2    1    2    0    0 -0.23903555332E+02  0.22674257884E+02  0.15424153238E+03  0.18367496462E+03  0.94130443485E+02 0.  0.
        -11    1    3    3    0    0  0.52348502836E+02 -0.10977907839E-01 -0.12186339615E+03  0.13263126777E+03  0.00000000000E+00 0.  1.
         11    1    3    3    0    0 -0.28444947504E+02 -0.22663279976E+02 -0.32378136227E+02  0.48693767603E+02  0.00000000000E+00 0. -1.
        -15    1    4    4    0    0  0.14433665900E+01 -0.33573217690E+02  0.30596584417E+02  0.45481347387E+02  0.17770000000E+01 0. -1.
         15    1    4    4    0    0 -0.25346921922E+02  0.56247475574E+02  0.12364494796E+03  0.13819361724E+03  0.17770000000E+01 0.  1.
</event>
<event>
 8    1  0.1807540E-005  0.1826762E+03  0.7546771E-02  0.1068315E+00
        -11   -1    0    0    0    0  0.00000000000E+00  0.00000000000E+00  0.18250000000E+03  0.18250000000E+03  0.00000000000E+00 0.  1.
         11   -1    0    0    0    0 -0.00000000000E+00 -0.00000000000E+00 -0.18250000000E+03  0.18250000000E+03  0.00000000000E+00 0. -1.
         23    2    1    2    0    0 -0.30744360988E+02 -0.91894232416E+02 -0.12641332426E+03  0.18232378705E+03  0.88723554308E+02 0.  0.
         23    2    1    2    0    0  0.30744360988E+02  0.91894232416E+02  0.12641332426E+03  0.18267621295E+03  0.89445539529E+02 0.  0.
        -11    1    3    3    0    0  0.11708528737E+02 -0.85987502428E+02 -0.70116082858E+02  0.11156704394E+03  0.00000000000E+00 0.  1.
         11    1    3    3    0    0 -0.42452889725E+02 -0.59067299886E+01 -0.56297241407E+02  0.70756743108E+02  0.00000000000E+00 0. -1.
        -15    1    4    4    0    0  0.30142905277E+02  0.15320773748E+02  0.93253080935E+02  0.99209957563E+02  0.17770000000E+01 0.  1.
         15    1    4    4    0    0  0.60145571173E+00  0.76573458669E+02  0.33160243330E+02  0.83466255386E+02  0.17770000000E+01 0. -1.
</event>
<event>
 8    1  0.1807540E-005  0.1829127E+03  0.7546771E-02  0.1068127E+00
        -11   -1    0    0    0    0  0.00000000000E+00  0.00000000000E+00  0.18250000000E+03  0.18250000000E+03  0.00000000000E+00 0.  1.
         11   -1    0    0    0    0 -0.00000000000E+00 -0.00000000000E+00 -0.18250000000E+03  0.18250000000E+03  0.00000000000E+00 0. -1.
         23    2    1    2    0    0  0.62168015897E+02 -0.84454188912E+02  0.11842714113E+03  0.18208728940E+03  0.90185480987E+02 0.  0.
         23    2    1    2    0    0 -0.62168015897E+02  0.84454188912E+02 -0.11842714113E+03  0.18291271060E+03  0.91840621274E+02 0.  0.
        -11    1    3    3    0    0 -0.17521950414E+01 -0.57130914175E+02  0.90781314435E+02  0.10727655192E+03  0.00000000000E+00 0.  1.
         11    1    3    3    0    0  0.63920210939E+02 -0.27323274737E+02  0.27645826695E+02  0.74810737481E+02  0.00000000000E+00 0. -1.
        -15    1    4    4    0    0 -0.77708317809E+01 -0.36579174302E+01  0.12939016307E+02  0.15631444542E+02  0.17770000000E+01 0.  1.
         15    1    4    4    0    0 -0.54397184116E+02  0.88112106343E+02 -0.13136615744E+03  0.16728126605E+03  0.17770000000E+01 0. -1.
</event>
<event>
 8    1  0.1807540E-005  0.1830041E+03  0.7546771E-02  0.1068054E+00
        -11   -1    0    0    0    0  0.00000000000E+00  0.00000000000E+00  0.18250000000E+03  0.18250000000E+03  0.00000000000E+00 0.  1.
         11   -1    0    0    0    0 -0.00000000000E+00 -0.00000000000E+00 -0.18250000000E+03  0.18250000000E+03  0.00000000000E+00 0. -1.
         23    2    1    2    0    0  0.11741263961E+03 -0.54662384999E+02 -0.90652601554E+02  0.18199593963E+03  0.90171634124E+02 0.  0.
         23    2    1    2    0    0 -0.11741263961E+03  0.54662384999E+02  0.90652601554E+02  0.18300406037E+03  0.92189411920E+02 0.  0.
        -11    1    3    3    0    0  0.11814295537E+03 -0.32404342294E+02 -0.99709196458E+02  0.15795481367E+03  0.00000000000E+00 0. -1.
         11    1    3    3    0    0 -0.73031576573E+00 -0.22258042705E+02  0.90565949040E+01  0.24041125960E+02  0.00000000000E+00 0.  1.
        -15    1    4    4    0    0 -0.19621484700E+02 -0.11540834911E+02 -0.12642578139E+02  0.26099541055E+02  0.17770000000E+01 0. -1.
         15    1    4    4    0    0 -0.97791154905E+02  0.66203219910E+02  0.10329517969E+03  0.15690451931E+03  0.17770000000E+01 0.  1.
</event>
<event>
 8    1  0.1807540E-005  0.1836785E+03  0.7546771E-02  0.1067521E+00
        -11   -1    0    0    0    0  0.00000000000E+00  0.00000000000E+00  0.18250000000E+03  0.18250000000E+03  0.00000000000E+00 0.  1.
         11   -1    0    0    0    0 -0.00000000000E+00 -0.00000000000E+00 -0.18250000000E+03  0.18250000000E+03  0.00000000000E+00 0. -1.
         23    2    1    2    0    0 -0.31852180700E+02 -0.13494519988E+03 -0.78573157135E+02  0.18132148686E+03  0.86481051044E+02 0.  0.
         23    2    1    2    0    0  0.31852180700E+02  0.13494519988E+03  0.78573157135E+02  0.18367851314E+03  0.91319695468E+02 0.  0.
        -11    1    3    3    0    0 -0.51622488490E+02 -0.58073338270E+02 -0.13895752644E+02  0.78933426869E+02  0.00000000000E+00 0. -1.
         11    1    3    3    0    0  0.19770307790E+02 -0.76871861611E+02 -0.64677404491E+02  0.10238805999E+03  0.00000000000E+00 0.  1.
        -15    1    4    4    0    0  0.80535643435E+01 -0.12050603497E+02 -0.13532288791E+01  0.14665125321E+02  0.17770000000E+01 0. -1.
         15    1    4    4    0    0  0.23798616356E+02  0.14699580338E+03  0.79926386014E+02  0.16901338782E+03  0.17770000000E+01 0.  1.
</event>
<event>
 8    1  0.1807540E-005  0.1836143E+03  0.7546771E-02  0.1067571E+00
        -11   -1    0    0    0    0  0.00000000000E+00  0.00000000000E+00  0.18250000000E+03  0.18250000000E+03  0.00000000000E+00 0.  1.
         11   -1    0    0    0    0 -0.00000000000E+00 -0.00000000000E+00 -0.18250000000E+03  0.18250000000E+03  0.00000000000E+00 0. -1.
         23    2    1    2    0    0  0.60943720392E+02 -0.86180867435E+02  0.11843763392E+03  0.18138569322E+03  0.87931891873E+02 0.  0.
         23    2    1    2    0    0 -0.60943720392E+02  0.86180867435E+02 -0.11843763392E+03  0.18361430678E+03  0.92441665707E+02 0.  0.
        -11    1    3    3    0    0  0.41280481380E+02 -0.11438306216E+02  0.36317295624E+01  0.42989562125E+02  0.00000000000E+00 0. -1.
         11    1    3    3    0    0  0.19663239012E+02 -0.74742561219E+02  0.11480590436E+03  0.13839613109E+03  0.00000000000E+00 0.  1.
        -15    1    4    4    0    0 -0.29659111226E+02 -0.11079235167E+02 -0.71044174283E+01  0.32496812253E+02  0.17770000000E+01 0.  1.
         15    1    4    4    0    0 -0.31284609167E+02  0.97260102602E+02 -0.11133321649E+03  0.15111749453E+03  0.17770000000E+01 0. -1.
</event>
<event>
 8    1  0.1807540E-005  0.1856920E+03  0.7546771E-02  0.1065942E+00
        -11   -1    0    0    0    0  0.00000000000E+00  0.00000000000E+00  0.18250000000E+03  0.18250000000E+03  0.00000000000E+00 0. -1.
         11   -1    0    0    0    0 -0.00000000000E+00 -0.00000000000E+00 -0.18250000000E+03  0.18250000000E+03  0.00000000000E+00 0.  1.
         23    2    1    2    0    0  0.87787412613E+02  0.52002592363E+02  0.12062899528E+03  0.17930798278E+03  0.84788553232E+02 0.  0.
         23    2    1    2    0    0 -0.87787412613E+02 -0.52002592363E+02 -0.12062899528E+03  0.18569201722E+03  0.97566753202E+02 0.  0.
        -11    1    3    3    0    0  0.35032873129E+02 -0.16289339113E+02  0.68061880860E+02  0.78262790613E+02  0.00000000000E+00 0.  1.
         11    1    3    3    0    0  0.52754539484E+02  0.68291931476E+02  0.52567114425E+02  0.10104519217E+03  0.00000000000E+00 0. -1.
        -15    1    4    4    0    0 -0.27540151052E+02  0.20499579432E+02 -0.71592244951E+02  0.79418511337E+02  0.17770000000E+01 0. -1.
         15    1    4    4    0    0 -0.60247261561E+02 -0.72502171795E+02 -0.49036750334E+02  0.10627350588E+03  0.17770000000E+01 0.  1.
</event>
<event>
 8    1  0.1807540E-005  0.1829936E+03  0.7546771E-02  0.1068063E+00
        -11   -1    0    0    0    0  0.00000000000E+00  0.00000000000E+00  0.18250000000E+03  0.18250000000E+03  0.00000000000E+00 0.  1.
         11   -1    0    0    0    0 -0.00000000000E+00 -0.00000000000E+00 -0.18250000000E+03  0.18250000000E+03  0.00000000000E+00 0. -1.
         23    2    1    2    0    0 -0.76280686171E+01  0.56179552786E+02 -0.14522613551E+03  0.18200638391E+03  0.93922115432E+02 0.  0.
         23    2    1    2    0    0  0.76280686171E+01 -0.56179552786E+02  0.14522613551E+03  0.18299361609E+03  0.95821205953E+02 0.  0.
        -11    1    3    3    0    0  0.34649063883E+02  0.52478364025E+01 -0.19966963585E+02  0.40333324307E+02  0.00000000000E+00 0.  1.
         11    1    3    3    0    0 -0.42277132500E+02  0.50931716383E+02 -0.12525917193E+03  0.14167305961E+03  0.00000000000E+00 0. -1.
        -15    1    4    4    0    0  0.44186796879E+02 -0.27149776763E+02  0.11804010999E+03  0.12894265661E+03  0.17770000000E+01 0.  1.
         15    1    4    4    0    0 -0.36558728261E+02 -0.29029776023E+02  0.27186025519E+02  0.54050959478E+02  0.17770000000E+01 0. -1.
</event>
<event>
 8    1  0.1807540E-005  0.1854499E+03  0.7546771E-02  0.1066131E+00
        -11   -1    0    0    0    0  0.00000000000E+00  0.00000000000E+00  0.18250000000E+03  0.18250000000E+03  0.00000000000E+00 0.  1.
         11   -1    0    0    0    0 -0.00000000000E+00 -0.00000000000E+00 -0.18250000000E+03  0.18250000000E+03  0.00000000000E+00 0. -1.
         23    2    1    2    0    0 -0.30543220665E+02  0.11879827314E+03 -0.94212500670E+02  0.17955011769E+03  0.91193922220E+02 0.  0.
         23    2    1    2    0    0  0.30543220665E+02 -0.11879827314E+03  0.94212500670E+02  0.18544988231E+03  0.10232177450E+03 0.  0.
        -11    1    3    3    0    0 -0.24357444778E+02  0.74241390893E+02 -0.10726927835E+03  0.13270933394E+03  0.00000000000E+00 0. -1.
         11    1    3    3    0    0 -0.61857758864E+01  0.44556882249E+02  0.13056777676E+02  0.46840783750E+02  0.00000000000E+00 0.  1.
        -15    1    4    4    0    0  0.37736538197E+02 -0.12448172117E+03  0.48566131755E+02  0.13885810060E+03  0.17770000000E+01 0.  1.
         15    1    4    4    0    0 -0.71933175328E+01  0.56834480277E+01  0.45646368915E+02  0.46591781708E+02  0.17770000000E+01 0. -1.
</event>
<event>
 8    1  0.1807540E-005  0.1836246E+03  0.7546771E-02  0.1067563E+00
        -11   -1    0    0    0    0  0.00000000000E+00  0.00000000000E+00  0.18250000000E+03  0.18250000000E+03  0.00000000000E+00 0.  1.
         11   -1    0    0    0    0 -0.00000000000E+00 -0.00000000000E+00 -0.18250000000E+03  0.18250000000E+03  0.00000000000E+00 0. -1.
         23    2    1    2    0    0 -0.24066652123E+02  0.10762236860E+03  0.11236473612E+03  0.18362463572E+03  0.94500766933E+02 0.  0.
         23    2    1    2    0    0  0.24066652123E+02 -0.10762236860E+03 -0.11236473612E+03  0.18137536428E+03  0.90052267473E+02 0.  0.
        -11    1    3    3    0    0 -0.52702874774E+02  0.88311241568E+02  0.10745516234E+03  0.14873829470E+03  0.00000000000E+00 0.  1.
         11    1    3    3    0    0  0.28636222650E+02  0.19311127036E+02  0.49095737835E+01  0.34886341021E+02  0.00000000000E+00 0. -1.
        -15    1    4    4    0    0 -0.27575645862E+02 -0.78103497511E+02 -0.66860199417E+02  0.10646133835E+03  0.17770000000E+01 0.  1.
         15    1    4    4    0    0  0.51642297986E+02 -0.29518871093E+02 -0.45504536703E+02  0.74914025932E+02  0.17770000000E+01 0. -1.
</event>
<event>
 8    1  0.1807540E-005  0.1829185E+03  0.7546771E-02  0.1068122E+00
        -11   -1    0    0    0    0  0.00000000000E+00  0.00000000000E+00  0.18250000000E+03  0.18250000000E+03  0.00000000000E+00 0. -1.
         11   -1    0    0    0    0 -0.00000000000E+00 -0.00000000000E+00 -0.18250000000E+03  0.18250000000E+03  0.00000000000E+00 0.  1.
         23    2    1    2    0    0 -0.63973361800E+02  0.15873709230E+02 -0.14454867258E+03  0.18208145152E+03  0.88964996379E+02 0.  0.
         23    2    1    2    0    0  0.63973361800E+02 -0.15873709230E+02  0.14454867258E+03  0.18291854848E+03  0.90665930585E+02 0.  0.
        -11    1    3    3    0    0 -0.56829893795E+02  0.33175644638E+02 -0.14896215888E+03  0.16284957784E+03  0.00000000000E+00 0.  1.
         11    1    3    3    0    0 -0.71434680058E+01 -0.17301935409E+02  0.44134863001E+01  0.19231873683E+02  0.00000000000E+00 0. -1.
        -15    1    4    4    0    0  0.53910690722E+00  0.18940804677E+01 -0.12408254614E+02  0.12688604677E+02  0.17770000000E+01 0.  1.
         15    1    4    4    0    0  0.63434254893E+02 -0.17767789697E+02  0.15695692719E+03  0.17022994380E+03  0.17770000000E+01 0. -1.
</event>
<event>
 8    1  0.1807540E-005  0.1829383E+03  0.7546771E-02  0.1068106E+00
        -11   -1    0    0    0    0  0.00000000000E+00  0.00000000000E+00  0.18250000000E+03  0.18250000000E+03  0.00000000000E+00 0.  1.
         11   -1    0    0    0    0 -0.00000000000E+00 -0.00000000000E+00 -0.18250000000E+03  0.18250000000E+03  0.00000000000E+00 0. -1.
         23    2    1    2    0    0 -0.10223411567E+03 -0.80068530891E+02 -0.91183841621E+02  0.18293826551E+03  0.91044670173E+02 0.  0.
         23    2    1    2    0    0  0.10223411567E+03  0.80068530891E+02  0.91183841621E+02  0.18206173449E+03  0.89270365453E+02 0.  0.
        -11    1    3    3    0    0 -0.17635363799E+01 -0.18858990068E+02  0.15229314683E+02  0.24304394513E+02  0.00000000000E+00 0.  1.
         11    1    3    3    0    0 -0.10047057929E+03 -0.61209540823E+02 -0.10641315630E+03  0.15863387099E+03  0.00000000000E+00 0. -1.
        -15    1    4    4    0    0  0.73790376960E+02  0.98133447317E+02  0.79821984150E+02  0.14645784409E+03  0.17770000000E+01 0.  1.
         15    1    4    4    0    0  0.28443738713E+02 -0.18064916426E+02  0.11361857471E+02  0.35603890401E+02  0.17770000000E+01 0. -1.
</event>
<event>
 8    1  0.1807540E-005  0.1846629E+03  0.7546771E-02  0.1066746E+00
        -11   -1    0    0    0    0  0.00000000000E+00  0.00000000000E+00  0.18250000000E+03  0.18250000000E+03  0.00000000000E+00 0.  1.
         11   -1    0    0    0    0 -0.00000000000E+00 -0.00000000000E+00 -0.18250000000E+03  0.18250000000E+03  0.00000000000E+00 0. -1.
         23    2    1    2    0    0  0.11811911792E+02  0.10121702973E+02 -0.15992124696E+03  0.18033705764E+03  0.81882104265E+02 0.  0.
         23    2    1    2    0    0 -0.11811911792E+02 -0.10121702973E+02  0.15992124696E+03  0.18466294236E+03  0.91014432494E+02 0.  0.
        -11    1    3    3    0    0  0.22275977920E+02 -0.19378789786E+02 -0.14034727172E+03  0.14341936189E+03  0.00000000000E+00 0. -1.
         11    1    3    3    0    0 -0.10464066127E+02  0.29500492758E+02 -0.19573975236E+02  0.36917695750E+02  0.00000000000E+00 0.  1.
        -15    1    4    4    0    0  0.32589342635E+02 -0.70761486203E+01  0.22665746769E+02  0.40361255410E+02  0.17770000000E+01 0. -1.
         15    1    4    4    0    0 -0.44401254428E+02 -0.30455543524E+01  0.13725550019E+03  0.14430168695E+03  0.17770000000E+01 0.  1.
</event>
<event>
 8    1  0.1807540E-005  0.1828446E+03  0.7546771E-02  0.1068181E+00
        -11   -1    0    0    0    0  0.00000000000E+00  0.00000000000E+00  0.18250000000E+03  0.18250000000E+03  0.00000000000E+00 0. -1.
         11   -1    0    0    0    0 -0.00000000000E+00 -0.00000000000E+00 -0.18250000000E+03  0.18250000000E+03  0.00000000000E+00 0.  1.
         23    2    1    2    0    0 -0.11041360601E+03 -0.10285353185E+03  0.47982414360E+02  0.18215542915E+03  0.90045959786E+02 0.  0.
         23    2    1    2    0    0  0.11041360601E+03  0.10285353185E+03 -0.47982414360E+02  0.18284457085E+03  0.91432005325E+02 0.  0.
        -11    1    3    3    0    0 -0.10530079068E+02  0.88579306639E+01 -0.14325969888E+02  0.19864010523E+02  0.00000000000E+00 0. -1.
         11    1    3    3    0    0 -0.99883526939E+02 -0.11171146251E+03  0.62308384248E+02  0.16229141862E+03  0.00000000000E+00 0.  1.
        -15    1    4    4    0    0 -0.28940547693E+01 -0.25140421725E+01 -0.26249024308E+02  0.26586932263E+02  0.17770000000E+01 0.  1.
         15    1    4    4    0    0  0.11330766078E+03  0.10536757402E+03 -0.21733390052E+02  0.15625763859E+03  0.17770000000E+01 0. -1.
</event>
<event>
 8    1  0.1807540E-005  0.1826898E+03  0.7546771E-02  0.1068304E+00
        -11   -1    0    0    0    0  0.00000000000E+00  0.00000000000E+00  0.18250000000E+03  0.18250000000E+03  0.00000000000E+00 0.  1.
         11   -1    0    0    0    0 -0.00000000000E+00 -0.00000000000E+00 -0.18250000000E+03  0.18250000000E+03  0.00000000000E+00 0. -1.
         23    2    1    2    0    0 -0.30760205137E+02  0.14151848226E+02 -0.15473849213E+03  0.18268978903E+03  0.91022486459E+02 0.  0.
         23    2    1    2    0    0  0.30760205137E+02 -0.14151848226E+02  0.15473849213E+03  0.18231021097E+03  0.90258224277E+02 0.  0.
        -11    1    3    3    0    0 -0.44192938051E+02 -0.26385481934E+02 -0.61923461649E+02  0.80521578058E+02  0.00000000000E+00 0.  1.
         11    1    3    3    0    0  0.13432732914E+02  0.40537330160E+02 -0.92815030480E+02  0.10216821097E+03  0.00000000000E+00 0. -1.
        -15    1    4    4    0    0  0.16195657075E+02 -0.19411592671E+02  0.16280091987E+03  0.16476166568E+03  0.17770000000E+01 0.  1.
         15    1    4    4    0    0  0.14564548062E+02  0.52597444442E+01 -0.80624277388E+01  0.17548545293E+02  0.17770000000E+01 0. -1.
</event>
<event>
 8    1  0.1807540E-005  0.1835526E+03  0.7546771E-02  0.1067620E+00
        -11   -1    0    0    0    0  0.00000000000E+00  0.00000000000E+00  0.18250000000E+03  0.18250000000E+03  0.00000000000E+00 0.  1.
         11   -1    0    0    0    0 -0.00000000000E+00 -0.00000000000E+00 -0.18250000000E+03  0.18250000000E+03  0.00000000000E+00 0.  1.
         23    2    1    2    0    0  0.11467857719E+02 -0.24747850997E+01 -0.15920203989E+03  0.18144735127E+03  0.86256683529E+02 0.  0.
         23    2    1    2    0    0 -0.11467857719E+02  0.24747850997E+01  0.15920203989E+03  0.18355264873E+03  0.90601595066E+02 0.  0.
        -11    1    3    3    0    0 -0.29109437626E+02  0.21883091620E+00 -0.17366266710E+02  0.33896820873E+02  0.00000000000E+00 0.  1.
         11    1    3    3    0    0  0.40577295345E+02 -0.26936160159E+01 -0.14183577318E+03  0.14755053039E+03  0.00000000000E+00 0.  1.
        -15    1    4    4    0    0 -0.17510678667E+01 -0.59177050807E+01 -0.11064628675E+02  0.12793326730E+02  0.17770000000E+01 0. -1.
         15    1    4    4    0    0 -0.97167898523E+01  0.83924901803E+01  0.17026666857E+03  0.17075932200E+03  0.17770000000E+01 0.  1.
</event>
<event>
 8    1  0.1807540E-005  0.1833510E+03  0.7546771E-02  0.1067779E+00
        -11   -1    0    0    0    0  0.00000000000E+00  0.00000000000E+00  0.18250000000E+03  0.18250000000E+03  0.00000000000E+00 0. -1.
         11   -1    0    0    0    0 -0.00000000000E+00 -0.00000000000E+00 -0.18250000000E+03  0.18250000000E+03  0.00000000000E+00 0.  1.
         23    2    1    2    0    0 -0.23782832402E+02 -0.27142443663E+02  0.15469323862E+03  0.18335104120E+03  0.91571124644E+02 0.  0.
         23    2    1    2    0    0  0.23782832402E+02  0.27142443663E+02 -0.15469323862E+03  0.18164895880E+03  0.88113624327E+02 0.  0.
        -11    1    3    3    0    0 -0.57928078117E+02 -0.25195279405E+02  0.87075412024E+02  0.10757598114E+03  0.00000000000E+00 0.  1.
         11    1    3    3    0    0  0.34145245715E+02 -0.19471642572E+01  0.67617826599E+02  0.75775060063E+02  0.00000000000E+00 0. -1.
        -15    1    4    4    0    0 -0.80255403899E+01  0.44297715132E+02 -0.36324364812E+02  0.57873258700E+02  0.17770000000E+01 0.  1.
         15    1    4    4    0    0  0.31808372792E+02 -0.17155271470E+02 -0.11836887381E+03  0.12377570010E+03  0.17770000000E+01 0. -1.
</event>
<event>
 8    1  0.1807540E-005  0.1855049E+03  0.7546771E-02  0.1066088E+00
        -11   -1    0    0    0    0  0.00000000000E+00  0.00000000000E+00  0.18250000000E+03  0.18250000000E+03  0.00000000000E+00 0.  1.
         11   -1    0    0    0    0 -0.00000000000E+00 -0.00000000000E+00 -0.18250000000E+03  0.18250000000E+03  0.00000000000E+00 0. -1.
         23    2    1    2    0    0 -0.13857716020E+01  0.13097055762E+01 -0.16151066296E+03  0.18550490805E+03  0.91229057702E+02 0.  0.
         23    2    1    2    0    0  0.13857716020E+01 -0.13097055762E+01  0.16151066296E+03  0.17949509195E+03  0.78288939775E+02 0.  0.
        -11    1    3    3    0    0 -0.15800231629E+02 -0.30252758519E+02 -0.19481928818E+02  0.39299138260E+02  0.00000000000E+00 0.  1.
         11    1    3    3    0    0  0.14414460027E+02  0.31562464095E+02 -0.14202873414E+03  0.14620576979E+03  0.00000000000E+00 0. -1.
        -15    1    4    4    0    0 -0.28753388705E+02  0.15887457936E+02  0.33901740086E+02  0.47240389409E+02  0.17770000000E+01 0. -1.
         15    1    4    4    0    0  0.30139160307E+02 -0.17197163512E+02  0.12760892288E+03  0.13225470254E+03  0.17770000000E+01 0.  1.
</event>
<event>
 8    1  0.1807540E-005  0.1836302E+03  0.7546771E-02  0.1067559E+00
        -11   -1    0    0    0    0  0.00000000000E+00  0.00000000000E+00  0.18250000000E+03  0.18250000000E+03  0.00000000000E+00 0.  1.
         11   -1    0    0    0    0 -0.00000000000E+00 -0.00000000000E+00 -0.18250000000E+03  0.18250000000E+03  0.00000000000E+00 0. -1.
         23    2    1    2    0    0 -0.10821922996E+03  0.41619040715E+01 -0.11664672299E+03  0.18363019358E+03  0.91568918489E+02 0.  0.
         23    2    1    2    0    0  0.10821922996E+03 -0.41619040715E+01  0.11664672299E+03  0.18136980642E+03  0.86947257098E+02 0.  0.
        -11    1    3    3    0    0 -0.40210755182E+02  0.45730187833E+02 -0.62572554718E+02  0.87312539280E+02  0.00000000000E+00 0.  1.
         11    1    3    3    0    0 -0.68008474779E+02 -0.41568283762E+02 -0.54074168268E+02  0.96317654304E+02  0.00000000000E+00 0. -1.
        -15    1    4    4    0    0  0.10548789326E+03 -0.31897819116E+02  0.85182079119E+02  0.13929935685E+03  0.17770000000E+01 0. -1.
         15    1    4    4    0    0  0.27313367042E+01  0.27735915045E+02  0.31464643868E+02  0.42070449561E+02  0.17770000000E+01 0.  1.
</event>
<event>
 8    1  0.1807540E-005  0.1827964E+03  0.7546771E-02  0.1068219E+00
        -11   -1    0    0    0    0  0.00000000000E+00  0.00000000000E+00  0.18250000000E+03  0.18250000000E+03  0.00000000000E+00 0.  1.
         11   -1    0    0    0    0 -0.00000000000E+00 -0.00000000000E+00 -0.18250000000E+03  0.18250000000E+03  0.00000000000E+00 0. -1.
         23    2    1    2    0    0  0.80028290703E+02  0.20375103842E+02  0.13388160996E+03  0.18220362813E+03  0.91946747903E+02 0.  0.
         23    2    1    2    0    0 -0.80028290703E+02 -0.20375103842E+02 -0.13388160996E+03  0.18279637187E+03  0.93115819880E+02 0.  0.
        -11    1    3    3    0    0  0.82896991937E+02 -0.48106686659E+01  0.55630007500E+02  0.99948744563E+02  0.00000000000E+00 0.  1.
         11    1    3    3    0    0 -0.28687012340E+01  0.25185772508E+02  0.78251602461E+02  0.82254883571E+02  0.00000000000E+00 0. -1.
        -15    1    4    4    0    0  0.49232612489E+01 -0.17533722938E+02 -0.80173539587E+02  0.82235175687E+02  0.17770000000E+01 0. -1.
         15    1    4    4    0    0 -0.84951551952E+02 -0.28413809047E+01 -0.53708070374E+02  0.10056119618E+03  0.17770000000E+01 0.  1.
</event>
<event>
 8    1  0.1807540E-005  0.1831732E+03  0.7546771E-02  0.1067920E+00
        -11   -1    0    0    0    0  0.00000000000E+00  0.00000000000E+00  0.18250000000E+03  0.18250000000E+03  0.00000000000E+00 0.  1.
         11   -1    0    0    0    0 -0.00000000000E+00 -0.00000000000E+00 -0.18250000000E+03  0.18250000000E+03  0.00000000000E+00 0. -1.
         23    2    1    2    0    0  0.95047051012E+02  0.75394852427E+02 -0.10075930042E+03  0.18182684875E+03  0.90499948219E+02 0.  0.
         23    2    1    2    0    0 -0.95047051012E+02 -0.75394852427E+02  0.10075930042E+03  0.18317315125E+03  0.93175324189E+02 0.  0.
        -11    1    3    3    0    0  0.10380234431E+03  0.46213934828E+02 -0.99982160900E+02  0.15135087365E+03  0.00000000000E+00 0. -1.
         11    1    3    3    0    0 -0.87552932978E+01  0.29180917599E+02 -0.77713952125E+00  0.30475975103E+02  0.00000000000E+00 0.  1.
        -15    1    4    4    0    0 -0.92131580601E+02 -0.20586104614E+02  0.82255883500E+02  0.12522461398E+03  0.17770000000E+01 0.  1.
         15    1    4    4    0    0 -0.29154704107E+01 -0.54808747812E+02  0.18503416921E+02  0.57948537266E+02  0.17770000000E+01 0. -1.
</event>
<event>
 8    1  0.1807540E-005  0.1828373E+03  0.7546771E-02  0.1068187E+00
        -11   -1    0    0    0    0  0.00000000000E+00  0.00000000000E+00  0.18250000000E+03  0.18250000000E+03  0.00000000000E+00 0. -1.
         11   -1    0    0    0    0 -0.00000000000E+00 -0.00000000000E+00 -0.18250000000E+03  0.18250000000E+03  0.00000000000E+00 0.  1.
         23    2    1    2    0    0 -0.12153684019E+03  0.26182838684E+02 -0.97913792657E+02  0.18216265953E+03  0.90218507907E+02 0.  0.
         23    2    1    2    0    0  0.12153684019E+03 -0.26182838684E+02  0.97913792657E+02  0.18283734047E+03  0.91573127694E+02 0.  0.
        -11    1    3    3    0    0 -0.11403894746E+03  0.50863831805E+02 -0.93496675447E+02  0.15599243329E+03  0.00000000000E+00 0.  1.
         11    1    3    3    0    0 -0.74978927212E+01 -0.24680993120E+02 -0.44171172095E+01  0.26170226233E+02  0.00000000000E+00 0. -1.
        -15    1    4    4    0    0  0.11424618472E+03  0.95324155759E+01  0.57106232757E+02  0.12809112857E+03  0.17770000000E+01 0. -1.
         15    1    4    4    0    0  0.72906554666E+01 -0.35715254260E+02  0.40807559899E+02  0.54746211905E+02  0.17770000000E+01 0.  1.
</event>
<event>
 8    1  0.1807540E-005  0.1826158E+03  0.7546771E-02  0.1068363E+00
        -11   -1    0    0    0    0  0.00000000000E+00  0.00000000000E+00  0.18250000000E+03  0.18250000000E+03  0.00000000000E+00 0. -1.
         11   -1    0    0    0    0 -0.00000000000E+00 -0.00000000000E+00 -0.18250000000E+03  0.18250000000E+03  0.00000000000E+00 0. -1.
         23    2    1    2    0    0  0.17993131967E+02  0.29280169604E+02 -0.15352552552E+03  0.18261576328E+03  0.92721889972E+02 0.  0.
         23    2    1    2    0    0 -0.17993131967E+02 -0.29280169604E+02  0.15352552552E+03  0.18238423672E+03  0.92265062116E+02 0.  0.
        -11    1    3    3    0    0  0.56004288898E+01 -0.14876122598E+02  0.57233744033E+01  0.16894402679E+02  0.00000000000E+00 0. -1.
         11    1    3    3    0    0  0.12392703077E+02  0.44156292202E+02 -0.15924889993E+03  0.16572136060E+03  0.00000000000E+00 0. -1.
        -15    1    4    4    0    0 -0.43018237244E+02  0.14831562741E+02  0.53765469800E+02  0.70458693294E+02  0.17770000000E+01 0. -1.
         15    1    4    4    0    0  0.25025105277E+02 -0.44111732346E+02  0.99760055724E+02  0.11192554343E+03  0.17770000000E+01 0.  1.
</event>
<event>
 8    1  0.1807540E-005  0.1828636E+03  0.7546771E-02  0.1068166E+00
        -11   -1    0    0    0    0  0.00000000000E+00  0.00000000000E+00  0.18250000000E+03  0.18250000000E+03  0.00000000000E+00 0.  1.
         11   -1    0    0    0    0 -0.00000000000E+00 -0.00000000000E+00 -0.18250000000E+03  0.18250000000E+03  0.00000000000E+00 0. -1.
         23    2    1    2    0    0  0.94104646321E+01  0.22632733130E+02 -0.15613132477E+03  0.18213637955E+03  0.90531059461E+02 0.  0.
         23    2    1    2    0    0 -0.94104646321E+01 -0.22632733130E+02  0.15613132477E+03  0.18286362045E+03  0.91985410006E+02 0.  0.
        -11    1    3    3    0    0 -0.17543982457E+02 -0.19848589735E+02 -0.11238827598E+03  0.11546810128E+03  0.00000000000E+00 0.  1.
         11    1    3    3    0    0  0.26954447089E+02  0.42481322865E+02 -0.43743048793E+02  0.66668278273E+02  0.00000000000E+00 0. -1.
        -15    1    4    4    0    0 -0.17234932792E+02 -0.23103752489E+02  0.24612297867E+01  0.28983472333E+02  0.17770000000E+01 0. -1.
         15    1    4    4    0    0  0.78244681604E+01  0.47101935894E+00  0.15367009499E+03  0.15388014811E+03  0.17770000000E+01 0.  1.
</event>
<event>
 8    1  0.1807540E-005  0.1839760E+03  0.7546771E-02  0.1067286E+00
        -11   -1    0    0    0    0  0.00000000000E+00  0.00000000000E+00  0.18250000000E+03  0.18250000000E+03  0.00000000000E+00 0.  1.
         11   -1    0    0    0    0 -0.00000000000E+00 -0.00000000000E+00 -0.18250000000E+03  0.18250000000E+03  0.00000000000E+00 0. -1.
         23    2    1    2    0    0 -0.70851517818E+02 -0.13452932573E+03  0.31810027461E+02  0.18102398002E+03  0.92950128769E+02 0.  0.
         23    2    1    2    0    0  0.70851517818E+02  0.13452932573E+03 -0.31810027461E+02  0.18397601998E+03  0.98575965739E+02 0.  0.
        -11    1    3    3    0    0 -0.78256049641E+02 -0.12439759643E+03  0.53139086351E+02  0.15627710581E+03  0.00000000000E+00 0.  1.
         11    1    3    3    0    0  0.74045318225E+01 -0.10131729301E+02 -0.21329058890E+02  0.24746874212E+02  0.00000000000E+00 0. -1.
        -15    1    4    4    0    0 -0.17920075888E+02  0.35487896858E+02  0.15630570862E+02  0.42755027982E+02  0.17770000000E+01 0.  1.
         15    1    4    4    0    0  0.88771593706E+02  0.99041428870E+02 -0.47440598323E+02  0.14122099200E+03  0.17770000000E+01 0. -1.
</event>
<event>
 8    1  0.1807540E-005  0.1831708E+03  0.7546771E-02  0.1067922E+00
        -11   -1    0    0    0    0  0.00000000000E+00  0.00000000000E+00  0.18250000000E+03  0.18250000000E+03  0.00000000000E+00 0. -1.
         11   -1    0    0    0    0 -0.00000000000E+00 -0.00000000000E+00 -0.18250000000E+03  0.18250000000E+03  0.00000000000E+00 0.  1.
         23    2    1    2    0    0  0.61466322388E+02  0.11368179372E+03 -0.90888409304E+02  0.18182923858E+03  0.89997277999E+02 0.  0.
         23    2    1    2    0    0 -0.61466322388E+02 -0.11368179372E+03  0.90888409304E+02  0.18317076142E+03  0.92677752895E+02 0.  0.
        -11    1    3    3    0    0 -0.75894184195E+01  0.32032800406E+02  0.10415231819E+02  0.34527910850E+02  0.00000000000E+00 0. -1.
         11    1    3    3    0    0  0.69055740808E+02  0.81648993310E+02 -0.10130364112E+03  0.14730132773E+03  0.00000000000E+00 0.  1.
        -15    1    4    4    0    0 -0.69642400767E+02 -0.12579600127E+03  0.86491935642E+02  0.16780557375E+03  0.17770000000E+01 0. -1.
         15    1    4    4    0    0  0.81760783792E+01  0.12114207557E+02  0.43964736620E+01  0.15365187668E+02  0.17770000000E+01 0.  1.
</event>
<event>
 8    1  0.1807540E-005  0.1827924E+03  0.7546771E-02  0.1068222E+00
        -11   -1    0    0    0    0  0.00000000000E+00  0.00000000000E+00  0.18250000000E+03  0.18250000000E+03  0.00000000000E+00 0.  1.
         11   -1    0    0    0    0 -0.00000000000E+00 -0.00000000000E+00 -0.18250000000E+03  0.18250000000E+03  0.00000000000E+00 0. -1.
         23    2    1    2    0    0  0.47972247398E+02 -0.11370203749E+03  0.10125005055E+03  0.18220758979E+03  0.87855239978E+02 0.  0.
         23    2    1    2    0    0 -0.47972247398E+02  0.11370203749E+03 -0.10125005055E+03  0.18279241021E+03  0.89061791145E+02 0.  0.
        -11    1    3    3    0    0  0.47588552595E+02 -0.12823098013E+03  0.88841254441E+02  0.16309697451E+03  0.00000000000E+00 0.  1.
         11    1    3    3    0    0  0.38369480327E+00  0.14528942635E+02  0.12408796108E+02  0.19110615287E+02  0.00000000000E+00 0. -1.
        -15    1    4    4    0    0 -0.51182582998E+02  0.69065822742E+02 -0.17391229681E+02  0.87723185488E+02  0.17770000000E+01 0.  1.
         15    1    4    4    0    0  0.32103355995E+01  0.44636214752E+02 -0.83858820868E+02  0.95069224718E+02  0.17770000000E+01 0. -1.
</event>
<event>
 8    1  0.1807540E-005  0.1827711E+03  0.7546771E-02  0.1068239E+00
        -11   -1    0    0    0    0  0.00000000000E+00  0.00000000000E+00  0.18250000000E+03  0.18250000000E+03  0.00000000000E+00 0.  1.
         11   -1    0    0    0    0 -0.00000000000E+00 -0.00000000000E+00 -0.18250000000E+03  0.18250000000E+03  0.00000000000E+00 0. -1.
         23    2    1    2    0    0 -0.89340873132E+01 -0.15302897939E+02 -0.15759712788E+03  0.18277113635E+03  0.90853932017E+02 0.  0.
         23    2    1    2    0    0  0.89340873132E+01  0.15302897939E+02  0.15759712788E+03  0.18222886365E+03  0.89758049383E+02 0.  0.
        -11    1    3    3    0    0  0.39123022480E+02 -0.15094236816E+02 -0.52374858318E+02  0.67093760193E+02  0.00000000000E+00 0.  1.
         11    1    3    3    0    0 -0.48057109794E+02 -0.20866112328E+00 -0.10522226957E+03  0.11567737615E+03  0.00000000000E+00 0. -1.
        -15    1    4    4    0    0 -0.19319331321E+02  0.13475257701E+02  0.16025437885E+01  0.23675831736E+02  0.17770000000E+01 0. -1.
         15    1    4    4    0    0  0.28253418635E+02  0.18276402379E+01  0.15599458410E+03  0.15855303192E+03  0.17770000000E+01 0.  1.
</event>
<event>
 8    1  0.1807540E-005  0.1836041E+03  0.7546771E-02  0.1067579E+00
        -11   -1    0    0    0    0  0.00000000000E+00  0.00000000000E+00  0.18250000000E+03  0.18250000000E+03  0.00000000000E+00 0.  1.
         11   -1    0    0    0    0 -0.00000000000E+00 -0.00000000000E+00 -0.18250000000E+03  0.18250000000E+03  0.00000000000E+00 0. -1.
         23    2    1    2    0    0  0.76387925132E+02  0.84885699157E+01 -0.14002277140E+03  0.18360412179E+03  0.90536877026E+02 0.  0.
         23    2    1    2    0    0 -0.76387925132E+02 -0.84885699157E+01  0.14002277140E+03  0.18139587821E+03  0.85970443742E+02 0.  0.
        -11    1    3    3    0    0 -0.41299135833E+01  0.31797285355E+02 -0.22173794883E+02  0.38984621605E+02  0.00000000000E+00 0.  1.
         11    1    3    3    0    0  0.80517838716E+02 -0.23308715440E+02 -0.11784897652E+03  0.14461950018E+03  0.00000000000E+00 0. -1.
        -15    1    4    4    0    0 -0.52564455926E+02 -0.33547994171E+02  0.13178917102E+03  0.14580820713E+03  0.17770000000E+01 0.  1.
         15    1    4    4    0    0 -0.23823469206E+02  0.25059424256E+02  0.82336003838E+01  0.35587671086E+02  0.17770000000E+01 0. -1.
</event>
<event>
 8    1  0.1807540E-005  0.1831251E+03  0.7546771E-02  0.1067958E+00
        -11   -1    0    0    0    0  0.00000000000E+00  0.00000000000E+00  0.18250000000E+03  0.18250000000E+03  0.00000000000E+00 0.  1.
         11   -1    0    0    0    0 -0.00000000000E+00 -0.00000000000E+00 -0.18250000000E+03  0.18250000000E+03  0.00000000000E+00 0. -1.
         23    2    1    2    0    0 -0.10659693327E+02  0.25520061285E+02 -0.15675377086E+03  0.18187490600E+03  0.87987693265E+02 0.  0.
         23    2    1    2    0    0  0.10659693327E+02 -0.25520061285E+02  0.15675377086E+03  0.18312509400E+03  0.90543651260E+02 0.  0.
        -11    1    3    3    0    0  0.29256372940E+02 -0.15533541323E+02 -0.40797797448E+02  0.52551751068E+02  0.00000000000E+00 0.  1.
         11    1    3    3    0    0 -0.39916066267E+02  0.41053602608E+02 -0.11595597341E+03  0.12932315494E+03  0.00000000000E+00 0. -1.
        -15    1    4    4    0    0 -0.17413803834E+02  0.20157727994E+02  0.13011616069E+02  0.29699064692E+02  0.17770000000E+01 0. -1.
         15    1    4    4    0    0  0.28073497160E+02 -0.45677789278E+02  0.14374215479E+03  0.15342602930E+03  0.17770000000E+01 0.  1.
</event>
<event>
 8    1  0.1807540E-005  0.1834492E+03  0.7546771E-02  0.1067702E+00
        -11   -1    0    0    0    0  0.00000000000E+00  0.00000000000E+00  0.18250000000E+03  0.18250000000E+03  0.00000000000E+00 0.  1.
         11   -1    0    0    0    0 -0.00000000000E+00 -0.00000000000E+00 -0.18250000000E+03  0.18250000000E+03  0.00000000000E+00 0. -1.
         23    2    1    2    0    0 -0.55451974533E+02  0.14394286025E+02 -0.14654879264E+03  0.18344924909E+03  0.94313103118E+02 0.  0.
         23    2    1    2    0    0  0.55451974533E+02 -0.14394286025E+02  0.14654879264E+03  0.18155075091E+03  0.90564946761E+02 0.  0.
        -11    1    3    3    0    0 -0.45580820208E+02  0.12984042223E+02 -0.15990539903E+03  0.16678109354E+03  0.00000000000E+00 0. -1.
         11    1    3    3    0    0 -0.98711543249E+01  0.14102438020E+01  0.13356606392E+02  0.16668155555E+02  0.00000000000E+00 0.  1.
        -15    1    4    4    0    0  0.70445149491E+02 -0.25346986065E+02  0.14454300354E+03  0.16279074418E+03  0.17770000000E+01 0.  1.
         15    1    4    4    0    0 -0.14993174958E+02  0.10952700041E+02  0.20057890976E+01  0.18760006727E+02  0.17770000000E+01 0. -1.
</event>
<event>
 8    1  0.1807540E-005  0.1825620E+03  0.7546771E-02  0.1068406E+00
        -11   -1    0    0    0    0  0.00000000000E+00  0.00000000000E+00  0.18250000000E+03  0.18250000000E+03  0.00000000000E+00 0.  1.
         11   -1    0    0    0    0 -0.00000000000E+00 -0.00000000000E+00 -0.18250000000E+03  0.18250000000E+03  0.00000000000E+00 0. -1.
         23    2    1    2    0    0  0.10762767852E+02 -0.66849966172E+02 -0.14341086613E+03  0.18243804408E+03  0.90178757220E+02 0.  0.
         23    2    1    2    0    0 -0.10762767852E+02  0.66849966172E+02  0.14341086613E+03  0.18256195592E+03  0.90429177144E+02 0.  0.
        -11    1    3    3    0    0 -0.27588606349E+02 -0.15207706144E+02 -0.99975109766E+02  0.10482093350E+03  0.00000000000E+00 0.  1.
         11    1    3    3    0    0  0.38351374201E+02 -0.51642260028E+02 -0.43435756361E+02  0.77617110579E+02  0.00000000000E+00 0. -1.
        -15    1    4    4    0    0 -0.12672853908E+02  0.87833522886E+02  0.13037432328E+03  0.15772111738E+03  0.17770000000E+01 0.  1.
         15    1    4    4    0    0  0.19100860567E+01 -0.20983556715E+02  0.13036542852E+02  0.24840838546E+02  0.17770000000E+01 0. -1.
</event>
<event>
 8    1  0.1807540E-005  0.1826134E+03  0.7546771E-02  0.1068365E+00
        -11   -1    0    0    0    0  0.00000000000E+00  0.00000000000E+00  0.18250000000E+03  0.18250000000E+03  0.00000000000E+00 0.  1.
         11   -1    0    0    0    0 -0.00000000000E+00 -0.00000000000E+00 -0.18250000000E+03  0.18250000000E+03  0.00000000000E+00 0. -1.
         23    2    1    2    0    0 -0.46370516394E+02  0.93660910184E+02 -0.11908599140E+03  0.18238659246E+03  0.90337173257E+02 0.  0.
         23    2    1    2    0    0  0.46370516394E+02 -0.93660910184E+02  0.11908599140E+03  0.18261340754E+03  0.90794230976E+02 0.  0.
        -11    1    3    3    0    0 -0.25872545229E+02  0.36117828259E+02  0.43721427988E+01  0.44643048143E+02  0.00000000000E+00 0.  1.
         11    1    3    3    0    0 -0.20497971165E+02  0.57543081924E+02 -0.12345813420E+03  0.13774354431E+03  0.00000000000E+00 0. -1.
        -15    1    4    4    0    0  0.40087822891E+02 -0.11112736367E+03  0.92073387256E+02  0.14978982232E+03  0.17770000000E+01 0.  1.
         15    1    4    4    0    0  0.62826935029E+01  0.17466453487E+02  0.27012604148E+02  0.32823585224E+02  0.17770000000E+01 0. -1.
</event>
<event>
 8    1  0.1807540E-005  0.1841939E+03  0.7546771E-02  0.1067114E+00
        -11   -1    0    0    0    0  0.00000000000E+00  0.00000000000E+00  0.18250000000E+03  0.18250000000E+03  0.00000000000E+00 0.  1.
         11   -1    0    0    0    0 -0.00000000000E+00 -0.00000000000E+00 -0.18250000000E+03  0.18250000000E+03  0.00000000000E+00 0. -1.
         23    2    1    2    0    0  0.90818784219E+02 -0.60719716330E+02 -0.11493543840E+03  0.18419385531E+03  0.93713850706E+02 0.  0.
         23    2    1    2    0    0 -0.90818784219E+02  0.60719716330E+02  0.11493543840E+03  0.18080614469E+03  0.86866399956E+02 0.  0.
        -11    1    3    3    0    0 -0.13500710559E+02  0.10550788718E+02 -0.92154744369E+01  0.19455418198E+02  0.00000000000E+00 0.  1.
         11    1    3    3    0    0  0.10431949478E+03 -0.71270505048E+02 -0.10571996396E+03  0.16473843711E+03  0.00000000000E+00 0. -1.
        -15    1    4    4    0    0 -0.54492399167E+02  0.19399183404E+02  0.11153532716E+03  0.12565443414E+03  0.17770000000E+01 0.  1.
         15    1    4    4    0    0 -0.36326385051E+02  0.41320532926E+02  0.34001112370E+01  0.55151710560E+02  0.17770000000E+01 0. -1.
</event>
<event>
 8    1  0.1807540E-005  0.1844831E+03  0.7546771E-02  0.1066887E+00
        -11   -1    0    0    0    0  0.00000000000E+00  0.00000000000E+00  0.18250000000E+03  0.18250000000E+03  0.00000000000E+00 0.  1.
         11   -1    0    0    0    0 -0.00000000000E+00 -0.00000000000E+00 -0.18250000000E+03  0.18250000000E+03  0.00000000000E+00 0. -1.
         23    2    1    2    0    0  0.13059629266E+03  0.29431359009E+02  0.88003055946E+02  0.18448311235E+03  0.91476140809E+02 0.  0.
         23    2    1    2    0    0 -0.13059629266E+03 -0.29431359009E+02 -0.88003055946E+02  0.18051688765E+03  0.83187813544E+02 0.  0.
        -11    1    3    3    0    0  0.25480835084E+02  0.48491595218E+02  0.22851077999E+02  0.59353850162E+02  0.00000000000E+00 0. -1.
         11    1    3    3    0    0  0.10511545757E+03 -0.19060236209E+02  0.65151977947E+02  0.12512926219E+03  0.00000000000E+00 0.  1.
        -15    1    4    4    0    0 -0.21516497278E+02 -0.41720994607E+02 -0.17964119311E+02  0.50293820274E+02  0.17770000000E+01 0.  1.
         15    1    4    4    0    0 -0.10907979538E+03  0.12289635598E+02 -0.70038936635E+02  0.13022306738E+03  0.17770000000E+01 0. -1.
</event>
<event>
 8    1  0.1807540E-005  0.1826652E+03  0.7546771E-02  0.1068323E+00
        -11   -1    0    0    0    0  0.00000000000E+00  0.00000000000E+00  0.18250000000E+03  0.18250000000E+03  0.00000000000E+00 0.  1.
         11   -1    0    0    0    0 -0.00000000000E+00 -0.00000000000E+00 -0.18250000000E+03  0.18250000000E+03  0.00000000000E+00 0. -1.
         23    2    1    2    0    0 -0.30020347760E+02  0.26836549507E+02 -0.15355436926E+03  0.18233475835E+03  0.89697258116E+02 0.  0.
         23    2    1    2    0    0  0.30020347760E+02 -0.26836549507E+02  0.15355436926E+03  0.18266524165E+03  0.90367165045E+02 0.  0.
        -11    1    3    3    0    0 -0.18223499405E+01  0.35070506460E+02 -0.11022181246E+02  0.36806926822E+02  0.00000000000E+00 0.  1.
         11    1    3    3    0    0 -0.28197997820E+02 -0.82339569526E+01 -0.14253218802E+03  0.14552783153E+03  0.00000000000E+00 0. -1.
        -15    1    4    4    0    0 -0.23392574273E+02 -0.34364213868E+02  0.90904160240E+02  0.99974175685E+02  0.17770000000E+01 0. -1.
         15    1    4    4    0    0  0.53412922033E+02  0.75276643603E+01  0.62650209023E+02  0.82691065966E+02  0.17770000000E+01 0.  1.
</event>
<event>
 8    1  0.1807540E-005  0.1880203E+03  0.7546771E-02  0.1064144E+00
        -11   -1    0    0    0    0  0.00000000000E+00  0.00000000000E+00  0.18250000000E+03  0.18250000000E+03  0.00000000000E+00 0. -1.
         11   -1    0    0    0    0 -0.00000000000E+00 -0.00000000000E+00 -0.18250000000E+03  0.18250000000E+03  0.00000000000E+00 0.  1.
         23    2    1    2    0    0  0.21412569811E+01  0.44442490987E+02  0.14208717563E+03  0.17697972811E+03  0.95673082394E+02 0.  0.
         23    2    1    2    0    0 -0.21412569811E+01 -0.44442490987E+02 -0.14208717563E+03  0.18802027189E+03  0.11481784346E+03 0.  0.
        -11    1    3    3    0    0 -0.37165241800E+02 -0.98833756906E+01  0.51276425503E+02  0.64095305019E+02  0.00000000000E+00 0.  1.
         11    1    3    3    0    0  0.39306498781E+02  0.54325866678E+02  0.90810750131E+02  0.11288442309E+03  0.00000000000E+00 0. -1.
        -15    1    4    4    0    0  0.36665201582E+02 -0.24218720088E+02 -0.13705275803E+03  0.14393574824E+03  0.17770000000E+01 0. -1.
         15    1    4    4    0    0 -0.38806458563E+02 -0.20223770899E+02 -0.50344176022E+01  0.44084523647E+02  0.17770000000E+01 0.  1.
</event>
<event>
 8    1  0.1807540E-005  0.1829359E+03  0.7546771E-02  0.1068108E+00
        -11   -1    0    0    0    0  0.00000000000E+00  0.00000000000E+00  0.18250000000E+03  0.18250000000E+03  0.00000000000E+00 0.  1.
         11   -1    0    0    0    0 -0.00000000000E+00 -0.00000000000E+00 -0.18250000000E+03  0.18250000000E+03  0.00000000000E+00 0. -1.
         23    2    1    2    0    0 -0.40498904233E+02 -0.63846120140E+02  0.13929499512E+03  0.18206409688E+03  0.89597719872E+02 0.  0.
         23    2    1    2    0    0  0.40498904233E+02  0.63846120140E+02 -0.13929499512E+03  0.18293590312E+03  0.91356229597E+02 0.  0.
        -11    1    3    3    0    0 -0.66613110947E+02 -0.41110434787E+02  0.11738090848E+03  0.14108739162E+03  0.00000000000E+00 0.  1.
         11    1    3    3    0    0  0.26114206714E+02 -0.22735685354E+02  0.21914086639E+02  0.40976705261E+02  0.00000000000E+00 0. -1.
        -15    1    4    4    0    0 -0.13572558186E+02  0.14492103792E+02  0.54969109806E+01  0.20678712904E+02  0.17770000000E+01 0.  1.
         15    1    4    4    0    0  0.54071462419E+02  0.49354016349E+02 -0.14479190610E+03  0.16225719022E+03  0.17770000000E+01 0. -1.
</event>
<event>
 8    1  0.1807540E-005  0.1832369E+03  0.7546771E-02  0.1067870E+00
        -11   -1    0    0    0    0  0.00000000000E+00  0.00000000000E+00  0.18250000000E+03  0.18250000000E+03  0.00000000000E+00 0.  1.
         11   -1    0    0    0    0 -0.00000000000E+00 -0.00000000000E+00 -0.18250000000E+03  0.18250000000E+03  0.00000000000E+00 0. -1.
         23    2    1    2    0    0  0.66041347801E+01 -0.17593140710E+02 -0.15611453377E+03  0.18323689170E+03  0.94079103049E+02 0.  0.
         23    2    1    2    0    0 -0.66041347801E+01  0.17593140710E+02  0.15611453377E+03  0.18176310830E+03  0.91175362292E+02 0.  0.
        -11    1    3    3    0    0 -0.36255826400E+02 -0.30396555865E+02 -0.54243749228E+02  0.71977912492E+02  0.00000000000E+00 0.  1.
         11    1    3    3    0    0  0.42859961180E+02  0.12803415154E+02 -0.10187078454E+03  0.11125897921E+03  0.00000000000E+00 0. -1.
        -15    1    4    4    0    0 -0.18058233774E+02  0.49248702452E+02  0.59012264045E+02  0.78975562910E+02  0.17770000000E+01 0. -1.
         15    1    4    4    0    0  0.11454098993E+02 -0.31655561742E+02  0.97102269722E+02  0.10278754539E+03  0.17770000000E+01 0.  1.
</event>
<event>
 8    1  0.1807540E-005  0.1827071E+03  0.7546771E-02  0.1068290E+00
        -11   -1    0    0    0    0  0.00000000000E+00  0.00000000000E+00  0.18250000000E+03  0.18250000000E+03  0.00000000000E+00 0.  1.
         11   -1    0    0    0    0 -0.00000000000E+00 -0.00000000000E+00 -0.18250000000E+03  0.18250000000E+03  0.00000000000E+00 0. -1.
         23    2    1    2    0    0 -0.96590602945E+02 -0.33930191200E+02  0.12057115692E+03  0.18270709721E+03  0.91452047753E+02 0.  0.
         23    2    1    2    0    0  0.96590602945E+02  0.33930191200E+02 -0.12057115692E+03  0.18229290279E+03  0.90621719665E+02 0.  0.
        -11    1    3    3    0    0 -0.33523364365E+02 -0.59620990896E+02  0.50712944282E+02  0.85148583261E+02  0.00000000000E+00 0. -1.
         11    1    3    3    0    0 -0.63067238580E+02  0.25690799696E+02  0.69858212636E+02  0.97558513948E+02  0.00000000000E+00 0.  1.
        -15    1    4    4    0    0  0.99789262648E+01 -0.19641828389E+02 -0.59637520432E+02  0.63601666363E+02  0.17770000000E+01 0.  1.
         15    1    4    4    0    0  0.86611676680E+02  0.53572019589E+02 -0.60933636486E+02  0.11869123643E+03  0.17770000000E+01 0. -1.
</event>
<event>
 8    1  0.1807540E-005  0.1845081E+03  0.7546771E-02  0.1066867E+00
        -11   -1    0    0    0    0  0.00000000000E+00  0.00000000000E+00  0.18250000000E+03  0.18250000000E+03  0.00000000000E+00 0.  1.
         11   -1    0    0    0    0 -0.00000000000E+00 -0.00000000000E+00 -0.18250000000E+03  0.18250000000E+03  0.00000000000E+00 0. -1.
         23    2    1    2    0    0  0.36092114989E+02  0.14277850305E+03 -0.51966554565E+02  0.18049186019E+03  0.90490038714E+02 0.  0.
         23    2    1    2    0    0 -0.36092114989E+02 -0.14277850305E+03  0.51966554565E+02  0.18450813981E+03  0.98256751240E+02 0.  0.
        -11    1    3    3    0    0 -0.18835428347E+02  0.10167334191E+03 -0.22481533182E+02  0.10581900184E+03  0.00000000000E+00 0.  1.
         11    1    3    3    0    0  0.54927543336E+02  0.41105161137E+02 -0.29485021383E+02  0.74672858355E+02  0.00000000000E+00 0. -1.
        -15    1    4    4    0    0 -0.67455712495E+00 -0.97600502240E+02 -0.12215838474E+02  0.98380371536E+02  0.17770000000E+01 0.  1.
         15    1    4    4    0    0 -0.35417557864E+02 -0.45178000807E+02  0.64182393038E+02  0.86127768270E+02  0.17770000000E+01 0. -1.
</event>
<event>
 8    1  0.1807540E-005  0.1828880E+03  0.7546771E-02  0.1068146E+00
        -11   -1    0    0    0    0  0.00000000000E+00  0.00000000000E+00  0.18250000000E+03  0.18250000000E+03  0.00000000000E+00 0.  1.
         11   -1    0    0    0    0 -0.00000000000E+00 -0.00000000000E+00 -0.18250000000E+03  0.18250000000E+03  0.00000000000E+00 0. -1.
         23    2    1    2    0    0  0.23382811415E+02  0.10054247169E+02 -0.15620798284E+03  0.18211195005E+03  0.90088760073E+02 0.  0.
         23    2    1    2    0    0 -0.23382811415E+02 -0.10054247169E+02  0.15620798284E+03  0.18288804995E+03  0.91647483082E+02 0.  0.
        -11    1    3    3    0    0  0.14133251776E+02  0.49553956049E+02 -0.10331520615E+03  0.11545291329E+03  0.00000000000E+00 0. -1.
         11    1    3    3    0    0  0.92495596391E+01 -0.39499708881E+02 -0.52892776691E+02  0.66659036756E+02  0.00000000000E+00 0.  1.
        -15    1    4    4    0    0 -0.35125118025E+02  0.34106936259E+02  0.72460534856E+02  0.87468530671E+02  0.17770000000E+01 0.  1.
         15    1    4    4    0    0  0.11742306610E+02 -0.44161183427E+02  0.83747447986E+02  0.95419519279E+02  0.17770000000E+01 0. -1.
</event>
<event>
 8    1  0.1807540E-005  0.1825464E+03  0.7546771E-02  0.1068418E+00
        -11   -1    0    0    0    0  0.00000000000E+00  0.00000000000E+00  0.18250000000E+03  0.18250000000E+03  0.00000000000E+00 0. -1.
         11   -1    0    0    0    0 -0.00000000000E+00 -0.00000000000E+00 -0.18250000000E+03  0.18250000000E+03  0.00000000000E+00 0.  1.
         23    2    1    2    0    0  0.11536813818E+02 -0.14981234780E+03  0.49954235030E+02  0.18254643165E+03  0.90834665653E+02 0.  0.
         23    2    1    2    0    0 -0.11536813818E+02  0.14981234780E+03 -0.49954235030E+02  0.18245356835E+03  0.90647897812E+02 0.  0.
        -11    1    3    3    0    0  0.11459281072E+02 -0.14191604827E+03  0.11002636456E+02  0.14280244356E+03  0.00000000000E+00 0.  1.
         11    1    3    3    0    0  0.77532745419E-01 -0.78962995345E+01  0.38951598575E+02  0.39743988088E+02  0.00000000000E+00 0. -1.
        -15    1    4    4    0    0 -0.12936772992E+02 -0.66545458186E+01  0.65875975070E+01  0.16068517212E+02  0.17770000000E+01 0.  1.
         15    1    4    4    0    0  0.13999591740E+01  0.15646689362E+03 -0.56541832537E+02  0.16638505113E+03  0.17770000000E+01 0. -1.
</event>
<event>
 8    1  0.1807540E-005  0.1826761E+03  0.7546771E-02  0.1068315E+00
        -11   -1    0    0    0    0  0.00000000000E+00  0.00000000000E+00  0.18250000000E+03  0.18250000000E+03  0.00000000000E+00 0.  1.
         11   -1    0    0    0    0 -0.00000000000E+00 -0.00000000000E+00 -0.18250000000E+03  0.18250000000E+03  0.00000000000E+00 0. -1.
         23    2    1    2    0    0  0.47253043454E+02  0.14354323759E+03 -0.47200979717E+02  0.18232385101E+03  0.90424238933E+02 0.  0.
         23    2    1    2    0    0 -0.47253043454E+02 -0.14354323759E+03  0.47200979717E+02  0.18267614899E+03  0.91132495582E+02 0.  0.
        -11    1    3    3    0    0  0.60653455650E+02  0.14563643589E+03 -0.30285757149E+02  0.16064258535E+03  0.00000000000E+00 0.  1.
         11    1    3    3    0    0 -0.13400412197E+02 -0.20931982981E+01 -0.16915222569E+02  0.21681265662E+02  0.00000000000E+00 0. -1.
        -15    1    4    4    0    0 -0.37640292613E+02 -0.13073362045E+03  0.71361666038E+02  0.15363500985E+03  0.17770000000E+01 0.  1.
         15    1    4    4    0    0 -0.96127508402E+01 -0.12809617140E+02 -0.24160686321E+02  0.29041139139E+02  0.17770000000E+01 0. -1.
</event>
<event>
 8    1  0.1807540E-005  0.1826949E+03  0.7546771E-02  0.1068300E+00
        -11   -1    0    0    0    0  0.00000000000E+00  0.00000000000E+00  0.18250000000E+03  0.18250000000E+03  0.00000000000E+00 0.  1.
         11   -1    0    0    0    0 -0.00000000000E+00 -0.00000000000E+00 -0.18250000000E+03  0.18250000000E+03  0.00000000000E+00 0. -1.
         23    2    1    2    0    0 -0.44888874642E+02  0.37237680116E+02 -0.14715064302E+03  0.18269489446E+03  0.91227500422E+02 0.  0.
         23    2    1    2    0    0  0.44888874642E+02 -0.37237680116E+02  0.14715064302E+03  0.18230510554E+03  0.90444368962E+02 0.  0.
        -11    1    3    3    0    0 -0.70363778675E+01  0.49125946461E+02 -0.27715123381E+02  0.56841862155E+02  0.00000000000E+00 0.  1.
         11    1    3    3    0    0 -0.37852496774E+02 -0.11888266345E+02 -0.11943551964E+03  0.12585303231E+03  0.00000000000E+00 0. -1.
        -15    1    4    4    0    0  0.86043538614E+01  0.15511321114E+02  0.10295849291E+03  0.10449040616E+03  0.17770000000E+01 0.  1.
         15    1    4    4    0    0  0.36284520780E+02 -0.52749001230E+02  0.44192150111E+02  0.77814699379E+02  0.17770000000E+01 0. -1.
</event>
<event>
 8    1  0.1807540E-005  0.1835416E+03  0.7546771E-02  0.1067629E+00
        -11   -1    0    0    0    0  0.00000000000E+00  0.00000000000E+00  0.18250000000E+03  0.18250000000E+03  0.00000000000E+00 0. -1.
         11   -1    0    0    0    0 -0.00000000000E+00 -0.00000000000E+00 -0.18250000000E+03  0.18250000000E+03  0.00000000000E+00 0. -1.
         23    2    1    2    0    0  0.55552036568E+02 -0.54598717965E+02 -0.13597743747E+03  0.18145835884E+03  0.91488926771E+02 0.  0.
         23    2    1    2    0    0 -0.55552036568E+02  0.54598717965E+02  0.13597743747E+03  0.18354164116E+03  0.95554287013E+02 0.  0.
        -11    1    3    3    0    0 -0.19680953642E+02  0.36977360659E+01 -0.71006943619E+01  0.21246953869E+02  0.00000000000E+00 0. -1.
         11    1    3    3    0    0  0.75232990211E+02 -0.58296454031E+02 -0.12887674311E+03  0.16021140497E+03  0.00000000000E+00 0. -1.
        -15    1    4    4    0    0 -0.20479161136E+01  0.62976177784E+02  0.44285586951E+02  0.77036120549E+02  0.17770000000E+01 0.  1.
         15    1    4    4    0    0 -0.53504120455E+02 -0.83774598189E+01  0.91691850523E+02  0.10650552061E+03  0.17770000000E+01 0. -1.
</event>
<event>
 8    1  0.1807540E-005  0.1831723E+03  0.7546771E-02  0.1067921E+00
        -11   -1    0    0    0    0  0.00000000000E+00  0.00000000000E+00  0.18250000000E+03  0.18250000000E+03  0.00000000000E+00 0.  1.
         11   -1    0    0    0    0 -0.00000000000E+00 -0.00000000000E+00 -0.18250000000E+03  0.18250000000E+03  0.00000000000E+00 0. -1.
         23    2    1    2    0    0  0.30259624347E+02  0.10391845697E+02 -0.15395814492E+03  0.18182768734E+03  0.91293823293E+02 0.  0.
         23    2    1    2    0    0 -0.30259624347E+02 -0.10391845697E+02  0.15395814492E+03  0.18317231266E+03  0.93943336195E+02 0.  0.
        -11    1    3    3    0    0 -0.56886421887E+01 -0.25482666591E+02 -0.80333298193E+01  0.27317784217E+02  0.00000000000E+00 0.  1.
         11    1    3    3    0    0  0.35948266536E+02  0.35874512289E+02 -0.14592481510E+03  0.15450990312E+03  0.00000000000E+00 0. -1.
        -15    1    4    4    0    0 -0.25733569443E+02 -0.12149803036E+02  0.16685705753E+03  0.16927572090E+03  0.17770000000E+01 0.  1.
         15    1    4    4    0    0 -0.45260549045E+01  0.17579573391E+01 -0.12898912610E+02  0.13896591759E+02  0.17770000000E+01 0. -1.
</event>
<event>
 8    1  0.1807540E-005  0.1828585E+03  0.7546771E-02  0.1068170E+00
        -11   -1    0    0    0    0  0.00000000000E+00  0.00000000000E+00  0.18250000000E+03  0.18250000000E+03  0.00000000000E+00 0.  1.
         11   -1    0    0    0    0 -0.00000000000E+00 -0.00000000000E+00 -0.18250000000E+03  0.18250000000E+03  0.00000000000E+00 0. -1.
         23    2    1    2    0    0 -0.24495347437E+02  0.25091065094E+02  0.15354190635E+03  0.18285852319E+03  0.92911457339E+02 0.  0.
         23    2    1    2    0    0  0.24495347437E+02 -0.25091065094E+02 -0.15354190635E+03  0.18214147681E+03  0.91492168936E+02 0.  0.
        -11    1    3    3    0    0  0.19066169209E+02  0.23105149901E+02  0.81168492407E+01  0.31036269136E+02  0.00000000000E+00 0. -1.
         11    1    3    3    0    0 -0.43561516646E+02  0.19859151930E+01  0.14542505711E+03  0.15182225405E+03  0.00000000000E+00 0.  1.
        -15    1    4    4    0    0  0.38600322040E+02 -0.13922507295E+02 -0.15822244109E+03  0.16346657048E+03  0.17770000000E+01 0. -1.
         15    1    4    4    0    0 -0.14104974602E+02 -0.11168557799E+02  0.46805347465E+01  0.18674906328E+02  0.17770000000E+01 0.  1.
</event>
<event>
 8    1  0.1807540E-005  0.1829704E+03  0.7546771E-02  0.1068081E+00
        -11   -1    0    0    0    0  0.00000000000E+00  0.00000000000E+00  0.18250000000E+03  0.18250000000E+03  0.00000000000E+00 0.  1.
         11   -1    0    0    0    0 -0.00000000000E+00 -0.00000000000E+00 -0.18250000000E+03  0.18250000000E+03  0.00000000000E+00 0. -1.
         23    2    1    2    0    0 -0.77481697253E+02  0.56055329717E+02 -0.12512543706E+03  0.18297044995E+03  0.93146106515E+02 0.  0.
         23    2    1    2    0    0  0.77481697253E+02 -0.56055329717E+02  0.12512543706E+03  0.18202955005E+03  0.91284000200E+02 0.  0.
        -11    1    3    3    0    0 -0.92380149624E+02  0.20930483456E+02 -0.96944590960E+02  0.13553756269E+03  0.00000000000E+00 0.  1.
         11    1    3    3    0    0  0.14898452372E+02  0.35124846261E+02 -0.28180846097E+02  0.47432887268E+02  0.00000000000E+00 0. -1.
        -15    1    4    4    0    0  0.58085657742E+02 -0.70159085980E+02  0.12873893769E+03  0.15771211998E+03  0.17770000000E+01 0.  1.
         15    1    4    4    0    0  0.19396039511E+02  0.14103756263E+02 -0.36135006322E+01  0.24317430071E+02  0.17770000000E+01 0. -1.
</event>
<event>
 8    1  0.1807540E-005  0.1825417E+03  0.7546771E-02  0.1068422E+00
        -11   -1    0    0    0    0  0.00000000000E+00  0.00000000000E+00  0.18250000000E+03  0.18250000000E+03  0.00000000000E+00 0. -1.
         11   -1    0    0    0    0 -0.00000000000E+00 -0.00000000000E+00 -0.18250000000E+03  0.18250000000E+03  0.00000000000E+00 0.  1.
         23    2    1    2    0    0  0.31327681477E+02  0.31125251107E+02  0.15262011801E+03  0.18245826728E+03  0.89710166605E+02 0.  0.
         23    2    1    2    0    0 -0.31327681477E+02 -0.31125251107E+02 -0.15262011801E+03  0.18254173272E+03  0.89879802403E+02 0.  0.
        -11    1    3    3    0    0 -0.31540803375E+02  0.12889914090E+02  0.44186805761E+02  0.55798261318E+02  0.00000000000E+00 0.  1.
         11    1    3    3    0    0  0.62868484852E+02  0.18235337017E+02  0.10843331225E+03  0.12666000596E+03  0.00000000000E+00 0. -1.
        -15    1    4    4    0    0 -0.37728238959E+01  0.22162553435E+02 -0.10066668887E+03  0.10316178048E+03  0.17770000000E+01 0.  1.
         15    1    4    4    0    0 -0.27554857581E+02 -0.53287804541E+02 -0.51953429141E+02  0.79379952241E+02  0.17770000000E+01 0. -1.
</event>
<event>
 8    1  0.1807540E-005  0.1833912E+03  0.7546771E-02  0.1067748E+00
        -11   -1    0    0    0    0  0.00000000000E+00  0.00000000000E+00  0.18250000000E+03  0.18250000000E+03  0.00000000000E+00 0.  1.
         11   -1    0    0    0    0 -0.00000000000E+00 -0.00000000000E+00 -0.18250000000E+03  0.18250000000E+03  0.00000000000E+00 0. -1.
         23    2    1    2    0    0 -0.12599767244E+03  0.87679342402E+02  0.37594299589E+02  0.18160878975E+03  0.89472569026E+02 0.  0.
         23    2    1    2    0    0  0.12599767244E+03 -0.87679342402E+02 -0.37594299589E+02  0.18339121025E+03  0.93037218843E+02 0.  0.
        -11    1    3    3    0    0 -0.90820865573E+02  0.94222972688E+01  0.12132247788E+02  0.92110806889E+02  0.00000000000E+00 0. -1.
         11    1    3    3    0    0 -0.35176806869E+02  0.78257045133E+02  0.25462051801E+02  0.89497982862E+02  0.00000000000E+00 0.  1.
        -15    1    4    4    0    0  0.11879655759E+02  0.19194743114E+02 -0.29693678563E+00  0.22645314849E+02  0.17770000000E+01 0.  1.
         15    1    4    4    0    0  0.11411801668E+03 -0.10687408552E+03 -0.37297362803E+02  0.16074589540E+03  0.17770000000E+01 0. -1.
</event>
<event>
 8    1  0.1807540E-005  0.1847174E+03  0.7546771E-02  0.1066703E+00
        -11   -1    0    0    0    0  0.00000000000E+00  0.00000000000E+00  0.18250000000E+03  0.18250000000E+03  0.00000000000E+00 0.  1.
         11   -1    0    0    0    0 -0.00000000000E+00 -0.00000000000E+00 -0.18250000000E+03  0.18250000000E+03  0.00000000000E+00 0. -1.
         23    2    1    2    0    0 -0.13114380965E+03 -0.27016215111E+02  0.77434597245E+02  0.18028262457E+03  0.92612813272E+02 0.  0.
         23    2    1    2    0    0  0.13114380965E+03  0.27016215111E+02 -0.77434597245E+02  0.18471737543E+03  0.10097433956E+03 0.  0.
        -11    1    3    3    0    0 -0.12203232327E+03 -0.22830293982E+01  0.89442923440E+02  0.15131799860E+03  0.00000000000E+00 0.  1.
         11    1    3    3    0    0 -0.91114863798E+01 -0.24733185713E+02 -0.12008326196E+02  0.28964625970E+02  0.00000000000E+00 0. -1.
        -15    1    4    4    0    0  0.12384986048E+01  0.26452997633E+02 -0.42630415449E+02  0.50217576733E+02  0.17770000000E+01 0.  1.
         15    1    4    4    0    0  0.12990531104E+03  0.56321747887E+00 -0.34804181795E+02  0.13449979870E+03  0.17770000000E+01 0. -1.
</event>
<event>
 8    1  0.1807540E-005  0.1838991E+03  0.7546771E-02  0.1067347E+00
        -11   -1    0    0    0    0  0.00000000000E+00  0.00000000000E+00  0.18250000000E+03  0.18250000000E+03  0.00000000000E+00 0. -1.
         11   -1    0    0    0    0 -0.00000000000E+00 -0.00000000000E+00 -0.18250000000E+03  0.18250000000E+03  0.00000000000E+00 0.  1.
         23    2    1    2    0    0 -0.57523113259E+02  0.55186202123E+02 -0.13517440070E+03  0.18110086371E+03  0.90393466414E+02 0.  0.
         23    2    1    2    0    0  0.57523113259E+02 -0.55186202123E+02  0.13517440070E+03  0.18389913629E+03  0.95876734716E+02 0.  0.
        -11    1    3    3    0    0  0.11481686169E+02 -0.73334397693E+01  0.34989343671E+01  0.14065951722E+02  0.00000000000E+00 0. -1.
         11    1    3    3    0    0 -0.69004799428E+02  0.62519641892E+02 -0.13867333506E+03  0.16703491199E+03  0.00000000000E+00 0.  1.
        -15    1    4    4    0    0  0.52931315623E+02  0.83962875517E+00  0.11038722774E+03  0.12243744087E+03  0.17770000000E+01 0. -1.
         15    1    4    4    0    0  0.45917976353E+01 -0.56025830878E+02  0.24787172955E+02  0.61461695414E+02  0.17770000000E+01 0.  1.
</event>
<event>
 8    1  0.1807540E-005  0.1829912E+03  0.7546771E-02  0.1068064E+00
        -11   -1    0    0    0    0  0.00000000000E+00  0.00000000000E+00  0.18250000000E+03  0.18250000000E+03  0.00000000000E+00 0.  1.
         11   -1    0    0    0    0 -0.00000000000E+00 -0.00000000000E+00 -0.18250000000E+03  0.18250000000E+03  0.00000000000E+00 0. -1.
         23    2    1    2    0    0  0.29284613587E+02  0.49997242928E+02 -0.14687311828E+03  0.18200876995E+03  0.90543727412E+02 0.  0.
         23    2    1    2    0    0 -0.29284613587E+02 -0.49997242928E+02  0.14687311828E+03  0.18299123005E+03  0.92502781081E+02 0.  0.
        -11    1    3    3    0    0  0.17829962061E+02 -0.25345881188E+02 -0.36482123326E+02  0.47867176255E+02  0.00000000000E+00 0.  1.
         11    1    3    3    0    0  0.11454651526E+02  0.75343124116E+02 -0.11039099495E+03  0.13414159370E+03  0.00000000000E+00 0. -1.
        -15    1    4    4    0    0  0.20740540590E+01 -0.59347202639E+02  0.13608850334E+03  0.14849118031E+03  0.17770000000E+01 0.  1.
         15    1    4    4    0    0 -0.31358667646E+02  0.93499597110E+01  0.10784614941E+02  0.34500049733E+02  0.17770000000E+01 0. -1.
</event>
<event>
 8    1  0.1807540E-005  0.1870352E+03  0.7546771E-02  0.1064901E+00
        -11   -1    0    0    0    0  0.00000000000E+00  0.00000000000E+00  0.18250000000E+03  0.18250000000E+03  0.00000000000E+00 0.  1.
         11   -1    0    0    0    0 -0.00000000000E+00 -0.00000000000E+00 -0.18250000000E+03  0.18250000000E+03  0.00000000000E+00 0.  1.
         23    2    1    2    0    0  0.97164953685E+02  0.54012652068E+02  0.12151183883E+03  0.17796483025E+03  0.67438557380E+02 0.  0.
         23    2    1    2    0    0 -0.97164953685E+02 -0.54012652068E+02 -0.12151183883E+03  0.18703516975E+03  0.88648930849E+02 0.  0.
        -11    1    3    3    0    0  0.93069163402E+02  0.55214647143E+02  0.12958800200E+03  0.16883002309E+03  0.00000000000E+00 0.  1.
         11    1    3    3    0    0  0.40957902829E+01 -0.12019950750E+01 -0.80761631702E+01  0.91348071547E+01  0.00000000000E+00 0.  1.
        -15    1    4    4    0    0 -0.10602773195E+03 -0.21449496762E+02 -0.88253944061E+02  0.13962047566E+03  0.17770000000E+01 0.  1.
         15    1    4    4    0    0  0.88627782637E+01 -0.32563155306E+02 -0.33257894768E+02  0.47414694087E+02  0.17770000000E+01 0. -1.
</event>
<event>
 8    1  0.1807540E-005  0.1825852E+03  0.7546771E-02  0.1068387E+00
        -11   -1    0    0    0    0  0.00000000000E+00  0.00000000000E+00  0.18250000000E+03  0.18250000000E+03  0.00000000000E+00 0.  1.
         11   -1    0    0    0    0 -0.00000000000E+00 -0.00000000000E+00 -0.18250000000E+03  0.18250000000E+03  0.00000000000E+00 0. -1.
         23    2    1    2    0    0  0.61322560451E+02  0.23964149348E+02  0.14433019765E+03  0.18241482725E+03  0.90051243048E+02 0.  0.
         23    2    1    2    0    0 -0.61322560451E+02 -0.23964149348E+02 -0.14433019765E+03  0.18258517275E+03  0.90395810078E+02 0.  0.
        -11    1    3    3    0    0  0.81523489324E+02  0.32594984137E+01  0.94977842552E+02  0.12520980080E+03  0.00000000000E+00 0. -1.
         11    1    3    3    0    0 -0.20200928873E+02  0.20704650934E+02  0.49352355096E+02  0.57205026450E+02  0.00000000000E+00 0.  1.
        -15    1    4    4    0    0 -0.78888264123E+02 -0.18063966690E+02 -0.73464745350E+02  0.10931555995E+03  0.17770000000E+01 0.  1.
         15    1    4    4    0    0  0.17565703672E+02 -0.59001826573E+01 -0.70865452298E+02  0.73269612796E+02  0.17770000000E+01 0. -1.
</event>
<event>
 8    1  0.1807540E-005  0.1826021E+03  0.7546771E-02  0.1068374E+00
        -11   -1    0    0    0    0  0.00000000000E+00  0.00000000000E+00  0.18250000000E+03  0.18250000000E+03  0.00000000000E+00 0. -1.
         11   -1    0    0    0    0 -0.00000000000E+00 -0.00000000000E+00 -0.18250000000E+03  0.18250000000E+03  0.00000000000E+00 0.  1.
         23    2    1    2    0    0 -0.11527024189E+02  0.47504908341E+02  0.15019465047E+03  0.18260210033E+03  0.91626990630E+02 0.  0.
         23    2    1    2    0    0  0.11527024189E+02 -0.47504908341E+02 -0.15019465047E+03  0.18239789967E+03  0.91219362907E+02 0.  0.
        -11    1    3    3    0    0 -0.78548596315E+01 -0.60202222995E+00 -0.11456994024E+02  0.13904098772E+02  0.00000000000E+00 0.  1.
         11    1    3    3    0    0 -0.36721645578E+01  0.48106930571E+02  0.16165164450E+03  0.16869800156E+03  0.00000000000E+00 0. -1.
        -15    1    4    4    0    0  0.25359287654E+02 -0.55557823175E+02 -0.44756006861E+02  0.75736537189E+02  0.17770000000E+01 0. -1.
         15    1    4    4    0    0 -0.13832263465E+02  0.80529148343E+01 -0.10543864361E+03  0.10666136248E+03  0.17770000000E+01 0.  1.
</event>
<event>
 8    1  0.1807540E-005  0.1828926E+03  0.7546771E-02  0.1068143E+00
        -11   -1    0    0    0    0  0.00000000000E+00  0.00000000000E+00  0.18250000000E+03  0.18250000000E+03  0.00000000000E+00 0.  1.
         11   -1    0    0    0    0 -0.00000000000E+00 -0.00000000000E+00 -0.18250000000E+03  0.18250000000E+03  0.00000000000E+00 0. -1.
         23    2    1    2    0    0 -0.32826340158E+02 -0.90517152492E+01 -0.15359834034E+03  0.18289259652E+03  0.93261726070E+02 0.  0.
         23    2    1    2    0    0  0.32826340158E+02  0.90517152492E+01  0.15359834034E+03  0.18210740348E+03  0.91712344267E+02 0.  0.
        -11    1    3    3    0    0 -0.13198157929E+02  0.42188200484E+02 -0.74455034287E+02  0.86588612205E+02  0.00000000000E+00 0. -1.
         11    1    3    3    0    0 -0.19628182229E+02 -0.51239915734E+02 -0.79143306051E+02  0.96303984314E+02  0.00000000000E+00 0.  1.
        -15    1    4    4    0    0  0.51828223888E+02  0.10420077975E+02  0.15414271376E+03  0.16296587603E+03  0.17770000000E+01 0.  1.
         15    1    4    4    0    0 -0.19001883730E+02 -0.13683627261E+01 -0.54437341746E+00  0.19141527454E+02  0.17770000000E+01 0. -1.
</event>
<event>
 8    1  0.1807540E-005  0.1830103E+03  0.7546771E-02  0.1068049E+00
        -11   -1    0    0    0    0  0.00000000000E+00  0.00000000000E+00  0.18250000000E+03  0.18250000000E+03  0.00000000000E+00 0.  1.
         11   -1    0    0    0    0 -0.00000000000E+00 -0.00000000000E+00 -0.18250000000E+03  0.18250000000E+03  0.00000000000E+00 0. -1.
         23    2    1    2    0    0 -0.52258022410E+02  0.51667440808E+02  0.13952889642E+03  0.18301025823E+03  0.92865582076E+02 0.  0.
         23    2    1    2    0    0  0.52258022410E+02 -0.51667440808E+02 -0.13952889642E+03  0.18198974177E+03  0.90837920644E+02 0.  0.
        -11    1    3    3    0    0 -0.35540416789E+02  0.40458189673E+02  0.15067024024E+03  0.16000471127E+03  0.00000000000E+00 0.  1.
         11    1    3    3    0    0 -0.16717605622E+02  0.11209251135E+02 -0.11141343814E+02  0.23005546955E+02  0.00000000000E+00 0. -1.
        -15    1    4    4    0    0  0.78687233233E+01 -0.59923188190E+02 -0.39483672092E+02  0.72213734015E+02  0.17770000000E+01 0. -1.
         15    1    4    4    0    0  0.44389299087E+02  0.82557473821E+01 -0.10004522433E+03  0.10977600776E+03  0.17770000000E+01 0.  1.
</event>
<event>
 8    1  0.1807540E-005  0.1826405E+03  0.7546771E-02  0.1068343E+00
        -11   -1    0    0    0    0  0.00000000000E+00  0.00000000000E+00  0.18250000000E+03  0.18250000000E+03  0.00000000000E+00 0.  1.
         11   -1    0    0    0    0 -0.00000000000E+00 -0.00000000000E+00 -0.18250000000E+03  0.18250000000E+03  0.00000000000E+00 0. -1.
         23    2    1    2    0    0 -0.30030863415E+02  0.68561708993E+02 -0.13871468445E+03  0.18235951920E+03  0.91709704294E+02 0.  0.
         23    2    1    2    0    0  0.30030863415E+02 -0.68561708993E+02  0.13871468445E+03  0.18264048080E+03  0.92267116831E+02 0.  0.
        -11    1    3    3    0    0  0.23539609649E+02  0.30542425577E+02 -0.13314145138E+02  0.40794845794E+02  0.00000000000E+00 0.  1.
         11    1    3    3    0    0 -0.53570473063E+02  0.38019283415E+02 -0.12540053931E+03  0.14156467340E+03  0.00000000000E+00 0. -1.
        -15    1    4    4    0    0  0.35545782011E+00 -0.77943943175E+02  0.61277263690E+02  0.99163730277E+02  0.17770000000E+01 0. -1.
         15    1    4    4    0    0  0.29675405594E+02  0.93822341828E+01  0.77437420761E+02  0.83476750527E+02  0.17770000000E+01 0.  1.
</event>
<event>
 8    1  0.1807540E-005  0.1837577E+03  0.7546771E-02  0.1067458E+00
        -11   -1    0    0    0    0  0.00000000000E+00  0.00000000000E+00  0.18250000000E+03  0.18250000000E+03  0.00000000000E+00 0.  1.
         11   -1    0    0    0    0 -0.00000000000E+00 -0.00000000000E+00 -0.18250000000E+03  0.18250000000E+03  0.00000000000E+00 0. -1.
         23    2    1    2    0    0 -0.63778866667E+02  0.38879972672E+02 -0.13989951784E+03  0.18375773227E+03  0.92820434012E+02 0.  0.
         23    2    1    2    0    0  0.63778866667E+02 -0.38879972672E+02  0.13989951784E+03  0.18124226773E+03  0.87735331602E+02 0.  0.
        -11    1    3    3    0    0  0.20143908783E+02  0.18974919332E+01 -0.53550258154E+01  0.20929735741E+02  0.00000000000E+00 0.  1.
         11    1    3    3    0    0 -0.83922775450E+02  0.36982480739E+02 -0.13454449202E+03  0.16282799653E+03  0.00000000000E+00 0. -1.
        -15    1    4    4    0    0  0.36889864582E+02 -0.49909801986E+02  0.32729452067E+02  0.70187072917E+02  0.17770000000E+01 0. -1.
         15    1    4    4    0    0  0.26889002085E+02  0.11029829314E+02  0.10717006577E+03  0.11105519481E+03  0.17770000000E+01 0.  1.
</event>
<event>
 8    1  0.1807540E-005  0.1827483E+03  0.7546771E-02  0.1068257E+00
        -11   -1    0    0    0    0  0.00000000000E+00  0.00000000000E+00  0.18250000000E+03  0.18250000000E+03  0.00000000000E+00 0.  1.
         11   -1    0    0    0    0 -0.00000000000E+00 -0.00000000000E+00 -0.18250000000E+03  0.18250000000E+03  0.00000000000E+00 0. -1.
         23    2    1    2    0    0 -0.46847217023E+02  0.89032622884E+01 -0.15109429325E+03  0.18274833621E+03  0.91068870157E+02 0.  0.
         23    2    1    2    0    0  0.46847217023E+02 -0.89032622884E+01  0.15109429325E+03  0.18225166379E+03  0.90068050276E+02 0.  0.
        -11    1    3    3    0    0 -0.52940187340E+02 -0.18349771807E+02 -0.14313439226E+03  0.15371022025E+03  0.00000000000E+00 0. -1.
         11    1    3    3    0    0  0.60929703170E+01  0.27253034096E+02 -0.79599009899E+01  0.29038115960E+02  0.00000000000E+00 0.  1.
        -15    1    4    4    0    0 -0.84830626724E+01 -0.26335447676E+02  0.96390693864E+01  0.29352811522E+02  0.17770000000E+01 0. -1.
         15    1    4    4    0    0  0.55330279696E+02  0.17432185388E+02  0.14145522386E+03  0.15289885227E+03  0.17770000000E+01 0.  1.
</event>
<event>
 8    1  0.1807540E-005  0.1825824E+03  0.7546771E-02  0.1068389E+00
        -11   -1    0    0    0    0  0.00000000000E+00  0.00000000000E+00  0.18250000000E+03  0.18250000000E+03  0.00000000000E+00 0.  1.
         11   -1    0    0    0    0 -0.00000000000E+00 -0.00000000000E+00 -0.18250000000E+03  0.18250000000E+03  0.00000000000E+00 0. -1.
         23    2    1    2    0    0  0.48382091149E+02  0.85515855817E+02  0.12485004774E+03  0.18258235837E+03  0.89972189195E+02 0.  0.
         23    2    1    2    0    0 -0.48382091149E+02 -0.85515855817E+02 -0.12485004774E+03  0.18241764163E+03  0.89637454326E+02 0.  0.
        -11    1    3    3    0    0  0.50767605071E+02  0.96935712390E+02  0.78200383015E+02  0.13449602955E+03  0.00000000000E+00 0.  1.
         11    1    3    3    0    0 -0.23855139215E+01 -0.11419856574E+02  0.46649664720E+02  0.48086328820E+02  0.00000000000E+00 0. -1.
        -15    1    4    4    0    0 -0.63805754259E+02 -0.23246634426E+02 -0.74713796329E+02  0.10097964834E+03  0.17770000000E+01 0.  1.
         15    1    4    4    0    0  0.15423663110E+02 -0.62269221390E+02 -0.50136251406E+02  0.81437993285E+02  0.17770000000E+01 0. -1.
</event>
<event>
 8    1  0.1807540E-005  0.1829589E+03  0.7546771E-02  0.1068090E+00
        -11   -1    0    0    0    0  0.00000000000E+00  0.00000000000E+00  0.18250000000E+03  0.18250000000E+03  0.00000000000E+00 0.  1.
         11   -1    0    0    0    0 -0.00000000000E+00 -0.00000000000E+00 -0.18250000000E+03  0.18250000000E+03  0.00000000000E+00 0. -1.
         23    2    1    2    0    0 -0.14345090266E+03 -0.50053489536E+02 -0.40885378154E+02  0.18204108932E+03  0.91563260995E+02 0.  0.
         23    2    1    2    0    0  0.14345090266E+03  0.50053489536E+02  0.40885378154E+02  0.18295891068E+03  0.93374705151E+02 0.  0.
        -11    1    3    3    0    0 -0.11884516784E+03 -0.30104796072E+02 -0.68132160075E+02  0.14025856089E+03  0.00000000000E+00 0. -1.
         11    1    3    3    0    0 -0.24605734821E+02 -0.19948693465E+02  0.27246781921E+02  0.41782528431E+02  0.00000000000E+00 0.  1.
        -15    1    4    4    0    0  0.12070928302E+03  0.76098913724E+02  0.40473344922E+02  0.14833416685E+03  0.17770000000E+01 0.  1.
         15    1    4    4    0    0  0.22741619647E+02 -0.26045424188E+02  0.41203323204E+00  0.34624743835E+02  0.17770000000E+01 0. -1.
</event>
<event>
 8    1  0.1807540E-005  0.1839246E+03  0.7546771E-02  0.1067326E+00
        -11   -1    0    0    0    0  0.00000000000E+00  0.00000000000E+00  0.18250000000E+03  0.18250000000E+03  0.00000000000E+00 0. -1.
         11   -1    0    0    0    0 -0.00000000000E+00 -0.00000000000E+00 -0.18250000000E+03  0.18250000000E+03  0.00000000000E+00 0.  1.
         23    2    1    2    0    0 -0.14190339284E+03 -0.30741203449E+02  0.66336124233E+02  0.18392459056E+03  0.91357425243E+02 0.  0.
         23    2    1    2    0    0  0.14190339284E+03  0.30741203449E+02 -0.66336124233E+02  0.18107540944E+03  0.85476476507E+02 0.  0.
        -11    1    3    3    0    0 -0.95663207230E+02 -0.53215129866E+00 -0.24640872767E+01  0.95696416488E+02  0.00000000000E+00 0. -1.
         11    1    3    3    0    0 -0.46240185609E+02 -0.30209052150E+02  0.68800211510E+02  0.88228174075E+02  0.00000000000E+00 0.  1.
        -15    1    4    4    0    0  0.13027294228E+03  0.22366818318E+02 -0.85236944694E+02  0.15728893324E+03  0.17770000000E+01 0.  1.
         15    1    4    4    0    0  0.11630450560E+02  0.83743851303E+01  0.18900820461E+02  0.23786476192E+02  0.17770000000E+01 0. -1.
</event>
<event>
 8    1  0.1807540E-005  0.1827319E+03  0.7546771E-02  0.1068270E+00
        -11   -1    0    0    0    0  0.00000000000E+00  0.00000000000E+00  0.18250000000E+03  0.18250000000E+03  0.00000000000E+00 0.  1.
         11   -1    0    0    0    0 -0.00000000000E+00 -0.00000000000E+00 -0.18250000000E+03  0.18250000000E+03  0.00000000000E+00 0. -1.
         23    2    1    2    0    0  0.41845614219E+02  0.40416210268E+02 -0.14703545633E+03  0.18226812704E+03  0.90651636696E+02 0.  0.
         23    2    1    2    0    0 -0.41845614219E+02 -0.40416210268E+02  0.14703545633E+03  0.18273187296E+03  0.91580491901E+02 0.  0.
        -11    1    3    3    0    0 -0.71124008578E+01  0.30174229051E+02 -0.46437439498E+01  0.31347004684E+02  0.00000000000E+00 0.  1.
         11    1    3    3    0    0  0.48958015077E+02  0.10241981217E+02 -0.14239171238E+03  0.15092112236E+03  0.00000000000E+00 0. -1.
        -15    1    4    4    0    0  0.62194838913E+01  0.25281507830E+02  0.46897238533E+02  0.53668848777E+02  0.17770000000E+01 0. -1.
         15    1    4    4    0    0 -0.48065098110E+02 -0.65697718098E+02  0.10013821779E+03  0.12906302418E+03  0.17770000000E+01 0.  1.
</event>
<event>
 8    1  0.1807540E-005  0.1829203E+03  0.7546771E-02  0.1068121E+00
        -11   -1    0    0    0    0  0.00000000000E+00  0.00000000000E+00  0.18250000000E+03  0.18250000000E+03  0.00000000000E+00 0. -1.
         11   -1    0    0    0    0 -0.00000000000E+00 -0.00000000000E+00 -0.18250000000E+03  0.18250000000E+03  0.00000000000E+00 0.  1.
         23    2    1    2    0    0  0.43811410638E+02  0.14164629793E+03 -0.55526848689E+02  0.18292034882E+03  0.91616099395E+02 0.  0.
         23    2    1    2    0    0 -0.43811410638E+02 -0.14164629793E+03  0.55526848689E+02  0.18207965118E+03  0.89925830697E+02 0.  0.
        -11    1    3    3    0    0  0.62190389947E+02  0.47207084878E+02 -0.24952439715E+02  0.81968150596E+02  0.00000000000E+00 0.  1.
         11    1    3    3    0    0 -0.18378979309E+02  0.94439213056E+02 -0.30574408974E+02  0.10095219823E+03  0.00000000000E+00 0. -1.
        -15    1    4    4    0    0 -0.64225982712E+01 -0.81850571761E+02 -0.13682951805E+02  0.83253509027E+02  0.17770000000E+01 0.  1.
         15    1    4    4    0    0 -0.37388812367E+02 -0.59795726172E+02  0.69209800494E+02  0.98826142149E+02  0.17770000000E+01 0. -1.
</event>
<event>
 8    1  0.1807540E-005  0.1825344E+03  0.7546771E-02  0.1068427E+00
        -11   -1    0    0    0    0  0.00000000000E+00  0.00000000000E+00  0.18250000000E+03  0.18250000000E+03  0.00000000000E+00 0.  1.
         11   -1    0    0    0    0 -0.00000000000E+00 -0.00000000000E+00 -0.18250000000E+03  0.18250000000E+03  0.00000000000E+00 0. -1.
         23    2    1    2    0    0 -0.75641115092E+01 -0.50533763844E+00 -0.15797665672E+03  0.18246557255E+03  0.90992252147E+02 0.  0.
         23    2    1    2    0    0  0.75641115092E+01  0.50533763844E+00  0.15797665672E+03  0.18253442745E+03  0.91130247371E+02 0.  0.
        -11    1    3    3    0    0  0.19206627549E+02 -0.29138946077E+02 -0.22720251161E+02  0.41643517300E+02  0.00000000000E+00 0.  1.
         11    1    3    3    0    0 -0.26770739058E+02  0.28633608439E+02 -0.13525640556E+03  0.14082205525E+03  0.00000000000E+00 0. -1.
        -15    1    4    4    0    0 -0.33703390819E+01 -0.42277830410E+02  0.48379705450E+02  0.64362471660E+02  0.17770000000E+01 0. -1.
         15    1    4    4    0    0  0.10934450591E+02  0.42783168048E+02  0.10959695127E+03  0.11817195579E+03  0.17770000000E+01 0.  1.
</event>
<event>
 8    1  0.1807540E-005  0.1829195E+03  0.7546771E-02  0.1068121E+00
        -11   -1    0    0    0    0  0.00000000000E+00  0.00000000000E+00  0.18250000000E+03  0.18250000000E+03  0.00000000000E+00 0.  1.
         11   -1    0    0    0    0 -0.00000000000E+00 -0.00000000000E+00 -0.18250000000E+03  0.18250000000E+03  0.00000000000E+00 0. -1.
         23    2    1    2    0    0  0.47524788371E+02 -0.16357732880E+02  0.15015216323E+03  0.18208048660E+03  0.89896888396E+02 0.  0.
         23    2    1    2    0    0 -0.47524788371E+02  0.16357732880E+02 -0.15015216323E+03  0.18291951340E+03  0.91584361800E+02 0.  0.
        -11    1    3    3    0    0  0.51459608689E+02 -0.47323696860E+02  0.11876336890E+03  0.13781277664E+03  0.00000000000E+00 0.  1.
         11    1    3    3    0    0 -0.39348203177E+01  0.30965963980E+02  0.31388794324E+02  0.44267709962E+02  0.00000000000E+00 0. -1.
        -15    1    4    4    0    0  0.16216270760E+02  0.34505982822E+02 -0.55581939878E+02  0.67425069948E+02  0.17770000000E+01 0.  1.
         15    1    4    4    0    0 -0.63741059131E+02 -0.18148249942E+02 -0.94570223350E+02  0.11549444345E+03  0.17770000000E+01 0. -1.
</event>
<event>
 8    1  0.1807540E-005  0.1825989E+03  0.7546771E-02  0.1068376E+00
        -11   -1    0    0    0    0  0.00000000000E+00  0.00000000000E+00  0.18250000000E+03  0.18250000000E+03  0.00000000000E+00 0.  1.
         11   -1    0    0    0    0 -0.00000000000E+00 -0.00000000000E+00 -0.18250000000E+03  0.18250000000E+03  0.00000000000E+00 0. -1.
         23    2    1    2    0    0  0.90528039202E+01  0.47890395629E+02 -0.14974328892E+03  0.18240114888E+03  0.92041747500E+02 0.  0.
         23    2    1    2    0    0 -0.90528039202E+01 -0.47890395629E+02  0.14974328892E+03  0.18259885112E+03  0.92432919463E+02 0.  0.
        -11    1    3    3    0    0 -0.33697672214E+02  0.34080838831E+02 -0.35503296428E+02  0.59644955741E+02  0.00000000000E+00 0.  1.
         11    1    3    3    0    0  0.42750476134E+02  0.13809556798E+02 -0.11423999250E+03  0.12275619314E+03  0.00000000000E+00 0. -1.
        -15    1    4    4    0    0 -0.17024504570E+02 -0.74359373696E+02  0.10170756285E+03  0.12714848124E+03  0.17770000000E+01 0.  1.
         15    1    4    4    0    0  0.79717006494E+01  0.26468978067E+02  0.48035726076E+02  0.55450369880E+02  0.17770000000E+01 0. -1.
</event>
<event>
 8    1  0.1807540E-005  0.1830615E+03  0.7546771E-02  0.1068009E+00
        -11   -1    0    0    0    0  0.00000000000E+00  0.00000000000E+00  0.18250000000E+03  0.18250000000E+03  0.00000000000E+00 0. -1.
         11   -1    0    0    0    0 -0.00000000000E+00 -0.00000000000E+00 -0.18250000000E+03  0.18250000000E+03  0.00000000000E+00 0.  1.
         23    2    1    2    0    0  0.21534871609E+02  0.10115048797E+02 -0.15561529570E+03  0.18306152431E+03  0.93430918418E+02 0.  0.
         23    2    1    2    0    0 -0.21534871609E+02 -0.10115048797E+02  0.15561529570E+03  0.18193847569E+03  0.91210875303E+02 0.  0.
        -11    1    3    3    0    0 -0.36456106340E+02 -0.13347213134E+01 -0.48109269289E+02  0.60376576269E+02  0.00000000000E+00 0. -1.
         11    1    3    3    0    0  0.57990977949E+02  0.11449770110E+02 -0.10750602642E+03  0.12268494804E+03  0.00000000000E+00 0.  1.
        -15    1    4    4    0    0  0.29380641131E+02 -0.23493810602E+00  0.17148559680E+02  0.34066231040E+02  0.17770000000E+01 0.  1.
         15    1    4    4    0    0 -0.50915512740E+02 -0.98801106908E+01  0.13846673602E+03  0.14787224465E+03  0.17770000000E+01 0. -1.
</event>
<event>
 8    1  0.1807540E-005  0.1841922E+03  0.7546771E-02  0.1067116E+00
        -11   -1    0    0    0    0  0.00000000000E+00  0.00000000000E+00  0.18250000000E+03  0.18250000000E+03  0.00000000000E+00 0.  1.
         11   -1    0    0    0    0 -0.00000000000E+00 -0.00000000000E+00 -0.18250000000E+03  0.18250000000E+03  0.00000000000E+00 0. -1.
         23    2    1    2    0    0 -0.99377334854E+02  0.12983127237E+02 -0.11959786169E+03  0.18080783283E+03  0.91342255379E+02 0.  0.
         23    2    1    2    0    0  0.99377334854E+02 -0.12983127237E+02  0.11959786169E+03  0.18419216717E+03  0.97870780375E+02 0.  0.
        -11    1    3    3    0    0 -0.16088355366E+02 -0.15879857941E+02  0.94718969668E+01  0.24509628695E+02  0.00000000000E+00 0.  1.
         11    1    3    3    0    0 -0.83288979487E+02  0.28862985178E+02 -0.12906975865E+03  0.15629820414E+03  0.00000000000E+00 0. -1.
        -15    1    4    4    0    0  0.80523965703E+02  0.27479341913E+02  0.10898284390E+03  0.13827379100E+03  0.17770000000E+01 0.  1.
         15    1    4    4    0    0  0.18853369151E+02 -0.40462469150E+02  0.10615017782E+02  0.45918376164E+02  0.17770000000E+01 0. -1.
</event>
<event>
 8    1  0.1807540E-005  0.1830266E+03  0.7546771E-02  0.1068036E+00
        -11   -1    0    0    0    0  0.00000000000E+00  0.00000000000E+00  0.18250000000E+03  0.18250000000E+03  0.00000000000E+00 0.  1.
         11   -1    0    0    0    0 -0.00000000000E+00 -0.00000000000E+00 -0.18250000000E+03  0.18250000000E+03  0.00000000000E+00 0. -1.
         23    2    1    2    0    0  0.11213668379E+03 -0.11128270079E+03  0.77435302592E+01  0.18197336993E+03  0.89977051277E+02 0.  0.
         23    2    1    2    0    0 -0.11213668379E+03  0.11128270079E+03 -0.77435302592E+01  0.18302663007E+03  0.92088597063E+02 0.  0.
        -11    1    3    3    0    0  0.27692705728E+02 -0.35451907775E+02 -0.38701895369E+02  0.59342736882E+02  0.00000000000E+00 0.  1.
         11    1    3    3    0    0  0.84443978062E+02 -0.75830793010E+02  0.46445425629E+02  0.12263063305E+03  0.00000000000E+00 0. -1.
        -15    1    4    4    0    0 -0.10837794047E+03  0.46767227488E+02 -0.13164247961E+01  0.11805863903E+03  0.17770000000E+01 0. -1.
         15    1    4    4    0    0 -0.37587433231E+01  0.64515473297E+02 -0.64271054631E+01  0.64967991040E+02  0.17770000000E+01 0.  1.
</event>
<event>
 8    1  0.1807540E-005  0.1833682E+03  0.7546771E-02  0.1067766E+00
        -11   -1    0    0    0    0  0.00000000000E+00  0.00000000000E+00  0.18250000000E+03  0.18250000000E+03  0.00000000000E+00 0. -1.
         11   -1    0    0    0    0 -0.00000000000E+00 -0.00000000000E+00 -0.18250000000E+03  0.18250000000E+03  0.00000000000E+00 0.  1.
         23    2    1    2    0    0 -0.14400385504E+03 -0.59508480223E+02  0.33239833844E+02  0.18163183521E+03  0.87217357918E+02 0.  0.
         23    2    1    2    0    0  0.14400385504E+03  0.59508480223E+02 -0.33239833844E+02  0.18336816479E+03  0.90777903821E+02 0.  0.
        -11    1    3    3    0    0 -0.74968628535E+02 -0.50263664401E+02 -0.21804548478E+02  0.92855638266E+02  0.00000000000E+00 0.  1.
         11    1    3    3    0    0 -0.69035226502E+02 -0.92448158216E+01  0.55044382322E+02  0.88776196939E+02  0.00000000000E+00 0. -1.
        -15    1    4    4    0    0  0.51184680658E+02 -0.12590409504E+02 -0.39137090805E+02  0.65675410552E+02  0.17770000000E+01 0. -1.
         15    1    4    4    0    0  0.92819174380E+02  0.72098889727E+02  0.58972569619E+01  0.11769275424E+03  0.17770000000E+01 0.  1.
</event>
<event>
 8    1  0.1807540E-005  0.1834066E+03  0.7546771E-02  0.1067735E+00
        -11   -1    0    0    0    0  0.00000000000E+00  0.00000000000E+00  0.18250000000E+03  0.18250000000E+03  0.00000000000E+00 0. -1.
         11   -1    0    0    0    0 -0.00000000000E+00 -0.00000000000E+00 -0.18250000000E+03  0.18250000000E+03  0.00000000000E+00 0.  1.
         23    2    1    2    0    0 -0.24195445365E+02  0.10416192365E+02 -0.15707375755E+03  0.18159338812E+03  0.87235753331E+02 0.  0.
         23    2    1    2    0    0  0.24195445365E+02 -0.10416192365E+02  0.15707375755E+03  0.18340661188E+03  0.90950004563E+02 0.  0.
        -11    1    3    3    0    0  0.21385037285E+02 -0.25094893067E+02 -0.65156884260E+02  0.73023921041E+02  0.00000000000E+00 0. -1.
         11    1    3    3    0    0 -0.45580482650E+02  0.35511085431E+02 -0.91916873290E+02  0.10856946708E+03  0.00000000000E+00 0.  1.
        -15    1    4    4    0    0 -0.50390163647E+00  0.62248090107E+01 -0.10963112489E+02  0.12741653288E+02  0.17770000000E+01 0.  1.
         15    1    4    4    0    0  0.24699347002E+02 -0.16641001375E+02  0.16803687004E+03  0.17066495859E+03  0.17770000000E+01 0. -1.
</event>
<event>
 8    1  0.1807540E-005  0.1825594E+03  0.7546771E-02  0.1068408E+00
        -11   -1    0    0    0    0  0.00000000000E+00  0.00000000000E+00  0.18250000000E+03  0.18250000000E+03  0.00000000000E+00 0. -1.
         11   -1    0    0    0    0 -0.00000000000E+00 -0.00000000000E+00 -0.18250000000E+03  0.18250000000E+03  0.00000000000E+00 0.  1.
         23    2    1    2    0    0 -0.73838348060E+02 -0.36417789455E+02  0.13527261008E+03  0.18244060804E+03  0.90595471140E+02 0.  0.
         23    2    1    2    0    0  0.73838348060E+02  0.36417789455E+02 -0.13527261008E+03  0.18255939196E+03  0.90834440162E+02 0.  0.
        -11    1    3    3    0    0 -0.32188940933E+02 -0.44885753274E+02  0.12788288969E+03  0.13930144379E+03  0.00000000000E+00 0. -1.
         11    1    3    3    0    0 -0.41649407127E+02  0.84679638187E+01  0.73897203933E+01  0.43139164256E+02  0.00000000000E+00 0.  1.
        -15    1    4    4    0    0  0.66680347425E+02  0.56246197349E+02 -0.13577979467E+03  0.16139768839E+03  0.17770000000E+01 0.  1.
         15    1    4    4    0    0  0.71580006341E+01 -0.19828407894E+02  0.50718458111E+00  0.21161703567E+02  0.17770000000E+01 0. -1.
</event>
<event>
 8    1  0.1807540E-005  0.1841818E+03  0.7546771E-02  0.1067124E+00
        -11   -1    0    0    0    0  0.00000000000E+00  0.00000000000E+00  0.18250000000E+03  0.18250000000E+03  0.00000000000E+00 0.  1.
         11   -1    0    0    0    0 -0.00000000000E+00 -0.00000000000E+00 -0.18250000000E+03  0.18250000000E+03  0.00000000000E+00 0. -1.
         23    2    1    2    0    0 -0.17133504816E+02 -0.40868669266E+02 -0.15133045173E+03  0.18081823558E+03  0.88490245677E+02 0.  0.
         23    2    1    2    0    0  0.17133504816E+02  0.40868669266E+02  0.15133045173E+03  0.18418176442E+03  0.95174637430E+02 0.  0.
        -11    1    3    3    0    0 -0.91197551120E+01 -0.67381079033E+02 -0.12651937526E+03  0.14363332504E+03  0.00000000000E+00 0. -1.
         11    1    3    3    0    0 -0.80137497040E+01  0.26512409768E+02 -0.24811076474E+02  0.37184910539E+02  0.00000000000E+00 0.  1.
        -15    1    4    4    0    0  0.24733929720E+01  0.25707055712E+02  0.15943154230E+03  0.16151948735E+03  0.17770000000E+01 0.  1.
         15    1    4    4    0    0  0.14660111844E+02  0.15161613554E+02 -0.81010905633E+01  0.22662277073E+02  0.17770000000E+01 0. -1.
</event>
<event>
 8    1  0.1807540E-005  0.1836087E+03  0.7546771E-02  0.1067576E+00
        -11   -1    0    0    0    0  0.00000000000E+00  0.00000000000E+00  0.18250000000E+03  0.18250000000E+03  0.00000000000E+00 0. -1.
         11   -1    0    0    0    0 -0.00000000000E+00 -0.00000000000E+00 -0.18250000000E+03  0.18250000000E+03  0.00000000000E+00 0.  1.
         23    2    1    2    0    0  0.18109848926E+02 -0.22973554361E+02  0.15618910744E+03  0.18139131012E+03  0.87475821079E+02 0.  0.
         23    2    1    2    0    0 -0.18109848926E+02  0.22973554361E+02 -0.15618910744E+03  0.18360868988E+03  0.91985666758E+02 0.  0.
        -11    1    3    3    0    0  0.35008356596E+02  0.27416329881E+01  0.17321200654E+02  0.39155147491E+02  0.00000000000E+00 0.  1.
         11    1    3    3    0    0 -0.16898507670E+02 -0.25715187349E+02  0.13886790679E+03  0.14223616262E+03  0.00000000000E+00 0. -1.
        -15    1    4    4    0    0 -0.28937752966E+02  0.52905733554E+02 -0.74141907545E+02  0.95585513405E+02  0.17770000000E+01 0.  1.
         15    1    4    4    0    0  0.10827904040E+02 -0.29932179193E+02 -0.82047199899E+02  0.88023176479E+02  0.17770000000E+01 0. -1.
</event>
<event>
 8    1  0.1807540E-005  0.1831385E+03  0.7546771E-02  0.1067948E+00
        -11   -1    0    0    0    0  0.00000000000E+00  0.00000000000E+00  0.18250000000E+03  0.18250000000E+03  0.00000000000E+00 0.  1.
         11   -1    0    0    0    0 -0.00000000000E+00 -0.00000000000E+00 -0.18250000000E+03  0.18250000000E+03  0.00000000000E+00 0. -1.
         23    2    1    2    0    0 -0.13395649334E+03 -0.51898905377E+01 -0.84428849066E+02  0.18186151486E+03  0.89297832892E+02 0.  0.
         23    2    1    2    0    0  0.13395649334E+03  0.51898905377E+01  0.84428849066E+02  0.18313848514E+03  0.91870545414E+02 0.  0.
        -11    1    3    3    0    0 -0.17318834858E+02 -0.25230444563E+02  0.80771689909E+01  0.31650561331E+02  0.00000000000E+00 0.  1.
         11    1    3    3    0    0 -0.11663765848E+03  0.20040554025E+02 -0.92506018057E+02  0.15021095352E+03  0.00000000000E+00 0. -1.
        -15    1    4    4    0    0  0.37477243423E+01  0.18966213806E+02  0.40681313899E+02  0.45076487590E+02  0.17770000000E+01 0. -1.
         15    1    4    4    0    0  0.13020876900E+03 -0.13776323269E+02  0.43747535168E+02  0.13806199756E+03  0.17770000000E+01 0.  1.
</event>
<event>
 8    1  0.1807540E-005  0.1826109E+03  0.7546771E-02  0.1068367E+00
        -11   -1    0    0    0    0  0.00000000000E+00  0.00000000000E+00  0.18250000000E+03  0.18250000000E+03  0.00000000000E+00 0. -1.
         11   -1    0    0    0    0 -0.00000000000E+00 -0.00000000000E+00 -0.18250000000E+03  0.18250000000E+03  0.00000000000E+00 0.  1.
         23    2    1    2    0    0 -0.14353828477E+03 -0.36099591507E+02 -0.53523439983E+02  0.18238912971E+03  0.92166242772E+02 0.  0.
         23    2    1    2    0    0  0.14353828477E+03  0.36099591507E+02  0.53523439983E+02  0.18261087029E+03  0.92604274313E+02 0.  0.
        -11    1    3    3    0    0 -0.56314094885E+02 -0.48476559551E+02 -0.57873509418E+02  0.94183847877E+02  0.00000000000E+00 0.  1.
         11    1    3    3    0    0 -0.87224189882E+02  0.12376968044E+02  0.43500694350E+01  0.88205281829E+02  0.00000000000E+00 0. -1.
        -15    1    4    4    0    0  0.88301340509E+02 -0.25013569647E+02  0.34381159968E+02  0.98020545254E+02  0.17770000000E+01 0.  1.
         15    1    4    4    0    0  0.55236944258E+02  0.61113161154E+02  0.19142280015E+02  0.84590325040E+02  0.17770000000E+01 0. -1.
</event>
<event>
 8    1  0.1807540E-005  0.1834841E+03  0.7546771E-02  0.1067674E+00
        -11   -1    0    0    0    0  0.00000000000E+00  0.00000000000E+00  0.18250000000E+03  0.18250000000E+03  0.00000000000E+00 0.  1.
         11   -1    0    0    0    0 -0.00000000000E+00 -0.00000000000E+00 -0.18250000000E+03  0.18250000000E+03  0.00000000000E+00 0. -1.
         23    2    1    2    0    0 -0.58771921361E+02 -0.10350820322E+03 -0.10307660634E+03  0.18348413307E+03  0.94199540543E+02 0.  0.
         23    2    1    2    0    0  0.58771921361E+02  0.10350820322E+03  0.10307660634E+03  0.18151586693E+03  0.90305793282E+02 0.  0.
        -11    1    3    3    0    0  0.17554566522E+02 -0.41229443796E+02 -0.60557812360E+01  0.45218384844E+02  0.00000000000E+00 0. -1.
         11    1    3    3    0    0 -0.76326487883E+02 -0.62278759425E+02 -0.97020825100E+02  0.13826574822E+03  0.00000000000E+00 0.  1.
        -15    1    4    4    0    0  0.17386085113E+02  0.69561606612E+02  0.77057637861E+01  0.72136187829E+02  0.17770000000E+01 0. -1.
         15    1    4    4    0    0  0.41385836248E+02  0.33946596610E+02  0.95370842550E+02  0.10937967910E+03  0.17770000000E+01 0.  1.
</event>
<event>
 8    1  0.1807540E-005  0.1839638E+03  0.7546771E-02  0.1067296E+00
        -11   -1    0    0    0    0  0.00000000000E+00  0.00000000000E+00  0.18250000000E+03  0.18250000000E+03  0.00000000000E+00 0.  1.
         11   -1    0    0    0    0 -0.00000000000E+00 -0.00000000000E+00 -0.18250000000E+03  0.18250000000E+03  0.00000000000E+00 0.  1.
         23    2    1    2    0    0  0.21958474518E+02 -0.14424882739E+02 -0.15393372664E+03  0.18396378046E+03  0.97246226037E+02 0.  0.
         23    2    1    2    0    0 -0.21958474518E+02  0.14424882739E+02  0.15393372664E+03  0.18103621954E+03  0.91587492294E+02 0.  0.
        -11    1    3    3    0    0  0.41867060449E+02  0.28022837908E+02 -0.55631221148E+02  0.75053067636E+02  0.00000000000E+00 0.  1.
         11    1    3    3    0    0 -0.19908585931E+02 -0.42447720647E+02 -0.98302505489E+02  0.10891071282E+03  0.00000000000E+00 0.  1.
        -15    1    4    4    0    0 -0.25886748480E+02  0.38963321893E+02  0.14827243178E+03  0.15548677100E+03  0.17770000000E+01 0.  1.
         15    1    4    4    0    0  0.39282739620E+01 -0.24538439154E+02  0.56612948542E+01  0.25549448543E+02  0.17770000000E+01 0. -1.
</event>
<event>
 8    1  0.1807540E-005  0.1829401E+03  0.7546771E-02  0.1068105E+00
        -11   -1    0    0    0    0  0.00000000000E+00  0.00000000000E+00  0.18250000000E+03  0.18250000000E+03  0.00000000000E+00 0.  1.
         11   -1    0    0    0    0 -0.00000000000E+00 -0.00000000000E+00 -0.18250000000E+03  0.18250000000E+03  0.00000000000E+00 0. -1.
         23    2    1    2    0    0 -0.60959018396E+02 -0.41522425499E+02  0.13879313067E+03  0.18205994747E+03  0.91881323502E+02 0.  0.
         23    2    1    2    0    0  0.60959018396E+02  0.41522425499E+02 -0.13879313067E+03  0.18294005253E+03  0.93613118502E+02 0.  0.
        -11    1    3    3    0    0 -0.34453492801E+02 -0.16086700222E+02 -0.47629848855E+00  0.38026989764E+02  0.00000000000E+00 0. -1.
         11    1    3    3    0    0 -0.26505525595E+02 -0.25435725277E+02  0.13926942916E+03  0.14403295771E+03  0.00000000000E+00 0.  1.
        -15    1    4    4    0    0  0.44868233793E+02 -0.80557705176E+01 -0.11849765030E+03  0.12697600048E+03  0.17770000000E+01 0. -1.
         15    1    4    4    0    0  0.16090784603E+02  0.49578196016E+02 -0.20295480369E+02  0.55964052049E+02  0.17770000000E+01 0.  1.
</event>
<event>
 8    1  0.1807540E-005  0.1837132E+03  0.7546771E-02  0.1067493E+00
        -11   -1    0    0    0    0  0.00000000000E+00  0.00000000000E+00  0.18250000000E+03  0.18250000000E+03  0.00000000000E+00 0.  1.
         11   -1    0    0    0    0 -0.00000000000E+00 -0.00000000000E+00 -0.18250000000E+03  0.18250000000E+03  0.00000000000E+00 0. -1.
         23    2    1    2    0    0  0.48699981688E+02 -0.40022056432E+02  0.14637365207E+03  0.18371323989E+03  0.91388485450E+02 0.  0.
         23    2    1    2    0    0 -0.48699981688E+02  0.40022056432E+02 -0.14637365207E+03  0.18128676011E+03  0.86407118654E+02 0.  0.
        -11    1    3    3    0    0  0.30498215849E+02 -0.69206416324E+02  0.88728330069E+02  0.11658638766E+03  0.00000000000E+00 0.  1.
         11    1    3    3    0    0  0.18201765839E+02  0.29184359891E+02  0.57645322000E+02  0.67126852231E+02  0.00000000000E+00 0. -1.
        -15    1    4    4    0    0  0.19659188000E+02 -0.99197072623E+01 -0.26092573650E+02  0.34188658846E+02  0.17770000000E+01 0.  1.
         15    1    4    4    0    0 -0.68359169688E+02  0.49941763695E+02 -0.12028107842E+03  0.14709810127E+03  0.17770000000E+01 0. -1.
</event>
<event>
 8    1  0.1807540E-005  0.1851549E+03  0.7546771E-02  0.1066361E+00
        -11   -1    0    0    0    0  0.00000000000E+00  0.00000000000E+00  0.18250000000E+03  0.18250000000E+03  0.00000000000E+00 0. -1.
         11   -1    0    0    0    0 -0.00000000000E+00 -0.00000000000E+00 -0.18250000000E+03  0.18250000000E+03  0.00000000000E+00 0.  1.
         23    2    1    2    0    0 -0.59547800534E+02  0.10649120167E+03 -0.96923513013E+02  0.17984512314E+03  0.89798576593E+02 0.  0.
         23    2    1    2    0    0  0.59547800534E+02 -0.10649120167E+03  0.96923513013E+02  0.18515487686E+03  0.10000922192E+03 0.  0.
        -11    1    3    3    0    0  0.10125747445E+02  0.22965065957E+02 -0.59900972366E+02  0.64946528053E+02  0.00000000000E+00 0. -1.
         11    1    3    3    0    0 -0.69673547979E+02  0.83526135718E+02 -0.37022540646E+02  0.11489859508E+03  0.00000000000E+00 0.  1.
        -15    1    4    4    0    0  0.17880204436E+02 -0.77975746880E+02  0.10702618591E+03  0.13363263453E+03  0.17770000000E+01 0. -1.
         15    1    4    4    0    0  0.41667596098E+02 -0.28515454795E+02 -0.10102672895E+02  0.51522242337E+02  0.17770000000E+01 0.  1.
</event>
<event>
 8    1  0.1807540E-005  0.1880052E+03  0.7546771E-02  0.1064155E+00
        -11   -1    0    0    0    0  0.00000000000E+00  0.00000000000E+00  0.18250000000E+03  0.18250000000E+03  0.00000000000E+00 0.  1.
         11   -1    0    0    0    0 -0.00000000000E+00 -0.00000000000E+00 -0.18250000000E+03  0.18250000000E+03  0.00000000000E+00 0. -1.
         23    2    1    2    0    0 -0.49577928578E+02  0.55578043194E+01 -0.15672006231E+03  0.17699482820E+03  0.65399778973E+02 0.  0.
         23    2    1    2    0    0  0.49577928578E+02 -0.55578043194E+01  0.15672006231E+03  0.18800517180E+03  0.91081867030E+02 0.  0.
        -11    1    3    3    0    0 -0.45376367115E+02 -0.17128258810E+02 -0.14091580227E+03  0.14902904171E+03  0.00000000000E+00 0. -1.
         11    1    3    3    0    0 -0.42015614632E+01  0.22686063129E+02 -0.15804260037E+02  0.27965786496E+02  0.00000000000E+00 0.  1.
        -15    1    4    4    0    0  0.73421606993E+02 -0.73952356072E+01  0.14151932721E+03  0.15961296810E+03  0.17770000000E+01 0.  1.
         15    1    4    4    0    0 -0.23843678415E+02  0.18374312878E+01  0.15200735095E+02  0.28392203693E+02  0.17770000000E+01 0. -1.
</event>
<event>
 8    1  0.1807540E-005  0.1827113E+03  0.7546771E-02  0.1068287E+00
        -11   -1    0    0    0    0  0.00000000000E+00  0.00000000000E+00  0.18250000000E+03  0.18250000000E+03  0.00000000000E+00 0. -1.
         11   -1    0    0    0    0 -0.00000000000E+00 -0.00000000000E+00 -0.18250000000E+03  0.18250000000E+03  0.00000000000E+00 0.  1.
         23    2    1    2    0    0 -0.35076078151E+02 -0.20024244436E+02 -0.15225363232E+03  0.18271127596E+03  0.92579372345E+02 0.  0.
         23    2    1    2    0    0  0.35076078151E+02  0.20024244436E+02  0.15225363232E+03  0.18228872404E+03  0.91742622239E+02 0.  0.
        -11    1    3    3    0    0  0.77248706111E+01  0.24134393784E+02 -0.96266869651E+02  0.99546234392E+02  0.00000000000E+00 0. -1.
         11    1    3    3    0    0 -0.42800948762E+02 -0.44158638220E+02 -0.55986762668E+02  0.83165041565E+02  0.00000000000E+00 0.  1.
        -15    1    4    4    0    0  0.58564213776E+02 -0.74130667492E+01  0.12037375855E+03  0.13408102091E+03  0.17770000000E+01 0. -1.
         15    1    4    4    0    0 -0.23488135625E+02  0.27437311186E+02  0.31879873772E+02  0.48207703129E+02  0.17770000000E+01 0.  1.
</event>
<event>
 8    1  0.1807540E-005  0.1826494E+03  0.7546771E-02  0.1068336E+00
        -11   -1    0    0    0    0  0.00000000000E+00  0.00000000000E+00  0.18250000000E+03  0.18250000000E+03  0.00000000000E+00 0.  1.
         11   -1    0    0    0    0 -0.00000000000E+00 -0.00000000000E+00 -0.18250000000E+03  0.18250000000E+03  0.00000000000E+00 0. -1.
         23    2    1    2    0    0 -0.12182258967E+01 -0.17582305326E+02 -0.15691771816E+03  0.18264936023E+03  0.91798676383E+02 0.  0.
         23    2    1    2    0    0  0.12182258967E+01  0.17582305326E+02  0.15691771816E+03  0.18235063977E+03  0.91202872841E+02 0.  0.
        -11    1    3    3    0    0 -0.81992479799E+01 -0.32783315782E+02 -0.16174651341E+03  0.16523894233E+03  0.00000000000E+00 0. -1.
         11    1    3    3    0    0  0.69810220832E+01  0.15201010457E+02  0.48287952455E+01  0.17410417909E+02  0.00000000000E+00 0.  1.
        -15    1    4    4    0    0 -0.14584691459E+02 -0.34854219952E+02  0.57326075223E+02  0.68680175472E+02  0.17770000000E+01 0. -1.
         15    1    4    4    0    0  0.15802917356E+02  0.52436525277E+02  0.99591642941E+02  0.11367046429E+03  0.17770000000E+01 0.  1.
</event>
<event>
 8    1  0.1807540E-005  0.1838117E+03  0.7546771E-02  0.1067415E+00
        -11   -1    0    0    0    0  0.00000000000E+00  0.00000000000E+00  0.18250000000E+03  0.18250000000E+03  0.00000000000E+00 0.  1.
         11   -1    0    0    0    0 -0.00000000000E+00 -0.00000000000E+00 -0.18250000000E+03  0.18250000000E+03  0.00000000000E+00 0. -1.
         23    2    1    2    0    0  0.11812499695E+02  0.34312488010E+01 -0.15915995897E+03  0.18118828613E+03  0.85708773595E+02 0.  0.
         23    2    1    2    0    0 -0.11812499695E+02 -0.34312488010E+01  0.15915995897E+03  0.18381171387E+03  0.91123789423E+02 0.  0.
        -11    1    3    3    0    0 -0.13508021130E+02 -0.13100537588E+02  0.36668095751E+00  0.18820870725E+02  0.00000000000E+00 0.  1.
         11    1    3    3    0    0  0.25320520825E+02  0.16531786389E+02 -0.15952663993E+03  0.16236741540E+03  0.00000000000E+00 0. -1.
        -15    1    4    4    0    0 -0.12329029392E+02  0.14276519443E+02 -0.42640679093E+01  0.19420710010E+02  0.17770000000E+01 0. -1.
         15    1    4    4    0    0  0.51652969750E+00 -0.17707768244E+02  0.16342402688E+03  0.16439100386E+03  0.17770000000E+01 0.  1.
</event>
<event>
 8    1  0.1807540E-005  0.1825015E+03  0.7546771E-02  0.1068454E+00
        -11   -1    0    0    0    0  0.00000000000E+00  0.00000000000E+00  0.18250000000E+03  0.18250000000E+03  0.00000000000E+00 0. -1.
         11   -1    0    0    0    0 -0.00000000000E+00 -0.00000000000E+00 -0.18250000000E+03  0.18250000000E+03  0.00000000000E+00 0.  1.
         23    2    1    2    0    0  0.67084722808E+02  0.59404008620E+02  0.12852250820E+03  0.18250145175E+03  0.93592459637E+02 0.  0.
         23    2    1    2    0    0 -0.67084722808E+02 -0.59404008620E+02 -0.12852250820E+03  0.18249854825E+03  0.93586797813E+02 0.  0.
        -11    1    3    3    0    0  0.19835276705E+02 -0.22951551602E+02  0.13094606511E+02  0.33040590833E+02  0.00000000000E+00 0.  1.
         11    1    3    3    0    0  0.47249446103E+02  0.82355560222E+02  0.11542790169E+03  0.14946086092E+03  0.00000000000E+00 0. -1.
        -15    1    4    4    0    0 -0.65856167233E+02 -0.69489819891E+02 -0.59556028654E+02  0.11276501279E+03  0.17770000000E+01 0.  1.
         15    1    4    4    0    0 -0.12285555751E+01  0.10085811272E+02 -0.68966479549E+02  0.69733535463E+02  0.17770000000E+01 0. -1.
</event>
<event>
 8    1  0.1807540E-005  0.1863952E+03  0.7546771E-02  0.1065396E+00
        -11   -1    0    0    0    0  0.00000000000E+00  0.00000000000E+00  0.18250000000E+03  0.18250000000E+03  0.00000000000E+00 0. -1.
         11   -1    0    0    0    0 -0.00000000000E+00 -0.00000000000E+00 -0.18250000000E+03  0.18250000000E+03  0.00000000000E+00 0.  1.
         23    2    1    2    0    0 -0.91009685777E+02 -0.40754435669E+02 -0.12799685713E+03  0.17860478374E+03  0.74651097841E+02 0.  0.
         23    2    1    2    0    0  0.91009685777E+02  0.40754435669E+02  0.12799685713E+03  0.18639521626E+03  0.91740363396E+02 0.  0.
        -11    1    3    3    0    0 -0.57093787156E+02 -0.55472613630E+02 -0.11406292868E+03  0.13909443948E+03  0.00000000000E+00 0.  1.
         11    1    3    3    0    0 -0.33915898621E+02  0.14718177961E+02 -0.13933928447E+02  0.39510344262E+02  0.00000000000E+00 0. -1.
        -15    1    4    4    0    0  0.36749615400E+02  0.14935512318E+02  0.11919883056E+03  0.12563885823E+03  0.17770000000E+01 0. -1.
         15    1    4    4    0    0  0.54260070376E+02  0.25818923351E+02  0.87980265662E+01  0.60756358027E+02  0.17770000000E+01 0.  1.
</event>
<event>
 8    1  0.1807540E-005  0.1837547E+03  0.7546771E-02  0.1067460E+00
        -11   -1    0    0    0    0  0.00000000000E+00  0.00000000000E+00  0.18250000000E+03  0.18250000000E+03  0.00000000000E+00 0.  1.
         11   -1    0    0    0    0 -0.00000000000E+00 -0.00000000000E+00 -0.18250000000E+03  0.18250000000E+03  0.00000000000E+00 0. -1.
         23    2    1    2    0    0 -0.16165060215E+02 -0.36348912397E+01 -0.15637294706E+03  0.18375470906E+03  0.95072461429E+02 0.  0.
         23    2    1    2    0    0  0.16165060215E+02  0.36348912397E+01  0.15637294706E+03  0.18124529094E+03  0.90126773542E+02 0.  0.
        -11    1    3    3    0    0  0.18951250830E+02  0.36395249567E+02 -0.49073808486E+02  0.63968764083E+02  0.00000000000E+00 0.  1.
         11    1    3    3    0    0 -0.35116311045E+02 -0.40030140807E+02 -0.10729913858E+03  0.11978594498E+03  0.00000000000E+00 0. -1.
        -15    1    4    4    0    0 -0.15420671372E+02  0.31631502697E+02  0.12137695953E+03  0.12638778858E+03  0.17770000000E+01 0.  1.
         15    1    4    4    0    0  0.31585731587E+02 -0.27996611458E+02  0.34995987535E+02  0.54857502363E+02  0.17770000000E+01 0. -1.
</event>
<event>
 8    1  0.1807540E-005  0.1828844E+03  0.7546771E-02  0.1068149E+00
        -11   -1    0    0    0    0  0.00000000000E+00  0.00000000000E+00  0.18250000000E+03  0.18250000000E+03  0.00000000000E+00 0.  1.
         11   -1    0    0    0    0 -0.00000000000E+00 -0.00000000000E+00 -0.18250000000E+03  0.18250000000E+03  0.00000000000E+00 0. -1.
         23    2    1    2    0    0  0.41089775990E+02  0.15270983137E+03  0.20008036764E+01  0.18288440944E+03  0.91837038879E+02 0.  0.
         23    2    1    2    0    0 -0.41089775990E+02 -0.15270983137E+03 -0.20008036764E+01  0.18211559056E+03  0.90296305694E+02 0.  0.
        -11    1    3    3    0    0  0.28180188928E+02  0.52235701502E+02 -0.41723961255E+02  0.72550537574E+02  0.00000000000E+00 0. -1.
         11    1    3    3    0    0  0.12909587062E+02  0.10047412987E+03  0.43724764932E+02  0.11033387186E+03  0.00000000000E+00 0.  1.
        -15    1    4    4    0    0 -0.17761676420E+02 -0.15053502880E+01  0.20768554736E+02  0.27426881404E+02  0.17770000000E+01 0.  1.
         15    1    4    4    0    0 -0.23328099570E+02 -0.15120448109E+03 -0.22769358412E+02  0.15468870916E+03  0.17770000000E+01 0. -1.
</event>
<event>
 8    1  0.1807540E-005  0.1830903E+03  0.7546771E-02  0.1067986E+00
        -11   -1    0    0    0    0  0.00000000000E+00  0.00000000000E+00  0.18250000000E+03  0.18250000000E+03  0.00000000000E+00 0.  1.
         11   -1    0    0    0    0 -0.00000000000E+00 -0.00000000000E+00 -0.18250000000E+03  0.18250000000E+03  0.00000000000E+00 0. -1.
         23    2    1    2    0    0 -0.10940481027E+03 -0.60732296511E+02  0.96602511846E+02  0.18190973268E+03  0.90007117485E+02 0.  0.
         23    2    1    2    0    0  0.10940481027E+03  0.60732296511E+02 -0.96602511846E+02  0.18309026732E+03  0.92369780471E+02 0.  0.
        -11    1    3    3    0    0 -0.75397507532E+01 -0.39212631131E+02  0.70758415827E-01  0.39930981560E+02  0.00000000000E+00 0. -1.
         11    1    3    3    0    0 -0.10186505952E+03 -0.21519665381E+02  0.96531753430E+02  0.14197875112E+03  0.00000000000E+00 0.  1.
        -15    1    4    4    0    0 -0.86660672031E+01 -0.98563602886E+01  0.25776956866E+01  0.13492620315E+02  0.17770000000E+01 0. -1.
         15    1    4    4    0    0  0.11807087747E+03  0.70588656800E+02 -0.99180207533E+02  0.16959764701E+03  0.17770000000E+01 0.  1.
</event>
