<event>
 7    1  0.2374062E-007  0.1688648E+03  0.7546771E-02  0.1079858E+00
        -11   -1    0    0    0    0  0.00000000000E+00  0.00000000000E+00  0.18250000000E+03  0.18250000000E+03  0.00000000000E+00 0.  1.
         11   -1    0    0    0    0 -0.00000000000E+00 -0.00000000000E+00 -0.18250000000E+03  0.18250000000E+03  0.00000000000E+00 0. -1.
         25    2    1    2    0    0 -0.23087454561E+02 -0.96445864627E+02 -0.54815257437E+02  0.16871315534E+03  0.12499832389E+03 0.  0.
        -11    1    1    2    0    0 -0.47487381367E+02  0.87507243375E+02  0.72284069271E+02  0.12303477436E+03  0.00000000000E+00 0.  1.
         11    1    1    2    0    0  0.70574835929E+02  0.89386212520E+01 -0.17468811834E+02  0.73252070299E+02  0.00000000000E+00 0. -1.
        -15    1    3    3    0    0 -0.28661114986E+02 -0.38836498126E+02  0.36531313113E+02  0.60559290499E+02  0.17770000000E+01 0.  1.
         15    1    3    3    0    0  0.55736604250E+01 -0.57609366501E+02 -0.91346570551E+02  0.10815386484E+03  0.17770000000E+01 0.  1.
</event>
<event>
 8    1  0.2374062E-007  0.1827232E+03  0.7546771E-02  0.1068277E+00
        -11   -1    0    0    0    0  0.00000000000E+00  0.00000000000E+00  0.18250000000E+03  0.18250000000E+03  0.00000000000E+00 0. -1.
         11   -1    0    0    0    0 -0.00000000000E+00 -0.00000000000E+00 -0.18250000000E+03  0.18250000000E+03  0.00000000000E+00 0.  1.
         25    2    1    2    0    0 -0.61123550859E+02 -0.36531203608E+02  0.11265663826E+03  0.18272322809E+03  0.12500257051E+03 0.  0.
         23    2    1    2    0    0  0.61123550859E+02  0.36531203608E+02 -0.11265663826E+03  0.18227677191E+03  0.12434904956E+03 0.  0.
        -11    1    4    4    0    0  0.48466755370E+02  0.43934118658E+02 -0.13815701400E+03  0.15286135442E+03  0.00000000000E+00 0.  1.
         11    1    4    4    0    0  0.12656795490E+02 -0.74029150505E+01  0.25500375736E+02  0.29415417488E+02  0.00000000000E+00 0. -1.
        -15    1    3    3    0    0  0.12115411030E+02 -0.48744450920E+02  0.30873554384E+01  0.50353690754E+02  0.17770000000E+01 0. -1.
         15    1    3    3    0    0 -0.73238961889E+02  0.12213247312E+02  0.10956928282E+03  0.13236953734E+03  0.17770000000E+01 0. -1.
</event>
<event>
 8    1  0.2374062E-007  0.1852186E+03  0.7546771E-02  0.1066311E+00
        -11   -1    0    0    0    0  0.00000000000E+00  0.00000000000E+00  0.18250000000E+03  0.18250000000E+03  0.00000000000E+00 0.  1.
         11   -1    0    0    0    0 -0.00000000000E+00 -0.00000000000E+00 -0.18250000000E+03  0.18250000000E+03  0.00000000000E+00 0. -1.
         25    2    1    2    0    0 -0.62873137741E+02  0.99348473930E+02 -0.69690073657E+02  0.18521856446E+03  0.12500423806E+03 0.  0.
         23    2    1    2    0    0  0.62873137741E+02 -0.99348473930E+02  0.69690073657E+02  0.17978143554E+03  0.11679686416E+03 0.  0.
        -11    1    4    4    0    0  0.90455485508E+02 -0.71983404585E+02  0.21008164987E+02  0.11749531221E+03  0.00000000000E+00 0. -1.
         11    1    4    4    0    0 -0.27582347767E+02 -0.27365069344E+02  0.48681908670E+02  0.62286123336E+02  0.00000000000E+00 0.  1.
        -15    1    3    3    0    0  0.26775155230E+02  0.69870291181E+02 -0.46184918076E+02  0.87948683412E+02  0.17770000000E+01 0. -1.
         15    1    3    3    0    0 -0.89648292971E+02  0.29478182748E+02 -0.23505155581E+02  0.97269881046E+02  0.17770000000E+01 0. -1.
</event>
<event>
 8    1  0.2374062E-007  0.1889858E+03  0.7546771E-02  0.1063406E+00
        -11   -1    0    0    0    0  0.00000000000E+00  0.00000000000E+00  0.18250000000E+03  0.18250000000E+03  0.00000000000E+00 0. -1.
         11   -1    0    0    0    0 -0.00000000000E+00 -0.00000000000E+00 -0.18250000000E+03  0.18250000000E+03  0.00000000000E+00 0.  1.
         25    2    1    2    0    0 -0.87168803368E+02 -0.10924619095E+03 -0.23713727388E+02  0.18898576590E+03  0.12498059181E+03 0.  0.
         23    2    1    2    0    0  0.87168803368E+02  0.10924619095E+03  0.23713727388E+02  0.17601423410E+03  0.10433378753E+03 0.  0.
        -11    1    4    4    0    0  0.53674857170E+02  0.61149556881E+01  0.38833456088E+02  0.66531348153E+02  0.00000000000E+00 0. -1.
         11    1    4    4    0    0  0.33493946198E+02  0.10313123526E+03 -0.15119728700E+02  0.10948288594E+03  0.00000000000E+00 0.  1.
        -15    1    3    3    0    0 -0.60359866990E+02 -0.61916832342E+02 -0.74796063349E+02  0.11434428928E+03  0.17770000000E+01 0.  1.
         15    1    3    3    0    0 -0.26808936378E+02 -0.47329358607E+02  0.51082335961E+02  0.74641476621E+02  0.17770000000E+01 0.  1.
</event>
<event>
 8    1  0.2374062E-007  0.1960493E+03  0.7546771E-02  0.1058154E+00
        -11   -1    0    0    0    0  0.00000000000E+00  0.00000000000E+00  0.18250000000E+03  0.18250000000E+03  0.00000000000E+00 0. -1.
         11   -1    0    0    0    0 -0.00000000000E+00 -0.00000000000E+00 -0.18250000000E+03  0.18250000000E+03  0.00000000000E+00 0.  1.
         25    2    1    2    0    0  0.12379683247E+03  0.84549980365E+02  0.18342560223E+02  0.19604932493E+03  0.12499813351E+03 0.  0.
         23    2    1    2    0    0 -0.12379683247E+03 -0.84549980365E+02 -0.18342560223E+02  0.16895067507E+03  0.75720051368E+02 0.  0.
        -11    1    4    4    0    0 -0.91218665269E+02 -0.63315908506E+02 -0.47069040889E+02  0.12060366401E+03  0.00000000000E+00 0.  1.
         11    1    4    4    0    0 -0.32578167205E+02 -0.21234071859E+02  0.28726480666E+02  0.48347011051E+02  0.00000000000E+00 0. -1.
        -15    1    3    3    0    0  0.11738962043E+03  0.15201602025E+02  0.36815048977E+02  0.12397547035E+03  0.17770000000E+01 0. -1.
         15    1    3    3    0    0  0.64072120438E+01  0.69348378340E+02 -0.18472488754E+02  0.72073854582E+02  0.17770000000E+01 0. -1.
</event>
<event>
 8    1  0.2374062E-007  0.1983307E+03  0.7546771E-02  0.1056508E+00
        -11   -1    0    0    0    0  0.00000000000E+00  0.00000000000E+00  0.18250000000E+03  0.18250000000E+03  0.00000000000E+00 0. -1.
         11   -1    0    0    0    0 -0.00000000000E+00 -0.00000000000E+00 -0.18250000000E+03  0.18250000000E+03  0.00000000000E+00 0.  1.
         25    2    1    2    0    0  0.61946182897E+02  0.13105442420E+03 -0.51940210447E+02  0.19833068406E+03  0.12499873240E+03 0.  0.
         23    2    1    2    0    0 -0.61946182897E+02 -0.13105442420E+03  0.51940210447E+02  0.16666931594E+03  0.63783099144E+02 0.  0.
        -11    1    4    4    0    0 -0.30647138074E+02 -0.27311746258E+02 -0.94525604084E+01  0.42125164143E+02  0.00000000000E+00 0. -1.
         11    1    4    4    0    0 -0.31299044823E+02 -0.10374267794E+03  0.61392770856E+02  0.12454415179E+03  0.00000000000E+00 0.  1.
        -15    1    3    3    0    0 -0.37354679463E+02  0.21832665673E+02 -0.59675383095E+01  0.43712773998E+02  0.17770000000E+01 0. -1.
         15    1    3    3    0    0  0.99300862360E+02  0.10922175852E+03 -0.45972672138E+02  0.15461791007E+03  0.17770000000E+01 0. -1.
</event>
<event>
 8    1  0.2374062E-007  0.1856842E+03  0.7546771E-02  0.1065948E+00
        -11   -1    0    0    0    0  0.00000000000E+00  0.00000000000E+00  0.18250000000E+03  0.18250000000E+03  0.00000000000E+00 0. -1.
         11   -1    0    0    0    0 -0.00000000000E+00 -0.00000000000E+00 -0.18250000000E+03  0.18250000000E+03  0.00000000000E+00 0.  1.
         25    2    1    2    0    0  0.57059644413E+02  0.69999896233E+02 -0.10342810520E+03  0.18568420522E+03  0.12500185050E+03 0.  0.
         23    2    1    2    0    0 -0.57059644413E+02 -0.69999896233E+02  0.10342810520E+03  0.17931579478E+03  0.11532993029E+03 0.  0.
        -11    1    4    4    0    0 -0.65141696147E+01 -0.80113072857E+02  0.99083761408E+02  0.12758577751E+03  0.00000000000E+00 0. -1.
         11    1    4    4    0    0 -0.50545474798E+02  0.10113176624E+02  0.43443437909E+01  0.51730017272E+02  0.00000000000E+00 0.  1.
        -15    1    3    3    0    0 -0.22448584663E+02  0.68839643066E+02 -0.65136060258E+02  0.97409955783E+02  0.17770000000E+01 0.  1.
         15    1    3    3    0    0  0.79508229076E+02  0.11602531667E+01 -0.38292044941E+02  0.88274249433E+02  0.17770000000E+01 0.  1.
</event>
<event>
 8    1  0.2374062E-007  0.1857588E+03  0.7546771E-02  0.1065890E+00
        -11   -1    0    0    0    0  0.00000000000E+00  0.00000000000E+00  0.18250000000E+03  0.18250000000E+03  0.00000000000E+00 0. -1.
         11   -1    0    0    0    0 -0.00000000000E+00 -0.00000000000E+00 -0.18250000000E+03  0.18250000000E+03  0.00000000000E+00 0.  1.
         25    2    1    2    0    0  0.77093225039E+02 -0.97234138058E+02 -0.59047130993E+02  0.18575876651E+03  0.12498765021E+03 0.  0.
         23    2    1    2    0    0 -0.77093225039E+02  0.97234138058E+02  0.59047130993E+02  0.17924123349E+03  0.11507829142E+03 0.  0.
        -11    1    4    4    0    0  0.60251183889E+01  0.65931183263E+02 -0.97175856349E+01  0.66915278141E+02  0.00000000000E+00 0.  1.
         11    1    4    4    0    0 -0.83118343428E+02  0.31302954794E+02  0.68764716628E+02  0.11232595535E+03  0.00000000000E+00 0. -1.
        -15    1    3    3    0    0 -0.23687412981E+02 -0.37057061084E+01  0.16220978271E+02  0.29001787127E+02  0.17770000000E+01 0. -1.
         15    1    3    3    0    0  0.10078063802E+03 -0.93528431949E+02 -0.75268109264E+02  0.15675697938E+03  0.17770000000E+01 0. -1.
</event>
<event>
 8    1  0.2374062E-007  0.1858292E+03  0.7546771E-02  0.1065835E+00
        -11   -1    0    0    0    0  0.00000000000E+00  0.00000000000E+00  0.18250000000E+03  0.18250000000E+03  0.00000000000E+00 0.  1.
         11   -1    0    0    0    0 -0.00000000000E+00 -0.00000000000E+00 -0.18250000000E+03  0.18250000000E+03  0.00000000000E+00 0. -1.
         25    2    1    2    0    0  0.10288369132E+03  0.86030503058E+02  0.30458610326E+02  0.18582915338E+03  0.12497378088E+03 0.  0.
         23    2    1    2    0    0 -0.10288369132E+03 -0.86030503058E+02 -0.30458610326E+02  0.17917084662E+03  0.11483973154E+03 0.  0.
        -11    1    4    4    0    0 -0.10497038379E+03 -0.15630529263E+02 -0.18920555771E+02  0.10780112406E+03  0.00000000000E+00 0.  1.
         11    1    4    4    0    0  0.20866924691E+01 -0.70399973795E+02 -0.11538054555E+02  0.71369722563E+02  0.00000000000E+00 0. -1.
        -15    1    3    3    0    0 -0.27567463746E+02  0.15245482715E+02 -0.78947983079E+01  0.32524996079E+02  0.17770000000E+01 0.  1.
         15    1    3    3    0    0  0.13045115506E+03  0.70785020343E+02  0.38353408634E+02  0.15330415730E+03  0.17770000000E+01 0.  1.
</event>
<event>
 7    1  0.2374062E-007  0.1754678E+03  0.7546771E-02  0.1074194E+00
        -11   -1    0    0    0    0  0.00000000000E+00  0.00000000000E+00  0.18250000000E+03  0.18250000000E+03  0.00000000000E+00 0.  1.
         11   -1    0    0    0    0 -0.00000000000E+00 -0.00000000000E+00 -0.18250000000E+03  0.18250000000E+03  0.00000000000E+00 0. -1.
         25    2    1    2    0    0 -0.75743637218E+02 -0.12379115452E+02 -0.63128645339E+02  0.15968727055E+03  0.12499782972E+03 0.  0.
        -11    1    1    2    0    0 -0.55892788593E+02  0.22527128213E+02  0.32710103420E+01  0.60350433560E+02  0.00000000000E+00 0.  1.
         11    1    1    2    0    0  0.13163642581E+03 -0.10148012762E+02  0.59857634998E+02  0.14496229589E+03  0.00000000000E+00 0. -1.
        -15    1    3    3    0    0  0.13887154652E+02 -0.43161866778E+02  0.75618751744E+00  0.45382037820E+02  0.17770000000E+01 0.  1.
         15    1    3    3    0    0 -0.89630791870E+02  0.30782751326E+02 -0.63884832857E+02  0.11430523273E+03  0.17770000000E+01 0.  1.
</event>
<event>
 8    1  0.2374062E-007  0.1890028E+03  0.7546771E-02  0.1063393E+00
        -11   -1    0    0    0    0  0.00000000000E+00  0.00000000000E+00  0.18250000000E+03  0.18250000000E+03  0.00000000000E+00 0.  1.
         11   -1    0    0    0    0 -0.00000000000E+00 -0.00000000000E+00 -0.18250000000E+03  0.18250000000E+03  0.00000000000E+00 0. -1.
         25    2    1    2    0    0 -0.13455642506E+03  0.14269236536E+02  0.42302698155E+02  0.18900283705E+03  0.12499404588E+03 0.  0.
         23    2    1    2    0    0  0.13455642506E+03 -0.14269236536E+02 -0.42302698155E+02  0.17599716295E+03  0.10429017432E+03 0.  0.
        -11    1    4    4    0    0  0.47508814051E+02 -0.44391334943E+02  0.16030876061E+02  0.66967656505E+02  0.00000000000E+00 0.  1.
         11    1    4    4    0    0  0.87047611010E+02  0.30122098407E+02 -0.58333574216E+02  0.10902950645E+03  0.00000000000E+00 0. -1.
        -15    1    3    3    0    0 -0.12715125157E+02  0.82075433534E+01 -0.39348802429E+02  0.42196257622E+02  0.17770000000E+01 0.  1.
         15    1    3    3    0    0 -0.12184129990E+03  0.60616931823E+01  0.81651500584E+02  0.14680657943E+03  0.17770000000E+01 0.  1.
</event>
<event>
 8    1  0.2374062E-007  0.1856820E+03  0.7546771E-02  0.1065950E+00
        -11   -1    0    0    0    0  0.00000000000E+00  0.00000000000E+00  0.18250000000E+03  0.18250000000E+03  0.00000000000E+00 0. -1.
         11   -1    0    0    0    0 -0.00000000000E+00 -0.00000000000E+00 -0.18250000000E+03  0.18250000000E+03  0.00000000000E+00 0.  1.
         25    2    1    2    0    0 -0.19979301290E+02  0.10998618059E+03 -0.79769812974E+02  0.18568203103E+03  0.12497384200E+03 0.  0.
         23    2    1    2    0    0  0.19979301290E+02 -0.10998618059E+03  0.79769812974E+02  0.17931796897E+03  0.11530645486E+03 0.  0.
        -11    1    4    4    0    0  0.24337435713E+02 -0.82269623804E+02 -0.89574677972E+01  0.86260292181E+02  0.00000000000E+00 0.  1.
         11    1    4    4    0    0 -0.43581344223E+01 -0.27716556790E+02  0.88727280771E+02  0.93057676786E+02  0.00000000000E+00 0. -1.
        -15    1    3    3    0    0 -0.41074775107E+02  0.11493240667E+03 -0.98605892904E+02  0.15691677762E+03  0.17770000000E+01 0.  1.
         15    1    3    3    0    0  0.21095473817E+02 -0.49462260754E+01  0.18836079931E+02  0.28765253416E+02  0.17770000000E+01 0.  1.
</event>
<event>
 8    1  0.2374062E-007  0.1828111E+03  0.7546771E-02  0.1068207E+00
        -11   -1    0    0    0    0  0.00000000000E+00  0.00000000000E+00  0.18250000000E+03  0.18250000000E+03  0.00000000000E+00 0.  1.
         11   -1    0    0    0    0 -0.00000000000E+00 -0.00000000000E+00 -0.18250000000E+03  0.18250000000E+03  0.00000000000E+00 0. -1.
         25    2    1    2    0    0 -0.42656191867E+02 -0.12422729561E+03  0.17796197791E+02  0.18218885475E+03  0.12499640979E+03 0.  0.
         23    2    1    2    0    0  0.42656191867E+02  0.12422729561E+03 -0.17796197791E+02  0.18281114525E+03  0.12590170171E+03 0.  0.
        -11    1    4    4    0    0 -0.24017209836E+02  0.55391807256E+02  0.38559393375E+02  0.71637319163E+02  0.00000000000E+00 0.  1.
         11    1    4    4    0    0  0.66673401703E+02  0.68835488353E+02 -0.56355591166E+02  0.11117382609E+03  0.00000000000E+00 0. -1.
        -15    1    3    3    0    0 -0.36114294980E+02  0.69968416340E+01 -0.24402894941E+02  0.44179826904E+02  0.17770000000E+01 0. -1.
         15    1    3    3    0    0 -0.65418968874E+01 -0.13122413724E+03  0.42199092732E+02  0.13800902784E+03  0.17770000000E+01 0. -1.
</event>
<event>
 8    1  0.2374062E-007  0.1862634E+03  0.7546771E-02  0.1065498E+00
        -11   -1    0    0    0    0  0.00000000000E+00  0.00000000000E+00  0.18250000000E+03  0.18250000000E+03  0.00000000000E+00 0. -1.
         11   -1    0    0    0    0 -0.00000000000E+00 -0.00000000000E+00 -0.18250000000E+03  0.18250000000E+03  0.00000000000E+00 0. -1.
         25    2    1    2    0    0  0.12012749578E+02  0.12913012262E+03 -0.47398696051E+02  0.18626338637E+03  0.12501407119E+03 0.  0.
         23    2    1    2    0    0 -0.12012749578E+02 -0.12913012262E+03  0.47398696051E+02  0.17873661363E+03  0.11349557676E+03 0.  0.
        -11    1    4    4    0    0 -0.37514976367E+02 -0.12814044550E+03  0.64229889094E+02  0.14816486047E+03  0.00000000000E+00 0. -1.
         11    1    4    4    0    0  0.25502226789E+02 -0.98967712178E+00 -0.16831193043E+02  0.30571753160E+02  0.00000000000E+00 0. -1.
        -15    1    3    3    0    0  0.46990554827E+02  0.48484551823E+01  0.36549265360E+01  0.47414512310E+02  0.17770000000E+01 0. -1.
         15    1    3    3    0    0 -0.34977805250E+02  0.12428166744E+03 -0.51053622587E+02  0.13884887406E+03  0.17770000000E+01 0. -1.
</event>
<event>
 7    1  0.2374062E-007  0.1691396E+03  0.7546771E-02  0.1079617E+00
        -11   -1    0    0    0    0  0.00000000000E+00  0.00000000000E+00  0.18250000000E+03  0.18250000000E+03  0.00000000000E+00 0. -1.
         11   -1    0    0    0    0 -0.00000000000E+00 -0.00000000000E+00 -0.18250000000E+03  0.18250000000E+03  0.00000000000E+00 0.  1.
         25    2    1    2    0    0 -0.82146372464E+02  0.12228049692E+02  0.27870749197E+02  0.15263751987E+03  0.12499552834E+03 0.  0.
        -11    1    1    2    0    0  0.96134594773E+02 -0.25939773329E+02 -0.97903631907E+02  0.13964187514E+03  0.00000000000E+00 0.  1.
         11    1    1    2    0    0 -0.13988222309E+02  0.13711723637E+02  0.70032882710E+02  0.72720604983E+02  0.00000000000E+00 0. -1.
        -15    1    3    3    0    0 -0.99728865111E+02 -0.16535558383E+02 -0.10359736381E+02  0.10163539292E+03  0.17770000000E+01 0.  1.
         15    1    3    3    0    0  0.17582492648E+02  0.28763608075E+02  0.38230485578E+02  0.51002126953E+02  0.17770000000E+01 0.  1.
</event>
<event>
 8    1  0.2374062E-007  0.1869471E+03  0.7546771E-02  0.1064969E+00
        -11   -1    0    0    0    0  0.00000000000E+00  0.00000000000E+00  0.18250000000E+03  0.18250000000E+03  0.00000000000E+00 0. -1.
         11   -1    0    0    0    0 -0.00000000000E+00 -0.00000000000E+00 -0.18250000000E+03  0.18250000000E+03  0.00000000000E+00 0.  1.
         25    2    1    2    0    0 -0.11913328134E+03 -0.59108833138E+02 -0.40462606763E+02  0.18694714426E+03  0.12500167729E+03 0.  0.
         23    2    1    2    0    0  0.11913328134E+03  0.59108833138E+02  0.40462606763E+02  0.17805285574E+03  0.11126097255E+03 0.  0.
        -11    1    4    4    0    0  0.94906037195E+01 -0.42768712325E+01  0.49977126640E+02  0.51049744110E+02  0.00000000000E+00 0. -1.
         11    1    4    4    0    0  0.10964267762E+03  0.63385704371E+02 -0.95145198767E+01  0.12700311162E+03  0.00000000000E+00 0.  1.
        -15    1    3    3    0    0 -0.45981075189E+02  0.17122483356E+02  0.32193160131E+02  0.58711123308E+02  0.17770000000E+01 0.  1.
         15    1    3    3    0    0 -0.73152206148E+02 -0.76231316494E+02 -0.72655766895E+02  0.12823602096E+03  0.17770000000E+01 0.  1.
</event>
<event>
 8    1  0.2374062E-007  0.1880798E+03  0.7546771E-02  0.1064098E+00
        -11   -1    0    0    0    0  0.00000000000E+00  0.00000000000E+00  0.18250000000E+03  0.18250000000E+03  0.00000000000E+00 0.  1.
         11   -1    0    0    0    0 -0.00000000000E+00 -0.00000000000E+00 -0.18250000000E+03  0.18250000000E+03  0.00000000000E+00 0. -1.
         25    2    1    2    0    0  0.64900075182E+02 -0.10152417375E+03 -0.72315661426E+02  0.18807976206E+03  0.12500105757E+03 0.  0.
         23    2    1    2    0    0 -0.64900075182E+02  0.10152417375E+03  0.72315661426E+02  0.17692023794E+03  0.10748040795E+03 0.  0.
        -11    1    4    4    0    0 -0.22787295650E+02  0.82839185507E+02 -0.59274978021E+01  0.86120419929E+02  0.00000000000E+00 0. -1.
         11    1    4    4    0    0 -0.42112779532E+02  0.18684988242E+02  0.78243159228E+02  0.90799818015E+02  0.00000000000E+00 0.  1.
        -15    1    3    3    0    0  0.28243656869E+02 -0.48478879754E+02  0.32605582527E+02  0.64916775001E+02  0.17770000000E+01 0.  1.
         15    1    3    3    0    0  0.36656418313E+02 -0.53045293995E+02 -0.10492124395E+03  0.12316298706E+03  0.17770000000E+01 0.  1.
</event>
<event>
 8    1  0.2374062E-007  0.1885325E+03  0.7546771E-02  0.1063752E+00
        -11   -1    0    0    0    0  0.00000000000E+00  0.00000000000E+00  0.18250000000E+03  0.18250000000E+03  0.00000000000E+00 0.  1.
         11   -1    0    0    0    0 -0.00000000000E+00 -0.00000000000E+00 -0.18250000000E+03  0.18250000000E+03  0.00000000000E+00 0.  1.
         25    2    1    2    0    0 -0.39495434682E+01  0.63527329900E+02  0.12596744851E+03  0.18853247975E+03  0.12500150918E+03 0.  0.
         23    2    1    2    0    0  0.39495434682E+01 -0.63527329900E+02 -0.12596744851E+03  0.17646752025E+03  0.10593237032E+03 0.  0.
        -11    1    4    4    0    0  0.36138175059E+02 -0.25645569514E+02 -0.36840215514E+01  0.44466110096E+02  0.00000000000E+00 0.  1.
         11    1    4    4    0    0 -0.32188631591E+02 -0.37881760386E+02 -0.12228342696E+03  0.13200141015E+03  0.00000000000E+00 0.  1.
        -15    1    3    3    0    0  0.38668529806E+01 -0.11454889078E+02 -0.20458012588E+02  0.23829709269E+02  0.17770000000E+01 0.  1.
         15    1    3    3    0    0 -0.78163964488E+01  0.74982218978E+02  0.14642546110E+03  0.16470277048E+03  0.17770000000E+01 0.  1.
</event>
<event>
 8    1  0.2374062E-007  0.1884577E+03  0.7546771E-02  0.1063809E+00
        -11   -1    0    0    0    0  0.00000000000E+00  0.00000000000E+00  0.18250000000E+03  0.18250000000E+03  0.00000000000E+00 0.  1.
         11   -1    0    0    0    0 -0.00000000000E+00 -0.00000000000E+00 -0.18250000000E+03  0.18250000000E+03  0.00000000000E+00 0. -1.
         25    2    1    2    0    0  0.60348803056E+02  0.93242930223E+02 -0.86922369442E+02  0.18845773032E+03  0.12499838295E+03 0.  0.
         23    2    1    2    0    0 -0.60348803056E+02 -0.93242930223E+02  0.86922369442E+02  0.17654226968E+03  0.10618593414E+03 0.  0.
        -11    1    4    4    0    0 -0.34753294820E+02  0.56012466101E+01  0.62227120549E+02  0.71493915799E+02  0.00000000000E+00 0.  1.
         11    1    4    4    0    0 -0.25595508235E+02 -0.98844176833E+02  0.24695248893E+02  0.10504835388E+03  0.00000000000E+00 0. -1.
        -15    1    3    3    0    0  0.81133123344E+00 -0.23395593943E+02 -0.45323028991E+02  0.51042597507E+02  0.17770000000E+01 0. -1.
         15    1    3    3    0    0  0.59537471822E+02  0.11663852417E+03 -0.41599340451E+02  0.13741513281E+03  0.17770000000E+01 0. -1.
</event>
<event>
 8    1  0.2374062E-007  0.1888012E+03  0.7546771E-02  0.1063547E+00
        -11   -1    0    0    0    0  0.00000000000E+00  0.00000000000E+00  0.18250000000E+03  0.18250000000E+03  0.00000000000E+00 0.  1.
         11   -1    0    0    0    0 -0.00000000000E+00 -0.00000000000E+00 -0.18250000000E+03  0.18250000000E+03  0.00000000000E+00 0. -1.
         25    2    1    2    0    0  0.13846381454E+03 -0.12638559088E+02  0.26274809835E+02  0.18880121172E+03  0.12499428308E+03 0.  0.
         23    2    1    2    0    0 -0.13846381454E+03  0.12638559088E+02 -0.26274809835E+02  0.17619878828E+03  0.10499374385E+03 0.  0.
        -11    1    4    4    0    0 -0.73626854554E+02 -0.45394840309E+02 -0.21082146825E+02  0.89028434519E+02  0.00000000000E+00 0.  1.
         11    1    4    4    0    0 -0.64836959986E+02  0.58033399397E+02 -0.51926630095E+01  0.87170353762E+02  0.00000000000E+00 0. -1.
        -15    1    3    3    0    0  0.10039223801E+03  0.73863344465E+01 -0.41181862107E+02  0.10877620551E+03  0.17770000000E+01 0.  1.
         15    1    3    3    0    0  0.38071576528E+02 -0.20024893534E+02  0.67456671942E+02  0.80025006210E+02  0.17770000000E+01 0.  1.
</event>
<event>
 8    1  0.2374062E-007  0.1997248E+03  0.7546771E-02  0.1055515E+00
        -11   -1    0    0    0    0  0.00000000000E+00  0.00000000000E+00  0.18250000000E+03  0.18250000000E+03  0.00000000000E+00 0. -1.
         11   -1    0    0    0    0 -0.00000000000E+00 -0.00000000000E+00 -0.18250000000E+03  0.18250000000E+03  0.00000000000E+00 0.  1.
         25    2    1    2    0    0  0.15312604232E+03 -0.18253535076E+02  0.22013032978E+02  0.19972483643E+03  0.12499864114E+03 0.  0.
         23    2    1    2    0    0 -0.15312604232E+03  0.18253535076E+02 -0.22013032978E+02  0.16527516357E+03  0.55231600490E+02 0.  0.
        -11    1    4    4    0    0 -0.10592919702E+03  0.34965258433E+02 -0.27548046574E+02  0.11490195363E+03  0.00000000000E+00 0.  1.
         11    1    4    4    0    0 -0.47196845301E+02 -0.16711723357E+02  0.55350135958E+01  0.50373209938E+02  0.00000000000E+00 0. -1.
        -15    1    3    3    0    0 -0.37599384239E+01 -0.78616469081E+01  0.40442308273E+02  0.41408702667E+02  0.17770000000E+01 0. -1.
         15    1    3    3    0    0  0.15688598074E+03 -0.10391888167E+02 -0.18429275295E+02  0.15831613376E+03  0.17770000000E+01 0. -1.
</event>
<event>
 8    1  0.2374062E-007  0.1968419E+03  0.7546771E-02  0.1057579E+00
        -11   -1    0    0    0    0  0.00000000000E+00  0.00000000000E+00  0.18250000000E+03  0.18250000000E+03  0.00000000000E+00 0. -1.
         11   -1    0    0    0    0 -0.00000000000E+00 -0.00000000000E+00 -0.18250000000E+03  0.18250000000E+03  0.00000000000E+00 0.  1.
         25    2    1    2    0    0 -0.92258445078E+02 -0.15173883788E+01  0.12086420259E+03  0.19684188120E+03  0.12499859028E+03 0.  0.
         23    2    1    2    0    0  0.92258445078E+02  0.15173883788E+01 -0.12086420259E+03  0.16815811880E+03  0.71798846054E+02 0.  0.
        -11    1    4    4    0    0  0.38291620921E+02  0.22101216319E+02 -0.95177030599E+02  0.10494464803E+03  0.00000000000E+00 0.  1.
         11    1    4    4    0    0  0.53966824157E+02 -0.20583827941E+02 -0.25687171990E+02  0.63213470773E+02  0.00000000000E+00 0. -1.
        -15    1    3    3    0    0 -0.24942209756E+02 -0.51310446364E+02  0.91980042220E+02  0.10825138165E+03  0.17770000000E+01 0. -1.
         15    1    3    3    0    0 -0.67316235322E+02  0.49793057985E+02  0.28884160369E+02  0.88590499551E+02  0.17770000000E+01 0. -1.
</event>
<event>
 8    1  0.2374062E-007  0.1878872E+03  0.7546771E-02  0.1064246E+00
        -11   -1    0    0    0    0  0.00000000000E+00  0.00000000000E+00  0.18250000000E+03  0.18250000000E+03  0.00000000000E+00 0.  1.
         11   -1    0    0    0    0 -0.00000000000E+00 -0.00000000000E+00 -0.18250000000E+03  0.18250000000E+03  0.00000000000E+00 0. -1.
         25    2    1    2    0    0 -0.11837809296E+03  0.73017526217E+02 -0.18194085734E+02  0.18788722762E+03  0.12500261405E+03 0.  0.
         23    2    1    2    0    0  0.11837809296E+03 -0.73017526217E+02  0.18194085734E+02  0.17711277238E+03  0.10813407122E+03 0.  0.
        -11    1    4    4    0    0  0.19748411989E+02 -0.23427707898E+01  0.48181953042E+02  0.52124744124E+02  0.00000000000E+00 0.  1.
         11    1    4    4    0    0  0.98629680969E+02 -0.70674755427E+02 -0.29987867308E+02  0.12498802826E+03  0.00000000000E+00 0. -1.
        -15    1    3    3    0    0 -0.14319771259E+03  0.47689294233E+02 -0.89923715041E+01  0.15120804922E+03  0.17770000000E+01 0. -1.
         15    1    3    3    0    0  0.24819619630E+02  0.25328231984E+02 -0.92017142297E+01  0.36679178396E+02  0.17770000000E+01 0. -1.
</event>
<event>
 8    1  0.2374062E-007  0.1885221E+03  0.7546771E-02  0.1063760E+00
        -11   -1    0    0    0    0  0.00000000000E+00  0.00000000000E+00  0.18250000000E+03  0.18250000000E+03  0.00000000000E+00 0.  1.
         11   -1    0    0    0    0 -0.00000000000E+00 -0.00000000000E+00 -0.18250000000E+03  0.18250000000E+03  0.00000000000E+00 0. -1.
         25    2    1    2    0    0 -0.53325940982E+02  0.31896037472E+02  0.12669689288E+03  0.18852207506E+03  0.12500982735E+03 0.  0.
         23    2    1    2    0    0  0.53325940982E+02 -0.31896037472E+02 -0.12669689288E+03  0.17647792494E+03  0.10597802667E+03 0.  0.
        -11    1    4    4    0    0  0.70825150209E+02  0.15118261787E+02 -0.80494512594E+02  0.10827802316E+03  0.00000000000E+00 0. -1.
         11    1    4    4    0    0 -0.17499209227E+02 -0.47014299259E+02 -0.46202380285E+02  0.68199901777E+02  0.00000000000E+00 0.  1.
        -15    1    3    3    0    0 -0.51306377351E+02 -0.16435314741E+02  0.10946356843E+01  0.53914931919E+02  0.17770000000E+01 0.  1.
         15    1    3    3    0    0 -0.20195636308E+01  0.48331352213E+02  0.12560225720E+03  0.13460714314E+03  0.17770000000E+01 0.  1.
</event>
<event>
 7    1  0.2374062E-007  0.1744490E+03  0.7546771E-02  0.1075050E+00
        -11   -1    0    0    0    0  0.00000000000E+00  0.00000000000E+00  0.18250000000E+03  0.18250000000E+03  0.00000000000E+00 0.  1.
         11   -1    0    0    0    0 -0.00000000000E+00 -0.00000000000E+00 -0.18250000000E+03  0.18250000000E+03  0.00000000000E+00 0.  1.
         25    2    1    2    0    0  0.70055872529E+02  0.61508048735E+02 -0.87868083372E+02  0.17899444491E+03  0.12500858330E+03 0.  0.
        -11    1    1    2    0    0 -0.62726779209E+02 -0.99240387970E+02  0.38742696168E+02  0.12362968875E+03  0.00000000000E+00 0.  1.
         11    1    1    2    0    0 -0.73290933200E+01  0.37732339234E+02  0.49125387204E+02  0.62375866334E+02  0.00000000000E+00 0.  1.
        -15    1    3    3    0    0  0.19483305171E+02 -0.36763569715E+02 -0.42524620760E+02  0.59520251498E+02  0.17770000000E+01 0. -1.
         15    1    3    3    0    0  0.50572567358E+02  0.98271618450E+02 -0.45343462612E+02  0.11947419342E+03  0.17770000000E+01 0. -1.
</event>
<event>
 8    1  0.2374062E-007  0.1850624E+03  0.7546771E-02  0.1066433E+00
        -11   -1    0    0    0    0  0.00000000000E+00  0.00000000000E+00  0.18250000000E+03  0.18250000000E+03  0.00000000000E+00 0.  1.
         11   -1    0    0    0    0 -0.00000000000E+00 -0.00000000000E+00 -0.18250000000E+03  0.18250000000E+03  0.00000000000E+00 0. -1.
         25    2    1    2    0    0 -0.89380804201E+02  0.42358850416E+02  0.94001933254E+02  0.18506235476E+03  0.12501404451E+03 0.  0.
         23    2    1    2    0    0  0.89380804201E+02 -0.42358850416E+02 -0.94001933254E+02  0.17993764524E+03  0.11729446855E+03 0.  0.
        -11    1    4    4    0    0  0.54868393717E+02  0.22843379994E+02 -0.87638505703E+02  0.10589083209E+03  0.00000000000E+00 0. -1.
         11    1    4    4    0    0  0.34512410484E+02 -0.65202230410E+02 -0.63634275513E+01  0.74046813153E+02  0.00000000000E+00 0.  1.
        -15    1    3    3    0    0  0.26537856184E+01  0.90917683598E+01 -0.27442289281E+02  0.29085044267E+02  0.17770000000E+01 0.  1.
         15    1    3    3    0    0 -0.92034589820E+02  0.33267082056E+02  0.12144422254E+03  0.15597731049E+03  0.17770000000E+01 0.  1.
</event>
<event>
 7    1  0.2374062E-007  0.1652278E+03  0.7546771E-02  0.1083100E+00
        -11   -1    0    0    0    0  0.00000000000E+00  0.00000000000E+00  0.18250000000E+03  0.18250000000E+03  0.00000000000E+00 0. -1.
         11   -1    0    0    0    0 -0.00000000000E+00 -0.00000000000E+00 -0.18250000000E+03  0.18250000000E+03  0.00000000000E+00 0. -1.
         25    2    1    2    0    0  0.75918660472E+02 -0.34287889116E+02 -0.93161357954E+02  0.17675809741E+03  0.12500033614E+03 0.  0.
        -11    1    1    2    0    0  0.29280019255E+02  0.26746284832E+02  0.69704868525E+02  0.80196333931E+02  0.00000000000E+00 0. -1.
         11    1    1    2    0    0 -0.10519867973E+03  0.75416042840E+01  0.23456489429E+02  0.10804556866E+03  0.00000000000E+00 0. -1.
        -15    1    3    3    0    0  0.63510908693E+02  0.27782221354E+02 -0.89648092301E+02  0.11333766156E+03  0.17770000000E+01 0. -1.
         15    1    3    3    0    0  0.12407751778E+02 -0.62070110470E+02 -0.35132656528E+01  0.63420435843E+02  0.17770000000E+01 0. -1.
</event>
<event>
 8    1  0.2374062E-007  0.1968969E+03  0.7546771E-02  0.1057539E+00
        -11   -1    0    0    0    0  0.00000000000E+00  0.00000000000E+00  0.18250000000E+03  0.18250000000E+03  0.00000000000E+00 0. -1.
         11   -1    0    0    0    0 -0.00000000000E+00 -0.00000000000E+00 -0.18250000000E+03  0.18250000000E+03  0.00000000000E+00 0.  1.
         25    2    1    2    0    0 -0.45507274406E+02  0.43953774894E+02  0.13835004264E+03  0.19689693860E+03  0.12499929513E+03 0.  0.
         23    2    1    2    0    0  0.45507274406E+02 -0.43953774894E+02 -0.13835004264E+03  0.16810306140E+03  0.71519637874E+02 0.  0.
        -11    1    4    4    0    0  0.24563647415E+02  0.17314270140E+02 -0.53592280755E+02  0.61443382730E+02  0.00000000000E+00 0.  1.
         11    1    4    4    0    0  0.20943626991E+02 -0.61268045033E+02 -0.84757761884E+02  0.10665967867E+03  0.00000000000E+00 0. -1.
        -15    1    3    3    0    0 -0.59139136257E+02  0.63000007604E+02  0.39019352055E+02  0.94826715430E+02  0.17770000000E+01 0.  1.
         15    1    3    3    0    0  0.13631861852E+02 -0.19046232711E+02  0.99330690583E+02  0.10207022317E+03  0.17770000000E+01 0.  1.
</event>
<event>
 8    1  0.2374062E-007  0.1857660E+03  0.7546771E-02  0.1065884E+00
        -11   -1    0    0    0    0  0.00000000000E+00  0.00000000000E+00  0.18250000000E+03  0.18250000000E+03  0.00000000000E+00 0. -1.
         11   -1    0    0    0    0 -0.00000000000E+00 -0.00000000000E+00 -0.18250000000E+03  0.18250000000E+03  0.00000000000E+00 0.  1.
         25    2    1    2    0    0 -0.12477268408E+03  0.51403562685E+02 -0.25965161493E+02  0.18576597904E+03  0.12499704159E+03 0.  0.
         23    2    1    2    0    0  0.12477268408E+03 -0.51403562685E+02  0.25965161493E+02  0.17923402096E+03  0.11506561481E+03 0.  0.
        -11    1    4    4    0    0  0.65139322110E+02  0.55399030555E+01  0.61215405018E+02  0.89560859879E+02  0.00000000000E+00 0. -1.
         11    1    4    4    0    0  0.59633361968E+02 -0.56943465741E+02 -0.35250243525E+02  0.89673161084E+02  0.00000000000E+00 0.  1.
        -15    1    3    3    0    0  0.15309301874E+02  0.16283576110E+02 -0.34433557703E+02  0.41089623993E+02  0.17770000000E+01 0. -1.
         15    1    3    3    0    0 -0.14008198595E+03  0.35119986575E+02  0.84683962096E+01  0.14467635504E+03  0.17770000000E+01 0. -1.
</event>
<event>
 8    1  0.2374062E-007  0.1887222E+03  0.7546771E-02  0.1063607E+00
        -11   -1    0    0    0    0  0.00000000000E+00  0.00000000000E+00  0.18250000000E+03  0.18250000000E+03  0.00000000000E+00 0.  1.
         11   -1    0    0    0    0 -0.00000000000E+00 -0.00000000000E+00 -0.18250000000E+03  0.18250000000E+03  0.00000000000E+00 0.  1.
         25    2    1    2    0    0  0.59695550324E+02 -0.86165635347E+02  0.94883302583E+02  0.18872222654E+03  0.12500064895E+03 0.  0.
         23    2    1    2    0    0 -0.59695550324E+02  0.86165635347E+02 -0.94883302583E+02  0.17627777346E+03  0.10527552832E+03 0.  0.
        -11    1    4    4    0    0 -0.31942392124E+02  0.59837143436E+02  0.62836669401E+01  0.68119634611E+02  0.00000000000E+00 0.  1.
         11    1    4    4    0    0 -0.27753158199E+02  0.26328491911E+02 -0.10116696952E+03  0.10815813885E+03  0.00000000000E+00 0.  1.
        -15    1    3    3    0    0  0.81180310601E+02 -0.78071885066E+02  0.25330679875E+02  0.11545675874E+03  0.17770000000E+01 0.  1.
         15    1    3    3    0    0 -0.21484760277E+02 -0.80937502812E+01  0.69552622707E+02  0.73265467802E+02  0.17770000000E+01 0.  1.
</event>
<event>
 8    1  0.2374062E-007  0.1887006E+03  0.7546771E-02  0.1063624E+00
        -11   -1    0    0    0    0  0.00000000000E+00  0.00000000000E+00  0.18250000000E+03  0.18250000000E+03  0.00000000000E+00 0. -1.
         11   -1    0    0    0    0 -0.00000000000E+00 -0.00000000000E+00 -0.18250000000E+03  0.18250000000E+03  0.00000000000E+00 0.  1.
         25    2    1    2    0    0 -0.11596140893E+03 -0.65545479034E+02 -0.47332301981E+02  0.18870056935E+03  0.12499719948E+03 0.  0.
         23    2    1    2    0    0  0.11596140893E+03  0.65545479034E+02  0.47332301981E+02  0.17629943065E+03  0.10534649617E+03 0.  0.
        -11    1    4    4    0    0  0.73544146547E+02  0.91390431248E+02  0.47681790168E+02  0.12662742803E+03  0.00000000000E+00 0. -1.
         11    1    4    4    0    0  0.42417262384E+02 -0.25844952213E+02 -0.34948818755E+00  0.49672002628E+02  0.00000000000E+00 0.  1.
        -15    1    3    3    0    0 -0.10858419324E+03 -0.80510059400E+02  0.34367625969E+01  0.13523078700E+03  0.17770000000E+01 0. -1.
         15    1    3    3    0    0 -0.73772156867E+01  0.14964580365E+02 -0.50769064578E+02  0.53469782344E+02  0.17770000000E+01 0. -1.
</event>
<event>
 7    1  0.2374062E-007  0.1730116E+03  0.7546771E-02  0.1076269E+00
        -11   -1    0    0    0    0  0.00000000000E+00  0.00000000000E+00  0.18250000000E+03  0.18250000000E+03  0.00000000000E+00 0. -1.
         11   -1    0    0    0    0 -0.00000000000E+00 -0.00000000000E+00 -0.18250000000E+03  0.18250000000E+03  0.00000000000E+00 0.  1.
         25    2    1    2    0    0  0.44828701180E+02  0.40682923289E+02  0.11095045320E+03  0.17776357703E+03  0.12500069422E+03 0.  0.
        -11    1    1    2    0    0  0.46247455073E+02 -0.34875753308E+02 -0.29926932831E+02  0.65197903173E+02  0.00000000000E+00 0.  1.
         11    1    1    2    0    0 -0.91076156252E+02 -0.58071699802E+01 -0.81023520370E+02  0.12203851980E+03  0.00000000000E+00 0. -1.
        -15    1    3    3    0    0  0.68344023788E+02  0.41765070297E+02  0.18334081908E+02  0.82185904953E+02  0.17770000000E+01 0.  1.
         15    1    3    3    0    0 -0.23515322609E+02 -0.10821470084E+01  0.92616371292E+02  0.95577672078E+02  0.17770000000E+01 0.  1.
</event>
<event>
 8    1  0.2374062E-007  0.1881933E+03  0.7546771E-02  0.1064011E+00
        -11   -1    0    0    0    0  0.00000000000E+00  0.00000000000E+00  0.18250000000E+03  0.18250000000E+03  0.00000000000E+00 0. -1.
         11   -1    0    0    0    0 -0.00000000000E+00 -0.00000000000E+00 -0.18250000000E+03  0.18250000000E+03  0.00000000000E+00 0.  1.
         25    2    1    2    0    0 -0.44676739422E+02 -0.10873063178E+03 -0.77296643570E+02  0.18819327517E+03  0.12499430539E+03 0.  0.
         23    2    1    2    0    0  0.44676739422E+02  0.10873063178E+03  0.77296643570E+02  0.17680672483E+03  0.10708634603E+03 0.  0.
        -11    1    4    4    0    0  0.54045076783E+02  0.10466601906E+03  0.98318791226E+02  0.15343542804E+03  0.00000000000E+00 0. -1.
         11    1    4    4    0    0 -0.93683373611E+01  0.40646127146E+01 -0.21022147656E+02  0.23371296787E+02  0.00000000000E+00 0.  1.
        -15    1    3    3    0    0  0.36747986748E+02 -0.73033417710E+02 -0.27505539097E+02  0.86278659253E+02  0.17770000000E+01 0. -1.
         15    1    3    3    0    0 -0.81424726171E+02 -0.35697214066E+02 -0.49791104473E+02  0.10191461592E+03  0.17770000000E+01 0. -1.
</event>
<event>
 8    1  0.2374062E-007  0.1869991E+03  0.7546771E-02  0.1064929E+00
        -11   -1    0    0    0    0  0.00000000000E+00  0.00000000000E+00  0.18250000000E+03  0.18250000000E+03  0.00000000000E+00 0.  1.
         11   -1    0    0    0    0 -0.00000000000E+00 -0.00000000000E+00 -0.18250000000E+03  0.18250000000E+03  0.00000000000E+00 0. -1.
         25    2    1    2    0    0 -0.82951268403E+02 -0.11687576925E+02  0.11103029464E+03  0.18699910390E+03  0.12499370442E+03 0.  0.
         23    2    1    2    0    0  0.82951268403E+02  0.11687576925E+02 -0.11103029464E+03  0.17800089610E+03  0.11108141295E+03 0.  0.
        -11    1    4    4    0    0  0.10793820611E+02 -0.75001727288E+01 -0.10194077403E+03  0.10278463195E+03  0.00000000000E+00 0. -1.
         11    1    4    4    0    0  0.72157447792E+02  0.19187749654E+02 -0.90895206060E+01  0.75216264155E+02  0.00000000000E+00 0.  1.
        -15    1    3    3    0    0 -0.11365039337E+03 -0.67738545424E+01  0.64075600569E+02  0.13065656255E+03  0.17770000000E+01 0.  1.
         15    1    3    3    0    0  0.30699124969E+02 -0.49137223825E+01  0.46954694071E+02  0.56342541350E+02  0.17770000000E+01 0.  1.
</event>
<event>
 8    1  0.2374062E-007  0.1967437E+03  0.7546771E-02  0.1057650E+00
        -11   -1    0    0    0    0  0.00000000000E+00  0.00000000000E+00  0.18250000000E+03  0.18250000000E+03  0.00000000000E+00 0.  1.
         11   -1    0    0    0    0 -0.00000000000E+00 -0.00000000000E+00 -0.18250000000E+03  0.18250000000E+03  0.00000000000E+00 0. -1.
         25    2    1    2    0    0  0.54527834492E+02  0.14177078470E+03 -0.33151321918E+01  0.19674374885E+03  0.12499948992E+03 0.  0.
         23    2    1    2    0    0 -0.54527834492E+02 -0.14177078470E+03  0.33151321918E+01  0.16825625115E+03  0.72297550598E+02 0.  0.
        -11    1    4    4    0    0 -0.28722355372E+02 -0.13937201373E+03  0.33177629682E+01  0.14233952178E+03  0.00000000000E+00 0. -1.
         11    1    4    4    0    0 -0.25805479119E+02 -0.23987709731E+01 -0.26307764414E-02  0.25916729379E+02  0.00000000000E+00 0.  1.
        -15    1    3    3    0    0 -0.37193846855E+02  0.52369185632E+02 -0.20616798410E+02  0.67484249669E+02  0.17770000000E+01 0. -1.
         15    1    3    3    0    0  0.91721681346E+02  0.89401599067E+02  0.17301666219E+02  0.12925949918E+03  0.17770000000E+01 0. -1.
</event>
<event>
 8    1  0.2374062E-007  0.1854927E+03  0.7546771E-02  0.1066097E+00
        -11   -1    0    0    0    0  0.00000000000E+00  0.00000000000E+00  0.18250000000E+03  0.18250000000E+03  0.00000000000E+00 0.  1.
         11   -1    0    0    0    0 -0.00000000000E+00 -0.00000000000E+00 -0.18250000000E+03  0.18250000000E+03  0.00000000000E+00 0. -1.
         25    2    1    2    0    0  0.96191445636E+02 -0.12965578125E+02 -0.96751441328E+02  0.18549267058E+03  0.12500315600E+03 0.  0.
         23    2    1    2    0    0 -0.96191445636E+02  0.12965578125E+02  0.96751441328E+02  0.17950732942E+03  0.11593592837E+03 0.  0.
        -11    1    4    4    0    0 -0.62413094732E+01  0.50175328513E+02  0.16007935059E+02  0.53035568444E+02  0.00000000000E+00 0. -1.
         11    1    4    4    0    0 -0.89950136163E+02 -0.37209750387E+02  0.80743506268E+02  0.12647176097E+03  0.00000000000E+00 0.  1.
        -15    1    3    3    0    0  0.58892879597E+02  0.42676546357E+02 -0.93410535460E+02  0.11839909096E+03  0.17770000000E+01 0.  1.
         15    1    3    3    0    0  0.37298566039E+02 -0.55642124482E+02 -0.33409058678E+01  0.67093579622E+02  0.17770000000E+01 0.  1.
</event>
<event>
 8    1  0.2374062E-007  0.1869408E+03  0.7546771E-02  0.1064974E+00
        -11   -1    0    0    0    0  0.00000000000E+00  0.00000000000E+00  0.18250000000E+03  0.18250000000E+03  0.00000000000E+00 0.  1.
         11   -1    0    0    0    0 -0.00000000000E+00 -0.00000000000E+00 -0.18250000000E+03  0.18250000000E+03  0.00000000000E+00 0. -1.
         25    2    1    2    0    0 -0.97204746487E+02 -0.38737045499E+02  0.91500580183E+02  0.18694079316E+03  0.12500073015E+03 0.  0.
         23    2    1    2    0    0  0.97204746487E+02  0.38737045499E+02 -0.91500580183E+02  0.17805920684E+03  0.11128074197E+03 0.  0.
        -11    1    4    4    0    0  0.40989785214E+02  0.75234063245E+02 -0.49045230617E+02  0.98720623026E+02  0.00000000000E+00 0.  1.
         11    1    4    4    0    0  0.56214961273E+02 -0.36497017746E+02 -0.42455349566E+02  0.79338583817E+02  0.00000000000E+00 0. -1.
        -15    1    3    3    0    0 -0.35770710129E+02 -0.74571025886E+02  0.79611583999E+02  0.11481090384E+03  0.17770000000E+01 0. -1.
         15    1    3    3    0    0 -0.61434036359E+02  0.35833980387E+02  0.11888996184E+02  0.72129889317E+02  0.17770000000E+01 0. -1.
</event>
<event>
 8    1  0.2374062E-007  0.1861292E+03  0.7546771E-02  0.1065602E+00
        -11   -1    0    0    0    0  0.00000000000E+00  0.00000000000E+00  0.18250000000E+03  0.18250000000E+03  0.00000000000E+00 0.  1.
         11   -1    0    0    0    0 -0.00000000000E+00 -0.00000000000E+00 -0.18250000000E+03  0.18250000000E+03  0.00000000000E+00 0. -1.
         25    2    1    2    0    0  0.64695013393E+02  0.10238816459E+03  0.65949919223E+02  0.18612915885E+03  0.12500356364E+03 0.  0.
         23    2    1    2    0    0 -0.64695013393E+02 -0.10238816459E+03 -0.65949919223E+02  0.17887084115E+03  0.11391490228E+03 0.  0.
        -11    1    4    4    0    0 -0.16103293208E+02 -0.34130082559E+02 -0.84950832214E+02  0.92956024450E+02  0.00000000000E+00 0. -1.
         11    1    4    4    0    0 -0.48591720185E+02 -0.68258082035E+02  0.19000912991E+02  0.85914816697E+02  0.00000000000E+00 0.  1.
        -15    1    3    3    0    0  0.10197351381E+03  0.65194271527E+02  0.40729721154E+02  0.12771436283E+03  0.17770000000E+01 0.  1.
         15    1    3    3    0    0 -0.37278500417E+02  0.37193893066E+02  0.25220198069E+02  0.58414796023E+02  0.17770000000E+01 0.  1.
</event>
<event>
 8    1  0.2374062E-007  0.1847347E+03  0.7546771E-02  0.1066690E+00
        -11   -1    0    0    0    0  0.00000000000E+00  0.00000000000E+00  0.18250000000E+03  0.18250000000E+03  0.00000000000E+00 0.  1.
         11   -1    0    0    0    0 -0.00000000000E+00 -0.00000000000E+00 -0.18250000000E+03  0.18250000000E+03  0.00000000000E+00 0. -1.
         25    2    1    2    0    0  0.12984045481E+02 -0.87782020655E+02 -0.10308992907E+03  0.18473468501E+03  0.12500040713E+03 0.  0.
         23    2    1    2    0    0 -0.12984045481E+02  0.87782020655E+02  0.10308992907E+03  0.18026531499E+03  0.11829531574E+03 0.  0.
        -11    1    4    4    0    0 -0.89527194514E+01  0.10791516600E+03  0.42563041619E+02  0.11635053395E+03  0.00000000000E+00 0.  1.
         11    1    4    4    0    0 -0.40313260300E+01 -0.20133145346E+02  0.60526887452E+02  0.63914781042E+02  0.00000000000E+00 0. -1.
        -15    1    3    3    0    0  0.30691014893E+02 -0.40575146824E+01 -0.93614867323E+02  0.98616950538E+02  0.17770000000E+01 0. -1.
         15    1    3    3    0    0 -0.17706969411E+02 -0.83724505973E+02 -0.94750617474E+01  0.86117734470E+02  0.17770000000E+01 0. -1.
</event>
<event>
 8    1  0.2374062E-007  0.1866894E+03  0.7546771E-02  0.1065168E+00
        -11   -1    0    0    0    0  0.00000000000E+00  0.00000000000E+00  0.18250000000E+03  0.18250000000E+03  0.00000000000E+00 0.  1.
         11   -1    0    0    0    0 -0.00000000000E+00 -0.00000000000E+00 -0.18250000000E+03  0.18250000000E+03  0.00000000000E+00 0. -1.
         25    2    1    2    0    0 -0.13825147930E+03  0.78496200630E+01 -0.70211764074E+01  0.18668944617E+03  0.12501425650E+03 0.  0.
         23    2    1    2    0    0  0.13825147930E+03 -0.78496200630E+01  0.70211764074E+01  0.17831055383E+03  0.11211720932E+03 0.  0.
        -11    1    4    4    0    0  0.57343549235E+02  0.34621911737E+02 -0.37388247507E+02  0.76712713828E+02  0.00000000000E+00 0. -1.
         11    1    4    4    0    0  0.80907930066E+02 -0.42471531800E+02  0.44409423914E+02  0.10159784000E+03  0.00000000000E+00 0.  1.
        -15    1    3    3    0    0 -0.39322340245E+01  0.46518800567E+02 -0.36856947004E+01  0.46863667644E+02  0.17770000000E+01 0.  1.
         15    1    3    3    0    0 -0.13431924528E+03 -0.38669180504E+02 -0.33354817070E+01  0.13982577852E+03  0.17770000000E+01 0.  1.
</event>
<event>
 8    1  0.2374062E-007  0.1855264E+03  0.7546771E-02  0.1066071E+00
        -11   -1    0    0    0    0  0.00000000000E+00  0.00000000000E+00  0.18250000000E+03  0.18250000000E+03  0.00000000000E+00 0. -1.
         11   -1    0    0    0    0 -0.00000000000E+00 -0.00000000000E+00 -0.18250000000E+03  0.18250000000E+03  0.00000000000E+00 0.  1.
         25    2    1    2    0    0  0.15047149865E+02 -0.15853541031E+02  0.13534176853E+03  0.18552636151E+03  0.12499954011E+03 0.  0.
         23    2    1    2    0    0 -0.15047149865E+02  0.15853541031E+02 -0.13534176853E+03  0.17947363849E+03  0.11582590868E+03 0.  0.
        -11    1    4    4    0    0 -0.83922283753E+00  0.43466080412E+02 -0.14131487487E+03  0.14785093270E+03  0.00000000000E+00 0.  1.
         11    1    4    4    0    0 -0.14207927028E+02 -0.27612539382E+02  0.59731063450E+01  0.31622705782E+02  0.00000000000E+00 0. -1.
        -15    1    3    3    0    0 -0.21652413164E+02  0.46787953082E+02  0.37960455946E+02  0.64047587731E+02  0.17770000000E+01 0.  1.
         15    1    3    3    0    0  0.36699563029E+02 -0.62641494113E+02  0.97381312580E+02  0.12147877378E+03  0.17770000000E+01 0.  1.
</event>
<event>
 8    1  0.2869752E-007  0.1879659E+03  0.7546771E-02  0.1064185E+00
        -11   -1    0    0    0    0  0.00000000000E+00  0.00000000000E+00  0.18250000000E+03  0.18250000000E+03  0.00000000000E+00 0.  1.
         11   -1    0    0    0    0 -0.00000000000E+00 -0.00000000000E+00 -0.18250000000E+03  0.18250000000E+03  0.00000000000E+00 0. -1.
         25    2    1    2    0    0  0.89416386161E+02  0.59627474972E+02 -0.90307088550E+02  0.18796587095E+03  0.12500029005E+03 0.  0.
         23    2    1    2    0    0 -0.89416386161E+02 -0.59627474972E+02  0.90307088550E+02  0.17703412905E+03  0.10786559563E+03 0.  0.
        -11    1    4    4    0    0 -0.52057446944E+02 -0.26105686841E+02  0.10891124674E+03  0.12350362073E+03  0.00000000000E+00 0.  1.
         11    1    4    4    0    0 -0.37358939216E+02 -0.33521788131E+02 -0.18604158191E+02  0.53530508319E+02  0.00000000000E+00 0. -1.
        -15    1    3    3    0    0 -0.36772683357E+00  0.73729965137E+02 -0.35901880538E+02  0.82026494118E+02  0.17770000000E+01 0. -1.
         15    1    3    3    0    0  0.89784112994E+02 -0.14102490165E+02 -0.54405208012E+02  0.10593937683E+03  0.17770000000E+01 0. -1.
</event>
<event>
 8    1  0.2374062E-007  0.1967370E+03  0.7546771E-02  0.1057655E+00
        -11   -1    0    0    0    0  0.00000000000E+00  0.00000000000E+00  0.18250000000E+03  0.18250000000E+03  0.00000000000E+00 0. -1.
         11   -1    0    0    0    0 -0.00000000000E+00 -0.00000000000E+00 -0.18250000000E+03  0.18250000000E+03  0.00000000000E+00 0.  1.
         25    2    1    2    0    0  0.15054764832E+03  0.10496840085E+02  0.17493067629E+02  0.19673697775E+03  0.12499861172E+03 0.  0.
         23    2    1    2    0    0 -0.15054764832E+03 -0.10496840085E+02 -0.17493067629E+02  0.16826302225E+03  0.72330209298E+02 0.  0.
        -11    1    4    4    0    0 -0.58511492849E+02  0.16464143406E+02 -0.35921510936E+02  0.70604658213E+02  0.00000000000E+00 0.  1.
         11    1    4    4    0    0 -0.92036155467E+02 -0.26960983492E+02  0.18428443307E+02  0.97658364039E+02  0.00000000000E+00 0. -1.
        -15    1    3    3    0    0  0.14597604817E+03 -0.24064867578E+02  0.42332031894E+02  0.15389373978E+03  0.17770000000E+01 0.  1.
         15    1    3    3    0    0  0.45716001440E+01  0.34561707663E+02 -0.24838964265E+02  0.42843237964E+02  0.17770000000E+01 0.  1.
</event>
<event>
 8    1  0.2374062E-007  0.1954242E+03  0.7546771E-02  0.1058609E+00
        -11   -1    0    0    0    0  0.00000000000E+00  0.00000000000E+00  0.18250000000E+03  0.18250000000E+03  0.00000000000E+00 0.  1.
         11   -1    0    0    0    0 -0.00000000000E+00 -0.00000000000E+00 -0.18250000000E+03  0.18250000000E+03  0.00000000000E+00 0. -1.
         25    2    1    2    0    0 -0.13560612094E+03 -0.64142117424E+02 -0.78748737896E+01  0.19542421978E+03  0.12500152310E+03 0.  0.
         23    2    1    2    0    0  0.13560612094E+03  0.64142117424E+02  0.78748737896E+01  0.16957578022E+03  0.78681003655E+02 0.  0.
        -11    1    4    4    0    0  0.12842021132E+03  0.37997769742E+02 -0.14115085035E+02  0.13466557395E+03  0.00000000000E+00 0. -1.
         11    1    4    4    0    0  0.71859096158E+01  0.26144347682E+02  0.21989958824E+02  0.34910206270E+02  0.00000000000E+00 0.  1.
        -15    1    3    3    0    0 -0.13564305608E+03 -0.74500764013E+02  0.28668948834E+02  0.15739907515E+03  0.17770000000E+01 0. -1.
         15    1    3    3    0    0  0.36935145987E-01  0.10358646589E+02 -0.36543822624E+02  0.38025144633E+02  0.17770000000E+01 0. -1.
</event>
<event>
 7    1  0.2374062E-007  0.1586629E+03  0.7546771E-02  0.1089191E+00
        -11   -1    0    0    0    0  0.00000000000E+00  0.00000000000E+00  0.18250000000E+03  0.18250000000E+03  0.00000000000E+00 0.  1.
         11   -1    0    0    0    0 -0.00000000000E+00 -0.00000000000E+00 -0.18250000000E+03  0.18250000000E+03  0.00000000000E+00 0.  1.
         25    2    1    2    0    0 -0.20359682260E+02  0.99817577699E+02 -0.56032818785E+02  0.17070234111E+03  0.12498618724E+03 0.  0.
        -11    1    1    2    0    0 -0.49708349815E+02 -0.76644930971E+02 -0.14163844146E+02  0.92444469634E+02  0.00000000000E+00 0.  1.
         11    1    1    2    0    0  0.70068032074E+02 -0.23172646728E+02  0.70196662932E+02  0.10185318926E+03  0.00000000000E+00 0.  1.
        -15    1    3    3    0    0 -0.48361039990E+02  0.11237539752E+03 -0.21080134377E+02  0.12415534604E+03  0.17770000000E+01 0.  1.
         15    1    3    3    0    0  0.28001357730E+02 -0.12557819821E+02 -0.34952684408E+02  0.46546995067E+02  0.17770000000E+01 0.  1.
</event>
<event>
 8    1  0.2374062E-007  0.1878012E+03  0.7546771E-02  0.1064312E+00
        -11   -1    0    0    0    0  0.00000000000E+00  0.00000000000E+00  0.18250000000E+03  0.18250000000E+03  0.00000000000E+00 0.  1.
         11   -1    0    0    0    0 -0.00000000000E+00 -0.00000000000E+00 -0.18250000000E+03  0.18250000000E+03  0.00000000000E+00 0. -1.
         25    2    1    2    0    0 -0.80880644862E+02  0.69764027298E+02  0.90753808229E+02  0.18780121916E+03  0.12499738394E+03 0.  0.
         23    2    1    2    0    0  0.80880644862E+02 -0.69764027298E+02 -0.90753808229E+02  0.17719878084E+03  0.10841796901E+03 0.  0.
        -11    1    4    4    0    0 -0.83648774845E+01 -0.61636520410E+02 -0.31084789852E+02  0.69536292565E+02  0.00000000000E+00 0.  1.
         11    1    4    4    0    0  0.89245522347E+02 -0.81275068877E+01 -0.59669018378E+02  0.10766248827E+03  0.00000000000E+00 0. -1.
        -15    1    3    3    0    0 -0.71060375041E+02  0.10388878237E+03  0.84733124196E+02  0.15174095053E+03  0.17770000000E+01 0. -1.
         15    1    3    3    0    0 -0.98202698210E+01 -0.34124755074E+02  0.60206840329E+01  0.36060268627E+02  0.17770000000E+01 0. -1.
</event>
<event>
 8    1  0.2374062E-007  0.1973722E+03  0.7546771E-02  0.1057197E+00
        -11   -1    0    0    0    0  0.00000000000E+00  0.00000000000E+00  0.18250000000E+03  0.18250000000E+03  0.00000000000E+00 0.  1.
         11   -1    0    0    0    0 -0.00000000000E+00 -0.00000000000E+00 -0.18250000000E+03  0.18250000000E+03  0.00000000000E+00 0. -1.
         25    2    1    2    0    0 -0.10411047162E+03 -0.74061502311E+02  0.83711036485E+02  0.19737218328E+03  0.12499657866E+03 0.  0.
         23    2    1    2    0    0  0.10411047162E+03  0.74061502311E+02 -0.83711036485E+02  0.16762781672E+03  0.69046729719E+02 0.  0.
        -11    1    4    4    0    0  0.36709010450E+02  0.67298408481E+02 -0.53343534148E+02  0.93392504345E+02  0.00000000000E+00 0. -1.
         11    1    4    4    0    0  0.67401461168E+02  0.67630938296E+01 -0.30367502336E+02  0.74235312378E+02  0.00000000000E+00 0.  1.
        -15    1    3    3    0    0 -0.79610738358E+02 -0.49512110588E+02 -0.12953317396E+02  0.94658675870E+02  0.17770000000E+01 0. -1.
         15    1    3    3    0    0 -0.24499733260E+02 -0.24549391723E+02  0.96664353881E+02  0.10271350741E+03  0.17770000000E+01 0. -1.
</event>
<event>
 8    1  0.2374062E-007  0.1874663E+03  0.7546771E-02  0.1064569E+00
        -11   -1    0    0    0    0  0.00000000000E+00  0.00000000000E+00  0.18250000000E+03  0.18250000000E+03  0.00000000000E+00 0. -1.
         11   -1    0    0    0    0 -0.00000000000E+00 -0.00000000000E+00 -0.18250000000E+03  0.18250000000E+03  0.00000000000E+00 0. -1.
         25    2    1    2    0    0  0.59161493057E+02 -0.67486895969E+02  0.10706516145E+03  0.18746633118E+03  0.12500445250E+03 0.  0.
         23    2    1    2    0    0 -0.59161493057E+02  0.67486895969E+02 -0.10706516145E+03  0.17753366882E+03  0.10954766715E+03 0.  0.
        -11    1    4    4    0    0 -0.15957552492E+02  0.99835024521E+01  0.22504901826E+02  0.29339127610E+02  0.00000000000E+00 0. -1.
         11    1    4    4    0    0 -0.43203940565E+02  0.57503393517E+02 -0.12957006327E+03  0.14819454121E+03  0.00000000000E+00 0. -1.
        -15    1    3    3    0    0  0.85831408246E+02 -0.32650224932E+02  0.26305587828E+02  0.95541663737E+02  0.17770000000E+01 0.  1.
         15    1    3    3    0    0 -0.26669915189E+02 -0.34836671036E+02  0.80759573621E+02  0.91924667448E+02  0.17770000000E+01 0.  1.
</event>
<event>
 8    1  0.2374062E-007  0.1877283E+03  0.7546771E-02  0.1064368E+00
        -11   -1    0    0    0    0  0.00000000000E+00  0.00000000000E+00  0.18250000000E+03  0.18250000000E+03  0.00000000000E+00 0.  1.
         11   -1    0    0    0    0 -0.00000000000E+00 -0.00000000000E+00 -0.18250000000E+03  0.18250000000E+03  0.00000000000E+00 0. -1.
         25    2    1    2    0    0 -0.13406633237E+03  0.34516760212E+02  0.21271628647E+02  0.18772828967E+03  0.12499696135E+03 0.  0.
         23    2    1    2    0    0  0.13406633237E+03 -0.34516760212E+02 -0.21271628647E+02  0.17727171033E+03  0.10866272999E+03 0.  0.
        -11    1    4    4    0    0  0.55746507043E+02 -0.66181045715E+00 -0.61441544054E+02  0.82964898459E+02  0.00000000000E+00 0. -1.
         11    1    4    4    0    0  0.78319825326E+02 -0.33854949755E+02  0.40169915408E+02  0.94306811874E+02  0.00000000000E+00 0.  1.
        -15    1    3    3    0    0 -0.65930298778E+02 -0.45350797680E+02  0.20919039028E+02  0.82730061465E+02  0.17770000000E+01 0. -1.
         15    1    3    3    0    0 -0.68136033591E+02  0.79867557891E+02  0.35258961817E+00  0.10499822820E+03  0.17770000000E+01 0. -1.
</event>
<event>
 8    1  0.2979752E-007  0.1889558E+03  0.7546771E-02  0.1063429E+00
        -11   -1    0    0    0    0  0.00000000000E+00  0.00000000000E+00  0.18250000000E+03  0.18250000000E+03  0.00000000000E+00 0.  1.
         11   -1    0    0    0    0 -0.00000000000E+00 -0.00000000000E+00 -0.18250000000E+03  0.18250000000E+03  0.00000000000E+00 0. -1.
         25    2    1    2    0    0  0.41228024056E+02  0.52678898322E+02  0.12492445166E+03  0.18895576295E+03  0.12499338156E+03 0.  0.
         23    2    1    2    0    0 -0.41228024056E+02 -0.52678898322E+02 -0.12492445166E+03  0.17604423705E+03  0.10445400174E+03 0.  0.
        -11    1    4    4    0    0 -0.17915715296E+02 -0.19050582927E+02  0.15076530658E+02  0.30186078598E+02  0.00000000000E+00 0.  1.
         11    1    4    4    0    0 -0.23312308761E+02 -0.33628315395E+02 -0.14000098232E+03  0.14585815845E+03  0.00000000000E+00 0. -1.
        -15    1    3    3    0    0 -0.77275646712E+01  0.62245025348E+02  0.98417648264E+01  0.63515167481E+02  0.17770000000E+01 0. -1.
         15    1    3    3    0    0  0.48955588728E+02 -0.95661270258E+01  0.11508268684E+03  0.12544059547E+03  0.17770000000E+01 0. -1.
</event>
<event>
 8    1  0.2781198E-007  0.1877846E+03  0.7546771E-02  0.1064324E+00
        -11   -1    0    0    0    0  0.00000000000E+00  0.00000000000E+00  0.18250000000E+03  0.18250000000E+03  0.00000000000E+00 0.  1.
         11   -1    0    0    0    0 -0.00000000000E+00 -0.00000000000E+00 -0.18250000000E+03  0.18250000000E+03  0.00000000000E+00 0.  1.
         25    2    1    2    0    0 -0.99232904007E+02 -0.44242073422E+02  0.88508732430E+02  0.18778463714E+03  0.12499897572E+03 0.  0.
         23    2    1    2    0    0  0.99232904007E+02  0.44242073422E+02 -0.88508732430E+02  0.17721536286E+03  0.10847561393E+03 0.  0.
        -11    1    4    4    0    0  0.61579896180E+02  0.28781701402E+02  0.11774636734E+02  0.68986317624E+02  0.00000000000E+00 0.  1.
         11    1    4    4    0    0  0.37653007827E+02  0.15460372020E+02 -0.10028336916E+03  0.10822904523E+03  0.00000000000E+00 0.  1.
        -15    1    3    3    0    0 -0.47496437379E+02  0.26786791216E+02 -0.10321570142E+02  0.55525996493E+02  0.17770000000E+01 0. -1.
         15    1    3    3    0    0 -0.51736466628E+02 -0.71028864637E+02  0.98830302572E+02  0.13225864065E+03  0.17770000000E+01 0. -1.
</event>
<event>
 8    1  0.2374062E-007  0.1958254E+03  0.7546771E-02  0.1058316E+00
        -11   -1    0    0    0    0  0.00000000000E+00  0.00000000000E+00  0.18250000000E+03  0.18250000000E+03  0.00000000000E+00 0. -1.
         11   -1    0    0    0    0 -0.00000000000E+00 -0.00000000000E+00 -0.18250000000E+03  0.18250000000E+03  0.00000000000E+00 0.  1.
         25    2    1    2    0    0  0.85163524007E+02  0.12235188228E+03 -0.22238220375E+02  0.19582539066E+03  0.12502094330E+03 0.  0.
         23    2    1    2    0    0 -0.85163524007E+02 -0.12235188228E+03  0.22238220375E+02  0.16917460934E+03  0.76829037995E+02 0.  0.
        -11    1    4    4    0    0 -0.11014179358E+02 -0.77980890340E+02 -0.40328145404E+01  0.78858068695E+02  0.00000000000E+00 0.  1.
         11    1    4    4    0    0 -0.74149344649E+02 -0.44370991941E+02  0.26271034916E+02  0.90316540640E+02  0.00000000000E+00 0. -1.
        -15    1    3    3    0    0  0.79014771757E+02  0.13953413381E+03 -0.45038119394E+02  0.16656739952E+03  0.17770000000E+01 0.  1.
         15    1    3    3    0    0  0.61487522497E+01 -0.17182251528E+02  0.22799899019E+02  0.29257991149E+02  0.17770000000E+01 0.  1.
</event>
<event>
 7    1  0.2374062E-007  0.1724773E+03  0.7546771E-02  0.1076725E+00
        -11   -1    0    0    0    0  0.00000000000E+00  0.00000000000E+00  0.18250000000E+03  0.18250000000E+03  0.00000000000E+00 0. -1.
         11   -1    0    0    0    0 -0.00000000000E+00 -0.00000000000E+00 -0.18250000000E+03  0.18250000000E+03  0.00000000000E+00 0. -1.
         25    2    1    2    0    0  0.80578704432E+02  0.49767540126E+02  0.31402614844E+02  0.15994797545E+03  0.12500997950E+03 0.  0.
        -11    1    1    2    0    0  0.23163533104E+02 -0.24152086420E+02  0.57179423405E+02  0.66252237738E+02  0.00000000000E+00 0. -1.
         11    1    1    2    0    0 -0.10374223754E+03 -0.25615453706E+02 -0.88582038249E+02  0.13879978681E+03  0.00000000000E+00 0. -1.
        -15    1    3    3    0    0 -0.11476519510E+02 -0.16679588890E+02  0.41241069520E+02  0.45977197933E+02  0.17770000000E+01 0. -1.
         15    1    3    3    0    0  0.92055223941E+02  0.66447129016E+02 -0.98384546761E+01  0.11397077752E+03  0.17770000000E+01 0. -1.
</event>
<event>
 8    1  0.2374062E-007  0.1891928E+03  0.7546771E-02  0.1063249E+00
        -11   -1    0    0    0    0  0.00000000000E+00  0.00000000000E+00  0.18250000000E+03  0.18250000000E+03  0.00000000000E+00 0. -1.
         11   -1    0    0    0    0 -0.00000000000E+00 -0.00000000000E+00 -0.18250000000E+03  0.18250000000E+03  0.00000000000E+00 0.  1.
         25    2    1    2    0    0  0.13009242598E+03  0.96633373520E+01  0.56133607407E+02  0.18919277011E+03  0.12500201196E+03 0.  0.
         23    2    1    2    0    0 -0.13009242598E+03 -0.96633373520E+01 -0.56133607407E+02  0.17580722989E+03  0.10363291377E+03 0.  0.
        -11    1    4    4    0    0 -0.14723340437E+03 -0.16270641298E+02 -0.51868679649E+02  0.15694830059E+03  0.00000000000E+00 0. -1.
         11    1    4    4    0    0  0.17140978389E+02  0.66073039460E+01 -0.42649277581E+01  0.18858929300E+02  0.00000000000E+00 0.  1.
        -15    1    3    3    0    0 -0.24763101242E+02 -0.40483648207E+01  0.93269831158E+01  0.26828171460E+02  0.17770000000E+01 0.  1.
         15    1    3    3    0    0  0.15485552722E+03  0.13711702173E+02  0.46806624291E+02  0.16236459865E+03  0.17770000000E+01 0.  1.
</event>
<event>
 8    1  0.2374062E-007  0.1967998E+03  0.7546771E-02  0.1057610E+00
        -11   -1    0    0    0    0  0.00000000000E+00  0.00000000000E+00  0.18250000000E+03  0.18250000000E+03  0.00000000000E+00 0.  1.
         11   -1    0    0    0    0 -0.00000000000E+00 -0.00000000000E+00 -0.18250000000E+03  0.18250000000E+03  0.00000000000E+00 0. -1.
         25    2    1    2    0    0  0.22753313183E+02 -0.55883066705E+02 -0.13951819849E+03  0.19679980794E+03  0.12499682511E+03 0.  0.
         23    2    1    2    0    0 -0.22753313183E+02  0.55883066705E+02  0.13951819849E+03  0.16820019206E+03  0.72009350045E+02 0.  0.
        -11    1    4    4    0    0 -0.10922420459E+02  0.41503989161E+02  0.14296100796E+03  0.14926396143E+03  0.00000000000E+00 0.  1.
         11    1    4    4    0    0 -0.11830892725E+02  0.14379077544E+02 -0.34428094634E+01  0.18936230636E+02  0.00000000000E+00 0. -1.
        -15    1    3    3    0    0  0.10406875007E+01  0.19148705331E+02 -0.11248953425E+03  0.11412628528E+03  0.17770000000E+01 0.  1.
         15    1    3    3    0    0  0.21712625683E+02 -0.75031772037E+02 -0.27028664238E+02  0.82673522657E+02  0.17770000000E+01 0.  1.
</event>
<event>
 8    1  0.2374062E-007  0.1863776E+03  0.7546771E-02  0.1065409E+00
        -11   -1    0    0    0    0  0.00000000000E+00  0.00000000000E+00  0.18250000000E+03  0.18250000000E+03  0.00000000000E+00 0. -1.
         11   -1    0    0    0    0 -0.00000000000E+00 -0.00000000000E+00 -0.18250000000E+03  0.18250000000E+03  0.00000000000E+00 0. -1.
         25    2    1    2    0    0 -0.49595555116E+02  0.12030195141E+03  0.46682074105E+02  0.18637755738E+03  0.12500039700E+03 0.  0.
         23    2    1    2    0    0  0.49595555116E+02 -0.12030195141E+03 -0.46682074105E+02  0.17862244262E+03  0.11311269763E+03 0.  0.
        -11    1    4    4    0    0  0.54806556773E+02 -0.69402837491E+02  0.23750226295E+02  0.91567383746E+02  0.00000000000E+00 0. -1.
         11    1    4    4    0    0 -0.52110016572E+01 -0.50899113919E+02 -0.70432300400E+02  0.87055058875E+02  0.00000000000E+00 0. -1.
        -15    1    3    3    0    0  0.24442822116E+02  0.27252534437E+02  0.56175713919E+02  0.67074740026E+02  0.17770000000E+01 0.  1.
         15    1    3    3    0    0 -0.74038377232E+02  0.93049416973E+02 -0.94936398142E+01  0.11930281735E+03  0.17770000000E+01 0.  1.
</event>
<event>
 7    1  0.2374062E-007  0.1607449E+03  0.7546771E-02  0.1087225E+00
        -11   -1    0    0    0    0  0.00000000000E+00  0.00000000000E+00  0.18250000000E+03  0.18250000000E+03  0.00000000000E+00 0. -1.
         11   -1    0    0    0    0 -0.00000000000E+00 -0.00000000000E+00 -0.18250000000E+03  0.18250000000E+03  0.00000000000E+00 0. -1.
         25    2    1    2    0    0 -0.12315216033E+02 -0.92728243503E+02 -0.35620086799E+02  0.16013937206E+03  0.12500254481E+03 0.  0.
        -11    1    1    2    0    0 -0.74102104627E+02  0.15659393447E+02  0.45986631926E+02  0.88606482998E+02  0.00000000000E+00 0. -1.
         11    1    1    2    0    0  0.86417320660E+02  0.77068850056E+02 -0.10366545128E+02  0.11625414495E+03  0.00000000000E+00 0. -1.
        -15    1    3    3    0    0 -0.94199878966E+01 -0.12268048047E+03 -0.15804135645E+02  0.12406516390E+03  0.17770000000E+01 0. -1.
         15    1    3    3    0    0 -0.28952281367E+01  0.29952236967E+02 -0.19815951154E+02  0.36074208160E+02  0.17770000000E+01 0. -1.
</event>
<event>
 7    1  0.2374062E-007  0.1771699E+03  0.7546771E-02  0.1072779E+00
        -11   -1    0    0    0    0  0.00000000000E+00  0.00000000000E+00  0.18250000000E+03  0.18250000000E+03  0.00000000000E+00 0.  1.
         11   -1    0    0    0    0 -0.00000000000E+00 -0.00000000000E+00 -0.18250000000E+03  0.18250000000E+03  0.00000000000E+00 0. -1.
         25    2    1    2    0    0 -0.37820463857E+02 -0.37023080161E+02  0.92457447787E+02  0.16423794518E+03  0.12499850813E+03 0.  0.
        -11    1    1    2    0    0  0.19682303818E+02  0.87062875875E+02 -0.11274488618E+03  0.14380106675E+03  0.00000000000E+00 0. -1.
         11    1    1    2    0    0  0.18138160039E+02 -0.50039795714E+02  0.20287438395E+02  0.56960988065E+02  0.00000000000E+00 0.  1.
        -15    1    3    3    0    0 -0.22673550740E+02  0.44678476277E+02  0.20002010176E+02  0.53976793955E+02  0.17770000000E+01 0.  1.
         15    1    3    3    0    0 -0.15146913117E+02 -0.81701556438E+02  0.72455437611E+02  0.11026115123E+03  0.17770000000E+01 0.  1.
</event>
<event>
 8    1  0.2374062E-007  0.1849535E+03  0.7546771E-02  0.1066518E+00
        -11   -1    0    0    0    0  0.00000000000E+00  0.00000000000E+00  0.18250000000E+03  0.18250000000E+03  0.00000000000E+00 0.  1.
         11   -1    0    0    0    0 -0.00000000000E+00 -0.00000000000E+00 -0.18250000000E+03  0.18250000000E+03  0.00000000000E+00 0. -1.
         25    2    1    2    0    0 -0.24061991084E+02  0.13029810722E+03  0.32039921539E+02  0.18495347468E+03  0.12499862026E+03 0.  0.
         23    2    1    2    0    0  0.24061991084E+02 -0.13029810722E+03 -0.32039921539E+02  0.18004652532E+03  0.11761640424E+03 0.  0.
        -11    1    4    4    0    0 -0.35055245056E+02 -0.10186896800E+03 -0.16334352275E+01  0.10774425720E+03  0.00000000000E+00 0.  1.
         11    1    4    4    0    0  0.59117236140E+02 -0.28429139212E+02 -0.30406486312E+02  0.72302268118E+02  0.00000000000E+00 0. -1.
        -15    1    3    3    0    0 -0.37029933126E+02  0.10404396978E+03 -0.31595419554E+02  0.11488164284E+03  0.17770000000E+01 0.  1.
         15    1    3    3    0    0  0.12967942042E+02  0.26254137434E+02  0.63635341094E+02  0.70071831846E+02  0.17770000000E+01 0.  1.
</event>
<event>
 7    1  0.2374062E-007  0.1682664E+03  0.7546771E-02  0.1080385E+00
        -11   -1    0    0    0    0  0.00000000000E+00  0.00000000000E+00  0.18250000000E+03  0.18250000000E+03  0.00000000000E+00 0.  1.
         11   -1    0    0    0    0 -0.00000000000E+00 -0.00000000000E+00 -0.18250000000E+03  0.18250000000E+03  0.00000000000E+00 0. -1.
         25    2    1    2    0    0 -0.98322010409E+02  0.17313887869E+02  0.13940830328E+02  0.16058082497E+03  0.12499946462E+03 0.  0.
        -11    1    1    2    0    0  0.88908279456E+02 -0.54120807356E+02 -0.77913070414E+02  0.13001611626E+03  0.00000000000E+00 0. -1.
         11    1    1    2    0    0  0.94137309536E+01  0.36806919488E+02  0.63972240087E+02  0.74403058770E+02  0.00000000000E+00 0.  1.
        -15    1    3    3    0    0 -0.94068295522E+02 -0.40162369726E+02  0.99723287433E+01  0.10278358446E+03  0.17770000000E+01 0.  1.
         15    1    3    3    0    0 -0.42537148867E+01  0.57476257595E+02  0.39685015845E+01  0.57797240516E+02  0.17770000000E+01 0.  1.
</event>
<event>
 8    1  0.2374062E-007  0.1860583E+03  0.7546771E-02  0.1065657E+00
        -11   -1    0    0    0    0  0.00000000000E+00  0.00000000000E+00  0.18250000000E+03  0.18250000000E+03  0.00000000000E+00 0. -1.
         11   -1    0    0    0    0 -0.00000000000E+00 -0.00000000000E+00 -0.18250000000E+03  0.18250000000E+03  0.00000000000E+00 0.  1.
         25    2    1    2    0    0  0.57438258018E+02  0.10033108539E+03  0.75009457303E+02  0.18605826017E+03  0.12500310922E+03 0.  0.
         23    2    1    2    0    0 -0.57438258018E+02 -0.10033108539E+03 -0.75009457303E+02  0.17894173983E+03  0.11414134828E+03 0.  0.
        -11    1    4    4    0    0 -0.26361596129E+02 -0.90893198903E+02  0.27430295837E+01  0.94678569743E+02  0.00000000000E+00 0. -1.
         11    1    4    4    0    0 -0.31076661889E+02 -0.94378864865E+01 -0.77752486887E+02  0.84263170084E+02  0.00000000000E+00 0.  1.
        -15    1    3    3    0    0  0.67120841700E+02  0.79987542838E+01  0.15135456805E+01  0.67636055548E+02  0.17770000000E+01 0. -1.
         15    1    3    3    0    0 -0.96825836822E+01  0.92332331105E+02  0.73495911622E+02  0.11842220463E+03  0.17770000000E+01 0. -1.
</event>
<event>
 8    1  0.2374062E-007  0.1884840E+03  0.7546771E-02  0.1063789E+00
        -11   -1    0    0    0    0  0.00000000000E+00  0.00000000000E+00  0.18250000000E+03  0.18250000000E+03  0.00000000000E+00 0.  1.
         11   -1    0    0    0    0 -0.00000000000E+00 -0.00000000000E+00 -0.18250000000E+03  0.18250000000E+03  0.00000000000E+00 0. -1.
         25    2    1    2    0    0  0.21716006420E+02 -0.60069898370E+02  0.12578477836E+03  0.18848399100E+03  0.12499770707E+03 0.  0.
         23    2    1    2    0    0 -0.21716006420E+02  0.60069898370E+02 -0.12578477836E+03  0.17651600900E+03  0.10609483182E+03 0.  0.
        -11    1    4    4    0    0  0.30587096646E+02 -0.45479723689E+00 -0.76918596729E+02  0.82778305397E+02  0.00000000000E+00 0. -1.
         11    1    4    4    0    0 -0.52303103066E+02  0.60524695607E+02 -0.48866181632E+02  0.93737703599E+02  0.00000000000E+00 0.  1.
        -15    1    3    3    0    0  0.23930206949E+02 -0.62395022948E+02  0.43476659728E+01  0.66991444392E+02  0.17770000000E+01 0. -1.
         15    1    3    3    0    0 -0.22142005284E+01  0.23251245779E+01  0.12143711239E+03  0.12149254661E+03  0.17770000000E+01 0. -1.
</event>
<event>
 8    1  0.2374062E-007  0.1977509E+03  0.7546771E-02  0.1056924E+00
        -11   -1    0    0    0    0  0.00000000000E+00  0.00000000000E+00  0.18250000000E+03  0.18250000000E+03  0.00000000000E+00 0.  1.
         11   -1    0    0    0    0 -0.00000000000E+00 -0.00000000000E+00 -0.18250000000E+03  0.18250000000E+03  0.00000000000E+00 0.  1.
         25    2    1    2    0    0 -0.67599734079E+02 -0.12398080450E+03  0.59497750449E+02  0.19775089233E+03  0.12499787669E+03 0.  0.
         23    2    1    2    0    0  0.67599734079E+02  0.12398080450E+03 -0.59497750449E+02  0.16724910767E+03  0.67017294616E+02 0.  0.
        -11    1    4    4    0    0  0.26492613836E+02  0.54737652279E+02  0.90713247592E+01  0.61484616757E+02  0.00000000000E+00 0.  1.
         11    1    4    4    0    0  0.41107120243E+02  0.69243152218E+02 -0.68569075208E+02  0.10576449092E+03  0.00000000000E+00 0.  1.
        -15    1    3    3    0    0  0.20866356154E+02 -0.90187284187E+02  0.40931331540E+02  0.10123083858E+03  0.17770000000E+01 0.  1.
         15    1    3    3    0    0 -0.88466090233E+02 -0.33793520309E+02  0.18566418909E+02  0.96520053751E+02  0.17770000000E+01 0.  1.
</event>
<event>
 8    1  0.2972540E-007  0.1887664E+03  0.7546771E-02  0.1063573E+00
        -11   -1    0    0    0    0  0.00000000000E+00  0.00000000000E+00  0.18250000000E+03  0.18250000000E+03  0.00000000000E+00 0.  1.
         11   -1    0    0    0    0 -0.00000000000E+00 -0.00000000000E+00 -0.18250000000E+03  0.18250000000E+03  0.00000000000E+00 0. -1.
         25    2    1    2    0    0 -0.26319652776E+02 -0.89653395220E+02  0.10619968695E+03  0.18876636261E+03  0.12499564292E+03 0.  0.
         23    2    1    2    0    0  0.26319652776E+02  0.89653395220E+02 -0.10619968695E+03  0.17623363739E+03  0.10511644040E+03 0.  0.
        -11    1    4    4    0    0  0.20456048290E+02  0.42754440133E+02  0.12036536098E+02  0.48900616193E+02  0.00000000000E+00 0.  1.
         11    1    4    4    0    0  0.58636044854E+01  0.46898955087E+02 -0.11823622305E+03  0.12733302119E+03  0.00000000000E+00 0. -1.
        -15    1    3    3    0    0 -0.50613045333E+01 -0.10881137340E+03  0.11535502380E+03  0.15866780086E+03  0.17770000000E+01 0.  1.
         15    1    3    3    0    0 -0.21258348242E+02  0.19157978178E+02 -0.91553368504E+01  0.30098561755E+02  0.17770000000E+01 0.  1.
</event>
<event>
 8    1  0.2374062E-007  0.1877278E+03  0.7546771E-02  0.1064368E+00
        -11   -1    0    0    0    0  0.00000000000E+00  0.00000000000E+00  0.18250000000E+03  0.18250000000E+03  0.00000000000E+00 0. -1.
         11   -1    0    0    0    0 -0.00000000000E+00 -0.00000000000E+00 -0.18250000000E+03  0.18250000000E+03  0.00000000000E+00 0. -1.
         25    2    1    2    0    0  0.85260285033E+00 -0.98558340090E+02 -0.99516567744E+02  0.18772778792E+03  0.12499480697E+03 0.  0.
         23    2    1    2    0    0 -0.85260285033E+00  0.98558340090E+02  0.99516567744E+02  0.17727221208E+03  0.10866193715E+03 0.  0.
        -11    1    4    4    0    0 -0.13058200346E+02  0.12002447939E+03  0.90870711000E+02  0.15110882955E+03  0.00000000000E+00 0. -1.
         11    1    4    4    0    0  0.12205597495E+02 -0.21466139299E+02  0.86458567436E+01  0.26163382531E+02  0.00000000000E+00 0. -1.
        -15    1    3    3    0    0 -0.49061963260E+02 -0.91921284386E+02 -0.87145981387E+02  0.13584615770E+03  0.17770000000E+01 0. -1.
         15    1    3    3    0    0  0.49914566110E+02 -0.66370557032E+01 -0.12370586357E+02  0.51881630219E+02  0.17770000000E+01 0. -1.
</event>
<event>
 8    1  0.2374062E-007  0.1864841E+03  0.7546771E-02  0.1065327E+00
        -11   -1    0    0    0    0  0.00000000000E+00  0.00000000000E+00  0.18250000000E+03  0.18250000000E+03  0.00000000000E+00 0.  1.
         11   -1    0    0    0    0 -0.00000000000E+00 -0.00000000000E+00 -0.18250000000E+03  0.18250000000E+03  0.00000000000E+00 0. -1.
         25    2    1    2    0    0  0.43885677174E+02 -0.98031394849E+02  0.87264175045E+02  0.18648409729E+03  0.12500070103E+03 0.  0.
         23    2    1    2    0    0 -0.43885677174E+02  0.98031394849E+02 -0.87264175045E+02  0.17851590271E+03  0.11276872012E+03 0.  0.
        -11    1    4    4    0    0 -0.13464402580E+02  0.69703720897E+02 -0.11016407646E+03  0.13105732557E+03  0.00000000000E+00 0. -1.
         11    1    4    4    0    0 -0.30421274594E+02  0.28327673951E+02  0.22899901414E+02  0.47458577140E+02  0.00000000000E+00 0.  1.
        -15    1    3    3    0    0  0.29218536139E+02 -0.12738683738E+03  0.78514225500E+02  0.15247547517E+03  0.17770000000E+01 0. -1.
         15    1    3    3    0    0  0.14667141035E+02  0.29355442535E+02  0.87499495450E+01  0.34008622121E+02  0.17770000000E+01 0. -1.
</event>
<event>
 8    1  0.2374062E-007  0.1882483E+03  0.7546771E-02  0.1063969E+00
        -11   -1    0    0    0    0  0.00000000000E+00  0.00000000000E+00  0.18250000000E+03  0.18250000000E+03  0.00000000000E+00 0.  1.
         11   -1    0    0    0    0 -0.00000000000E+00 -0.00000000000E+00 -0.18250000000E+03  0.18250000000E+03  0.00000000000E+00 0. -1.
         25    2    1    2    0    0 -0.37319957868E+02 -0.82931967652E+02 -0.10742480185E+03  0.18824826977E+03  0.12500732981E+03 0.  0.
         23    2    1    2    0    0  0.37319957868E+02  0.82931967652E+02  0.10742480185E+03  0.17675173023E+03  0.10691396342E+03 0.  0.
        -11    1    4    4    0    0  0.13179541252E+01  0.32594216033E+02 -0.17732832183E+02  0.37129142990E+02  0.00000000000E+00 0. -1.
         11    1    4    4    0    0  0.36002003743E+02  0.50337751619E+02  0.12515763403E+03  0.13962258724E+03  0.00000000000E+00 0.  1.
        -15    1    3    3    0    0  0.71163757577E+00  0.50145592726E+01  0.24560467211E+02  0.25140137457E+02  0.17770000000E+01 0.  1.
         15    1    3    3    0    0 -0.38031595444E+02 -0.87946526925E+02 -0.13198526906E+03  0.16310813231E+03  0.17770000000E+01 0.  1.
</event>
<event>
 8    1  0.2374062E-007  0.1842589E+03  0.7546771E-02  0.1067063E+00
        -11   -1    0    0    0    0  0.00000000000E+00  0.00000000000E+00  0.18250000000E+03  0.18250000000E+03  0.00000000000E+00 0.  1.
         11   -1    0    0    0    0 -0.00000000000E+00 -0.00000000000E+00 -0.18250000000E+03  0.18250000000E+03  0.00000000000E+00 0. -1.
         25    2    1    2    0    0  0.22669023962E+02 -0.13076488398E+03  0.26710031656E+02  0.18425891591E+03  0.12499833106E+03 0.  0.
         23    2    1    2    0    0 -0.22669023962E+02  0.13076488398E+03 -0.26710031656E+02  0.18074108409E+03  0.11975213634E+03 0.  0.
        -11    1    4    4    0    0  0.26404591776E+02  0.47614072987E+01  0.24317935971E+02  0.36210985574E+02  0.00000000000E+00 0.  1.
         11    1    4    4    0    0 -0.49073615738E+02  0.12600347668E+03 -0.51027967627E+02  0.14453009852E+03  0.00000000000E+00 0. -1.
        -15    1    3    3    0    0  0.68052311954E+02 -0.53612531637E+02 -0.10539794312E+02  0.87290696549E+02  0.17770000000E+01 0.  1.
         15    1    3    3    0    0 -0.45383287992E+02 -0.77152352347E+02  0.37249825967E+02  0.96968219357E+02  0.17770000000E+01 0.  1.
</event>
<event>
 8    1  0.2374062E-007  0.1955082E+03  0.7546771E-02  0.1058547E+00
        -11   -1    0    0    0    0  0.00000000000E+00  0.00000000000E+00  0.18250000000E+03  0.18250000000E+03  0.00000000000E+00 0. -1.
         11   -1    0    0    0    0 -0.00000000000E+00 -0.00000000000E+00 -0.18250000000E+03  0.18250000000E+03  0.00000000000E+00 0.  1.
         25    2    1    2    0    0  0.14440769568E+03  0.26551284395E+02  0.32236289212E+02  0.19550822483E+03  0.12500293740E+03 0.  0.
         23    2    1    2    0    0 -0.14440769568E+03 -0.26551284395E+02 -0.32236289212E+02  0.16949177517E+03  0.78292593735E+02 0.  0.
        -11    1    4    4    0    0 -0.20656439750E+02 -0.28137963161E+02 -0.29496769002E+02  0.45700031243E+02  0.00000000000E+00 0. -1.
         11    1    4    4    0    0 -0.12375125593E+03  0.15866787657E+01 -0.27395202098E+01  0.12379174393E+03  0.00000000000E+00 0.  1.
        -15    1    3    3    0    0  0.14290512981E+03  0.35893056928E+01  0.63680687167E+02  0.15650286543E+03  0.17770000000E+01 0. -1.
         15    1    3    3    0    0  0.15025658751E+01  0.22961978703E+02 -0.31444397955E+02  0.39005359400E+02  0.17770000000E+01 0. -1.
</event>
<event>
 8    1  0.2374062E-007  0.1885002E+03  0.7546771E-02  0.1063777E+00
        -11   -1    0    0    0    0  0.00000000000E+00  0.00000000000E+00  0.18250000000E+03  0.18250000000E+03  0.00000000000E+00 0.  1.
         11   -1    0    0    0    0 -0.00000000000E+00 -0.00000000000E+00 -0.18250000000E+03  0.18250000000E+03  0.00000000000E+00 0. -1.
         25    2    1    2    0    0  0.13515275890E+03 -0.38075254076E+02 -0.13779034681E+02  0.18850016463E+03  0.12500582809E+03 0.  0.
         23    2    1    2    0    0 -0.13515275890E+03  0.38075254076E+02  0.13779034681E+02  0.17649983537E+03  0.10604874765E+03 0.  0.
        -11    1    4    4    0    0 -0.12446893484E+03  0.16437817517E+02 -0.27647118232E+02  0.12855769417E+03  0.00000000000E+00 0. -1.
         11    1    4    4    0    0 -0.10683824061E+02  0.21637436559E+02  0.41426152913E+02  0.47942141197E+02  0.00000000000E+00 0.  1.
        -15    1    3    3    0    0  0.14255724901E+03  0.19273982390E+00 -0.30919960092E+02  0.14588285730E+03  0.17770000000E+01 0. -1.
         15    1    3    3    0    0 -0.74044901086E+01 -0.38267993900E+02  0.17140925411E+02  0.42617307328E+02  0.17770000000E+01 0. -1.
</event>
<event>
 8    1  0.2374062E-007  0.1964313E+03  0.7546771E-02  0.1057876E+00
        -11   -1    0    0    0    0  0.00000000000E+00  0.00000000000E+00  0.18250000000E+03  0.18250000000E+03  0.00000000000E+00 0.  1.
         11   -1    0    0    0    0 -0.00000000000E+00 -0.00000000000E+00 -0.18250000000E+03  0.18250000000E+03  0.00000000000E+00 0. -1.
         25    2    1    2    0    0  0.10814831224E+03 -0.72308484166E+02  0.77680842664E+02  0.19643134817E+03  0.12500554750E+03 0.  0.
         23    2    1    2    0    0 -0.10814831224E+03  0.72308484166E+02 -0.77680842664E+02  0.16856865183E+03  0.73868144287E+02 0.  0.
        -11    1    4    4    0    0 -0.57328397518E+02  0.71274044869E+02 -0.73911473211E+02  0.11759864160E+03  0.00000000000E+00 0. -1.
         11    1    4    4    0    0 -0.50819914718E+02  0.10344392971E+01 -0.37693694527E+01  0.50970010229E+02  0.00000000000E+00 0.  1.
        -15    1    3    3    0    0  0.32353872365E+02 -0.64816773591E+02 -0.17468051333E+02  0.74540443668E+02  0.17770000000E+01 0. -1.
         15    1    3    3    0    0  0.75794439871E+02 -0.74917105750E+01  0.95148893997E+02  0.12189090450E+03  0.17770000000E+01 0. -1.
</event>
<event>
 8    1  0.2374062E-007  0.1837000E+03  0.7546771E-02  0.1067504E+00
        -11   -1    0    0    0    0  0.00000000000E+00  0.00000000000E+00  0.18250000000E+03  0.18250000000E+03  0.00000000000E+00 0.  1.
         11   -1    0    0    0    0 -0.00000000000E+00 -0.00000000000E+00 -0.18250000000E+03  0.18250000000E+03  0.00000000000E+00 0. -1.
         25    2    1    2    0    0  0.51700141503E+02  0.42921091845E+02  0.11664380101E+03  0.18369996366E+03  0.12499910231E+03 0.  0.
         23    2    1    2    0    0 -0.51700141503E+02 -0.42921091845E+02 -0.11664380101E+03  0.18130003634E+03  0.12144464627E+03 0.  0.
        -11    1    4    4    0    0 -0.76547291045E+02 -0.28179304665E+02 -0.12671891497E+03  0.15070250293E+03  0.00000000000E+00 0. -1.
         11    1    4    4    0    0  0.24847149542E+02 -0.14741787180E+02  0.10075113961E+02  0.30597533413E+02  0.00000000000E+00 0.  1.
        -15    1    3    3    0    0  0.41060642677E+02  0.70633894006E+02  0.22196524933E+02  0.84681561202E+02  0.17770000000E+01 0.  1.
         15    1    3    3    0    0  0.10639498825E+02 -0.27712802161E+02  0.94447276073E+02  0.99018402459E+02  0.17770000000E+01 0.  1.
</event>
<event>
 8    1  0.2374062E-007  0.1837152E+03  0.7546771E-02  0.1067492E+00
        -11   -1    0    0    0    0  0.00000000000E+00  0.00000000000E+00  0.18250000000E+03  0.18250000000E+03  0.00000000000E+00 0.  1.
         11   -1    0    0    0    0 -0.00000000000E+00 -0.00000000000E+00 -0.18250000000E+03  0.18250000000E+03  0.00000000000E+00 0. -1.
         25    2    1    2    0    0  0.10899937826E+03  0.15800010792E+02  0.77442460777E+02  0.18371515504E+03  0.12499367447E+03 0.  0.
         23    2    1    2    0    0 -0.10899937826E+03 -0.15800010792E+02 -0.77442460777E+02  0.18128484496E+03  0.12139339142E+03 0.  0.
        -11    1    4    4    0    0 -0.22929535008E+02  0.50079100759E+02 -0.19858953324E+02  0.58549619432E+02  0.00000000000E+00 0.  1.
         11    1    4    4    0    0 -0.86069843249E+02 -0.65879111552E+02 -0.57583507453E+02  0.12273522553E+03  0.00000000000E+00 0. -1.
        -15    1    3    3    0    0  0.78656606030E+01  0.45027855145E+02 -0.10031751775E+02  0.46831294327E+02  0.17770000000E+01 0. -1.
         15    1    3    3    0    0  0.10113371765E+03 -0.29227844353E+02  0.87474212552E+02  0.13688386071E+03  0.17770000000E+01 0. -1.
</event>
<event>
 8    1  0.2374062E-007  0.1890778E+03  0.7546771E-02  0.1063336E+00
        -11   -1    0    0    0    0  0.00000000000E+00  0.00000000000E+00  0.18250000000E+03  0.18250000000E+03  0.00000000000E+00 0. -1.
         11   -1    0    0    0    0 -0.00000000000E+00 -0.00000000000E+00 -0.18250000000E+03  0.18250000000E+03  0.00000000000E+00 0. -1.
         25    2    1    2    0    0 -0.77536350303E+02  0.11218600915E+03 -0.39086295360E+02  0.18907778165E+03  0.12500033104E+03 0.  0.
         23    2    1    2    0    0  0.77536350303E+02 -0.11218600915E+03  0.39086295360E+02  0.17592221835E+03  0.10403510061E+03 0.  0.
        -11    1    4    4    0    0  0.19795672680E+02 -0.98633884621E+02  0.54811004223E+02  0.11456333635E+03  0.00000000000E+00 0. -1.
         11    1    4    4    0    0  0.57740677623E+02 -0.13552124526E+02 -0.15724708863E+02  0.61358882001E+02  0.00000000000E+00 0. -1.
        -15    1    3    3    0    0  0.17112160127E+02  0.17968009179E+02 -0.49203131069E+02  0.55134210923E+02  0.17770000000E+01 0.  1.
         15    1    3    3    0    0 -0.94648510430E+02  0.94217999968E+02  0.10116835710E+02  0.13394357072E+03  0.17770000000E+01 0.  1.
</event>
<event>
 8    1  0.2374062E-007  0.1953789E+03  0.7546771E-02  0.1058642E+00
        -11   -1    0    0    0    0  0.00000000000E+00  0.00000000000E+00  0.18250000000E+03  0.18250000000E+03  0.00000000000E+00 0. -1.
         11   -1    0    0    0    0 -0.00000000000E+00 -0.00000000000E+00 -0.18250000000E+03  0.18250000000E+03  0.00000000000E+00 0.  1.
         25    2    1    2    0    0  0.15263437680E+02 -0.81901625886E+02  0.12492901154E+03  0.19537892012E+03  0.12499926261E+03 0.  0.
         23    2    1    2    0    0 -0.15263437680E+02  0.81901625886E+02 -0.12492901154E+03  0.16962107988E+03  0.78887286446E+02 0.  0.
        -11    1    4    4    0    0  0.29814808930E+02  0.49560528801E+02 -0.50444389255E+02  0.76745066642E+02  0.00000000000E+00 0. -1.
         11    1    4    4    0    0 -0.45078246610E+02  0.32341097085E+02 -0.74484622281E+02  0.92876013235E+02  0.00000000000E+00 0.  1.
        -15    1    3    3    0    0  0.28695155389E+02 -0.15226781103E+01 -0.15730501561E+02  0.32807573818E+02  0.17770000000E+01 0. -1.
         15    1    3    3    0    0 -0.13431717709E+02 -0.80378947776E+02  0.14065951310E+03  0.16257134631E+03  0.17770000000E+01 0. -1.
</event>
<event>
 8    1  0.2374062E-007  0.1862929E+03  0.7546771E-02  0.1065475E+00
        -11   -1    0    0    0    0  0.00000000000E+00  0.00000000000E+00  0.18250000000E+03  0.18250000000E+03  0.00000000000E+00 0. -1.
         11   -1    0    0    0    0 -0.00000000000E+00 -0.00000000000E+00 -0.18250000000E+03  0.18250000000E+03  0.00000000000E+00 0.  1.
         25    2    1    2    0    0  0.34029194493E+02  0.99104354849E+02  0.89999451719E+02  0.18629288521E+03  0.12500191415E+03 0.  0.
         23    2    1    2    0    0 -0.34029194493E+02 -0.99104354849E+02 -0.89999451719E+02  0.17870711479E+03  0.11338726710E+03 0.  0.
        -11    1    4    4    0    0  0.12619608499E+02 -0.94781921965E+02 -0.90785750314E+02  0.13185188550E+03  0.00000000000E+00 0.  1.
         11    1    4    4    0    0 -0.46648802992E+02 -0.43224328839E+01  0.78629859516E+00  0.46855229293E+02  0.00000000000E+00 0. -1.
        -15    1    3    3    0    0 -0.44422784329E+01  0.89193196918E+02  0.11006626026E+03  0.14174942536E+03  0.17770000000E+01 0.  1.
         15    1    3    3    0    0  0.38471472926E+02  0.99111579306E+01 -0.20066808543E+02  0.44543459842E+02  0.17770000000E+01 0.  1.
</event>
<event>
 8    1  0.2374062E-007  0.1827867E+03  0.7546771E-02  0.1068227E+00
        -11   -1    0    0    0    0  0.00000000000E+00  0.00000000000E+00  0.18250000000E+03  0.18250000000E+03  0.00000000000E+00 0. -1.
         11   -1    0    0    0    0 -0.00000000000E+00 -0.00000000000E+00 -0.18250000000E+03  0.18250000000E+03  0.00000000000E+00 0.  1.
         25    2    1    2    0    0 -0.11133791785E+03  0.56472149955E+02 -0.46913952255E+02  0.18278665322E+03  0.12499922403E+03 0.  0.
         23    2    1    2    0    0  0.11133791785E+03 -0.56472149955E+02  0.46913952255E+02  0.18221334678E+03  0.12415936998E+03 0.  0.
        -11    1    4    4    0    0  0.60977813921E+02 -0.91902920838E+02  0.10777591617E+02  0.11081785565E+03  0.00000000000E+00 0. -1.
         11    1    4    4    0    0  0.50360103931E+02  0.35430770883E+02  0.36136360637E+02  0.71395491128E+02  0.00000000000E+00 0.  1.
        -15    1    3    3    0    0 -0.28874752917E+02 -0.39925391083E+02 -0.19296514020E+02  0.52946212248E+02  0.17770000000E+01 0. -1.
         15    1    3    3    0    0 -0.82463164936E+02  0.96397541038E+02 -0.27617438235E+02  0.12984044098E+03  0.17770000000E+01 0. -1.
</event>
<event>
 8    1  0.2374062E-007  0.1956465E+03  0.7546771E-02  0.1058447E+00
        -11   -1    0    0    0    0  0.00000000000E+00  0.00000000000E+00  0.18250000000E+03  0.18250000000E+03  0.00000000000E+00 0. -1.
         11   -1    0    0    0    0 -0.00000000000E+00 -0.00000000000E+00 -0.18250000000E+03  0.18250000000E+03  0.00000000000E+00 0.  1.
         25    2    1    2    0    0 -0.83002550203E+02  0.12553193518E+03 -0.10585846392E+01  0.19564645374E+03  0.12501489579E+03 0.  0.
         23    2    1    2    0    0  0.83002550203E+02 -0.12553193518E+03  0.10585846392E+01  0.16935354626E+03  0.77664747086E+02 0.  0.
        -11    1    4    4    0    0  0.46636955639E+02 -0.22439497523E+02 -0.24234006608E+02  0.57147386262E+02  0.00000000000E+00 0.  1.
         11    1    4    4    0    0  0.36365594564E+02 -0.10309243765E+03  0.25292591247E+02  0.11220616000E+03  0.00000000000E+00 0. -1.
        -15    1    3    3    0    0 -0.65956626973E+02  0.92373431280E+02  0.56689445458E+02  0.12688569030E+03  0.17770000000E+01 0. -1.
         15    1    3    3    0    0 -0.17045923230E+02  0.33158503897E+02 -0.57748030097E+02  0.68760763438E+02  0.17770000000E+01 0. -1.
</event>
<event>
 8    1  0.2374062E-007  0.1860182E+03  0.7546771E-02  0.1065688E+00
        -11   -1    0    0    0    0  0.00000000000E+00  0.00000000000E+00  0.18250000000E+03  0.18250000000E+03  0.00000000000E+00 0. -1.
         11   -1    0    0    0    0 -0.00000000000E+00 -0.00000000000E+00 -0.18250000000E+03  0.18250000000E+03  0.00000000000E+00 0.  1.
         25    2    1    2    0    0  0.13251922328E+03  0.18842508903E+02  0.32561113306E+02  0.18601817005E+03  0.12500459516E+03 0.  0.
         23    2    1    2    0    0 -0.13251922328E+03 -0.18842508903E+02 -0.32561113306E+02  0.17898182995E+03  0.11427110165E+03 0.  0.
        -11    1    4    4    0    0 -0.12321319807E+03  0.29296152937E+02 -0.28266262024E+02  0.12976416425E+03  0.00000000000E+00 0.  1.
         11    1    4    4    0    0 -0.93060252065E+01 -0.48138661840E+02 -0.42948512819E+01  0.49217665694E+02  0.00000000000E+00 0. -1.
        -15    1    3    3    0    0  0.12139468056E+03  0.17080106994E+02  0.73888217675E+02  0.14314686502E+03  0.17770000000E+01 0.  1.
         15    1    3    3    0    0  0.11124542715E+02  0.17624019089E+01 -0.41327104368E+02  0.42871305037E+02  0.17770000000E+01 0.  1.
</event>
<event>
 8    1  0.2374062E-007  0.1969559E+03  0.7546771E-02  0.1057497E+00
        -11   -1    0    0    0    0  0.00000000000E+00  0.00000000000E+00  0.18250000000E+03  0.18250000000E+03  0.00000000000E+00 0. -1.
         11   -1    0    0    0    0 -0.00000000000E+00 -0.00000000000E+00 -0.18250000000E+03  0.18250000000E+03  0.00000000000E+00 0.  1.
         25    2    1    2    0    0 -0.14120099562E+03 -0.19604239445E+02  0.53326245607E+02  0.19695589912E+03  0.12500356139E+03 0.  0.
         23    2    1    2    0    0  0.14120099562E+03  0.19604239445E+02 -0.53326245607E+02  0.16804410088E+03  0.71225585297E+02 0.  0.
        -11    1    4    4    0    0  0.57767700111E+02 -0.10294312584E+02 -0.53513566509E+02  0.79415249469E+02  0.00000000000E+00 0.  1.
         11    1    4    4    0    0  0.83433295507E+02  0.29898552028E+02  0.18732090266E+00  0.88628851407E+02  0.00000000000E+00 0. -1.
        -15    1    3    3    0    0 -0.76609714571E+02  0.52385016870E+02  0.28134418060E+02  0.96994544010E+02  0.17770000000E+01 0. -1.
         15    1    3    3    0    0 -0.64591281048E+02 -0.71989256315E+02  0.25191827547E+02  0.99961355114E+02  0.17770000000E+01 0. -1.
</event>
<event>
 7    1  0.2374062E-007  0.1733115E+03  0.7546771E-02  0.1076014E+00
        -11   -1    0    0    0    0  0.00000000000E+00  0.00000000000E+00  0.18250000000E+03  0.18250000000E+03  0.00000000000E+00 0. -1.
         11   -1    0    0    0    0 -0.00000000000E+00 -0.00000000000E+00 -0.18250000000E+03  0.18250000000E+03  0.00000000000E+00 0. -1.
         25    2    1    2    0    0 -0.16316886923E+02  0.10189359790E+03 -0.37244203809E+02  0.16630521169E+03  0.12498698583E+03 0.  0.
        -11    1    1    2    0    0  0.80476145403E+02 -0.10303649300E+03  0.29817385244E+02  0.13409699971E+03  0.00000000000E+00 0. -1.
         11    1    1    2    0    0 -0.64159258480E+02  0.11428951062E+01  0.74268185655E+01  0.64597788600E+02  0.00000000000E+00 0. -1.
        -15    1    3    3    0    0 -0.11831265947E+02  0.50899423881E+02  0.45286069789E+02  0.69171641959E+02  0.17770000000E+01 0.  1.
         15    1    3    3    0    0 -0.44856209760E+01  0.50994174015E+02 -0.82530273599E+02  0.97133569729E+02  0.17770000000E+01 0.  1.
</event>
<event>
 8    1  0.2374062E-007  0.1872719E+03  0.7546771E-02  0.1064719E+00
        -11   -1    0    0    0    0  0.00000000000E+00  0.00000000000E+00  0.18250000000E+03  0.18250000000E+03  0.00000000000E+00 0.  1.
         11   -1    0    0    0    0 -0.00000000000E+00 -0.00000000000E+00 -0.18250000000E+03  0.18250000000E+03  0.00000000000E+00 0. -1.
         25    2    1    2    0    0 -0.55939601074E+01 -0.12640263032E+03  0.58629212039E+02  0.18727191807E+03  0.12499787779E+03 0.  0.
         23    2    1    2    0    0  0.55939601074E+01  0.12640263032E+03 -0.58629212039E+02  0.17772808193E+03  0.11018606655E+03 0.  0.
        -11    1    4    4    0    0  0.35878155234E+02  0.54560579009E+01  0.68005588491E+01  0.36922326463E+02  0.00000000000E+00 0.  1.
         11    1    4    4    0    0 -0.30284195126E+02  0.12094657242E+03 -0.65429770888E+02  0.14080575547E+03  0.00000000000E+00 0. -1.
        -15    1    3    3    0    0  0.30926323406E+02 -0.13174879965E+03  0.25665808486E+02  0.13775367560E+03  0.17770000000E+01 0. -1.
         15    1    3    3    0    0 -0.36520283514E+02  0.53461693290E+01  0.32963403554E+02  0.49518242469E+02  0.17770000000E+01 0. -1.
</event>
<event>
 8    1  0.2374062E-007  0.1877340E+03  0.7546771E-02  0.1064363E+00
        -11   -1    0    0    0    0  0.00000000000E+00  0.00000000000E+00  0.18250000000E+03  0.18250000000E+03  0.00000000000E+00 0.  1.
         11   -1    0    0    0    0 -0.00000000000E+00 -0.00000000000E+00 -0.18250000000E+03  0.18250000000E+03  0.00000000000E+00 0. -1.
         25    2    1    2    0    0  0.11550359547E+03 -0.10530565975E+02  0.78532249469E+02  0.18773399538E+03  0.12499906171E+03 0.  0.
         23    2    1    2    0    0 -0.11550359547E+03  0.10530565975E+02 -0.78532249469E+02  0.17726600462E+03  0.10864597922E+03 0.  0.
        -11    1    4    4    0    0 -0.14095887153E+02 -0.33009242647E+02  0.83014874696E+01  0.36840450988E+02  0.00000000000E+00 0.  1.
         11    1    4    4    0    0 -0.10140770832E+03  0.43539808622E+02 -0.86833736938E+02  0.14042555363E+03  0.00000000000E+00 0. -1.
        -15    1    3    3    0    0  0.48562059665E+02 -0.50257974321E+02 -0.91099493395E+01  0.70500259061E+02  0.17770000000E+01 0. -1.
         15    1    3    3    0    0  0.66941535810E+02  0.39727408346E+02  0.87642198808E+02  0.11723373632E+03  0.17770000000E+01 0. -1.
</event>
<event>
 7    1  0.2374062E-007  0.1632185E+03  0.7546771E-02  0.1084931E+00
        -11   -1    0    0    0    0  0.00000000000E+00  0.00000000000E+00  0.18250000000E+03  0.18250000000E+03  0.00000000000E+00 0.  1.
         11   -1    0    0    0    0 -0.00000000000E+00 -0.00000000000E+00 -0.18250000000E+03  0.18250000000E+03  0.00000000000E+00 0. -1.
         25    2    1    2    0    0 -0.96509943092E+02  0.20192747615E+02  0.17587687450E+02  0.16017426648E+03  0.12499821087E+03 0.  0.
        -11    1    1    2    0    0  0.28773343060E+02  0.76841057768E+01  0.78524945936E+02  0.83982842811E+02  0.00000000000E+00 0.  1.
         11    1    1    2    0    0  0.67736600032E+02 -0.27876853391E+02 -0.96112633386E+02  0.12084289071E+03  0.00000000000E+00 0. -1.
        -15    1    3    3    0    0 -0.72276190591E+02  0.70559018698E+02  0.24150176841E+02  0.10386920437E+03  0.17770000000E+01 0. -1.
         15    1    3    3    0    0 -0.24233752501E+02 -0.50366271083E+02 -0.65624893912E+01  0.56305062109E+02  0.17770000000E+01 0. -1.
</event>
<event>
 8    1  0.2374062E-007  0.1842999E+03  0.7546771E-02  0.1067031E+00
        -11   -1    0    0    0    0  0.00000000000E+00  0.00000000000E+00  0.18250000000E+03  0.18250000000E+03  0.00000000000E+00 0. -1.
         11   -1    0    0    0    0 -0.00000000000E+00 -0.00000000000E+00 -0.18250000000E+03  0.18250000000E+03  0.00000000000E+00 0.  1.
         25    2    1    2    0    0 -0.20594009046E+02 -0.24244059218E+01  0.13383557991E+03  0.18429990385E+03  0.12499800461E+03 0.  0.
         23    2    1    2    0    0  0.20594009046E+02  0.24244059218E+01 -0.13383557991E+03  0.18070009615E+03  0.11962680027E+03 0.  0.
        -11    1    4    4    0    0  0.27698827556E+02 -0.31361463260E+02 -0.13956572831E+03  0.14570298194E+03  0.00000000000E+00 0.  1.
         11    1    4    4    0    0 -0.71048185093E+01  0.33785869182E+02  0.57301483980E+01  0.34997114211E+02  0.00000000000E+00 0. -1.
        -15    1    3    3    0    0 -0.37022811197E+02  0.81205325609E+01 -0.99152882814E+01  0.39218646952E+02  0.17770000000E+01 0. -1.
         15    1    3    3    0    0  0.16428802151E+02 -0.10544938483E+02  0.14375086820E+03  0.14508125690E+03  0.17770000000E+01 0. -1.
</event>
<event>
 7    1  0.2374062E-007  0.1898072E+03  0.7546771E-02  0.1062783E+00
        -11   -1    0    0    0    0  0.00000000000E+00  0.00000000000E+00  0.18250000000E+03  0.18250000000E+03  0.00000000000E+00 0. -1.
         11   -1    0    0    0    0 -0.00000000000E+00 -0.00000000000E+00 -0.18250000000E+03  0.18250000000E+03  0.00000000000E+00 0.  1.
         25    2    1    2    0    0 -0.45059841720E+02 -0.10220891303E+03 -0.64324046764E+02  0.17955153939E+03  0.12499648422E+03 0.  0.
        -11    1    1    2    0    0  0.38116695361E+02  0.13138045281E+03  0.71868345730E+02  0.15452755406E+03  0.00000000000E+00 0. -1.
         11    1    1    2    0    0  0.69431463593E+01 -0.29171539786E+02 -0.75442989663E+01  0.30920906548E+02  0.00000000000E+00 0.  1.
        -15    1    3    3    0    0 -0.59012966019E+02 -0.94259768573E+02  0.20473055183E+01  0.11124200339E+03  0.17770000000E+01 0.  1.
         15    1    3    3    0    0  0.13953124299E+02 -0.79491444544E+01 -0.66371352282E+02  0.68309535996E+02  0.17770000000E+01 0.  1.
</event>
<event>
 8    1  0.4164069E-007  0.1885391E+03  0.7546771E-02  0.1063747E+00
        -11   -1    0    0    0    0  0.00000000000E+00  0.00000000000E+00  0.18250000000E+03  0.18250000000E+03  0.00000000000E+00 0.  1.
         11   -1    0    0    0    0 -0.00000000000E+00 -0.00000000000E+00 -0.18250000000E+03  0.18250000000E+03  0.00000000000E+00 0. -1.
         25    2    1    2    0    0 -0.11794986980E+03  0.61716104293E+02 -0.46921078697E+02  0.18853912707E+03  0.12499746195E+03 0.  0.
         23    2    1    2    0    0  0.11794986980E+03 -0.61716104293E+02  0.46921078697E+02  0.17646087293E+03  0.10590468703E+03 0.  0.
        -11    1    4    4    0    0  0.78251616239E+02 -0.14808214566E+02  0.74545776250E+02  0.10908561509E+03  0.00000000000E+00 0.  1.
         11    1    4    4    0    0  0.39698253561E+02 -0.46907889728E+02 -0.27624697553E+02  0.67375257843E+02  0.00000000000E+00 0. -1.
        -15    1    3    3    0    0 -0.10560235374E+03  0.67325144428E+02 -0.82797629422E+02  0.15014372233E+03  0.17770000000E+01 0.  1.
         15    1    3    3    0    0 -0.12347516057E+02 -0.56090401349E+01  0.35876550725E+02  0.38395404737E+02  0.17770000000E+01 0.  1.
</event>
<event>
 8    1  0.2374062E-007  0.1890136E+03  0.7546771E-02  0.1063385E+00
        -11   -1    0    0    0    0  0.00000000000E+00  0.00000000000E+00  0.18250000000E+03  0.18250000000E+03  0.00000000000E+00 0. -1.
         11   -1    0    0    0    0 -0.00000000000E+00 -0.00000000000E+00 -0.18250000000E+03  0.18250000000E+03  0.00000000000E+00 0. -1.
         25    2    1    2    0    0 -0.43278922969E+02 -0.49810979160E+02  0.12548074836E+03  0.18901363668E+03  0.12500615115E+03 0.  0.
         23    2    1    2    0    0  0.43278922969E+02  0.49810979160E+02 -0.12548074836E+03  0.17598636332E+03  0.10426688375E+03 0.  0.
        -11    1    4    4    0    0  0.41844822526E+02 -0.16842758601E+02 -0.16110448051E+02  0.47897956386E+02  0.00000000000E+00 0. -1.
         11    1    4    4    0    0  0.14341004429E+01  0.66653737762E+02 -0.10937030031E+03  0.12808840693E+03  0.00000000000E+00 0. -1.
        -15    1    3    3    0    0 -0.64254739920E+02 -0.52216784569E+02  0.14046619489E+03  0.16306187117E+03  0.17770000000E+01 0. -1.
         15    1    3    3    0    0  0.20975816951E+02  0.24058054090E+01 -0.14985446534E+02  0.25951765513E+02  0.17770000000E+01 0. -1.
</event>
<event>
 8    1  0.2374062E-007  0.1885695E+03  0.7546771E-02  0.1063724E+00
        -11   -1    0    0    0    0  0.00000000000E+00  0.00000000000E+00  0.18250000000E+03  0.18250000000E+03  0.00000000000E+00 0.  1.
         11   -1    0    0    0    0 -0.00000000000E+00 -0.00000000000E+00 -0.18250000000E+03  0.18250000000E+03  0.00000000000E+00 0. -1.
         25    2    1    2    0    0 -0.42811087687E+02  0.50209081443E+02  0.12479942241E+03  0.18856954790E+03  0.12501934840E+03 0.  0.
         23    2    1    2    0    0  0.42811087687E+02 -0.50209081443E+02 -0.12479942241E+03  0.17643045210E+03  0.10582564672E+03 0.  0.
        -11    1    4    4    0    0 -0.15677556238E+02 -0.61830072190E+02 -0.51797695991E+02  0.82169002104E+02  0.00000000000E+00 0.  1.
         11    1    4    4    0    0  0.58488643925E+02  0.11620990747E+02 -0.73001726422E+02  0.94261449993E+02  0.00000000000E+00 0. -1.
        -15    1    3    3    0    0 -0.12829691263E+02 -0.39576073403E+02  0.16682170072E+02  0.44858879737E+02  0.17770000000E+01 0. -1.
         15    1    3    3    0    0 -0.29981396424E+02  0.89785154846E+02  0.10811725234E+03  0.14371066817E+03  0.17770000000E+01 0. -1.
</event>
<event>
 8    1  0.2374062E-007  0.1965292E+03  0.7546771E-02  0.1057805E+00
        -11   -1    0    0    0    0  0.00000000000E+00  0.00000000000E+00  0.18250000000E+03  0.18250000000E+03  0.00000000000E+00 0.  1.
         11   -1    0    0    0    0 -0.00000000000E+00 -0.00000000000E+00 -0.18250000000E+03  0.18250000000E+03  0.00000000000E+00 0. -1.
         25    2    1    2    0    0 -0.14448614623E+03  0.45361660235E+02 -0.80495154365E+01  0.19652918233E+03  0.12499999254E+03 0.  0.
         23    2    1    2    0    0  0.14448614623E+03 -0.45361660235E+02  0.80495154365E+01  0.16847081767E+03  0.73373667178E+02 0.  0.
        -11    1    4    4    0    0  0.83843270646E+02  0.11653804244E+02 -0.16916789531E+01  0.84666209102E+02  0.00000000000E+00 0.  1.
         11    1    4    4    0    0  0.60642875588E+02 -0.57015464479E+02  0.97411943897E+01  0.83804608570E+02  0.00000000000E+00 0. -1.
        -15    1    3    3    0    0 -0.12689108026E+03  0.29091618761E+02  0.45434027839E+02  0.13789516723E+03  0.17770000000E+01 0.  1.
         15    1    3    3    0    0 -0.17595065980E+02  0.16270041474E+02 -0.53483543275E+02  0.58634015099E+02  0.17770000000E+01 0.  1.
</event>
<event>
 8    1  0.2374062E-007  0.1883870E+03  0.7546771E-02  0.1063863E+00
        -11   -1    0    0    0    0  0.00000000000E+00  0.00000000000E+00  0.18250000000E+03  0.18250000000E+03  0.00000000000E+00 0. -1.
         11   -1    0    0    0    0 -0.00000000000E+00 -0.00000000000E+00 -0.18250000000E+03  0.18250000000E+03  0.00000000000E+00 0.  1.
         25    2    1    2    0    0  0.54953535856E+02  0.12433982859E+03 -0.37151232959E+02  0.18838702040E+03  0.12501668395E+03 0.  0.
         23    2    1    2    0    0 -0.54953535856E+02 -0.12433982859E+03  0.37151232959E+02  0.17661297960E+03  0.10645020609E+03 0.  0.
        -11    1    4    4    0    0  0.14314552489E+02 -0.75964222027E+02 -0.12962312633E+02  0.78380424787E+02  0.00000000000E+00 0.  1.
         11    1    4    4    0    0 -0.69268088345E+02 -0.48375606568E+02  0.50113545592E+02  0.98232554816E+02  0.00000000000E+00 0. -1.
        -15    1    3    3    0    0  0.83265401086E+02  0.98620445989E+02 -0.61526577589E+02  0.14299579317E+03  0.17770000000E+01 0. -1.
         15    1    3    3    0    0 -0.28311865230E+02  0.25719382606E+02  0.24375344631E+02  0.45391227229E+02  0.17770000000E+01 0. -1.
</event>
<event>
 8    1  0.2374062E-007  0.1892180E+03  0.7546771E-02  0.1063230E+00
        -11   -1    0    0    0    0  0.00000000000E+00  0.00000000000E+00  0.18250000000E+03  0.18250000000E+03  0.00000000000E+00 0.  1.
         11   -1    0    0    0    0 -0.00000000000E+00 -0.00000000000E+00 -0.18250000000E+03  0.18250000000E+03  0.00000000000E+00 0. -1.
         25    2    1    2    0    0  0.11308697574E+03 -0.85343047792E+02 -0.10263165700E+02  0.18921801558E+03  0.12500409977E+03 0.  0.
         23    2    1    2    0    0 -0.11308697574E+03  0.85343047792E+02  0.10263165700E+02  0.17578198442E+03  0.10354648033E+03 0.  0.
        -11    1    4    4    0    0 -0.29432882868E+02  0.53707834114E+02 -0.40038901910E+02  0.73170620506E+02  0.00000000000E+00 0.  1.
         11    1    4    4    0    0 -0.83654092873E+02  0.31635213678E+02  0.50302067610E+02  0.10261136392E+03  0.00000000000E+00 0. -1.
        -15    1    3    3    0    0  0.43007515515E+02 -0.10371406420E+03 -0.25532179268E+02  0.11515773274E+03  0.17770000000E+01 0.  1.
         15    1    3    3    0    0  0.70079460226E+02  0.18371016405E+02  0.15269013568E+02  0.74060282835E+02  0.17770000000E+01 0.  1.
</event>
<event>
 8    1  0.2374062E-007  0.1856076E+03  0.7546771E-02  0.1066008E+00
        -11   -1    0    0    0    0  0.00000000000E+00  0.00000000000E+00  0.18250000000E+03  0.18250000000E+03  0.00000000000E+00 0. -1.
         11   -1    0    0    0    0 -0.00000000000E+00 -0.00000000000E+00 -0.18250000000E+03  0.18250000000E+03  0.00000000000E+00 0.  1.
         25    2    1    2    0    0 -0.60366786695E+02 -0.31267796496E+02 -0.11917948896E+03  0.18560764559E+03  0.12499849391E+03 0.  0.
         23    2    1    2    0    0  0.60366786695E+02  0.31267796496E+02  0.11917948896E+03  0.17939235441E+03  0.11556834428E+03 0.  0.
        -11    1    4    4    0    0  0.49134006281E+02  0.72971136250E+02  0.96608876775E+02  0.13066067645E+03  0.00000000000E+00 0. -1.
         11    1    4    4    0    0  0.11232780415E+02 -0.41703339753E+02  0.22570612183E+02  0.48731677960E+02  0.00000000000E+00 0.  1.
        -15    1    3    3    0    0  0.22768339213E+02  0.30879747987E+02 -0.34812787205E+02  0.51836705028E+02  0.17770000000E+01 0. -1.
         15    1    3    3    0    0 -0.83135125909E+02 -0.62147544483E+02 -0.84366701753E+02  0.13377094056E+03  0.17770000000E+01 0. -1.
</event>
<event>
 7    1  0.2374062E-007  0.1994022E+03  0.7546771E-02  0.1055744E+00
        -11   -1    0    0    0    0  0.00000000000E+00  0.00000000000E+00  0.18250000000E+03  0.18250000000E+03  0.00000000000E+00 0.  1.
         11   -1    0    0    0    0 -0.00000000000E+00 -0.00000000000E+00 -0.18250000000E+03  0.18250000000E+03  0.00000000000E+00 0.  1.
         25    2    1    2    0    0 -0.98609889576E+02  0.57101388892E+02  0.10713600726E+03  0.20021746254E+03  0.12499771726E+03 0.  0.
        -11    1    1    2    0    0 -0.55254034914E+00  0.70293359535E+01 -0.72230433958E+01  0.10094019055E+02  0.00000000000E+00 0.  1.
         11    1    1    2    0    0  0.99162429926E+02 -0.64130724846E+02 -0.99912963860E+02  0.15468851840E+03  0.00000000000E+00 0.  1.
        -15    1    3    3    0    0 -0.10603346477E+03  0.87387420616E+02  0.81148238230E+02  0.15958650078E+03  0.17770000000E+01 0.  1.
         15    1    3    3    0    0  0.74235751925E+01 -0.30286031724E+02  0.25987769026E+02  0.40630961768E+02  0.17770000000E+01 0.  1.
</event>
<event>
 8    1  0.2374062E-007  0.1853026E+03  0.7546771E-02  0.1066246E+00
        -11   -1    0    0    0    0  0.00000000000E+00  0.00000000000E+00  0.18250000000E+03  0.18250000000E+03  0.00000000000E+00 0.  1.
         11   -1    0    0    0    0 -0.00000000000E+00 -0.00000000000E+00 -0.18250000000E+03  0.18250000000E+03  0.00000000000E+00 0. -1.
         25    2    1    2    0    0 -0.60721953847E+01  0.35029335819E+02 -0.13209424991E+03  0.18530262221E+03  0.12499698002E+03 0.  0.
         23    2    1    2    0    0  0.60721953847E+01 -0.35029335819E+02  0.13209424991E+03  0.17969737779E+03  0.11652609494E+03 0.  0.
        -11    1    4    4    0    0 -0.54073675833E+02 -0.13863238600E+02  0.78954372938E+02  0.96695112641E+02  0.00000000000E+00 0.  1.
         11    1    4    4    0    0  0.60145871218E+02 -0.21166097220E+02  0.53139876970E+02  0.83002265153E+02  0.00000000000E+00 0. -1.
        -15    1    3    3    0    0  0.37925088356E+01  0.61124569787E+02 -0.12558467156E+02  0.62541737914E+02  0.17770000000E+01 0. -1.
         15    1    3    3    0    0 -0.98647042203E+01 -0.26095233968E+02 -0.11953578275E+03  0.12276088429E+03  0.17770000000E+01 0. -1.
</event>
<event>
 8    1  0.2374062E-007  0.1891921E+03  0.7546771E-02  0.1063249E+00
        -11   -1    0    0    0    0  0.00000000000E+00  0.00000000000E+00  0.18250000000E+03  0.18250000000E+03  0.00000000000E+00 0. -1.
         11   -1    0    0    0    0 -0.00000000000E+00 -0.00000000000E+00 -0.18250000000E+03  0.18250000000E+03  0.00000000000E+00 0.  1.
         25    2    1    2    0    0  0.98025574148E+01  0.13761426964E+03  0.33690448910E+02  0.18919209437E+03  0.12499929953E+03 0.  0.
         23    2    1    2    0    0 -0.98025574148E+01 -0.13761426964E+03 -0.33690448910E+02  0.17580790563E+03  0.10363202205E+03 0.  0.
        -11    1    4    4    0    0 -0.49907909274E+02 -0.31493593987E+02 -0.14220250467E+02  0.60703059179E+02  0.00000000000E+00 0. -1.
         11    1    4    4    0    0  0.40105351859E+02 -0.10612067566E+03 -0.19470198443E+02  0.11510484645E+03  0.00000000000E+00 0.  1.
        -15    1    3    3    0    0  0.85670248453E+01  0.39657704930E+02  0.73067481598E+02  0.83595107938E+02  0.17770000000E+01 0. -1.
         15    1    3    3    0    0  0.12355325695E+01  0.97956564713E+02 -0.39377032688E+02  0.10559698643E+03  0.17770000000E+01 0. -1.
</event>
<event>
 8    1  0.2374062E-007  0.1887007E+03  0.7546771E-02  0.1063623E+00
        -11   -1    0    0    0    0  0.00000000000E+00  0.00000000000E+00  0.18250000000E+03  0.18250000000E+03  0.00000000000E+00 0.  1.
         11   -1    0    0    0    0 -0.00000000000E+00 -0.00000000000E+00 -0.18250000000E+03  0.18250000000E+03  0.00000000000E+00 0. -1.
         25    2    1    2    0    0  0.75008973246E+02 -0.92539117528E+01  0.11946245749E+03  0.18870066892E+03  0.12499873099E+03 0.  0.
         23    2    1    2    0    0 -0.75008973246E+02  0.92539117528E+01 -0.11946245749E+03  0.17629933108E+03  0.10534796837E+03 0.  0.
        -11    1    4    4    0    0 -0.88803897081E+01  0.48472832224E+02 -0.27505388338E+02  0.56436009540E+02  0.00000000000E+00 0.  1.
         11    1    4    4    0    0 -0.66128583538E+02 -0.39218920471E+02 -0.91957069156E+02  0.11986332154E+03  0.00000000000E+00 0. -1.
        -15    1    3    3    0    0  0.69026367326E+02  0.11021821527E+02  0.14167144433E+03  0.15798758117E+03  0.17770000000E+01 0. -1.
         15    1    3    3    0    0  0.59826059200E+01 -0.20275733280E+02 -0.22208986837E+02  0.30713087747E+02  0.17770000000E+01 0. -1.
</event>
<event>
 8    1  0.2374062E-007  0.1879945E+03  0.7546771E-02  0.1064163E+00
        -11   -1    0    0    0    0  0.00000000000E+00  0.00000000000E+00  0.18250000000E+03  0.18250000000E+03  0.00000000000E+00 0. -1.
         11   -1    0    0    0    0 -0.00000000000E+00 -0.00000000000E+00 -0.18250000000E+03  0.18250000000E+03  0.00000000000E+00 0. -1.
         25    2    1    2    0    0  0.13413350149E+03  0.38418135251E+02 -0.15812063063E+02  0.18799445589E+03  0.12499657903E+03 0.  0.
         23    2    1    2    0    0 -0.13413350149E+03 -0.38418135251E+02  0.15812063063E+02  0.17700554411E+03  0.10776452092E+03 0.  0.
        -11    1    4    4    0    0  0.61944031038E+01  0.11115318725E+02  0.24849203768E+02  0.27917805574E+02  0.00000000000E+00 0. -1.
         11    1    4    4    0    0 -0.14032790459E+03 -0.49533453976E+02 -0.90371407051E+01  0.14908773854E+03  0.00000000000E+00 0. -1.
        -15    1    3    3    0    0  0.42741288990E+02 -0.44822038408E+01 -0.63203040187E+02  0.76450571964E+02  0.17770000000E+01 0.  1.
         15    1    3    3    0    0  0.91392212497E+02  0.42900339092E+02  0.47390977124E+02  0.11154388393E+03  0.17770000000E+01 0.  1.
</event>
<event>
 8    1  0.2374062E-007  0.1862947E+03  0.7546771E-02  0.1065474E+00
        -11   -1    0    0    0    0  0.00000000000E+00  0.00000000000E+00  0.18250000000E+03  0.18250000000E+03  0.00000000000E+00 0.  1.
         11   -1    0    0    0    0 -0.00000000000E+00 -0.00000000000E+00 -0.18250000000E+03  0.18250000000E+03  0.00000000000E+00 0. -1.
         25    2    1    2    0    0 -0.79276060534E+02 -0.62416517455E+02 -0.94339670514E+02  0.18629471342E+03  0.12500092555E+03 0.  0.
         23    2    1    2    0    0  0.79276060534E+02  0.62416517455E+02  0.94339670514E+02  0.17870528658E+03  0.11338029192E+03 0.  0.
        -11    1    4    4    0    0  0.83361581795E+02 -0.56793924968E+01  0.52353106847E+02  0.98601504121E+02  0.00000000000E+00 0.  1.
         11    1    4    4    0    0 -0.40855212609E+01  0.68095909952E+02  0.41986563668E+02  0.80103782462E+02  0.00000000000E+00 0. -1.
        -15    1    3    3    0    0 -0.61005317028E+02  0.74184022914E+01 -0.96079740261E+02  0.11406645263E+03  0.17770000000E+01 0. -1.
         15    1    3    3    0    0 -0.18270743506E+02 -0.69834919747E+02  0.17400697468E+01  0.72228260785E+02  0.17770000000E+01 0. -1.
</event>
<event>
 7    1  0.2374062E-007  0.1725228E+03  0.7546771E-02  0.1076686E+00
        -11   -1    0    0    0    0  0.00000000000E+00  0.00000000000E+00  0.18250000000E+03  0.18250000000E+03  0.00000000000E+00 0.  1.
         11   -1    0    0    0    0 -0.00000000000E+00 -0.00000000000E+00 -0.18250000000E+03  0.18250000000E+03  0.00000000000E+00 0. -1.
         25    2    1    2    0    0  0.55079216155E+02  0.98646228344E+01 -0.72709279240E+02  0.15505554017E+03  0.12499820165E+03 0.  0.
        -11    1    1    2    0    0 -0.44101592046E+02  0.20659107265E+01  0.13684531538E+03  0.14379102458E+03  0.00000000000E+00 0.  1.
         11    1    1    2    0    0 -0.10977624109E+02 -0.11930533561E+02 -0.64136036144E+02  0.66153435243E+02  0.00000000000E+00 0. -1.
        -15    1    3    3    0    0  0.57282682019E+02  0.44299375566E+02  0.22992724968E+01  0.72471958148E+02  0.17770000000E+01 0.  1.
         15    1    3    3    0    0 -0.22034658637E+01 -0.34434752732E+02 -0.75008551737E+02  0.82583582025E+02  0.17770000000E+01 0.  1.
</event>
<event>
 8    1  0.2374062E-007  0.1887885E+03  0.7546771E-02  0.1063557E+00
        -11   -1    0    0    0    0  0.00000000000E+00  0.00000000000E+00  0.18250000000E+03  0.18250000000E+03  0.00000000000E+00 0.  1.
         11   -1    0    0    0    0 -0.00000000000E+00 -0.00000000000E+00 -0.18250000000E+03  0.18250000000E+03  0.00000000000E+00 0. -1.
         25    2    1    2    0    0  0.67535617447E+02  0.11593281882E+03  0.44878125481E+02  0.18878850891E+03  0.12500230735E+03 0.  0.
         23    2    1    2    0    0 -0.67535617447E+02 -0.11593281882E+03 -0.44878125481E+02  0.17621149109E+03  0.10504744329E+03 0.  0.
        -11    1    4    4    0    0 -0.22346395432E+02 -0.85270637208E+02  0.21024797796E+02  0.90622762488E+02  0.00000000000E+00 0.  1.
         11    1    4    4    0    0 -0.45189222015E+02 -0.30662181615E+02 -0.65902923278E+02  0.85588728606E+02  0.00000000000E+00 0. -1.
        -15    1    3    3    0    0 -0.24023144768E+02 -0.68310058431E+01 -0.87352787216E+01  0.26518615136E+02  0.17770000000E+01 0.  1.
         15    1    3    3    0    0  0.91558762215E+02  0.12276382467E+03  0.53613404203E+02  0.16226989377E+03  0.17770000000E+01 0.  1.
</event>
<event>
 8    1  0.2374062E-007  0.1870033E+03  0.7546771E-02  0.1064926E+00
        -11   -1    0    0    0    0  0.00000000000E+00  0.00000000000E+00  0.18250000000E+03  0.18250000000E+03  0.00000000000E+00 0.  1.
         11   -1    0    0    0    0 -0.00000000000E+00 -0.00000000000E+00 -0.18250000000E+03  0.18250000000E+03  0.00000000000E+00 0. -1.
         25    2    1    2    0    0 -0.13600854883E+03  0.17913604679E+02  0.22969745815E+02  0.18700328060E+03  0.12499358042E+03 0.  0.
         23    2    1    2    0    0  0.13600854883E+03 -0.17913604679E+02 -0.22969745815E+02  0.17799671940E+03  0.11106754839E+03 0.  0.
        -11    1    4    4    0    0  0.55175289504E+02 -0.12752260900E+02 -0.65439060391E+02  0.86540183468E+02  0.00000000000E+00 0. -1.
         11    1    4    4    0    0  0.80833259330E+02 -0.51613437789E+01  0.42469314576E+02  0.91456535928E+02  0.00000000000E+00 0.  1.
        -15    1    3    3    0    0 -0.65550699096E+02  0.70521731178E+02  0.23200484843E+02  0.99053667000E+02  0.17770000000E+01 0. -1.
         15    1    3    3    0    0 -0.70457849738E+02 -0.52608126499E+02 -0.23073902741E+00  0.87949613603E+02  0.17770000000E+01 0. -1.
</event>
<event>
 8    1  0.2374062E-007  0.1868295E+03  0.7546771E-02  0.1065060E+00
        -11   -1    0    0    0    0  0.00000000000E+00  0.00000000000E+00  0.18250000000E+03  0.18250000000E+03  0.00000000000E+00 0. -1.
         11   -1    0    0    0    0 -0.00000000000E+00 -0.00000000000E+00 -0.18250000000E+03  0.18250000000E+03  0.00000000000E+00 0. -1.
         25    2    1    2    0    0 -0.11787157737E+03 -0.18469612757E+02 -0.71028635286E+02  0.18682947756E+03  0.12500140522E+03 0.  0.
         23    2    1    2    0    0  0.11787157737E+03  0.18469612757E+02  0.71028635286E+02  0.17817052244E+03  0.11164601510E+03 0.  0.
        -11    1    4    4    0    0  0.12436841149E+03  0.13729097087E+02  0.92264365995E+02  0.15546286732E+03  0.00000000000E+00 0. -1.
         11    1    4    4    0    0 -0.64968341147E+01  0.47405156705E+01 -0.21235730709E+02  0.22707655121E+02  0.00000000000E+00 0. -1.
        -15    1    3    3    0    0  0.21369808745E+02 -0.18087272680E+02  0.45007122551E+01  0.28411833778E+02  0.17770000000E+01 0.  1.
         15    1    3    3    0    0 -0.13924138612E+03 -0.38234007666E+00 -0.75529347541E+02  0.15841764378E+03  0.17770000000E+01 0.  1.
</event>
<event>
 8    1  0.2374062E-007  0.1964598E+03  0.7546771E-02  0.1057856E+00
        -11   -1    0    0    0    0  0.00000000000E+00  0.00000000000E+00  0.18250000000E+03  0.18250000000E+03  0.00000000000E+00 0.  1.
         11   -1    0    0    0    0 -0.00000000000E+00 -0.00000000000E+00 -0.18250000000E+03  0.18250000000E+03  0.00000000000E+00 0. -1.
         25    2    1    2    0    0 -0.13181345861E+03  0.42110920803E+02  0.61799087442E+02  0.19645979828E+03  0.12501682931E+03 0.  0.
         23    2    1    2    0    0  0.13181345861E+03 -0.42110920803E+02 -0.61799087442E+02  0.16854020172E+03  0.73746558320E+02 0.  0.
        -11    1    4    4    0    0 -0.39317102940E+01 -0.18558457932E+02 -0.89893564227E+01  0.20992456635E+02  0.00000000000E+00 0.  1.
         11    1    4    4    0    0  0.13574516891E+03 -0.23552462871E+02 -0.52809731020E+02  0.14754774508E+03  0.00000000000E+00 0. -1.
        -15    1    3    3    0    0 -0.11667557428E+03  0.80605433791E+02  0.62661742022E+02  0.15504862860E+03  0.17770000000E+01 0. -1.
         15    1    3    3    0    0 -0.15137884336E+02 -0.38494512988E+02 -0.86265457921E+00  0.41411169680E+02  0.17770000000E+01 0. -1.
</event>
<event>
 8    1  0.2374062E-007  0.1861092E+03  0.7546771E-02  0.1065618E+00
        -11   -1    0    0    0    0  0.00000000000E+00  0.00000000000E+00  0.18250000000E+03  0.18250000000E+03  0.00000000000E+00 0. -1.
         11   -1    0    0    0    0 -0.00000000000E+00 -0.00000000000E+00 -0.18250000000E+03  0.18250000000E+03  0.00000000000E+00 0.  1.
         25    2    1    2    0    0 -0.10225846367E+03  0.77873415824E+02  0.49908646148E+02  0.18610916839E+03  0.12499874925E+03 0.  0.
         23    2    1    2    0    0  0.10225846367E+03 -0.77873415824E+02 -0.49908646148E+02  0.17889083161E+03  0.11397365656E+03 0.  0.
        -11    1    4    4    0    0 -0.60121055068E+01 -0.47294812122E+02 -0.46102940744E+02  0.66320628853E+02  0.00000000000E+00 0.  1.
         11    1    4    4    0    0  0.10827056918E+03 -0.30578603702E+02 -0.38057054041E+01  0.11257020276E+03  0.00000000000E+00 0. -1.
        -15    1    3    3    0    0 -0.64575044886E+02  0.61758326982E+01  0.76985170335E+02  0.10068739500E+03  0.17770000000E+01 0. -1.
         15    1    3    3    0    0 -0.37683418788E+02  0.71697583126E+02 -0.27076524188E+02  0.85421773388E+02  0.17770000000E+01 0. -1.
</event>
<event>
 8    1  0.2374062E-007  0.1891812E+03  0.7546771E-02  0.1063258E+00
        -11   -1    0    0    0    0  0.00000000000E+00  0.00000000000E+00  0.18250000000E+03  0.18250000000E+03  0.00000000000E+00 0.  1.
         11   -1    0    0    0    0 -0.00000000000E+00 -0.00000000000E+00 -0.18250000000E+03  0.18250000000E+03  0.00000000000E+00 0. -1.
         25    2    1    2    0    0  0.85030440477E+02 -0.97417974417E+02 -0.58706799828E+02  0.18918120566E+03  0.12499041035E+03 0.  0.
         23    2    1    2    0    0 -0.85030440477E+02  0.97417974417E+02  0.58706799828E+02  0.17581879434E+03  0.10365964765E+03 0.  0.
        -11    1    4    4    0    0  0.18010122957E+02  0.28407650528E+02  0.36849147630E+02  0.49892071700E+02  0.00000000000E+00 0. -1.
         11    1    4    4    0    0 -0.10304056343E+03  0.69010323889E+02  0.21857652198E+02  0.12592672264E+03  0.00000000000E+00 0.  1.
        -15    1    3    3    0    0 -0.15090011222E+02 -0.75894822995E+02 -0.23956178500E+02  0.81023384362E+02  0.17770000000E+01 0. -1.
         15    1    3    3    0    0  0.10012045170E+03 -0.21523151422E+02 -0.34750621327E+02  0.10815782129E+03  0.17770000000E+01 0. -1.
</event>
<event>
 8    1  0.2374062E-007  0.1834566E+03  0.7546771E-02  0.1067696E+00
        -11   -1    0    0    0    0  0.00000000000E+00  0.00000000000E+00  0.18250000000E+03  0.18250000000E+03  0.00000000000E+00 0.  1.
         11   -1    0    0    0    0 -0.00000000000E+00 -0.00000000000E+00 -0.18250000000E+03  0.18250000000E+03  0.00000000000E+00 0.  1.
         25    2    1    2    0    0  0.69753754580E+02  0.61583105154E+02  0.93141809650E+02  0.18154339956E+03  0.12499817639E+03 0.  0.
         23    2    1    2    0    0 -0.69753754580E+02 -0.61583105154E+02 -0.93141809650E+02  0.18345660044E+03  0.12776095813E+03 0.  0.
        -11    1    4    4    0    0 -0.74663369449E+02  0.12392474918E+01 -0.46455401000E+01  0.74818015976E+02  0.00000000000E+00 0.  1.
         11    1    4    4    0    0  0.49096148686E+01 -0.62822352646E+02 -0.88496269550E+02  0.10863858446E+03  0.00000000000E+00 0.  1.
        -15    1    3    3    0    0  0.85486520149E+02  0.74465439524E+02  0.33086332467E+02  0.11811397011E+03  0.17770000000E+01 0.  1.
         15    1    3    3    0    0 -0.15732765568E+02 -0.12882334370E+02  0.60055477183E+02  0.63429429447E+02  0.17770000000E+01 0.  1.
</event>
<event>
 8    1  0.2374062E-007  0.1969955E+03  0.7546771E-02  0.1057468E+00
        -11   -1    0    0    0    0  0.00000000000E+00  0.00000000000E+00  0.18250000000E+03  0.18250000000E+03  0.00000000000E+00 0. -1.
         11   -1    0    0    0    0 -0.00000000000E+00 -0.00000000000E+00 -0.18250000000E+03  0.18250000000E+03  0.00000000000E+00 0.  1.
         25    2    1    2    0    0  0.12389368042E+03 -0.61175036365E+02 -0.63951751327E+02  0.19699554787E+03  0.12500156103E+03 0.  0.
         23    2    1    2    0    0 -0.12389368042E+03  0.61175036365E+02  0.63951751327E+02  0.16800445213E+03  0.71018591329E+02 0.  0.
        -11    1    4    4    0    0 -0.67017922390E+02  0.20294848124E+02 -0.43679674639E+01  0.70159546190E+02  0.00000000000E+00 0.  1.
         11    1    4    4    0    0 -0.56875758032E+02  0.40880188241E+02  0.68319718791E+02  0.97844905938E+02  0.00000000000E+00 0. -1.
        -15    1    3    3    0    0  0.60185736813E+02 -0.17841939900E+02  0.34746888591E+02  0.71771594178E+02  0.17770000000E+01 0. -1.
         15    1    3    3    0    0  0.63707943609E+02 -0.43333096465E+02 -0.98698639918E+02  0.12522395369E+03  0.17770000000E+01 0. -1.
</event>
<event>
 8    1  0.2374062E-007  0.1892485E+03  0.7546771E-02  0.1063206E+00
        -11   -1    0    0    0    0  0.00000000000E+00  0.00000000000E+00  0.18250000000E+03  0.18250000000E+03  0.00000000000E+00 0.  1.
         11   -1    0    0    0    0 -0.00000000000E+00 -0.00000000000E+00 -0.18250000000E+03  0.18250000000E+03  0.00000000000E+00 0. -1.
         25    2    1    2    0    0  0.25913620233E+02 -0.13382917294E+03 -0.40087822188E+02  0.18924846743E+03  0.12500474269E+03 0.  0.
         23    2    1    2    0    0 -0.25913620233E+02  0.13382917294E+03  0.40087822188E+02  0.17575153257E+03  0.10343985919E+03 0.  0.
        -11    1    4    4    0    0  0.35063720264E+02  0.38718013230E+02 -0.82185928445E+01  0.52878107905E+02  0.00000000000E+00 0. -1.
         11    1    4    4    0    0 -0.60977340498E+02  0.95111159709E+02  0.48306415032E+02  0.12287342466E+03  0.00000000000E+00 0.  1.
        -15    1    3    3    0    0  0.12683523760E+02  0.61059199549E+01 -0.46415609806E+02  0.48535766153E+02  0.17770000000E+01 0.  1.
         15    1    3    3    0    0  0.13230096474E+02 -0.13993509289E+03  0.63277876180E+01  0.14071270128E+03  0.17770000000E+01 0.  1.
</event>
<event>
 8    1  0.2374062E-007  0.1987958E+03  0.7546771E-02  0.1056176E+00
        -11   -1    0    0    0    0  0.00000000000E+00  0.00000000000E+00  0.18250000000E+03  0.18250000000E+03  0.00000000000E+00 0. -1.
         11   -1    0    0    0    0 -0.00000000000E+00 -0.00000000000E+00 -0.18250000000E+03  0.18250000000E+03  0.00000000000E+00 0.  1.
         25    2    1    2    0    0 -0.75993873790E+02  0.13427686834E+03  0.95103178440E+01  0.19879583455E+03  0.12499596579E+03 0.  0.
         23    2    1    2    0    0  0.75993873790E+02 -0.13427686834E+03 -0.95103178440E+01  0.16620416545E+03  0.61057614137E+02 0.  0.
        -11    1    4    4    0    0  0.83329409263E+02 -0.13358910518E+03 -0.13131713107E+02  0.15799456117E+03  0.00000000000E+00 0.  1.
         11    1    4    4    0    0 -0.73355354730E+01 -0.68776316137E+00  0.36213952628E+01  0.82096042834E+01  0.00000000000E+00 0. -1.
        -15    1    3    3    0    0  0.19040573003E+02  0.44195189496E+02  0.41969103235E+02  0.63877394673E+02  0.17770000000E+01 0.  1.
         15    1    3    3    0    0 -0.95034446794E+02  0.90081678841E+02 -0.32458785392E+02  0.13491843987E+03  0.17770000000E+01 0.  1.
</event>
<event>
 7    1  0.2374062E-007  0.1697528E+03  0.7546771E-02  0.1079080E+00
        -11   -1    0    0    0    0  0.00000000000E+00  0.00000000000E+00  0.18250000000E+03  0.18250000000E+03  0.00000000000E+00 0.  1.
         11   -1    0    0    0    0 -0.00000000000E+00 -0.00000000000E+00 -0.18250000000E+03  0.18250000000E+03  0.00000000000E+00 0. -1.
         25    2    1    2    0    0  0.41021504150E+00 -0.10222598386E+03 -0.82466758382E+02  0.18131986068E+03  0.12500322230E+03 0.  0.
        -11    1    1    2    0    0 -0.54772977481E+02  0.11799991932E+02  0.44488393197E+02  0.71543944545E+02  0.00000000000E+00 0.  1.
         11    1    1    2    0    0  0.54362762440E+02  0.90425991929E+02  0.37978365185E+02  0.11213619478E+03  0.00000000000E+00 0. -1.
        -15    1    3    3    0    0 -0.55716646138E+02 -0.62016564291E+02 -0.74454629670E+02  0.11179019864E+03  0.17770000000E+01 0. -1.
         15    1    3    3    0    0  0.56126861180E+02 -0.40209419570E+02 -0.80121287117E+01  0.69529662041E+02  0.17770000000E+01 0. -1.
</event>
<event>
 8    1  0.2374062E-007  0.1880400E+03  0.7546771E-02  0.1064129E+00
        -11   -1    0    0    0    0  0.00000000000E+00  0.00000000000E+00  0.18250000000E+03  0.18250000000E+03  0.00000000000E+00 0.  1.
         11   -1    0    0    0    0 -0.00000000000E+00 -0.00000000000E+00 -0.18250000000E+03  0.18250000000E+03  0.00000000000E+00 0. -1.
         25    2    1    2    0    0 -0.52353052166E+02  0.12838037324E+03 -0.22601174553E+02  0.18804000055E+03  0.12500346559E+03 0.  0.
         23    2    1    2    0    0  0.52353052166E+02 -0.12838037324E+03  0.22601174553E+02  0.17695999945E+03  0.10761814907E+03 0.  0.
        -11    1    4    4    0    0  0.82012508823E+02 -0.88825657421E+02 -0.37128815552E+01  0.12095385281E+03  0.00000000000E+00 0. -1.
         11    1    4    4    0    0 -0.29659456657E+02 -0.39554715823E+02  0.26314056108E+02  0.56006146644E+02  0.00000000000E+00 0.  1.
        -15    1    3    3    0    0 -0.92083582209E+02  0.10365917475E+03 -0.26033624695E+02  0.14108691635E+03  0.17770000000E+01 0. -1.
         15    1    3    3    0    0  0.39730530043E+02  0.24721198493E+02  0.34324501422E+01  0.46953084195E+02  0.17770000000E+01 0. -1.
</event>
<event>
 7    1  0.2374062E-007  0.1753498E+03  0.7546771E-02  0.1074293E+00
        -11   -1    0    0    0    0  0.00000000000E+00  0.00000000000E+00  0.18250000000E+03  0.18250000000E+03  0.00000000000E+00 0.  1.
         11   -1    0    0    0    0 -0.00000000000E+00 -0.00000000000E+00 -0.18250000000E+03  0.18250000000E+03  0.00000000000E+00 0. -1.
         25    2    1    2    0    0  0.44249552522E+02  0.12131322727E+03 -0.13736827769E+02  0.18024492895E+03  0.12499844785E+03 0.  0.
        -11    1    1    2    0    0  0.11224648734E+02 -0.12321116639E+03 -0.10544289934E+02  0.12416990905E+03  0.00000000000E+00 0. -1.
         11    1    1    2    0    0 -0.55474201256E+02  0.18979391193E+01  0.24281117703E+02  0.60585162002E+02  0.00000000000E+00 0.  1.
        -15    1    3    3    0    0  0.76393889618E+02  0.34991292607E+02  0.11230289577E+02  0.84792063675E+02  0.17770000000E+01 0. -1.
         15    1    3    3    0    0 -0.32144337097E+02  0.86321934665E+02 -0.24967117346E+02  0.95452865275E+02  0.17770000000E+01 0. -1.
</event>
<event>
 8    1  0.2374062E-007  0.1860439E+03  0.7546771E-02  0.1065668E+00
        -11   -1    0    0    0    0  0.00000000000E+00  0.00000000000E+00  0.18250000000E+03  0.18250000000E+03  0.00000000000E+00 0.  1.
         11   -1    0    0    0    0 -0.00000000000E+00 -0.00000000000E+00 -0.18250000000E+03  0.18250000000E+03  0.00000000000E+00 0. -1.
         25    2    1    2    0    0 -0.73305255460E+02  0.11323515371E+03  0.28132906794E+02  0.18604392542E+03  0.12500008491E+03 0.  0.
         23    2    1    2    0    0  0.73305255460E+02 -0.11323515371E+03 -0.28132906794E+02  0.17895607458E+03  0.11418386781E+03 0.  0.
        -11    1    4    4    0    0 -0.71107298445E+01 -0.89206432993E+02  0.27331514713E+01  0.89531113492E+02  0.00000000000E+00 0.  1.
         11    1    4    4    0    0  0.80415985304E+02 -0.24028720721E+02 -0.30866058266E+02  0.89424961083E+02  0.00000000000E+00 0. -1.
        -15    1    3    3    0    0 -0.10429227368E+03  0.10398398522E+03  0.71588186537E+01  0.14745831257E+03  0.17770000000E+01 0. -1.
         15    1    3    3    0    0  0.30987018225E+02  0.92511684935E+01  0.20974088141E+02  0.38585612854E+02  0.17770000000E+01 0. -1.
</event>
<event>
 8    1  0.2374062E-007  0.1838378E+03  0.7546771E-02  0.1067395E+00
        -11   -1    0    0    0    0  0.00000000000E+00  0.00000000000E+00  0.18250000000E+03  0.18250000000E+03  0.00000000000E+00 0. -1.
         11   -1    0    0    0    0 -0.00000000000E+00 -0.00000000000E+00 -0.18250000000E+03  0.18250000000E+03  0.00000000000E+00 0.  1.
         25    2    1    2    0    0  0.66379790442E+02 -0.10984568129E+03  0.41213228052E+02  0.18383777277E+03  0.12500178500E+03 0.  0.
         23    2    1    2    0    0 -0.66379790442E+02  0.10984568129E+03 -0.41213228052E+02  0.18116222723E+03  0.12103252509E+03 0.  0.
        -11    1    4    4    0    0 -0.82718428319E+02  0.33131337621E+02 -0.50100054634E+02  0.10222543417E+03  0.00000000000E+00 0. -1.
         11    1    4    4    0    0  0.16338637877E+02  0.76714343670E+02  0.88868265820E+01  0.78936793063E+02  0.00000000000E+00 0.  1.
        -15    1    3    3    0    0  0.27864027897E+02 -0.49402588375E+02 -0.44485311601E+02  0.72104926780E+02  0.17770000000E+01 0. -1.
         15    1    3    3    0    0  0.38515762545E+02 -0.60443092916E+02  0.85698539652E+02  0.11173284599E+03  0.17770000000E+01 0. -1.
</event>
<event>
 8    1  0.2374062E-007  0.1964238E+03  0.7546771E-02  0.1057882E+00
        -11   -1    0    0    0    0  0.00000000000E+00  0.00000000000E+00  0.18250000000E+03  0.18250000000E+03  0.00000000000E+00 0. -1.
         11   -1    0    0    0    0 -0.00000000000E+00 -0.00000000000E+00 -0.18250000000E+03  0.18250000000E+03  0.00000000000E+00 0.  1.
         25    2    1    2    0    0 -0.10582966529E+03 -0.69062141650E+01  0.10821500321E+03  0.19642378766E+03  0.12499681431E+03 0.  0.
         23    2    1    2    0    0  0.10582966529E+03  0.69062141650E+01 -0.10821500321E+03  0.16857621234E+03  0.73890720649E+02 0.  0.
        -11    1    4    4    0    0  0.28595687874E+02  0.36362879427E+02 -0.44744616300E+02  0.64358783806E+02  0.00000000000E+00 0. -1.
         11    1    4    4    0    0  0.77233977418E+02 -0.29456665262E+02 -0.63470386913E+02  0.10421742854E+03  0.00000000000E+00 0.  1.
        -15    1    3    3    0    0 -0.72639610594E+01  0.46513943555E+02  0.54673248500E+02  0.72170866046E+02  0.17770000000E+01 0.  1.
         15    1    3    3    0    0 -0.98565704233E+02 -0.53420157720E+02  0.53541754713E+02  0.12425292161E+03  0.17770000000E+01 0.  1.
</event>
<event>
 8    1  0.2374062E-007  0.1825257E+03  0.7546771E-02  0.1068434E+00
        -11   -1    0    0    0    0  0.00000000000E+00  0.00000000000E+00  0.18250000000E+03  0.18250000000E+03  0.00000000000E+00 0.  1.
         11   -1    0    0    0    0 -0.00000000000E+00 -0.00000000000E+00 -0.18250000000E+03  0.18250000000E+03  0.00000000000E+00 0. -1.
         25    2    1    2    0    0 -0.83705675706E+02 -0.10294248758E+03  0.82770094690E+01  0.18247431121E+03  0.12499827788E+03 0.  0.
         23    2    1    2    0    0  0.83705675706E+02  0.10294248758E+03 -0.82770094690E+01  0.18252568879E+03  0.12507326768E+03 0.  0.
        -11    1    4    4    0    0  0.19541424343E+02  0.11458995190E+03 -0.13892807419E+02  0.11707149286E+03  0.00000000000E+00 0. -1.
         11    1    4    4    0    0  0.64164251363E+02 -0.11647464323E+02  0.56157979497E+01  0.65454195929E+02  0.00000000000E+00 0.  1.
        -15    1    3    3    0    0 -0.57545933223E+02 -0.11307846960E+03 -0.34308128168E+02  0.13144763255E+03  0.17770000000E+01 0.  1.
         15    1    3    3    0    0 -0.26159742484E+02  0.10135982016E+02  0.42585137637E+02  0.51026678658E+02  0.17770000000E+01 0.  1.
</event>
<event>
 8    1  0.2374062E-007  0.1890764E+03  0.7546771E-02  0.1063337E+00
        -11   -1    0    0    0    0  0.00000000000E+00  0.00000000000E+00  0.18250000000E+03  0.18250000000E+03  0.00000000000E+00 0.  1.
         11   -1    0    0    0    0 -0.00000000000E+00 -0.00000000000E+00 -0.18250000000E+03  0.18250000000E+03  0.00000000000E+00 0. -1.
         25    2    1    2    0    0  0.11589765091E+03 -0.28340848759E+02 -0.76743832943E+02  0.18907642208E+03  0.12499923318E+03 0.  0.
         23    2    1    2    0    0 -0.11589765091E+03  0.28340848759E+02  0.76743832943E+02  0.17592357792E+03  0.10403855141E+03 0.  0.
        -11    1    4    4    0    0 -0.88311791143E+02  0.66945198829E+02  0.55454638547E+02  0.12391871948E+03  0.00000000000E+00 0.  1.
         11    1    4    4    0    0 -0.27585859770E+02 -0.38604350070E+02  0.21289194396E+02  0.52004858443E+02  0.00000000000E+00 0. -1.
        -15    1    3    3    0    0  0.44879056152E+02  0.29896329341E+01  0.32165041682E+02  0.55324634852E+02  0.17770000000E+01 0. -1.
         15    1    3    3    0    0  0.71018594761E+02 -0.31330481693E+02 -0.10890887462E+03  0.13375178723E+03  0.17770000000E+01 0. -1.
</event>
<event>
 8    1  0.2374062E-007  0.1954620E+03  0.7546771E-02  0.1058581E+00
        -11   -1    0    0    0    0  0.00000000000E+00  0.00000000000E+00  0.18250000000E+03  0.18250000000E+03  0.00000000000E+00 0.  1.
         11   -1    0    0    0    0 -0.00000000000E+00 -0.00000000000E+00 -0.18250000000E+03  0.18250000000E+03  0.00000000000E+00 0. -1.
         25    2    1    2    0    0  0.11963653047E+03  0.97341118360E+01  0.90403520424E+02  0.19546197513E+03  0.12499973945E+03 0.  0.
         23    2    1    2    0    0 -0.11963653047E+03 -0.97341118360E+01 -0.90403520424E+02  0.16953802487E+03  0.78502821698E+02 0.  0.
        -11    1    4    4    0    0 -0.95227558114E+02 -0.39547418915E+02 -0.77189869472E+02  0.12880435597E+03  0.00000000000E+00 0.  1.
         11    1    4    4    0    0 -0.24408972356E+02  0.29813307079E+02 -0.13213650952E+02  0.40733668899E+02  0.00000000000E+00 0. -1.
        -15    1    3    3    0    0  0.12260671926E+03 -0.32375454472E+02  0.85445572421E+02  0.15292050626E+03  0.17770000000E+01 0.  1.
         15    1    3    3    0    0 -0.29701887939E+01  0.42109566308E+02  0.49579480038E+01  0.42541468869E+02  0.17770000000E+01 0.  1.
</event>
<event>
 8    1  0.2374062E-007  0.1887106E+03  0.7546771E-02  0.1063616E+00
        -11   -1    0    0    0    0  0.00000000000E+00  0.00000000000E+00  0.18250000000E+03  0.18250000000E+03  0.00000000000E+00 0.  1.
         11   -1    0    0    0    0 -0.00000000000E+00 -0.00000000000E+00 -0.18250000000E+03  0.18250000000E+03  0.00000000000E+00 0. -1.
         25    2    1    2    0    0  0.10742263791E+03 -0.85532920251E+02 -0.33634566582E+02  0.18871064467E+03  0.12499967904E+03 0.  0.
         23    2    1    2    0    0 -0.10742263791E+03  0.85532920251E+02  0.33634566582E+02  0.17628935533E+03  0.10531452488E+03 0.  0.
        -11    1    4    4    0    0  0.12006618206E+02  0.23382593692E+02  0.32308105188E+02  0.41649948732E+02  0.00000000000E+00 0.  1.
         11    1    4    4    0    0 -0.11942925612E+03  0.62150326559E+02  0.13264613946E+01  0.13463940660E+03  0.00000000000E+00 0. -1.
        -15    1    3    3    0    0 -0.20621673510E+02 -0.53677997664E+01  0.19121199040E+02  0.28685269293E+02  0.17770000000E+01 0.  1.
         15    1    3    3    0    0  0.12804431142E+03 -0.80165120485E+02 -0.52755765622E+02  0.16002537538E+03  0.17770000000E+01 0.  1.
</event>
<event>
 8    1  0.2374062E-007  0.1956925E+03  0.7546771E-02  0.1058413E+00
        -11   -1    0    0    0    0  0.00000000000E+00  0.00000000000E+00  0.18250000000E+03  0.18250000000E+03  0.00000000000E+00 0. -1.
         11   -1    0    0    0    0 -0.00000000000E+00 -0.00000000000E+00 -0.18250000000E+03  0.18250000000E+03  0.00000000000E+00 0.  1.
         25    2    1    2    0    0  0.88069628982E+02 -0.11790237908E+03 -0.31834491812E+02  0.19569246133E+03  0.12499949605E+03 0.  0.
         23    2    1    2    0    0 -0.88069628982E+02  0.11790237908E+03  0.31834491812E+02  0.16930753867E+03  0.77423363652E+02 0.  0.
        -11    1    4    4    0    0 -0.59849075075E+02  0.18031749627E+02  0.12034134467E+02  0.63654349217E+02  0.00000000000E+00 0.  1.
         11    1    4    4    0    0 -0.28220553907E+02  0.99870629453E+02  0.19800357345E+02  0.10565318945E+03  0.00000000000E+00 0. -1.
        -15    1    3    3    0    0  0.46270253366E+02 -0.63028268855E+02  0.46746569649E+02  0.91114754702E+02  0.17770000000E+01 0. -1.
         15    1    3    3    0    0  0.41799375616E+02 -0.54874110225E+02 -0.78581061460E+02  0.10457770663E+03  0.17770000000E+01 0. -1.
</event>
<event>
 7    1  0.2374062E-007  0.1832071E+03  0.7546771E-02  0.1067893E+00
        -11   -1    0    0    0    0  0.00000000000E+00  0.00000000000E+00  0.18250000000E+03  0.18250000000E+03  0.00000000000E+00 0. -1.
         11   -1    0    0    0    0 -0.00000000000E+00 -0.00000000000E+00 -0.18250000000E+03  0.18250000000E+03  0.00000000000E+00 0. -1.
         25    2    1    2    0    0 -0.81529284366E+02 -0.80137622889E+02  0.53968398237E+01  0.16947782771E+03  0.12499818157E+03 0.  0.
        -11    1    1    2    0    0  0.12414457826E+03  0.85325349301E+02  0.71107668337E+01  0.15080734249E+03  0.00000000000E+00 0. -1.
         11    1    1    2    0    0 -0.42615293895E+02 -0.51877264124E+01 -0.12507606657E+02  0.44714829793E+02  0.00000000000E+00 0. -1.
        -15    1    3    3    0    0 -0.78415348645E+02 -0.18526881401E+02  0.48627683390E+02  0.94127687523E+02  0.17770000000E+01 0. -1.
         15    1    3    3    0    0 -0.31139357213E+01 -0.61610741487E+02 -0.43230843566E+02  0.75350140191E+02  0.17770000000E+01 0. -1.
</event>
<event>
 7    1  0.2374062E-007  0.1843007E+03  0.7546771E-02  0.1067030E+00
        -11   -1    0    0    0    0  0.00000000000E+00  0.00000000000E+00  0.18250000000E+03  0.18250000000E+03  0.00000000000E+00 0.  1.
         11   -1    0    0    0    0 -0.00000000000E+00 -0.00000000000E+00 -0.18250000000E+03  0.18250000000E+03  0.00000000000E+00 0.  1.
         25    2    1    2    0    0  0.51535285688E+02  0.11320143165E+03 -0.62432170885E+00  0.17634105911E+03  0.12500131819E+03 0.  0.
        -11    1    1    2    0    0 -0.90506294514E+02 -0.11347537870E+03  0.17481750118E+02  0.14619734097E+03  0.00000000000E+00 0.  1.
         11    1    1    2    0    0  0.38971008826E+02  0.27394705311E+00 -0.16857428409E+02  0.42461599928E+02  0.00000000000E+00 0.  1.
        -15    1    3    3    0    0  0.83749729293E+02  0.10619879102E+03 -0.21961346984E+02  0.13703159804E+03  0.17770000000E+01 0.  1.
         15    1    3    3    0    0 -0.32214443605E+02  0.70026406256E+01  0.21337025276E+02  0.39309461064E+02  0.17770000000E+01 0.  1.
</event>
<event>
 8    1  0.2374062E-007  0.1877625E+03  0.7546771E-02  0.1064341E+00
        -11   -1    0    0    0    0  0.00000000000E+00  0.00000000000E+00  0.18250000000E+03  0.18250000000E+03  0.00000000000E+00 0.  1.
         11   -1    0    0    0    0 -0.00000000000E+00 -0.00000000000E+00 -0.18250000000E+03  0.18250000000E+03  0.00000000000E+00 0. -1.
         25    2    1    2    0    0 -0.92733217072E+02 -0.10341088475E+02  0.10451512913E+03  0.18776246736E+03  0.12499977709E+03 0.  0.
         23    2    1    2    0    0  0.92733217072E+02  0.10341088475E+02 -0.10451512913E+03  0.17723753264E+03  0.10855110824E+03 0.  0.
        -11    1    4    4    0    0  0.10263686841E+03  0.10213434919E+02 -0.37894438962E+02  0.10988461909E+03  0.00000000000E+00 0.  1.
         11    1    4    4    0    0 -0.99036513339E+01  0.12765355660E+00 -0.66620690166E+02  0.67352913548E+02  0.00000000000E+00 0. -1.
        -15    1    3    3    0    0 -0.10535520376E+03 -0.10899492160E+01  0.12398781619E+03  0.16271767956E+03  0.17770000000E+01 0.  1.
         15    1    3    3    0    0  0.12621986688E+02 -0.92511392593E+01 -0.19472687062E+02  0.25044787800E+02  0.17770000000E+01 0.  1.
</event>
<event>
 7    1  0.2374062E-007  0.1503615E+03  0.7546771E-02  0.1097372E+00
        -11   -1    0    0    0    0  0.00000000000E+00  0.00000000000E+00  0.18250000000E+03  0.18250000000E+03  0.00000000000E+00 0. -1.
         11   -1    0    0    0    0 -0.00000000000E+00 -0.00000000000E+00 -0.18250000000E+03  0.18250000000E+03  0.00000000000E+00 0.  1.
         25    2    1    2    0    0 -0.60326973005E+02  0.52464290662E+02 -0.10904184707E+02  0.14878545347E+03  0.12500545769E+03 0.  0.
        -11    1    1    2    0    0  0.12944874413E+02 -0.67060660877E+02 -0.84527720181E+02  0.10867215600E+03  0.00000000000E+00 0.  1.
         11    1    1    2    0    0  0.47382098592E+02  0.14596370215E+02  0.95431904888E+02  0.10754239053E+03  0.00000000000E+00 0. -1.
        -15    1    3    3    0    0 -0.97151134976E+02  0.20897352085E+02 -0.18090200469E+01  0.99405596592E+02  0.17770000000E+01 0. -1.
         15    1    3    3    0    0  0.36824161971E+02  0.31566938576E+02 -0.90951646604E+01  0.49379856877E+02  0.17770000000E+01 0. -1.
</event>
<event>
 8    1  0.2374062E-007  0.1888487E+03  0.7546771E-02  0.1063511E+00
        -11   -1    0    0    0    0  0.00000000000E+00  0.00000000000E+00  0.18250000000E+03  0.18250000000E+03  0.00000000000E+00 0.  1.
         11   -1    0    0    0    0 -0.00000000000E+00 -0.00000000000E+00 -0.18250000000E+03  0.18250000000E+03  0.00000000000E+00 0. -1.
         25    2    1    2    0    0 -0.13271077039E+03  0.49101079014E+02 -0.38120080820E+01  0.18884868370E+03  0.12500491746E+03 0.  0.
         23    2    1    2    0    0  0.13271077039E+03 -0.49101079014E+02  0.38120080820E+01  0.17615131630E+03  0.10484126235E+03 0.  0.
        -11    1    4    4    0    0  0.82161235972E+02 -0.11884490333E+00  0.45926426479E+02  0.94126082834E+02  0.00000000000E+00 0.  1.
         11    1    4    4    0    0  0.50549534421E+02 -0.48982234111E+02 -0.42114418397E+02  0.82025233469E+02  0.00000000000E+00 0. -1.
        -15    1    3    3    0    0 -0.55533338886E+02  0.58805861751E+02  0.49210808398E+02  0.94693941180E+02  0.17770000000E+01 0.  1.
         15    1    3    3    0    0 -0.77177431507E+02 -0.97047827369E+01 -0.53022816480E+02  0.94154742517E+02  0.17770000000E+01 0.  1.
</event>
<event>
 8    1  0.2374062E-007  0.1861360E+03  0.7546771E-02  0.1065597E+00
        -11   -1    0    0    0    0  0.00000000000E+00  0.00000000000E+00  0.18250000000E+03  0.18250000000E+03  0.00000000000E+00 0. -1.
         11   -1    0    0    0    0 -0.00000000000E+00 -0.00000000000E+00 -0.18250000000E+03  0.18250000000E+03  0.00000000000E+00 0. -1.
         25    2    1    2    0    0 -0.10987116777E+03  0.74083520005E+02 -0.38239435083E+02  0.18613600747E+03  0.12499726973E+03 0.  0.
         23    2    1    2    0    0  0.10987116777E+03 -0.74083520005E+02  0.38239435083E+02  0.17886399253E+03  0.11388604824E+03 0.  0.
        -11    1    4    4    0    0  0.24515872267E+02  0.12893063143E+02 -0.28650105035E+02  0.39850816663E+02  0.00000000000E+00 0. -1.
         11    1    4    4    0    0  0.85355295503E+02 -0.86976583148E+02  0.66889540119E+02  0.13901317586E+03  0.00000000000E+00 0. -1.
        -15    1    3    3    0    0 -0.11273653989E+03  0.62672558858E+02  0.16562603479E+02  0.13005712061E+03  0.17770000000E+01 0.  1.
         15    1    3    3    0    0  0.28653721178E+01  0.11410961147E+02 -0.54802038562E+02  0.56078886858E+02  0.17770000000E+01 0.  1.
</event>
<event>
 8    1  0.2374062E-007  0.1880548E+03  0.7546771E-02  0.1064117E+00
        -11   -1    0    0    0    0  0.00000000000E+00  0.00000000000E+00  0.18250000000E+03  0.18250000000E+03  0.00000000000E+00 0. -1.
         11   -1    0    0    0    0 -0.00000000000E+00 -0.00000000000E+00 -0.18250000000E+03  0.18250000000E+03  0.00000000000E+00 0. -1.
         25    2    1    2    0    0  0.13897718964E+03  0.19524392421E+02 -0.66501527756E+01  0.18805483043E+03  0.12499813429E+03 0.  0.
         23    2    1    2    0    0 -0.13897718964E+03 -0.19524392421E+02  0.66501527756E+01  0.17694516957E+03  0.10756164447E+03 0.  0.
        -11    1    4    4    0    0 -0.11171115996E+03  0.31634916251E+01  0.48722953623E+02  0.12191520474E+03  0.00000000000E+00 0. -1.
         11    1    4    4    0    0 -0.27266029687E+02 -0.22687884046E+02 -0.42072800847E+02  0.55029964824E+02  0.00000000000E+00 0. -1.
        -15    1    3    3    0    0  0.12342970470E+03  0.61737590221E+02 -0.23457513531E+02  0.13999940971E+03  0.17770000000E+01 0.  1.
         15    1    3    3    0    0  0.15547484944E+02 -0.42213197800E+02  0.16807360755E+02  0.48055420726E+02  0.17770000000E+01 0.  1.
</event>
<event>
 8    1  0.2374062E-007  0.1889273E+03  0.7546771E-02  0.1063451E+00
        -11   -1    0    0    0    0  0.00000000000E+00  0.00000000000E+00  0.18250000000E+03  0.18250000000E+03  0.00000000000E+00 0.  1.
         11   -1    0    0    0    0 -0.00000000000E+00 -0.00000000000E+00 -0.18250000000E+03  0.18250000000E+03  0.00000000000E+00 0.  1.
         25    2    1    2    0    0  0.47687496521E+02  0.52845245905E+02 -0.12246605215E+03  0.18892732120E+03  0.12501552474E+03 0.  0.
         23    2    1    2    0    0 -0.47687496521E+02 -0.52845245905E+02  0.12246605215E+03  0.17607267880E+03  0.10457981140E+03 0.  0.
        -11    1    4    4    0    0 -0.77377826960E+02 -0.19448753055E+02  0.93058109409E+02  0.12257811317E+03  0.00000000000E+00 0.  1.
         11    1    4    4    0    0  0.29690330439E+02 -0.33396492850E+02  0.29407942740E+02  0.53494565635E+02  0.00000000000E+00 0.  1.
        -15    1    3    3    0    0  0.22617275872E+02  0.14248041365E+01  0.23163748666E+02  0.32454402105E+02  0.17770000000E+01 0.  1.
         15    1    3    3    0    0  0.25070220649E+02  0.51420441768E+02 -0.14562980082E+03  0.15647291909E+03  0.17770000000E+01 0.  1.
</event>
<event>
 8    1  0.2374062E-007  0.1856853E+03  0.7546771E-02  0.1065947E+00
        -11   -1    0    0    0    0  0.00000000000E+00  0.00000000000E+00  0.18250000000E+03  0.18250000000E+03  0.00000000000E+00 0.  1.
         11   -1    0    0    0    0 -0.00000000000E+00 -0.00000000000E+00 -0.18250000000E+03  0.18250000000E+03  0.00000000000E+00 0. -1.
         25    2    1    2    0    0 -0.10558849189E+03  0.52807636308E+02 -0.70120278501E+02  0.18568530676E+03  0.12499841446E+03 0.  0.
         23    2    1    2    0    0  0.10558849189E+03 -0.52807636308E+02  0.70120278501E+02  0.17931469324E+03  0.11532271972E+03 0.  0.
        -11    1    4    4    0    0  0.11506783408E+03 -0.53325638899E+02  0.20106120768E+02  0.12840750093E+03  0.00000000000E+00 0. -1.
         11    1    4    4    0    0 -0.94793421937E+01  0.51800259038E+00  0.50014157732E+02  0.50907192309E+02  0.00000000000E+00 0.  1.
        -15    1    3    3    0    0 -0.10436505216E+01  0.59262758440E+02 -0.53009266331E+02  0.79538065040E+02  0.17770000000E+01 0.  1.
         15    1    3    3    0    0 -0.10454484136E+03 -0.64551221318E+01 -0.17111012169E+02  0.10614724172E+03  0.17770000000E+01 0.  1.
</event>
<event>
 8    1  0.2374062E-007  0.1997353E+03  0.7546771E-02  0.1055507E+00
        -11   -1    0    0    0    0  0.00000000000E+00  0.00000000000E+00  0.18250000000E+03  0.18250000000E+03  0.00000000000E+00 0.  1.
         11   -1    0    0    0    0 -0.00000000000E+00 -0.00000000000E+00 -0.18250000000E+03  0.18250000000E+03  0.00000000000E+00 0. -1.
         25    2    1    2    0    0 -0.31412451462E+02  0.10441100174E+03  0.11126646130E+03  0.19973534821E+03  0.12500233807E+03 0.  0.
         23    2    1    2    0    0  0.31412451462E+02 -0.10441100174E+03 -0.11126646130E+03  0.16526465179E+03  0.55170466110E+02 0.  0.
        -11    1    4    4    0    0  0.46105414713E+02 -0.90565019669E+02 -0.87719799276E+02  0.13424788728E+03  0.00000000000E+00 0. -1.
         11    1    4    4    0    0 -0.14692963250E+02 -0.13845982074E+02 -0.23546662019E+02  0.31016764514E+02  0.00000000000E+00 0.  1.
        -15    1    3    3    0    0 -0.67706950962E+01  0.83027508624E+01 -0.27254303236E+02  0.29338247355E+02  0.17770000000E+01 0. -1.
         15    1    3    3    0    0 -0.24641756366E+02  0.96108250881E+02  0.13852076453E+03  0.17039710085E+03  0.17770000000E+01 0. -1.
</event>
<event>
 7    1  0.2374062E-007  0.1690360E+03  0.7546771E-02  0.1079708E+00
        -11   -1    0    0    0    0  0.00000000000E+00  0.00000000000E+00  0.18250000000E+03  0.18250000000E+03  0.00000000000E+00 0.  1.
         11   -1    0    0    0    0 -0.00000000000E+00 -0.00000000000E+00 -0.18250000000E+03  0.18250000000E+03  0.00000000000E+00 0. -1.
         25    2    1    2    0    0 -0.88123048901E+02  0.15001953390E+02 -0.71514596472E+02  0.16950710641E+03  0.12501036461E+03 0.  0.
        -11    1    1    2    0    0  0.56786889359E+02 -0.80851970549E+02  0.72520262392E+02  0.12256010934E+03  0.00000000000E+00 0.  1.
         11    1    1    2    0    0  0.31336159542E+02  0.65850017159E+02 -0.10056659200E+01  0.72932784251E+02  0.00000000000E+00 0. -1.
        -15    1    3    3    0    0 -0.75738598768E+02 -0.78707630200E+01  0.16310599041E+02  0.77894015328E+02  0.17770000000E+01 0. -1.
         15    1    3    3    0    0 -0.12384450133E+02  0.22872716410E+02 -0.87825195512E+02  0.91613091078E+02  0.17770000000E+01 0. -1.
</event>
<event>
 8    1  0.2374062E-007  0.1980013E+03  0.7546771E-02  0.1056744E+00
        -11   -1    0    0    0    0  0.00000000000E+00  0.00000000000E+00  0.18250000000E+03  0.18250000000E+03  0.00000000000E+00 0. -1.
         11   -1    0    0    0    0 -0.00000000000E+00 -0.00000000000E+00 -0.18250000000E+03  0.18250000000E+03  0.00000000000E+00 0. -1.
         25    2    1    2    0    0  0.12101771827E+03  0.20640980167E+02  0.92234431891E+02  0.19800130062E+03  0.12500394564E+03 0.  0.
         23    2    1    2    0    0 -0.12101771827E+03 -0.20640980167E+02 -0.92234431891E+02  0.16699869938E+03  0.65650871808E+02 0.  0.
        -11    1    4    4    0    0 -0.85911910912E+02 -0.44497297621E+02 -0.62773151447E+02  0.11533141148E+03  0.00000000000E+00 0. -1.
         11    1    4    4    0    0 -0.35105807359E+02  0.23856317454E+02 -0.29461280444E+02  0.51667287893E+02  0.00000000000E+00 0. -1.
        -15    1    3    3    0    0  0.12156697865E+03 -0.25645570576E+02  0.45844838745E+02  0.13244294076E+03  0.17770000000E+01 0. -1.
         15    1    3    3    0    0 -0.54926038114E+00  0.46286550744E+02  0.46389593147E+02  0.65558359864E+02  0.17770000000E+01 0. -1.
</event>
<event>
 8    1  0.2374062E-007  0.1875674E+03  0.7546771E-02  0.1064491E+00
        -11   -1    0    0    0    0  0.00000000000E+00  0.00000000000E+00  0.18250000000E+03  0.18250000000E+03  0.00000000000E+00 0.  1.
         11   -1    0    0    0    0 -0.00000000000E+00 -0.00000000000E+00 -0.18250000000E+03  0.18250000000E+03  0.00000000000E+00 0. -1.
         25    2    1    2    0    0 -0.11062026018E+03  0.10300825870E+01  0.85535471993E+02  0.18756735029E+03  0.12500916323E+03 0.  0.
         23    2    1    2    0    0  0.11062026018E+03 -0.10300825870E+01 -0.85535471993E+02  0.17743264971E+03  0.10921595662E+03 0.  0.
        -11    1    4    4    0    0  0.55219578220E+02 -0.26856881295E+02  0.11769138584E+02  0.62522048229E+02  0.00000000000E+00 0.  1.
         11    1    4    4    0    0  0.55400681963E+02  0.25826798708E+02 -0.97304610577E+02  0.11491060148E+03  0.00000000000E+00 0. -1.
        -15    1    3    3    0    0 -0.10293591930E+03 -0.83474864269E+01  0.11564729257E+03  0.15505785378E+03  0.17770000000E+01 0.  1.
         15    1    3    3    0    0 -0.76843408877E+01  0.93775690139E+01 -0.30111820580E+02  0.32509496507E+02  0.17770000000E+01 0.  1.
</event>
<event>
 8    1  0.2374062E-007  0.1889309E+03  0.7546771E-02  0.1063448E+00
        -11   -1    0    0    0    0  0.00000000000E+00  0.00000000000E+00  0.18250000000E+03  0.18250000000E+03  0.00000000000E+00 0. -1.
         11   -1    0    0    0    0 -0.00000000000E+00 -0.00000000000E+00 -0.18250000000E+03  0.18250000000E+03  0.00000000000E+00 0.  1.
         25    2    1    2    0    0  0.37233334679E+02 -0.13483919045E+03  0.22396656004E+02  0.18893091435E+03  0.12500140681E+03 0.  0.
         23    2    1    2    0    0 -0.37233334679E+02  0.13483919045E+03 -0.22396656004E+02  0.17606908565E+03  0.10455039087E+03 0.  0.
        -11    1    4    4    0    0 -0.13358450630E+02  0.98537095899E+02 -0.62079219323E+02  0.11722558144E+03  0.00000000000E+00 0.  1.
         11    1    4    4    0    0 -0.23874884048E+02  0.36302094549E+02  0.39682563319E+02  0.58843504217E+02  0.00000000000E+00 0. -1.
        -15    1    3    3    0    0 -0.26053871137E+02 -0.40302858331E+02  0.52586446237E+02  0.71215283807E+02  0.17770000000E+01 0. -1.
         15    1    3    3    0    0  0.63287205816E+02 -0.94536332117E+02 -0.30189790233E+02  0.11771563054E+03  0.17770000000E+01 0. -1.
</event>
<event>
 8    1  0.2374062E-007  0.1853886E+03  0.7546771E-02  0.1066178E+00
        -11   -1    0    0    0    0  0.00000000000E+00  0.00000000000E+00  0.18250000000E+03  0.18250000000E+03  0.00000000000E+00 0. -1.
         11   -1    0    0    0    0 -0.00000000000E+00 -0.00000000000E+00 -0.18250000000E+03  0.18250000000E+03  0.00000000000E+00 0.  1.
         25    2    1    2    0    0 -0.49269700369E+02 -0.26008745425E+02 -0.12506657521E+03  0.18538858799E+03  0.12499328826E+03 0.  0.
         23    2    1    2    0    0  0.49269700369E+02  0.26008745425E+02  0.12506657521E+03  0.17961141201E+03  0.11625253923E+03 0.  0.
        -11    1    4    4    0    0 -0.29073466991E+02  0.48054057347E+01  0.83247905259E+02  0.88309524612E+02  0.00000000000E+00 0. -1.
         11    1    4    4    0    0  0.78343167360E+02  0.21203339690E+02  0.41818669949E+02  0.91301887397E+02  0.00000000000E+00 0.  1.
        -15    1    3    3    0    0  0.23107589398E+02  0.20825255492E+02  0.26708291516E+01  0.31272080382E+02  0.17770000000E+01 0. -1.
         15    1    3    3    0    0 -0.72377289767E+02 -0.46834000917E+02 -0.12773740436E+03  0.15411650761E+03  0.17770000000E+01 0. -1.
</event>
<event>
 8    1  0.2374062E-007  0.1841535E+03  0.7546771E-02  0.1067146E+00
        -11   -1    0    0    0    0  0.00000000000E+00  0.00000000000E+00  0.18250000000E+03  0.18250000000E+03  0.00000000000E+00 0.  1.
         11   -1    0    0    0    0 -0.00000000000E+00 -0.00000000000E+00 -0.18250000000E+03  0.18250000000E+03  0.00000000000E+00 0.  1.
         25    2    1    2    0    0  0.69353022993E+02  0.82428363017E+02 -0.81760712201E+02  0.18415347304E+03  0.12499364282E+03 0.  0.
         23    2    1    2    0    0 -0.69353022993E+02 -0.82428363017E+02  0.81760712201E+02  0.18084652696E+03  0.12006821155E+03 0.  0.
        -11    1    4    4    0    0 -0.23501720301E+02 -0.44058659216E+02  0.10534070515E+03  0.11657684363E+03  0.00000000000E+00 0.  1.
         11    1    4    4    0    0 -0.45851302692E+02 -0.38369703802E+02 -0.23579992945E+02  0.64269683332E+02  0.00000000000E+00 0.  1.
        -15    1    3    3    0    0 -0.67276057086E+01  0.15889766551E+02 -0.81232526350E+02  0.83063989946E+02  0.17770000000E+01 0. -1.
         15    1    3    3    0    0  0.76080628702E+02  0.66538596466E+02 -0.52818585130E+00  0.10108948310E+03  0.17770000000E+01 0. -1.
</event>
<event>
 7    1  0.2374062E-007  0.1662872E+03  0.7546771E-02  0.1082147E+00
        -11   -1    0    0    0    0  0.00000000000E+00  0.00000000000E+00  0.18250000000E+03  0.18250000000E+03  0.00000000000E+00 0.  1.
         11   -1    0    0    0    0 -0.00000000000E+00 -0.00000000000E+00 -0.18250000000E+03  0.18250000000E+03  0.00000000000E+00 0.  1.
         25    2    1    2    0    0 -0.88638148248E+02 -0.70496516921E+01 -0.27503178190E+01  0.15342579342E+03  0.12500196368E+03 0.  0.
        -11    1    1    2    0    0  0.11190355496E+03 -0.40797569710E+02  0.60044084034E+02  0.13338717830E+03  0.00000000000E+00 0.  1.
         11    1    1    2    0    0 -0.23265406709E+02  0.47847221402E+02 -0.57293766215E+02  0.78187028287E+02  0.00000000000E+00 0.  1.
        -15    1    3    3    0    0 -0.80406552002E+02 -0.58045311423E+02  0.11399151587E+02  0.99837719169E+02  0.17770000000E+01 0.  1.
         15    1    3    3    0    0 -0.82315962460E+01  0.50995659731E+02 -0.14149469406E+02  0.53588074248E+02  0.17770000000E+01 0.  1.
</event>
<event>
 8    1  0.2374062E-007  0.1827382E+03  0.7546771E-02  0.1068265E+00
        -11   -1    0    0    0    0  0.00000000000E+00  0.00000000000E+00  0.18250000000E+03  0.18250000000E+03  0.00000000000E+00 0.  1.
         11   -1    0    0    0    0 -0.00000000000E+00 -0.00000000000E+00 -0.18250000000E+03  0.18250000000E+03  0.00000000000E+00 0. -1.
         25    2    1    2    0    0  0.15022453807E+02 -0.13032764048E+03  0.19644714707E+02  0.18226182538E+03  0.12498996032E+03 0.  0.
         23    2    1    2    0    0 -0.15022453807E+02  0.13032764048E+03 -0.19644714707E+02  0.18273817462E+03  0.12568356160E+03 0.  0.
        -11    1    4    4    0    0  0.12768503135E+02  0.80243134933E+02  0.47786780480E+02  0.94263310810E+02  0.00000000000E+00 0.  1.
         11    1    4    4    0    0 -0.27790956943E+02  0.50084505548E+02 -0.67431495187E+02  0.88474863814E+02  0.00000000000E+00 0. -1.
        -15    1    3    3    0    0  0.61459476981E+02 -0.38283574514E+02 -0.14062415676E+02  0.73782170285E+02  0.17770000000E+01 0. -1.
         15    1    3    3    0    0 -0.46437023174E+02 -0.92044065967E+02  0.33707130383E+02  0.10847965509E+03  0.17770000000E+01 0. -1.
</event>
<event>
 7    1  0.2374062E-007  0.1882474E+03  0.7546771E-02  0.1063970E+00
        -11   -1    0    0    0    0  0.00000000000E+00  0.00000000000E+00  0.18250000000E+03  0.18250000000E+03  0.00000000000E+00 0.  1.
         11   -1    0    0    0    0 -0.00000000000E+00 -0.00000000000E+00 -0.18250000000E+03  0.18250000000E+03  0.00000000000E+00 0. -1.
         25    2    1    2    0    0 -0.90052358105E+02 -0.92302529946E+02 -0.59127512304E+01  0.17969282429E+03  0.12500146495E+03 0.  0.
        -11    1    1    2    0    0  0.12069658297E+03  0.88496190635E+02  0.20666569412E+02  0.15108391042E+03  0.00000000000E+00 0.  1.
         11    1    1    2    0    0 -0.30644224860E+02  0.38063393113E+01 -0.14753818182E+02  0.34223265291E+02  0.00000000000E+00 0. -1.
        -15    1    3    3    0    0 -0.61306724385E+02 -0.79878554235E+02  0.52365818826E+02  0.11350962334E+03  0.17770000000E+01 0. -1.
         15    1    3    3    0    0 -0.28745633720E+02 -0.12423975712E+02 -0.58278570056E+02  0.66183200945E+02  0.17770000000E+01 0. -1.
</event>
<event>
 8    1  0.2374062E-007  0.1852238E+03  0.7546771E-02  0.1066307E+00
        -11   -1    0    0    0    0  0.00000000000E+00  0.00000000000E+00  0.18250000000E+03  0.18250000000E+03  0.00000000000E+00 0.  1.
         11   -1    0    0    0    0 -0.00000000000E+00 -0.00000000000E+00 -0.18250000000E+03  0.18250000000E+03  0.00000000000E+00 0. -1.
         25    2    1    2    0    0  0.49459488947E+02  0.12415841415E+03 -0.28651518590E+02  0.18522378511E+03  0.12500155280E+03 0.  0.
         23    2    1    2    0    0 -0.49459488947E+02 -0.12415841415E+03  0.28651518590E+02  0.17977621489E+03  0.11677767368E+03 0.  0.
        -11    1    4    4    0    0 -0.28986280989E+02 -0.11180843372E+03  0.67778191934E+02  0.13392241649E+03  0.00000000000E+00 0.  1.
         11    1    4    4    0    0 -0.20473207958E+02 -0.12349980436E+02 -0.39126673344E+02  0.45853798402E+02  0.00000000000E+00 0. -1.
        -15    1    3    3    0    0  0.47308702147E+02  0.14939561359E+03 -0.30896165862E+02  0.15973382063E+03  0.17770000000E+01 0.  1.
         15    1    3    3    0    0  0.21507868007E+01 -0.25237199434E+02  0.22446472723E+01  0.25489964486E+02  0.17770000000E+01 0.  1.
</event>
<event>
 8    1  0.2374062E-007  0.1975115E+03  0.7546771E-02  0.1057096E+00
        -11   -1    0    0    0    0  0.00000000000E+00  0.00000000000E+00  0.18250000000E+03  0.18250000000E+03  0.00000000000E+00 0. -1.
         11   -1    0    0    0    0 -0.00000000000E+00 -0.00000000000E+00 -0.18250000000E+03  0.18250000000E+03  0.00000000000E+00 0.  1.
         25    2    1    2    0    0  0.72047210831E+02  0.13330674121E+03 -0.20574105612E+02  0.19751148958E+03  0.12500402736E+03 0.  0.
         23    2    1    2    0    0 -0.72047210831E+02 -0.13330674121E+03  0.20574105612E+02  0.16748851042E+03  0.68319978471E+02 0.  0.
        -11    1    4    4    0    0 -0.13021972500E+02 -0.69611718816E+02 -0.17060141883E+02  0.72845120669E+02  0.00000000000E+00 0.  1.
         11    1    4    4    0    0 -0.59025238331E+02 -0.63695022396E+02  0.37634247495E+02  0.94643389746E+02  0.00000000000E+00 0. -1.
        -15    1    3    3    0    0  0.10018475794E+03  0.68340375830E+02 -0.32799508776E+02  0.12564377500E+03  0.17770000000E+01 0.  1.
         15    1    3    3    0    0 -0.28137547106E+02  0.64966365381E+02  0.12225403164E+02  0.71867714584E+02  0.17770000000E+01 0.  1.
</event>
<event>
 8    1  0.2374062E-007  0.1874384E+03  0.7546771E-02  0.1064590E+00
        -11   -1    0    0    0    0  0.00000000000E+00  0.00000000000E+00  0.18250000000E+03  0.18250000000E+03  0.00000000000E+00 0.  1.
         11   -1    0    0    0    0 -0.00000000000E+00 -0.00000000000E+00 -0.18250000000E+03  0.18250000000E+03  0.00000000000E+00 0. -1.
         25    2    1    2    0    0  0.60380845645E+02  0.12518791697E+03 -0.13771659951E+02  0.18743843042E+03  0.12500258199E+03 0.  0.
         23    2    1    2    0    0 -0.60380845645E+02 -0.12518791697E+03  0.13771659951E+02  0.17756156958E+03  0.10963845721E+03 0.  0.
        -11    1    4    4    0    0 -0.67957453050E+02 -0.10083850314E+03 -0.31489115916E+02  0.12561123979E+03  0.00000000000E+00 0. -1.
         11    1    4    4    0    0  0.75766074055E+01 -0.24349413833E+02  0.45260775867E+02  0.51950329796E+02  0.00000000000E+00 0.  1.
        -15    1    3    3    0    0  0.54422828171E+02  0.12889055412E+03 -0.51443500283E+02  0.14907786763E+03  0.17770000000E+01 0.  1.
         15    1    3    3    0    0  0.59580174737E+01 -0.37026371527E+01  0.37671840332E+02  0.38360562784E+02  0.17770000000E+01 0.  1.
</event>
<event>
 8    1  0.2374062E-007  0.1861050E+03  0.7546771E-02  0.1065621E+00
        -11   -1    0    0    0    0  0.00000000000E+00  0.00000000000E+00  0.18250000000E+03  0.18250000000E+03  0.00000000000E+00 0.  1.
         11   -1    0    0    0    0 -0.00000000000E+00 -0.00000000000E+00 -0.18250000000E+03  0.18250000000E+03  0.00000000000E+00 0. -1.
         25    2    1    2    0    0 -0.42279574616E+02 -0.22671702719E+02  0.12926350185E+03  0.18610498387E+03  0.12499777429E+03 0.  0.
         23    2    1    2    0    0  0.42279574616E+02  0.22671702719E+02 -0.12926350185E+03  0.17889501613E+03  0.11398598752E+03 0.  0.
        -11    1    4    4    0    0  0.30946074721E+02  0.63733225918E+02 -0.43505068128E+02  0.83140090085E+02  0.00000000000E+00 0.  1.
         11    1    4    4    0    0  0.11333499895E+02 -0.41061523199E+02 -0.85758433721E+02  0.95754926043E+02  0.00000000000E+00 0. -1.
        -15    1    3    3    0    0 -0.75629515389E+02  0.19234175855E+02  0.92928230168E+02  0.12136140577E+03  0.17770000000E+01 0. -1.
         15    1    3    3    0    0  0.33349940772E+02 -0.41905878574E+02  0.36335271681E+02  0.64743578104E+02  0.17770000000E+01 0. -1.
</event>
<event>
 8    1  0.2374062E-007  0.1892050E+03  0.7546771E-02  0.1063239E+00
        -11   -1    0    0    0    0  0.00000000000E+00  0.00000000000E+00  0.18250000000E+03  0.18250000000E+03  0.00000000000E+00 0. -1.
         11   -1    0    0    0    0 -0.00000000000E+00 -0.00000000000E+00 -0.18250000000E+03  0.18250000000E+03  0.00000000000E+00 0.  1.
         25    2    1    2    0    0 -0.13731604454E+03  0.20504041915E+02 -0.29917091753E+02  0.18920496888E+03  0.12500950383E+03 0.  0.
         23    2    1    2    0    0  0.13731604454E+03 -0.20504041915E+02  0.29917091753E+02  0.17579503112E+03  0.10359898053E+03 0.  0.
        -11    1    4    4    0    0  0.95667521418E+02 -0.60125458334E+02  0.48888596582E+01  0.11309839231E+03  0.00000000000E+00 0.  1.
         11    1    4    4    0    0  0.41648523117E+02  0.39621416419E+02  0.25028232095E+02  0.62696638815E+02  0.00000000000E+00 0. -1.
        -15    1    3    3    0    0  0.18710822282E+02  0.20450417359E+01 -0.25851822671E+02  0.32027355972E+02  0.17770000000E+01 0. -1.
         15    1    3    3    0    0 -0.15602686682E+03  0.18459000180E+02 -0.40652690825E+01  0.15717761290E+03  0.17770000000E+01 0. -1.
</event>
<event>
 8    1  0.2374062E-007  0.1887330E+03  0.7546771E-02  0.1063599E+00
        -11   -1    0    0    0    0  0.00000000000E+00  0.00000000000E+00  0.18250000000E+03  0.18250000000E+03  0.00000000000E+00 0.  1.
         11   -1    0    0    0    0 -0.00000000000E+00 -0.00000000000E+00 -0.18250000000E+03  0.18250000000E+03  0.00000000000E+00 0. -1.
         25    2    1    2    0    0 -0.35453920227E+02  0.12483510224E+03  0.56162914782E+02  0.18873302496E+03  0.12500039401E+03 0.  0.
         23    2    1    2    0    0  0.35453920227E+02 -0.12483510224E+03 -0.56162914782E+02  0.17626697504E+03  0.10523777972E+03 0.  0.
        -11    1    4    4    0    0  0.23578772239E+02 -0.71293281189E+02  0.24270123529E+02  0.78915963778E+02  0.00000000000E+00 0.  1.
         11    1    4    4    0    0  0.11875147988E+02 -0.53541821056E+02 -0.80433038312E+02  0.97351011262E+02  0.00000000000E+00 0. -1.
        -15    1    3    3    0    0  0.30220386179E+02  0.29088503632E+02 -0.23311724196E+02  0.48020901682E+02  0.17770000000E+01 0. -1.
         15    1    3    3    0    0 -0.65674306406E+02  0.95746598612E+02  0.79474638978E+02  0.14071212328E+03  0.17770000000E+01 0. -1.
</event>
<event>
 7    1  0.2374062E-007  0.1663393E+03  0.7546771E-02  0.1082100E+00
        -11   -1    0    0    0    0  0.00000000000E+00  0.00000000000E+00  0.18250000000E+03  0.18250000000E+03  0.00000000000E+00 0.  1.
         11   -1    0    0    0    0 -0.00000000000E+00 -0.00000000000E+00 -0.18250000000E+03  0.18250000000E+03  0.00000000000E+00 0. -1.
         25    2    1    2    0    0  0.10157628790E+02 -0.10360146456E+03  0.77281167445E+02  0.18009913038E+03  0.12500750793E+03 0.  0.
        -11    1    1    2    0    0 -0.39459943375E+02  0.13701739408E+01 -0.67375895780E+02  0.78092738715E+02  0.00000000000E+00 0.  1.
         11    1    1    2    0    0  0.29302314585E+02  0.10223129062E+03 -0.99052716651E+01  0.10680813091E+03  0.00000000000E+00 0. -1.
        -15    1    3    3    0    0  0.56322988737E+02 -0.17265336371E+02  0.52885602669E+02  0.79185955819E+02  0.17770000000E+01 0. -1.
         15    1    3    3    0    0 -0.46165359947E+02 -0.86336128188E+02  0.24395564776E+02  0.10091317456E+03  0.17770000000E+01 0. -1.
</event>
<event>
 8    1  0.2374062E-007  0.1833145E+03  0.7546771E-02  0.1067808E+00
        -11   -1    0    0    0    0  0.00000000000E+00  0.00000000000E+00  0.18250000000E+03  0.18250000000E+03  0.00000000000E+00 0. -1.
         11   -1    0    0    0    0 -0.00000000000E+00 -0.00000000000E+00 -0.18250000000E+03  0.18250000000E+03  0.00000000000E+00 0. -1.
         25    2    1    2    0    0  0.87131809097E+02  0.11541453169E+02 -0.98255381965E+02  0.18168550176E+03  0.12502137485E+03 0.  0.
         23    2    1    2    0    0 -0.87131809097E+02 -0.11541453169E+02  0.98255381965E+02  0.18331449824E+03  0.12737710894E+03 0.  0.
        -11    1    4    4    0    0 -0.16076976415E+02  0.46690710343E+02  0.72830346310E+02  0.87992902820E+02  0.00000000000E+00 0. -1.
         11    1    4    4    0    0 -0.71054832681E+02 -0.58232163512E+02  0.25425035655E+02  0.95321595417E+02  0.00000000000E+00 0. -1.
        -15    1    3    3    0    0  0.65619100702E+02  0.14363327550E+02 -0.12815325831E+03  0.14470171699E+03  0.17770000000E+01 0. -1.
         15    1    3    3    0    0  0.21512708395E+02 -0.28218743811E+01  0.29897876343E+02  0.36983784776E+02  0.17770000000E+01 0. -1.
</event>
<event>
 8    1  0.2374062E-007  0.1992967E+03  0.7546771E-02  0.1055819E+00
        -11   -1    0    0    0    0  0.00000000000E+00  0.00000000000E+00  0.18250000000E+03  0.18250000000E+03  0.00000000000E+00 0. -1.
         11   -1    0    0    0    0 -0.00000000000E+00 -0.00000000000E+00 -0.18250000000E+03  0.18250000000E+03  0.00000000000E+00 0.  1.
         25    2    1    2    0    0  0.78677273516E+02 -0.13365189033E+03  0.64563967753E+01  0.19929666160E+03  0.12499813243E+03 0.  0.
         23    2    1    2    0    0 -0.78677273516E+02  0.13365189033E+03 -0.64563967753E+01  0.16570333840E+03  0.57991121228E+02 0.  0.
        -11    1    4    4    0    0 -0.68017129778E+02  0.62048285314E+02 -0.13151969730E+02  0.93001580424E+02  0.00000000000E+00 0.  1.
         11    1    4    4    0    0 -0.10660143738E+02  0.71603605014E+02  0.66955729545E+01  0.72701757975E+02  0.00000000000E+00 0. -1.
        -15    1    3    3    0    0  0.88516929046E+02 -0.12569016907E+03 -0.33497303679E+02  0.15734831556E+03  0.17770000000E+01 0.  1.
         15    1    3    3    0    0 -0.98396555307E+01 -0.79617212623E+01  0.39953700454E+02  0.41948346039E+02  0.17770000000E+01 0.  1.
</event>
<event>
 8    1  0.2374062E-007  0.1836320E+03  0.7546771E-02  0.1067557E+00
        -11   -1    0    0    0    0  0.00000000000E+00  0.00000000000E+00  0.18250000000E+03  0.18250000000E+03  0.00000000000E+00 0.  1.
         11   -1    0    0    0    0 -0.00000000000E+00 -0.00000000000E+00 -0.18250000000E+03  0.18250000000E+03  0.00000000000E+00 0. -1.
         25    2    1    2    0    0 -0.13216981113E+03 -0.24363978385E+02  0.57573996324E+01  0.18363203856E+03  0.12500046208E+03 0.  0.
         23    2    1    2    0    0  0.13216981113E+03  0.24363978385E+02 -0.57573996324E+01  0.18136796144E+03  0.12165002001E+03 0.  0.
        -11    1    4    4    0    0  0.11468238128E+03 -0.20082132219E+02  0.31704035210E+02  0.12066684076E+03  0.00000000000E+00 0.  1.
         11    1    4    4    0    0  0.17487429849E+02  0.44446110604E+02 -0.37461434842E+02  0.60701120673E+02  0.00000000000E+00 0. -1.
        -15    1    3    3    0    0 -0.18175417343E+02 -0.37605896137E+02 -0.42053300788E+02  0.59297445612E+02  0.17770000000E+01 0. -1.
         15    1    3    3    0    0 -0.11399439379E+03  0.13241917752E+02  0.47810700420E+02  0.12433459295E+03  0.17770000000E+01 0. -1.
</event>
<event>
 8    1  0.2374062E-007  0.1891385E+03  0.7546771E-02  0.1063290E+00
        -11   -1    0    0    0    0  0.00000000000E+00  0.00000000000E+00  0.18250000000E+03  0.18250000000E+03  0.00000000000E+00 0.  1.
         11   -1    0    0    0    0 -0.00000000000E+00 -0.00000000000E+00 -0.18250000000E+03  0.18250000000E+03  0.00000000000E+00 0. -1.
         25    2    1    2    0    0  0.12308225499E+03  0.29876485585E+01 -0.70660667115E+02  0.18913848397E+03  0.12498907433E+03 0.  0.
         23    2    1    2    0    0 -0.12308225499E+03 -0.29876485585E+01  0.70660667115E+02  0.17586151603E+03  0.10380835904E+03 0.  0.
        -11    1    4    4    0    0 -0.80543535283E+02  0.40375797419E+02  0.71641935315E+02  0.11510878763E+03  0.00000000000E+00 0.  1.
         11    1    4    4    0    0 -0.42538719710E+02 -0.43363445978E+02 -0.98126820081E+00  0.60752728407E+02  0.00000000000E+00 0. -1.
        -15    1    3    3    0    0  0.13508343653E+03  0.33751663346E+02 -0.70479906365E+02  0.15606820475E+03  0.17770000000E+01 0. -1.
         15    1    3    3    0    0 -0.12001181536E+02 -0.30764014788E+02 -0.18076074987E+00  0.33070279218E+02  0.17770000000E+01 0. -1.
</event>
<event>
 8    1  0.2374062E-007  0.1889219E+03  0.7546771E-02  0.1063455E+00
        -11   -1    0    0    0    0  0.00000000000E+00  0.00000000000E+00  0.18250000000E+03  0.18250000000E+03  0.00000000000E+00 0. -1.
         11   -1    0    0    0    0 -0.00000000000E+00 -0.00000000000E+00 -0.18250000000E+03  0.18250000000E+03  0.00000000000E+00 0.  1.
         25    2    1    2    0    0  0.58501270027E+02  0.12308114062E+03 -0.38725566479E+02  0.18892189089E+03  0.12498178103E+03 0.  0.
         23    2    1    2    0    0 -0.58501270027E+02 -0.12308114062E+03  0.38725566479E+02  0.17607810911E+03  0.10455842978E+03 0.  0.
        -11    1    4    4    0    0 -0.43925213180E+02 -0.13496672891E+03  0.53989167226E+02  0.15185609123E+03  0.00000000000E+00 0. -1.
         11    1    4    4    0    0 -0.14576056847E+02  0.11885588294E+02 -0.15263600747E+02  0.24222017877E+02  0.00000000000E+00 0.  1.
        -15    1    3    3    0    0  0.69334473329E+02  0.10882886329E+03  0.17183300808E+02  0.13018991601E+03  0.17770000000E+01 0. -1.
         15    1    3    3    0    0 -0.10833203302E+02  0.14252277330E+02 -0.55908867286E+02  0.58731974878E+02  0.17770000000E+01 0. -1.
</event>
<event>
 8    1  0.2374062E-007  0.1833174E+03  0.7546771E-02  0.1067806E+00
        -11   -1    0    0    0    0  0.00000000000E+00  0.00000000000E+00  0.18250000000E+03  0.18250000000E+03  0.00000000000E+00 0. -1.
         11   -1    0    0    0    0 -0.00000000000E+00 -0.00000000000E+00 -0.18250000000E+03  0.18250000000E+03  0.00000000000E+00 0. -1.
         25    2    1    2    0    0  0.71902226818E+02 -0.30676379660E+02  0.10894653868E+03  0.18331742165E+03  0.12499983319E+03 0.  0.
         23    2    1    2    0    0 -0.71902226818E+02  0.30676379660E+02 -0.10894653868E+03  0.18168257835E+03  0.12258972427E+03 0.  0.
        -11    1    4    4    0    0 -0.57739612389E+02  0.44664074427E+02 -0.21322877239E+01  0.73029371038E+02  0.00000000000E+00 0. -1.
         11    1    4    4    0    0 -0.14162614428E+02 -0.13987694767E+02 -0.10681425096E+03  0.10865320732E+03  0.00000000000E+00 0. -1.
        -15    1    3    3    0    0 -0.15900844047E+02  0.12972588208E+01 -0.18998785683E+02  0.24872300020E+02  0.17770000000E+01 0.  1.
         15    1    3    3    0    0  0.87803070865E+02 -0.31973638481E+02  0.12794532437E+03  0.15844512163E+03  0.17770000000E+01 0.  1.
</event>
<event>
 8    1  0.2374062E-007  0.1866859E+03  0.7546771E-02  0.1065171E+00
        -11   -1    0    0    0    0  0.00000000000E+00  0.00000000000E+00  0.18250000000E+03  0.18250000000E+03  0.00000000000E+00 0.  1.
         11   -1    0    0    0    0 -0.00000000000E+00 -0.00000000000E+00 -0.18250000000E+03  0.18250000000E+03  0.00000000000E+00 0. -1.
         25    2    1    2    0    0  0.42172483911E+02 -0.43193556778E+02 -0.12482785425E+03  0.18668593636E+03  0.12500177556E+03 0.  0.
         23    2    1    2    0    0 -0.42172483911E+02  0.43193556778E+02  0.12482785425E+03  0.17831406364E+03  0.11211471959E+03 0.  0.
        -11    1    4    4    0    0  0.24732279593E+02  0.44095887291E+02  0.89142944749E+02  0.10248218152E+03  0.00000000000E+00 0.  1.
         11    1    4    4    0    0 -0.66904763504E+02 -0.90233051222E+00  0.35684909499E+02  0.75831882120E+02  0.00000000000E+00 0. -1.
        -15    1    3    3    0    0 -0.10497393841E+02  0.38734689104E+02 -0.48198628546E+02  0.62744218381E+02  0.17770000000E+01 0. -1.
         15    1    3    3    0    0  0.52669877751E+02 -0.81928245883E+02 -0.76629225703E+02  0.12394171798E+03  0.17770000000E+01 0. -1.
</event>
<event>
 8    1  0.2374062E-007  0.1888161E+03  0.7546771E-02  0.1063535E+00
        -11   -1    0    0    0    0  0.00000000000E+00  0.00000000000E+00  0.18250000000E+03  0.18250000000E+03  0.00000000000E+00 0.  1.
         11   -1    0    0    0    0 -0.00000000000E+00 -0.00000000000E+00 -0.18250000000E+03  0.18250000000E+03  0.00000000000E+00 0. -1.
         25    2    1    2    0    0 -0.59930788699E+02 -0.57019786355E+02  0.11482397168E+03  0.18881612671E+03  0.12499611899E+03 0.  0.
         23    2    1    2    0    0  0.59930788699E+02  0.57019786355E+02 -0.11482397168E+03  0.17618387329E+03  0.10494406731E+03 0.  0.
        -11    1    4    4    0    0  0.30798499567E+02 -0.18475581772E+02 -0.25155083324E+00  0.35915984954E+02  0.00000000000E+00 0.  1.
         11    1    4    4    0    0  0.29132289132E+02  0.75495368127E+02 -0.11457242085E+03  0.14026788834E+03  0.00000000000E+00 0. -1.
        -15    1    3    3    0    0 -0.35338307689E+02 -0.90748220212E+02  0.10973497292E+03  0.14672749392E+03  0.17770000000E+01 0. -1.
         15    1    3    3    0    0 -0.24592481010E+02  0.33728433857E+02  0.50889987698E+01  0.42088632790E+02  0.17770000000E+01 0. -1.
</event>
<event>
 8    1  0.2374062E-007  0.1885282E+03  0.7546771E-02  0.1063755E+00
        -11   -1    0    0    0    0  0.00000000000E+00  0.00000000000E+00  0.18250000000E+03  0.18250000000E+03  0.00000000000E+00 0.  1.
         11   -1    0    0    0    0 -0.00000000000E+00 -0.00000000000E+00 -0.18250000000E+03  0.18250000000E+03  0.00000000000E+00 0. -1.
         25    2    1    2    0    0  0.12073405307E+03 -0.79201214604E+01  0.72625194322E+02  0.18852817397E+03  0.12501605351E+03 0.  0.
         23    2    1    2    0    0 -0.12073405307E+03  0.79201214604E+01 -0.72625194322E+02  0.17647182603E+03  0.10596436493E+03 0.  0.
        -11    1    4    4    0    0 -0.72571030438E+02  0.28931292174E+02 -0.91792891595E+02  0.12053841327E+03  0.00000000000E+00 0. -1.
         11    1    4    4    0    0 -0.48163022635E+02 -0.21011170714E+02  0.19167697273E+02  0.55933412759E+02  0.00000000000E+00 0.  1.
        -15    1    3    3    0    0 -0.40577033532E+01 -0.36809376937E+02  0.43497560765E+02  0.57154096166E+02  0.17770000000E+01 0. -1.
         15    1    3    3    0    0  0.12479175643E+03  0.28889255477E+02  0.29127633557E+02  0.13137407781E+03  0.17770000000E+01 0. -1.
</event>
<event>
 8    1  0.2374062E-007  0.1958097E+03  0.7546771E-02  0.1058328E+00
        -11   -1    0    0    0    0  0.00000000000E+00  0.00000000000E+00  0.18250000000E+03  0.18250000000E+03  0.00000000000E+00 0.  1.
         11   -1    0    0    0    0 -0.00000000000E+00 -0.00000000000E+00 -0.18250000000E+03  0.18250000000E+03  0.00000000000E+00 0. -1.
         25    2    1    2    0    0 -0.10892783104E+03 -0.89591584596E+02  0.53143817058E+02  0.19580971511E+03  0.12500101933E+03 0.  0.
         23    2    1    2    0    0  0.10892783104E+03  0.89591584596E+02 -0.53143817058E+02  0.16919028489E+03  0.76871079112E+02 0.  0.
        -11    1    4    4    0    0  0.94157008661E+02  0.30664371790E+02 -0.24416812218E+02  0.10199032648E+03  0.00000000000E+00 0. -1.
         11    1    4    4    0    0  0.14770822382E+02  0.58927212806E+02 -0.28727004840E+02  0.67199958408E+02  0.00000000000E+00 0.  1.
        -15    1    3    3    0    0 -0.37153302350E+02 -0.73386485458E+02  0.82551377415E+02  0.11654969655E+03  0.17770000000E+01 0. -1.
         15    1    3    3    0    0 -0.71774528693E+02 -0.16205099138E+02 -0.29407560357E+02  0.79260018561E+02  0.17770000000E+01 0. -1.
</event>
<event>
 8    1  0.2374062E-007  0.1887468E+03  0.7546771E-02  0.1063588E+00
        -11   -1    0    0    0    0  0.00000000000E+00  0.00000000000E+00  0.18250000000E+03  0.18250000000E+03  0.00000000000E+00 0. -1.
         11   -1    0    0    0    0 -0.00000000000E+00 -0.00000000000E+00 -0.18250000000E+03  0.18250000000E+03  0.00000000000E+00 0.  1.
         25    2    1    2    0    0  0.85905999550E+02 -0.62143115629E+02  0.93589753148E+02  0.18874676149E+03  0.12499876199E+03 0.  0.
         23    2    1    2    0    0 -0.85905999550E+02  0.62143115629E+02 -0.93589753148E+02  0.17625323851E+03  0.10518818666E+03 0.  0.
        -11    1    4    4    0    0 -0.58149220008E+02  0.41310781942E+02  0.52255656957E+01  0.71520759427E+02  0.00000000000E+00 0. -1.
         11    1    4    4    0    0 -0.27756779542E+02  0.20832333687E+02 -0.98815318844E+02  0.10473247909E+03  0.00000000000E+00 0.  1.
        -15    1    3    3    0    0  0.42328453378E+02 -0.12823663396E+02  0.11196168655E+03  0.12039402515E+03  0.17770000000E+01 0. -1.
         15    1    3    3    0    0  0.43577546172E+02 -0.49319452233E+02 -0.18371933398E+02  0.68352736337E+02  0.17770000000E+01 0. -1.
</event>
<event>
 7    1  0.2374062E-007  0.1588166E+03  0.7546771E-02  0.1089044E+00
        -11   -1    0    0    0    0  0.00000000000E+00  0.00000000000E+00  0.18250000000E+03  0.18250000000E+03  0.00000000000E+00 0.  1.
         11   -1    0    0    0    0 -0.00000000000E+00 -0.00000000000E+00 -0.18250000000E+03  0.18250000000E+03  0.00000000000E+00 0. -1.
         25    2    1    2    0    0  0.99060252596E+01  0.71870422355E+02  0.26631246534E+02  0.14696100126E+03  0.12499930261E+03 0.  0.
        -11    1    1    2    0    0  0.21240495786E+01 -0.23729577705E+02  0.89040704494E+02  0.92172943435E+02  0.00000000000E+00 0.  1.
         11    1    1    2    0    0 -0.12030074838E+02 -0.48140844650E+02 -0.11567195103E+03  0.12586605531E+03  0.00000000000E+00 0. -1.
        -15    1    3    3    0    0 -0.20217570062E+02  0.74474748086E+02  0.62996742602E+02  0.99634258913E+02  0.17770000000E+01 0.  1.
         15    1    3    3    0    0  0.30123595322E+02 -0.26043257312E+01 -0.36365496068E+02  0.47326742344E+02  0.17770000000E+01 0.  1.
</event>
<event>
 7    1  0.2374062E-007  0.1518904E+03  0.7546771E-02  0.1095822E+00
        -11   -1    0    0    0    0  0.00000000000E+00  0.00000000000E+00  0.18250000000E+03  0.18250000000E+03  0.00000000000E+00 0. -1.
         11   -1    0    0    0    0 -0.00000000000E+00 -0.00000000000E+00 -0.18250000000E+03  0.18250000000E+03  0.00000000000E+00 0.  1.
         25    2    1    2    0    0 -0.59753927753E+02  0.29455760475E+02 -0.64028598469E+01  0.14177824894E+03  0.12498760559E+03 0.  0.
        -11    1    1    2    0    0  0.11677646124E+02 -0.86795711453E+02  0.79744926574E+02  0.11844457041E+03  0.00000000000E+00 0. -1.
         11    1    1    2    0    0  0.48076281629E+02  0.57339950978E+02 -0.73342066727E+02  0.10477718065E+03  0.00000000000E+00 0.  1.
        -15    1    3    3    0    0  0.35380843201E+02  0.25970019335E+02  0.10281749878E+02  0.45112283021E+02  0.17770000000E+01 0. -1.
         15    1    3    3    0    0 -0.95134770954E+02  0.34857411402E+01 -0.16684609725E+02  0.96665965916E+02  0.17770000000E+01 0. -1.
</event>
<event>
 7    1  0.2374062E-007  0.1706596E+03  0.7546771E-02  0.1078291E+00
        -11   -1    0    0    0    0  0.00000000000E+00  0.00000000000E+00  0.18250000000E+03  0.18250000000E+03  0.00000000000E+00 0.  1.
         11   -1    0    0    0    0 -0.00000000000E+00 -0.00000000000E+00 -0.18250000000E+03  0.18250000000E+03  0.00000000000E+00 0.  1.
         25    2    1    2    0    0  0.59986701100E+02 -0.31801105120E+02  0.57021510978E+02  0.15324971551E+03  0.12499723195E+03 0.  0.
        -11    1    1    2    0    0 -0.11119195303E+03  0.77088194426E+02 -0.42993346196E+02  0.14196713688E+03  0.00000000000E+00 0.  1.
         11    1    1    2    0    0  0.51205251926E+02 -0.45287089306E+02 -0.14028164782E+02  0.69783147606E+02  0.00000000000E+00 0.  1.
        -15    1    3    3    0    0  0.29316509585E+02 -0.77545768150E+02  0.52092003360E+02  0.97926188710E+02  0.17770000000E+01 0. -1.
         15    1    3    3    0    0  0.30670191514E+02  0.45744663030E+02  0.49295076185E+01  0.55323526800E+02  0.17770000000E+01 0. -1.
</event>
<event>
 7    1  0.2374062E-007  0.1666262E+03  0.7546771E-02  0.1081843E+00
        -11   -1    0    0    0    0  0.00000000000E+00  0.00000000000E+00  0.18250000000E+03  0.18250000000E+03  0.00000000000E+00 0.  1.
         11   -1    0    0    0    0 -0.00000000000E+00 -0.00000000000E+00 -0.18250000000E+03  0.18250000000E+03  0.00000000000E+00 0. -1.
         25    2    1    2    0    0  0.59260585264E+02  0.82562542993E+02 -0.24572641068E+02  0.16296686539E+03  0.12500397616E+03 0.  0.
        -11    1    1    2    0    0 -0.11119515993E+03 -0.29714427182E+02  0.47438409629E+02  0.12448981277E+03  0.00000000000E+00 0.  1.
         11    1    1    2    0    0  0.51934574666E+02 -0.52848115811E+02 -0.22865768561E+02  0.77543321842E+02  0.00000000000E+00 0. -1.
        -15    1    3    3    0    0 -0.92403332369E+01  0.37918470253E+01  0.39290251472E+02  0.40578854739E+02  0.17770000000E+01 0.  1.
         15    1    3    3    0    0  0.68500918501E+02  0.78770695968E+02 -0.63862892540E+02  0.12238801065E+03  0.17770000000E+01 0.  1.
</event>
<event>
 8    1  0.2374062E-007  0.1976725E+03  0.7546771E-02  0.1056980E+00
        -11   -1    0    0    0    0  0.00000000000E+00  0.00000000000E+00  0.18250000000E+03  0.18250000000E+03  0.00000000000E+00 0.  1.
         11   -1    0    0    0    0 -0.00000000000E+00 -0.00000000000E+00 -0.18250000000E+03  0.18250000000E+03  0.00000000000E+00 0. -1.
         25    2    1    2    0    0  0.47647514906E+02 -0.13036411809E+03  0.64672569889E+02  0.19767254782E+03  0.12500722341E+03 0.  0.
         23    2    1    2    0    0 -0.47647514906E+02  0.13036411809E+03 -0.64672569889E+02  0.16732745218E+03  0.67459958461E+02 0.  0.
        -11    1    4    4    0    0  0.13490311951E+02  0.48423212107E+02 -0.95089491306E+01  0.51158734356E+02  0.00000000000E+00 0.  1.
         11    1    4    4    0    0 -0.61137826857E+02  0.81940905978E+02 -0.55163620759E+02  0.11616871782E+03  0.00000000000E+00 0. -1.
        -15    1    3    3    0    0  0.18780438780E+02 -0.51356763014E+02  0.93840718047E+02  0.10862531970E+03  0.17770000000E+01 0.  1.
         15    1    3    3    0    0  0.28867076126E+02 -0.79007355072E+02 -0.29168148158E+02  0.89047228118E+02  0.17770000000E+01 0.  1.
</event>
<event>
 8    1  0.2374062E-007  0.1880136E+03  0.7546771E-02  0.1064149E+00
        -11   -1    0    0    0    0  0.00000000000E+00  0.00000000000E+00  0.18250000000E+03  0.18250000000E+03  0.00000000000E+00 0. -1.
         11   -1    0    0    0    0 -0.00000000000E+00 -0.00000000000E+00 -0.18250000000E+03  0.18250000000E+03  0.00000000000E+00 0.  1.
         25    2    1    2    0    0  0.13312175855E+03 -0.42342173704E+02  0.14516296456E+02  0.18801359080E+03  0.12499650070E+03 0.  0.
         23    2    1    2    0    0 -0.13312175855E+03  0.42342173704E+02 -0.14516296456E+02  0.17698640920E+03  0.10769960031E+03 0.  0.
        -11    1    4    4    0    0 -0.40819701220E+02  0.12973863728E+02  0.45937221639E+02  0.62807622783E+02  0.00000000000E+00 0. -1.
         11    1    4    4    0    0 -0.92302057334E+02  0.29368309976E+02 -0.60453518095E+02  0.11417878642E+03  0.00000000000E+00 0.  1.
        -15    1    3    3    0    0  0.85962198804E+02 -0.56209493261E+02  0.61720139277E+02  0.11983964318E+03  0.17770000000E+01 0. -1.
         15    1    3    3    0    0  0.47159559749E+02  0.13867319557E+02 -0.47203842822E+02  0.68173947616E+02  0.17770000000E+01 0. -1.
</event>
<event>
 8    1  0.2374062E-007  0.1890770E+03  0.7546771E-02  0.1063337E+00
        -11   -1    0    0    0    0  0.00000000000E+00  0.00000000000E+00  0.18250000000E+03  0.18250000000E+03  0.00000000000E+00 0.  1.
         11   -1    0    0    0    0 -0.00000000000E+00 -0.00000000000E+00 -0.18250000000E+03  0.18250000000E+03  0.00000000000E+00 0. -1.
         25    2    1    2    0    0 -0.11363493117E+03  0.41402535001E+02 -0.74168458481E+02  0.18907697198E+03  0.12498829390E+03 0.  0.
         23    2    1    2    0    0  0.11363493117E+03 -0.41402535001E+02  0.74168458481E+02  0.17592302802E+03  0.10402347844E+03 0.  0.
        -11    1    4    4    0    0  0.19510355181E+02 -0.27964441954E+02  0.73296967968E+02  0.80840024037E+02  0.00000000000E+00 0.  1.
         11    1    4    4    0    0  0.94124575994E+02 -0.13438093048E+02  0.87149051284E+00  0.95083003984E+02  0.00000000000E+00 0. -1.
        -15    1    3    3    0    0 -0.51157515206E+02  0.13797233217E+02  0.32658815775E+02  0.62267254503E+02  0.17770000000E+01 0.  1.
         15    1    3    3    0    0 -0.62477415969E+02  0.27605301784E+02 -0.10682727426E+03  0.12680971748E+03  0.17770000000E+01 0.  1.
</event>
<event>
 8    1  0.2374062E-007  0.1830206E+03  0.7546771E-02  0.1068041E+00
        -11   -1    0    0    0    0  0.00000000000E+00  0.00000000000E+00  0.18250000000E+03  0.18250000000E+03  0.00000000000E+00 0.  1.
         11   -1    0    0    0    0 -0.00000000000E+00 -0.00000000000E+00 -0.18250000000E+03  0.18250000000E+03  0.00000000000E+00 0. -1.
         25    2    1    2    0    0  0.10356826228E+03  0.59023623406E+02  0.60492521630E+02  0.18302055328E+03  0.12500801846E+03 0.  0.
         23    2    1    2    0    0 -0.10356826228E+03 -0.59023623406E+02 -0.60492521630E+02  0.18197944672E+03  0.12347874628E+03 0.  0.
        -11    1    4    4    0    0 -0.50385127950E+02  0.67296119734E+01  0.29267031807E+02  0.58655843244E+02  0.00000000000E+00 0.  1.
         11    1    4    4    0    0 -0.53183134331E+02 -0.65753235379E+02 -0.89759553436E+02  0.12332360347E+03  0.00000000000E+00 0. -1.
        -15    1    3    3    0    0  0.43647765913E+02 -0.21344428188E+02 -0.21826028582E+02  0.53293952158E+02  0.17770000000E+01 0.  1.
         15    1    3    3    0    0  0.59920496368E+02  0.80368051594E+02  0.82318550212E+02  0.12972660113E+03  0.17770000000E+01 0.  1.
</event>
<event>
 8    1  0.2374062E-007  0.1888966E+03  0.7546771E-02  0.1063474E+00
        -11   -1    0    0    0    0  0.00000000000E+00  0.00000000000E+00  0.18250000000E+03  0.18250000000E+03  0.00000000000E+00 0.  1.
         11   -1    0    0    0    0 -0.00000000000E+00 -0.00000000000E+00 -0.18250000000E+03  0.18250000000E+03  0.00000000000E+00 0. -1.
         25    2    1    2    0    0  0.43357020650E+01  0.13490952974E+03 -0.42860472963E+02  0.18889664842E+03  0.12500217643E+03 0.  0.
         23    2    1    2    0    0 -0.43357020650E+01 -0.13490952974E+03  0.42860472963E+02  0.17610335158E+03  0.10467086877E+03 0.  0.
        -11    1    4    4    0    0 -0.16921614470E+02 -0.10605331478E+03  0.75095559100E+02  0.13104575387E+03  0.00000000000E+00 0.  1.
         11    1    4    4    0    0  0.12585912405E+02 -0.28856214968E+02 -0.32235086137E+02  0.45057597713E+02  0.00000000000E+00 0. -1.
        -15    1    3    3    0    0  0.16668257899E+02  0.14370671175E+03 -0.67708669362E+02  0.15974063809E+03  0.17770000000E+01 0. -1.
         15    1    3    3    0    0 -0.12332555834E+02 -0.87971820039E+01  0.24848196399E+02  0.29156010322E+02  0.17770000000E+01 0. -1.
</event>
<event>
 7    1  0.2374062E-007  0.1647152E+03  0.7546771E-02  0.1083565E+00
        -11   -1    0    0    0    0  0.00000000000E+00  0.00000000000E+00  0.18250000000E+03  0.18250000000E+03  0.00000000000E+00 0.  1.
         11   -1    0    0    0    0 -0.00000000000E+00 -0.00000000000E+00 -0.18250000000E+03  0.18250000000E+03  0.00000000000E+00 0. -1.
         25    2    1    2    0    0  0.71262912994E+02  0.18742338510E+02 -0.28170465440E+02  0.14781435049E+03  0.12500331622E+03 0.  0.
        -11    1    1    2    0    0  0.14100114526E+01  0.42388733348E+02 -0.69206541661E+02  0.81168579240E+02  0.00000000000E+00 0. -1.
         11    1    1    2    0    0 -0.72672924447E+02 -0.61131071858E+02  0.97377007100E+02  0.13601707027E+03  0.00000000000E+00 0.  1.
        -15    1    3    3    0    0  0.87245315474E+02  0.26658406803E+02 -0.61455170591E+02  0.11001050607E+03  0.17770000000E+01 0. -1.
         15    1    3    3    0    0 -0.15982402480E+02 -0.79160682925E+01  0.33284705152E+02  0.37803844411E+02  0.17770000000E+01 0. -1.
</event>
<event>
 8    1  0.2374062E-007  0.1887268E+03  0.7546771E-02  0.1063604E+00
        -11   -1    0    0    0    0  0.00000000000E+00  0.00000000000E+00  0.18250000000E+03  0.18250000000E+03  0.00000000000E+00 0. -1.
         11   -1    0    0    0    0 -0.00000000000E+00 -0.00000000000E+00 -0.18250000000E+03  0.18250000000E+03  0.00000000000E+00 0.  1.
         25    2    1    2    0    0  0.83590746891E+02 -0.11363116933E+03 -0.96435933222E+01  0.18872682850E+03  0.12500144517E+03 0.  0.
         23    2    1    2    0    0 -0.83590746891E+02  0.11363116933E+03  0.96435933222E+01  0.17627317150E+03  0.10526051724E+03 0.  0.
        -11    1    4    4    0    0 -0.27503215822E+02  0.10795350851E+03 -0.19046489816E+02  0.11301838635E+03  0.00000000000E+00 0.  1.
         11    1    4    4    0    0 -0.56087531069E+02  0.56776608226E+01  0.28690083138E+02  0.63254785149E+02  0.00000000000E+00 0. -1.
        -15    1    3    3    0    0  0.57208889650E+02 -0.70187187675E+02 -0.66563086536E+02  0.11239617692E+03  0.17770000000E+01 0.  1.
         15    1    3    3    0    0  0.26381857241E+02 -0.43443981653E+02  0.56919493214E+02  0.76330651577E+02  0.17770000000E+01 0.  1.
</event>
<event>
 8    1  0.2374062E-007  0.1967735E+03  0.7546771E-02  0.1057629E+00
        -11   -1    0    0    0    0  0.00000000000E+00  0.00000000000E+00  0.18250000000E+03  0.18250000000E+03  0.00000000000E+00 0. -1.
         11   -1    0    0    0    0 -0.00000000000E+00 -0.00000000000E+00 -0.18250000000E+03  0.18250000000E+03  0.00000000000E+00 0.  1.
         25    2    1    2    0    0  0.12834084490E+03  0.55844776096E+02 -0.59214654829E+02  0.19677346481E+03  0.12499363832E+03 0.  0.
         23    2    1    2    0    0 -0.12834084490E+03 -0.55844776096E+02  0.59214654829E+02  0.16822653519E+03  0.72137232463E+02 0.  0.
        -11    1    4    4    0    0 -0.74387051002E+01 -0.24356233419E+02  0.31046137492E+02  0.40154988396E+02  0.00000000000E+00 0.  1.
         11    1    4    4    0    0 -0.12090213980E+03 -0.31488542678E+02  0.28168517336E+02  0.12807154679E+03  0.00000000000E+00 0. -1.
        -15    1    3    3    0    0  0.29298982223E+02 -0.31446509266E+02  0.14701383652E+02  0.45459891273E+02  0.17770000000E+01 0.  1.
         15    1    3    3    0    0  0.99041862679E+02  0.87291285363E+02 -0.73916038481E+02  0.15131357354E+03  0.17770000000E+01 0.  1.
</event>
<event>
 8    1  0.2374062E-007  0.1880412E+03  0.7546771E-02  0.1064128E+00
        -11   -1    0    0    0    0  0.00000000000E+00  0.00000000000E+00  0.18250000000E+03  0.18250000000E+03  0.00000000000E+00 0.  1.
         11   -1    0    0    0    0 -0.00000000000E+00 -0.00000000000E+00 -0.18250000000E+03  0.18250000000E+03  0.00000000000E+00 0. -1.
         25    2    1    2    0    0 -0.12266383535E+03 -0.47571330741E+02 -0.49184193756E+02  0.18804117342E+03  0.12502379763E+03 0.  0.
         23    2    1    2    0    0  0.12266383535E+03  0.47571330741E+02  0.49184193756E+02  0.17695882658E+03  0.10763778788E+03 0.  0.
        -11    1    4    4    0    0  0.12597218467E+03  0.55042968696E+02  0.11002117677E+02  0.13791216882E+03  0.00000000000E+00 0. -1.
         11    1    4    4    0    0 -0.33083493233E+01 -0.74716379545E+01  0.38182076080E+02  0.39046657766E+02  0.00000000000E+00 0.  1.
        -15    1    3    3    0    0 -0.21941849707E+02  0.36303550914E+02  0.10914178793E+02  0.43836852137E+02  0.17770000000E+01 0.  1.
         15    1    3    3    0    0 -0.10072198564E+03 -0.83874881655E+02 -0.60098372549E+02  0.14420432128E+03  0.17770000000E+01 0.  1.
</event>
<event>
 7    1  0.2374062E-007  0.1617098E+03  0.7546771E-02  0.1086325E+00
        -11   -1    0    0    0    0  0.00000000000E+00  0.00000000000E+00  0.18250000000E+03  0.18250000000E+03  0.00000000000E+00 0. -1.
         11   -1    0    0    0    0 -0.00000000000E+00 -0.00000000000E+00 -0.18250000000E+03  0.18250000000E+03  0.00000000000E+00 0. -1.
         25    2    1    2    0    0 -0.74603512666E+02  0.31448374751E+02 -0.81296734278E+02  0.16967378404E+03  0.12500139843E+03 0.  0.
        -11    1    1    2    0    0  0.46149325544E+02  0.63484409774E+02  0.37091453658E+02  0.86809022959E+02  0.00000000000E+00 0. -1.
         11    1    1    2    0    0  0.28454187122E+02 -0.94932784525E+02  0.44205280620E+02  0.10851719300E+03  0.00000000000E+00 0. -1.
        -15    1    3    3    0    0 -0.88162922919E+02 -0.13211879226E+02 -0.84517062259E+02  0.12285579462E+03  0.17770000000E+01 0.  1.
         15    1    3    3    0    0  0.13559410254E+02  0.44660253977E+02  0.32203279804E+01  0.46817989416E+02  0.17770000000E+01 0.  1.
</event>
<event>
 8    1  0.2374062E-007  0.1846620E+03  0.7546771E-02  0.1066747E+00
        -11   -1    0    0    0    0  0.00000000000E+00  0.00000000000E+00  0.18250000000E+03  0.18250000000E+03  0.00000000000E+00 0. -1.
         11   -1    0    0    0    0 -0.00000000000E+00 -0.00000000000E+00 -0.18250000000E+03  0.18250000000E+03  0.00000000000E+00 0. -1.
         25    2    1    2    0    0  0.10009950687E+03 -0.14662811054E+02 -0.90773531856E+02  0.18466203493E+03  0.12500129501E+03 0.  0.
         23    2    1    2    0    0 -0.10009950687E+03  0.14662811054E+02  0.90773531856E+02  0.18033796507E+03  0.11852020190E+03 0.  0.
        -11    1    4    4    0    0 -0.41605219943E+02 -0.50605021378E+02  0.55503915257E+02  0.85863537803E+02  0.00000000000E+00 0. -1.
         11    1    4    4    0    0 -0.58494286922E+02  0.65267832432E+02  0.35269616599E+02  0.94474427270E+02  0.00000000000E+00 0. -1.
        -15    1    3    3    0    0  0.67692881369E+02  0.76153946215E+01  0.16739265394E+02  0.70168947250E+02  0.17770000000E+01 0.  1.
         15    1    3    3    0    0  0.32406625496E+02 -0.22278205676E+02 -0.10751279725E+03  0.11449308768E+03  0.17770000000E+01 0.  1.
</event>
<event>
 7    1  0.2374062E-007  0.1643048E+03  0.7546771E-02  0.1083938E+00
        -11   -1    0    0    0    0  0.00000000000E+00  0.00000000000E+00  0.18250000000E+03  0.18250000000E+03  0.00000000000E+00 0.  1.
         11   -1    0    0    0    0 -0.00000000000E+00 -0.00000000000E+00 -0.18250000000E+03  0.18250000000E+03  0.00000000000E+00 0. -1.
         25    2    1    2    0    0  0.57672260494E+02  0.11064493863E+03  0.24072586764E+02  0.17825012069E+03  0.12500089607E+03 0.  0.
        -11    1    1    2    0    0 -0.66851858838E+02 -0.67165060900E+02  0.44772129092E+02  0.10480868275E+03  0.00000000000E+00 0.  1.
         11    1    1    2    0    0  0.91795983440E+01 -0.43479877726E+02 -0.68844715856E+02  0.81941196563E+02  0.00000000000E+00 0. -1.
        -15    1    3    3    0    0  0.20589809619E+02  0.18928146534E+02 -0.48176167455E+02  0.55734332606E+02  0.17770000000E+01 0.  1.
         15    1    3    3    0    0  0.37082450875E+02  0.91716792092E+02  0.72248754219E+02  0.12251578808E+03  0.17770000000E+01 0.  1.
</event>
<event>
 7    1  0.2374062E-007  0.1469379E+03  0.7546771E-02  0.1100917E+00
        -11   -1    0    0    0    0  0.00000000000E+00  0.00000000000E+00  0.18250000000E+03  0.18250000000E+03  0.00000000000E+00 0.  1.
         11   -1    0    0    0    0 -0.00000000000E+00 -0.00000000000E+00 -0.18250000000E+03  0.18250000000E+03  0.00000000000E+00 0. -1.
         25    2    1    2    0    0  0.19577501875E+01 -0.10243553229E+01  0.32143900675E+02  0.12908452619E+03  0.12499880984E+03 0.  0.
        -11    1    1    2    0    0 -0.10142777780E+03  0.45809383250E+02  0.23058370518E+02  0.11365642153E+03  0.00000000000E+00 0.  1.
         11    1    1    2    0    0  0.99470027615E+02 -0.44785027927E+02 -0.55202271193E+02  0.12225905228E+03  0.00000000000E+00 0. -1.
        -15    1    3    3    0    0 -0.52633052932E+02  0.14431440272E+02 -0.13496052703E+02  0.56247719037E+02  0.17770000000E+01 0.  1.
         15    1    3    3    0    0  0.54590803120E+02 -0.15455795595E+02  0.45639953379E+02  0.72836807152E+02  0.17770000000E+01 0.  1.
</event>
<event>
 8    1  0.2374062E-007  0.1963378E+03  0.7546771E-02  0.1057944E+00
        -11   -1    0    0    0    0  0.00000000000E+00  0.00000000000E+00  0.18250000000E+03  0.18250000000E+03  0.00000000000E+00 0.  1.
         11   -1    0    0    0    0 -0.00000000000E+00 -0.00000000000E+00 -0.18250000000E+03  0.18250000000E+03  0.00000000000E+00 0. -1.
         25    2    1    2    0    0  0.23033791728E+02 -0.14872878564E+03 -0.16493710888E+02  0.19633778453E+03  0.12500270356E+03 0.  0.
         23    2    1    2    0    0 -0.23033791728E+02  0.14872878564E+03  0.16493710888E+02  0.16866221547E+03  0.74324243598E+02 0.  0.
        -11    1    4    4    0    0 -0.49110101739E+02  0.11170791149E+03  0.18042293317E+02  0.12335308642E+03  0.00000000000E+00 0.  1.
         11    1    4    4    0    0  0.26076310011E+02  0.37020874156E+02 -0.15485824286E+01  0.45309129043E+02  0.00000000000E+00 0. -1.
        -15    1    3    3    0    0 -0.15312382517E+02 -0.61597741607E+02 -0.63806763040E+02  0.90017840276E+02  0.17770000000E+01 0.  1.
         15    1    3    3    0    0  0.38346174244E+02 -0.87131044037E+02  0.47313052152E+02  0.10631994426E+03  0.17770000000E+01 0.  1.
</event>
<event>
 8    1  0.2374062E-007  0.1997210E+03  0.7546771E-02  0.1055518E+00
        -11   -1    0    0    0    0  0.00000000000E+00  0.00000000000E+00  0.18250000000E+03  0.18250000000E+03  0.00000000000E+00 0.  1.
         11   -1    0    0    0    0 -0.00000000000E+00 -0.00000000000E+00 -0.18250000000E+03  0.18250000000E+03  0.00000000000E+00 0. -1.
         25    2    1    2    0    0  0.34183173808E+02 -0.79389312877E+02 -0.12958786592E+03  0.19972095379E+03  0.12499716805E+03 0.  0.
         23    2    1    2    0    0 -0.34183173808E+02  0.79389312877E+02  0.12958786592E+03  0.16527904621E+03  0.55253920691E+02 0.  0.
        -11    1    4    4    0    0 -0.14018605716E+02  0.73697735472E+02  0.71927991160E+02  0.10393032970E+03  0.00000000000E+00 0.  1.
         11    1    4    4    0    0 -0.20164568092E+02  0.56915774043E+01  0.57659874757E+02  0.61348716504E+02  0.00000000000E+00 0. -1.
        -15    1    3    3    0    0  0.17495860215E+01 -0.10747247419E+03 -0.10484446344E+03  0.15016295483E+03  0.17770000000E+01 0. -1.
         15    1    3    3    0    0  0.32433587786E+02  0.28083161313E+02 -0.24743402474E+02  0.49557998961E+02  0.17770000000E+01 0. -1.
</event>
<event>
 8    1  0.2563640E-007  0.1886654E+03  0.7546771E-02  0.1063650E+00
        -11   -1    0    0    0    0  0.00000000000E+00  0.00000000000E+00  0.18250000000E+03  0.18250000000E+03  0.00000000000E+00 0. -1.
         11   -1    0    0    0    0 -0.00000000000E+00 -0.00000000000E+00 -0.18250000000E+03  0.18250000000E+03  0.00000000000E+00 0. -1.
         25    2    1    2    0    0 -0.41604804473E+02  0.51179065778E+02  0.12497787325E+03  0.18866541701E+03  0.12499965697E+03 0.  0.
         23    2    1    2    0    0  0.41604804473E+02 -0.51179065778E+02 -0.12497787325E+03  0.17633458299E+03  0.10547113268E+03 0.  0.
        -11    1    4    4    0    0  0.35847458381E+02 -0.18709179926E+02  0.63484112602E+01  0.40931357312E+02  0.00000000000E+00 0. -1.
         11    1    4    4    0    0  0.57573460919E+01 -0.32469885852E+02 -0.13132628451E+03  0.13540322568E+03  0.00000000000E+00 0. -1.
        -15    1    3    3    0    0 -0.35270023937E+02  0.45594169316E+02  0.15079350598E+03  0.16144547698E+03  0.17770000000E+01 0. -1.
         15    1    3    3    0    0 -0.63347805358E+01  0.55848964621E+01 -0.25815632725E+02  0.27219940024E+02  0.17770000000E+01 0. -1.
</event>
<event>
 8    1  0.2374062E-007  0.1954587E+03  0.7546771E-02  0.1058583E+00
        -11   -1    0    0    0    0  0.00000000000E+00  0.00000000000E+00  0.18250000000E+03  0.18250000000E+03  0.00000000000E+00 0.  1.
         11   -1    0    0    0    0 -0.00000000000E+00 -0.00000000000E+00 -0.18250000000E+03  0.18250000000E+03  0.00000000000E+00 0.  1.
         25    2    1    2    0    0  0.55155385880E+02 -0.94179999722E+02 -0.10328291577E+03  0.19545865672E+03  0.12499894743E+03 0.  0.
         23    2    1    2    0    0 -0.55155385880E+02  0.94179999722E+02  0.10328291577E+03  0.16954134328E+03  0.78516988290E+02 0.  0.
        -11    1    4    4    0    0 -0.31858243396E+02  0.45953375876E+02  0.10158242499E+03  0.11595537716E+03  0.00000000000E+00 0.  1.
         11    1    4    4    0    0 -0.23297142485E+02  0.48226623846E+02  0.17004907867E+01  0.53585966114E+02  0.00000000000E+00 0.  1.
        -15    1    3    3    0    0  0.73749659420E+02 -0.20430008103E+02 -0.13418468282E+02  0.77714931099E+02  0.17770000000E+01 0. -1.
         15    1    3    3    0    0 -0.18594273540E+02 -0.73749991619E+02 -0.89864447491E+02  0.11774372562E+03  0.17770000000E+01 0. -1.
</event>
<event>
 8    1  0.2374062E-007  0.1869043E+03  0.7546771E-02  0.1065002E+00
        -11   -1    0    0    0    0  0.00000000000E+00  0.00000000000E+00  0.18250000000E+03  0.18250000000E+03  0.00000000000E+00 0.  1.
         11   -1    0    0    0    0 -0.00000000000E+00 -0.00000000000E+00 -0.18250000000E+03  0.18250000000E+03  0.00000000000E+00 0. -1.
         25    2    1    2    0    0  0.46562066371E+02  0.13066952170E+03 -0.80954923472E+01  0.18690434833E+03  0.12500059401E+03 0.  0.
         23    2    1    2    0    0 -0.46562066371E+02 -0.13066952170E+03  0.80954923472E+01  0.17809565167E+03  0.11140006383E+03 0.  0.
        -11    1    4    4    0    0 -0.55007761813E+02 -0.74784324041E+02  0.52108250359E+02  0.10646040925E+03  0.00000000000E+00 0.  1.
         11    1    4    4    0    0  0.84456954421E+01 -0.55885197656E+02 -0.44012758012E+02  0.71635242419E+02  0.00000000000E+00 0. -1.
        -15    1    3    3    0    0  0.76196852308E+02  0.91336646546E+02 -0.43024726611E+02  0.12650149459E+03  0.17770000000E+01 0. -1.
         15    1    3    3    0    0 -0.29634785937E+02  0.39332875151E+02  0.34929234264E+02  0.60402853745E+02  0.17770000000E+01 0. -1.
</event>
<event>
 8    1  0.2374062E-007  0.1884111E+03  0.7546771E-02  0.1063845E+00
        -11   -1    0    0    0    0  0.00000000000E+00  0.00000000000E+00  0.18250000000E+03  0.18250000000E+03  0.00000000000E+00 0.  1.
         11   -1    0    0    0    0 -0.00000000000E+00 -0.00000000000E+00 -0.18250000000E+03  0.18250000000E+03  0.00000000000E+00 0.  1.
         25    2    1    2    0    0  0.55933215430E+02 -0.36599767898E+02  0.12412133939E+03  0.18841111968E+03  0.12499830210E+03 0.  0.
         23    2    1    2    0    0 -0.55933215430E+02  0.36599767898E+02 -0.12412133939E+03  0.17658888032E+03  0.10634593628E+03 0.  0.
        -11    1    4    4    0    0 -0.13790211738E+02 -0.17405934366E+01  0.18424136972E+02  0.23079177378E+02  0.00000000000E+00 0.  1.
         11    1    4    4    0    0 -0.42143003692E+02  0.38340361335E+02 -0.14254547636E+03  0.15350970295E+03  0.00000000000E+00 0.  1.
        -15    1    3    3    0    0 -0.88619370968E+01  0.26557271504E+02  0.85552713469E+02  0.90034699476E+02  0.17770000000E+01 0. -1.
         15    1    3    3    0    0  0.64795152527E+02 -0.63157039402E+02  0.38568625920E+02  0.98376420200E+02  0.17770000000E+01 0. -1.
</event>
<event>
 8    1  0.2374062E-007  0.1995558E+03  0.7546771E-02  0.1055635E+00
        -11   -1    0    0    0    0  0.00000000000E+00  0.00000000000E+00  0.18250000000E+03  0.18250000000E+03  0.00000000000E+00 0.  1.
         11   -1    0    0    0    0 -0.00000000000E+00 -0.00000000000E+00 -0.18250000000E+03  0.18250000000E+03  0.00000000000E+00 0. -1.
         25    2    1    2    0    0  0.10040811572E+03  0.11879193158E+03  0.26672188058E+01  0.19955583333E+03  0.12498841485E+03 0.  0.
         23    2    1    2    0    0 -0.10040811572E+03 -0.11879193158E+03 -0.26672188058E+01  0.16544416667E+03  0.56314700729E+02 0.  0.
        -11    1    4    4    0    0 -0.10056612685E+03 -0.91519845411E+02 -0.12274973714E+02  0.13652876237E+03  0.00000000000E+00 0. -1.
         11    1    4    4    0    0  0.15801113300E+00 -0.27272086171E+02  0.96077549085E+01  0.28915404303E+02  0.00000000000E+00 0.  1.
        -15    1    3    3    0    0  0.33252375100E+02  0.12049635687E+03 -0.23930399825E+02  0.12728281201E+03  0.17770000000E+01 0.  1.
         15    1    3    3    0    0  0.67155740621E+02 -0.17044252924E+01  0.26597618630E+02  0.72273021313E+02  0.17770000000E+01 0.  1.
</event>
<event>
 7    1  0.2374062E-007  0.1665688E+03  0.7546771E-02  0.1081894E+00
        -11   -1    0    0    0    0  0.00000000000E+00  0.00000000000E+00  0.18250000000E+03  0.18250000000E+03  0.00000000000E+00 0. -1.
         11   -1    0    0    0    0 -0.00000000000E+00 -0.00000000000E+00 -0.18250000000E+03  0.18250000000E+03  0.00000000000E+00 0.  1.
         25    2    1    2    0    0 -0.77600656212E+02  0.79991951113E+02 -0.64729031960E+02  0.17953500508E+03  0.12498958510E+03 0.  0.
        -11    1    1    2    0    0  0.71963847542E+02 -0.17733511746E+02 -0.23124650505E+02  0.77640339082E+02  0.00000000000E+00 0.  1.
         11    1    1    2    0    0  0.56368086705E+01 -0.62258439367E+02  0.87853682464E+02  0.10782465584E+03  0.00000000000E+00 0. -1.
        -15    1    3    3    0    0 -0.10183679713E+03  0.88252071280E+02 -0.72084926987E+02  0.15283506065E+03  0.17770000000E+01 0.  1.
         15    1    3    3    0    0  0.24236140921E+02 -0.82601201669E+01  0.73558950270E+01  0.26699944430E+02  0.17770000000E+01 0.  1.
</event>
<event>
 8    1  0.2374062E-007  0.1885903E+03  0.7546771E-02  0.1063708E+00
        -11   -1    0    0    0    0  0.00000000000E+00  0.00000000000E+00  0.18250000000E+03  0.18250000000E+03  0.00000000000E+00 0. -1.
         11   -1    0    0    0    0 -0.00000000000E+00 -0.00000000000E+00 -0.18250000000E+03  0.18250000000E+03  0.00000000000E+00 0.  1.
         25    2    1    2    0    0  0.34727521798E+02 -0.52262179175E+02 -0.12650216194E+03  0.18859025616E+03  0.12500460632E+03 0.  0.
         23    2    1    2    0    0 -0.34727521798E+02  0.52262179175E+02  0.12650216194E+03  0.17640974384E+03  0.10573677035E+03 0.  0.
        -11    1    4    4    0    0 -0.25260456059E+02 -0.15249210737E+02  0.98302857776E+02  0.10263567077E+03  0.00000000000E+00 0. -1.
         11    1    4    4    0    0 -0.94670657395E+01  0.67511389912E+02  0.28199304161E+02  0.73774073066E+02  0.00000000000E+00 0.  1.
        -15    1    3    3    0    0 -0.54877002876E+01 -0.42591470940E+02 -0.13888079289E+03  0.14537943670E+03  0.17770000000E+01 0. -1.
         15    1    3    3    0    0  0.40215222086E+02 -0.96707082352E+01  0.12378630956E+02  0.43210819462E+02  0.17770000000E+01 0. -1.
</event>
<event>
 8    1  0.2374062E-007  0.1880073E+03  0.7546771E-02  0.1064154E+00
        -11   -1    0    0    0    0  0.00000000000E+00  0.00000000000E+00  0.18250000000E+03  0.18250000000E+03  0.00000000000E+00 0. -1.
         11   -1    0    0    0    0 -0.00000000000E+00 -0.00000000000E+00 -0.18250000000E+03  0.18250000000E+03  0.00000000000E+00 0.  1.
         25    2    1    2    0    0 -0.13818789998E+03  0.22437962872E+02 -0.11082810343E+02  0.18800731723E+03  0.12499825906E+03 0.  0.
         23    2    1    2    0    0  0.13818789998E+03 -0.22437962872E+02  0.11082810343E+02  0.17699268277E+03  0.10772290004E+03 0.  0.
        -11    1    4    4    0    0  0.15520428679E+03 -0.12347726783E+02  0.32881647069E+01  0.15572940962E+03  0.00000000000E+00 0.  1.
         11    1    4    4    0    0 -0.17016386812E+02 -0.10090236089E+02  0.77946456360E+01  0.21263273150E+02  0.00000000000E+00 0. -1.
        -15    1    3    3    0    0 -0.39193204536E+02 -0.10408416062E+02 -0.60279262435E+02  0.72671793808E+02  0.17770000000E+01 0. -1.
         15    1    3    3    0    0 -0.98994695442E+02  0.32846378934E+02  0.49196452092E+02  0.11533552342E+03  0.17770000000E+01 0. -1.
</event>
<event>
 8    1  0.2374062E-007  0.1957710E+03  0.7546771E-02  0.1058356E+00
        -11   -1    0    0    0    0  0.00000000000E+00  0.00000000000E+00  0.18250000000E+03  0.18250000000E+03  0.00000000000E+00 0.  1.
         11   -1    0    0    0    0 -0.00000000000E+00 -0.00000000000E+00 -0.18250000000E+03  0.18250000000E+03  0.00000000000E+00 0.  1.
         25    2    1    2    0    0  0.11903372313E+03 -0.83847815918E+02 -0.38752474453E+02  0.19577103598E+03  0.12500024310E+03 0.  0.
         23    2    1    2    0    0 -0.11903372313E+03  0.83847815918E+02  0.38752474453E+02  0.16922896402E+03  0.77053257619E+02 0.  0.
        -11    1    4    4    0    0 -0.12252370327E+03  0.69269151550E+02  0.51171369178E+02  0.14976241933E+03  0.00000000000E+00 0.  1.
         11    1    4    4    0    0  0.34899801341E+01  0.14578664369E+02 -0.12418894725E+02  0.19466544694E+02  0.00000000000E+00 0.  1.
        -15    1    3    3    0    0  0.47503506570E+02  0.22166617229E+02 -0.42962522150E+02  0.67800280931E+02  0.17770000000E+01 0.  1.
         15    1    3    3    0    0  0.71530216563E+02 -0.10601443315E+03  0.42100476972E+01  0.12797075505E+03  0.17770000000E+01 0.  1.
</event>
<event>
 8    1  0.2374062E-007  0.1877647E+03  0.7546771E-02  0.1064340E+00
        -11   -1    0    0    0    0  0.00000000000E+00  0.00000000000E+00  0.18250000000E+03  0.18250000000E+03  0.00000000000E+00 0. -1.
         11   -1    0    0    0    0 -0.00000000000E+00 -0.00000000000E+00 -0.18250000000E+03  0.18250000000E+03  0.00000000000E+00 0.  1.
         25    2    1    2    0    0 -0.11598955725E+03  0.66601457752E+02 -0.41715411114E+02  0.18776472312E+03  0.12500433656E+03 0.  0.
         23    2    1    2    0    0  0.11598955725E+03 -0.66601457752E+02  0.41715411114E+02  0.17723527688E+03  0.10854877375E+03 0.  0.
        -11    1    4    4    0    0  0.93894309190E+02 -0.31707974817E+02 -0.21799715563E+02  0.10147297455E+03  0.00000000000E+00 0.  1.
         11    1    4    4    0    0  0.22095248057E+02 -0.34893482935E+02  0.63515126677E+02  0.75762302333E+02  0.00000000000E+00 0. -1.
        -15    1    3    3    0    0 -0.93087849239E+02  0.92684109395E+02  0.26585628911E+01  0.13139983826E+03  0.17770000000E+01 0.  1.
         15    1    3    3    0    0 -0.22901708008E+02 -0.26082651643E+02 -0.44373974005E+02  0.56364884853E+02  0.17770000000E+01 0.  1.
</event>
<event>
 7    1  0.2374062E-007  0.1627712E+03  0.7546771E-02  0.1085342E+00
        -11   -1    0    0    0    0  0.00000000000E+00  0.00000000000E+00  0.18250000000E+03  0.18250000000E+03  0.00000000000E+00 0. -1.
         11   -1    0    0    0    0 -0.00000000000E+00 -0.00000000000E+00 -0.18250000000E+03  0.18250000000E+03  0.00000000000E+00 0. -1.
         25    2    1    2    0    0  0.72449816957E+02 -0.57294340157E+02  0.43400189533E+01  0.15547985040E+03  0.12499412276E+03 0.  0.
        -11    1    1    2    0    0 -0.10666822499E+02 -0.18021102504E+02 -0.82192454429E+02  0.84818281064E+02  0.00000000000E+00 0. -1.
         11    1    1    2    0    0 -0.61782994458E+02  0.75315442661E+02  0.77852435476E+02  0.12470186854E+03  0.00000000000E+00 0. -1.
        -15    1    3    3    0    0  0.28191715991E+02  0.39517985476E+02  0.64032485711E+01  0.48995952362E+02  0.17770000000E+01 0. -1.
         15    1    3    3    0    0  0.44258100966E+02 -0.96812325632E+02 -0.20632296177E+01  0.10648389804E+03  0.17770000000E+01 0. -1.
</event>
<event>
 8    1  0.2374062E-007  0.1954026E+03  0.7546771E-02  0.1058624E+00
        -11   -1    0    0    0    0  0.00000000000E+00  0.00000000000E+00  0.18250000000E+03  0.18250000000E+03  0.00000000000E+00 0.  1.
         11   -1    0    0    0    0 -0.00000000000E+00 -0.00000000000E+00 -0.18250000000E+03  0.18250000000E+03  0.00000000000E+00 0. -1.
         25    2    1    2    0    0  0.98084467682E+02  0.89819090845E+02 -0.69767736214E+02  0.19540264718E+03  0.12500650235E+03 0.  0.
         23    2    1    2    0    0 -0.98084467682E+02 -0.89819090845E+02  0.69767736214E+02  0.16959735282E+03  0.78788915372E+02 0.  0.
        -11    1    4    4    0    0 -0.65736848485E+02 -0.20594896172E+02  0.62201716489E+02  0.92814527587E+02  0.00000000000E+00 0.  1.
         11    1    4    4    0    0 -0.32347619197E+02 -0.69224194672E+02  0.75660197252E+01  0.76782825229E+02  0.00000000000E+00 0. -1.
        -15    1    3    3    0    0  0.12621384343E+03  0.60460064269E+02 -0.65353206197E+02  0.15446537779E+03  0.17770000000E+01 0. -1.
         15    1    3    3    0    0 -0.28129375749E+02  0.29359026576E+02 -0.44145300169E+01  0.40937269398E+02  0.17770000000E+01 0. -1.
</event>
<event>
 8    1  0.2374062E-007  0.1890286E+03  0.7546771E-02  0.1063374E+00
        -11   -1    0    0    0    0  0.00000000000E+00  0.00000000000E+00  0.18250000000E+03  0.18250000000E+03  0.00000000000E+00 0.  1.
         11   -1    0    0    0    0 -0.00000000000E+00 -0.00000000000E+00 -0.18250000000E+03  0.18250000000E+03  0.00000000000E+00 0. -1.
         25    2    1    2    0    0  0.12808884363E+03  0.56491514895E+02  0.22387575824E+02  0.18902861912E+03  0.12503028504E+03 0.  0.
         23    2    1    2    0    0 -0.12808884363E+03 -0.56491514895E+02 -0.22387575824E+02  0.17597138088E+03  0.10424337016E+03 0.  0.
        -11    1    4    4    0    0 -0.11873972445E+03 -0.82560404199E+02 -0.28995269323E+02  0.14749938355E+03  0.00000000000E+00 0.  1.
         11    1    4    4    0    0 -0.93491191818E+01  0.26068889304E+02  0.66076934995E+01  0.28471997338E+02  0.00000000000E+00 0. -1.
        -15    1    3    3    0    0  0.15201693985E+03  0.56077237537E+02  0.10853454043E+02  0.16240308422E+03  0.17770000000E+01 0.  1.
         15    1    3    3    0    0 -0.23928096218E+02  0.41427735758E+00  0.11534121781E+02  0.26625534898E+02  0.17770000000E+01 0.  1.
</event>
<event>
 8    1  0.2374062E-007  0.1884886E+03  0.7546771E-02  0.1063785E+00
        -11   -1    0    0    0    0  0.00000000000E+00  0.00000000000E+00  0.18250000000E+03  0.18250000000E+03  0.00000000000E+00 0.  1.
         11   -1    0    0    0    0 -0.00000000000E+00 -0.00000000000E+00 -0.18250000000E+03  0.18250000000E+03  0.00000000000E+00 0. -1.
         25    2    1    2    0    0 -0.13501016817E+03  0.32982061703E+02 -0.24144966086E+02  0.18848860652E+03  0.12501765274E+03 0.  0.
         23    2    1    2    0    0  0.13501016817E+03 -0.32982061703E+02  0.24144966086E+02  0.17651139348E+03  0.10610245397E+03 0.  0.
        -11    1    4    4    0    0  0.14914281770E+03 -0.39122978535E+02  0.34428652063E+02  0.15798582089E+03  0.00000000000E+00 0.  1.
         11    1    4    4    0    0 -0.14132649533E+02  0.61409168321E+01 -0.10283685978E+02  0.18525572586E+02  0.00000000000E+00 0. -1.
        -15    1    3    3    0    0 -0.29560949002E+02  0.68791681808E+02 -0.17500483665E+02  0.76912741788E+02  0.17770000000E+01 0. -1.
         15    1    3    3    0    0 -0.10544921917E+03 -0.35809620105E+02 -0.66444824203E+01  0.11157586473E+03  0.17770000000E+01 0. -1.
</event>
<event>
 8    1  0.2374062E-007  0.1871023E+03  0.7546771E-02  0.1064849E+00
        -11   -1    0    0    0    0  0.00000000000E+00  0.00000000000E+00  0.18250000000E+03  0.18250000000E+03  0.00000000000E+00 0.  1.
         11   -1    0    0    0    0 -0.00000000000E+00 -0.00000000000E+00 -0.18250000000E+03  0.18250000000E+03  0.00000000000E+00 0. -1.
         25    2    1    2    0    0  0.37037550254E+02 -0.11504661259E+03 -0.69082140532E+02  0.18710229981E+03  0.12500970065E+03 0.  0.
         23    2    1    2    0    0 -0.37037550254E+02  0.11504661259E+03  0.69082140532E+02  0.17789770019E+03  0.11075985912E+03 0.  0.
        -11    1    4    4    0    0 -0.64408176406E+02  0.68275488496E+02  0.79150244034E+02  0.12277913767E+03  0.00000000000E+00 0.  1.
         11    1    4    4    0    0  0.27370626152E+02  0.46771124098E+02 -0.10068103502E+02  0.55118562513E+02  0.00000000000E+00 0. -1.
        -15    1    3    3    0    0  0.30904294878E+02 -0.10683241668E+03 -0.10301938637E+03  0.15160604339E+03  0.17770000000E+01 0. -1.
         15    1    3    3    0    0  0.61332553761E+01 -0.82141959193E+01  0.33937245838E+02  0.35496256425E+02  0.17770000000E+01 0. -1.
</event>
<event>
 8    1  0.2374062E-007  0.1889675E+03  0.7546771E-02  0.1063420E+00
        -11   -1    0    0    0    0  0.00000000000E+00  0.00000000000E+00  0.18250000000E+03  0.18250000000E+03  0.00000000000E+00 0.  1.
         11   -1    0    0    0    0 -0.00000000000E+00 -0.00000000000E+00 -0.18250000000E+03  0.18250000000E+03  0.00000000000E+00 0. -1.
         25    2    1    2    0    0  0.11287388590E+03 -0.83664892707E+02 -0.18474450503E+02  0.18896748304E+03  0.12500830346E+03 0.  0.
         23    2    1    2    0    0 -0.11287388590E+03  0.83664892707E+02  0.18474450503E+02  0.17603251696E+03  0.10443090212E+03 0.  0.
        -11    1    4    4    0    0 -0.51533528658E+01  0.64699898515E+02 -0.11175312682E+01  0.64914426669E+02  0.00000000000E+00 0.  1.
         11    1    4    4    0    0 -0.10772053303E+03  0.18964994192E+02  0.19591981771E+02  0.11111809029E+03  0.00000000000E+00 0. -1.
        -15    1    3    3    0    0  0.12515014660E+03 -0.10500070405E+03 -0.15415503507E+02  0.16409906314E+03  0.17770000000E+01 0.  1.
         15    1    3    3    0    0 -0.12276260706E+02  0.21335811341E+02 -0.30589469956E+01  0.24868419898E+02  0.17770000000E+01 0.  1.
</event>
<event>
 7    1  0.2374062E-007  0.1649140E+03  0.7546771E-02  0.1083384E+00
        -11   -1    0    0    0    0  0.00000000000E+00  0.00000000000E+00  0.18250000000E+03  0.18250000000E+03  0.00000000000E+00 0.  1.
         11   -1    0    0    0    0 -0.00000000000E+00 -0.00000000000E+00 -0.18250000000E+03  0.18250000000E+03  0.00000000000E+00 0. -1.
         25    2    1    2    0    0  0.72117287176E+02  0.78074417983E+02  0.73056843472E+02  0.17961021387E+03  0.12500403472E+03 0.  0.
        -11    1    1    2    0    0  0.13576233314E+02 -0.18265818034E+02 -0.77521832688E+02  0.80793494557E+02  0.00000000000E+00 0. -1.
         11    1    1    2    0    0 -0.85693520490E+02 -0.59808599949E+02  0.44649892161E+01  0.10459629157E+03  0.00000000000E+00 0.  1.
        -15    1    3    3    0    0  0.10302290901E+03  0.83472927255E+02  0.60793037164E+02  0.14587803283E+03  0.17770000000E+01 0.  1.
         15    1    3    3    0    0 -0.30905621837E+02 -0.53985092724E+01  0.12263806308E+02  0.33732181039E+02  0.17770000000E+01 0.  1.
</event>
<event>
 7    1  0.2374062E-007  0.1575744E+03  0.7546771E-02  0.1090232E+00
        -11   -1    0    0    0    0  0.00000000000E+00  0.00000000000E+00  0.18250000000E+03  0.18250000000E+03  0.00000000000E+00 0.  1.
         11   -1    0    0    0    0 -0.00000000000E+00 -0.00000000000E+00 -0.18250000000E+03  0.18250000000E+03  0.00000000000E+00 0.  1.
         25    2    1    2    0    0  0.56764678584E+01 -0.50728655959E+02  0.41061769073E+02  0.14113670666E+03  0.12501152853E+03 0.  0.
        -11    1    1    2    0    0  0.18256790707E+02  0.36311402236E+02  0.85279640662E+02  0.94469283107E+02  0.00000000000E+00 0.  1.
         11    1    1    2    0    0 -0.23933258566E+02  0.14417253723E+02 -0.12634140973E+03  0.12939401023E+03  0.00000000000E+00 0.  1.
        -15    1    3    3    0    0  0.56900950872E+02 -0.16037956199E+01  0.40943015554E+02  0.70141133596E+02  0.17770000000E+01 0. -1.
         15    1    3    3    0    0 -0.51224483013E+02 -0.49124860339E+02  0.11875351913E+00  0.70995573064E+02  0.17770000000E+01 0. -1.
</event>
<event>
 8    1  0.2374062E-007  0.1991872E+03  0.7546771E-02  0.1055897E+00
        -11   -1    0    0    0    0  0.00000000000E+00  0.00000000000E+00  0.18250000000E+03  0.18250000000E+03  0.00000000000E+00 0. -1.
         11   -1    0    0    0    0 -0.00000000000E+00 -0.00000000000E+00 -0.18250000000E+03  0.18250000000E+03  0.00000000000E+00 0. -1.
         25    2    1    2    0    0 -0.11606415854E+03 -0.71840358927E+02  0.73619898332E+02  0.19918723966E+03  0.12499496368E+03 0.  0.
         23    2    1    2    0    0  0.11606415854E+03  0.71840358927E+02 -0.73619898332E+02  0.16581276034E+03  0.58669037763E+02 0.  0.
        -11    1    4    4    0    0  0.27236143243E+01 -0.34909871492E+01 -0.18433179783E+02  0.18957509942E+02  0.00000000000E+00 0. -1.
         11    1    4    4    0    0  0.11334054421E+03  0.75331346076E+02 -0.55186718549E+02  0.14685525040E+03  0.00000000000E+00 0. -1.
        -15    1    3    3    0    0 -0.86852931156E+02 -0.67090118480E+02 -0.10242030504E+02  0.11023870720E+03  0.17770000000E+01 0.  1.
         15    1    3    3    0    0 -0.29211227383E+02 -0.47502404466E+01  0.83861928837E+02  0.88948532460E+02  0.17770000000E+01 0.  1.
</event>
<event>
 7    1  0.2374062E-007  0.1510983E+03  0.7546771E-02  0.1096623E+00
        -11   -1    0    0    0    0  0.00000000000E+00  0.00000000000E+00  0.18250000000E+03  0.18250000000E+03  0.00000000000E+00 0.  1.
         11   -1    0    0    0    0 -0.00000000000E+00 -0.00000000000E+00 -0.18250000000E+03  0.18250000000E+03  0.00000000000E+00 0. -1.
         25    2    1    2    0    0  0.52346371790E+02 -0.59302434285E+02 -0.21447896091E+01  0.14794359235E+03  0.12500314013E+03 0.  0.
        -11    1    1    2    0    0 -0.87186854337E+02 -0.30734595201E+02 -0.52305675129E+02  0.10621697869E+03  0.00000000000E+00 0.  1.
         11    1    1    2    0    0  0.34840482547E+02  0.90037029486E+02  0.54450464738E+02  0.11083942896E+03  0.00000000000E+00 0. -1.
        -15    1    3    3    0    0 -0.66318966987E+01 -0.81680708763E+02 -0.15546726190E+02  0.83430082476E+02  0.17770000000E+01 0.  1.
         15    1    3    3    0    0  0.58978268489E+02  0.22378274478E+02  0.13401936581E+02  0.64513509870E+02  0.17770000000E+01 0.  1.
</event>
<event>
 8    1  0.2374062E-007  0.1958990E+03  0.7546771E-02  0.1058263E+00
        -11   -1    0    0    0    0  0.00000000000E+00  0.00000000000E+00  0.18250000000E+03  0.18250000000E+03  0.00000000000E+00 0.  1.
         11   -1    0    0    0    0 -0.00000000000E+00 -0.00000000000E+00 -0.18250000000E+03  0.18250000000E+03  0.00000000000E+00 0. -1.
         25    2    1    2    0    0  0.80603698917E+02  0.12741123207E+03  0.45455791452E+01  0.19589904725E+03  0.12500078434E+03 0.  0.
         23    2    1    2    0    0 -0.80603698917E+02 -0.12741123207E+03 -0.45455791452E+01  0.16910095275E+03  0.76445350394E+02 0.  0.
        -11    1    4    4    0    0 -0.60017834080E+02 -0.36873264983E+02  0.19692204003E+02  0.73140693029E+02  0.00000000000E+00 0. -1.
         11    1    4    4    0    0 -0.20585864837E+02 -0.90537967083E+02 -0.24237783148E+02  0.95960259725E+02  0.00000000000E+00 0.  1.
        -15    1    3    3    0    0  0.72025141936E+02  0.65016236339E+02 -0.52993746553E+02  0.11057227031E+03  0.17770000000E+01 0. -1.
         15    1    3    3    0    0  0.85785569815E+01  0.62394995726E+02  0.57539325698E+02  0.85326776937E+02  0.17770000000E+01 0. -1.
</event>
<event>
 8    1  0.2374062E-007  0.1886951E+03  0.7546771E-02  0.1063628E+00
        -11   -1    0    0    0    0  0.00000000000E+00  0.00000000000E+00  0.18250000000E+03  0.18250000000E+03  0.00000000000E+00 0.  1.
         11   -1    0    0    0    0 -0.00000000000E+00 -0.00000000000E+00 -0.18250000000E+03  0.18250000000E+03  0.00000000000E+00 0. -1.
         25    2    1    2    0    0 -0.42339614600E+01 -0.12090787767E+03 -0.73094931798E+02  0.18869509585E+03  0.12500531520E+03 0.  0.
         23    2    1    2    0    0  0.42339614600E+01  0.12090787767E+03  0.73094931798E+02  0.17630490415E+03  0.10537508653E+03 0.  0.
        -11    1    4    4    0    0  0.25402005133E+02  0.52165598698E+02 -0.17523499216E+02  0.60610102928E+02  0.00000000000E+00 0. -1.
         11    1    4    4    0    0 -0.21168043673E+02  0.68742278974E+02  0.90618431014E+02  0.11569480123E+03  0.00000000000E+00 0.  1.
        -15    1    3    3    0    0 -0.17026102961E+02 -0.88965926071E+02  0.17051695408E+02  0.92188623100E+02  0.17770000000E+01 0. -1.
         15    1    3    3    0    0  0.12792141501E+02 -0.31941951600E+02 -0.90146627206E+02  0.96506472745E+02  0.17770000000E+01 0. -1.
</event>
<event>
 7    1  0.2374062E-007  0.1813725E+03  0.7546771E-02  0.1069356E+00
        -11   -1    0    0    0    0  0.00000000000E+00  0.00000000000E+00  0.18250000000E+03  0.18250000000E+03  0.00000000000E+00 0.  1.
         11   -1    0    0    0    0 -0.00000000000E+00 -0.00000000000E+00 -0.18250000000E+03  0.18250000000E+03  0.00000000000E+00 0. -1.
         25    2    1    2    0    0 -0.17451793284E+02 -0.45304453270E+02  0.10904538635E+03  0.17283786105E+03  0.12499988541E+03 0.  0.
        -11    1    1    2    0    0  0.16877002176E+02 -0.45377607739E+02  0.24112362844E+01  0.48474473148E+02  0.00000000000E+00 0.  1.
         11    1    1    2    0    0  0.57479110819E+00  0.90682061010E+02 -0.11145662264E+03  0.14368766580E+03  0.00000000000E+00 0. -1.
        -15    1    3    3    0    0  0.30918718988E+02  0.16958820915E+02  0.82312206001E+02  0.89565762301E+02  0.17770000000E+01 0.  1.
         15    1    3    3    0    0 -0.48370512273E+02 -0.62263274185E+02  0.26733180350E+02  0.83272098751E+02  0.17770000000E+01 0.  1.
</event>
<event>
 8    1  0.2374062E-007  0.1866059E+03  0.7546771E-02  0.1065233E+00
        -11   -1    0    0    0    0  0.00000000000E+00  0.00000000000E+00  0.18250000000E+03  0.18250000000E+03  0.00000000000E+00 0.  1.
         11   -1    0    0    0    0 -0.00000000000E+00 -0.00000000000E+00 -0.18250000000E+03  0.18250000000E+03  0.00000000000E+00 0. -1.
         25    2    1    2    0    0  0.90709210554E+02 -0.87731323143E+02  0.57194358716E+02  0.18660591245E+03  0.12500250378E+03 0.  0.
         23    2    1    2    0    0 -0.90709210554E+02  0.87731323143E+02 -0.57194358716E+02  0.17839408755E+03  0.11237575302E+03 0.  0.
        -11    1    4    4    0    0 -0.33958512814E+02  0.10365165763E+03 -0.46113677966E+02  0.11842009127E+03  0.00000000000E+00 0. -1.
         11    1    4    4    0    0 -0.56750697740E+02 -0.15920334485E+02 -0.11080680750E+02  0.59973996282E+02  0.00000000000E+00 0.  1.
        -15    1    3    3    0    0 -0.29855617660E+02 -0.23590682848E+02 -0.11019016880E+01  0.38108399854E+02  0.17770000000E+01 0.  1.
         15    1    3    3    0    0  0.12056482821E+03 -0.64140640295E+02  0.58296260404E+02  0.14849751259E+03  0.17770000000E+01 0.  1.
</event>
<event>
 8    1  0.2374062E-007  0.1890858E+03  0.7546771E-02  0.1063330E+00
        -11   -1    0    0    0    0  0.00000000000E+00  0.00000000000E+00  0.18250000000E+03  0.18250000000E+03  0.00000000000E+00 0.  1.
         11   -1    0    0    0    0 -0.00000000000E+00 -0.00000000000E+00 -0.18250000000E+03  0.18250000000E+03  0.00000000000E+00 0. -1.
         25    2    1    2    0    0  0.81869278913E+02  0.92511652901E+02 -0.69773062107E+02  0.18908583564E+03  0.12499675312E+03 0.  0.
         23    2    1    2    0    0 -0.81869278913E+02 -0.92511652901E+02  0.69773062107E+02  0.17591416436E+03  0.10400253975E+03 0.  0.
        -11    1    4    4    0    0 -0.59216708972E+02 -0.10929105369E+03  0.77751506699E+02  0.14661667652E+03  0.00000000000E+00 0.  1.
         11    1    4    4    0    0 -0.22652569941E+02  0.16779400792E+02 -0.79784445923E+01  0.29297487844E+02  0.00000000000E+00 0. -1.
        -15    1    3    3    0    0  0.90338483536E+02  0.86495341544E+02 -0.98034800058E+02  0.15892282866E+03  0.17770000000E+01 0.  1.
         15    1    3    3    0    0 -0.84692046231E+01  0.60163113569E+01  0.28261737951E+02  0.30163006984E+02  0.17770000000E+01 0.  1.
</event>
<event>
 8    1  0.2374062E-007  0.1855490E+03  0.7546771E-02  0.1066053E+00
        -11   -1    0    0    0    0  0.00000000000E+00  0.00000000000E+00  0.18250000000E+03  0.18250000000E+03  0.00000000000E+00 0. -1.
         11   -1    0    0    0    0 -0.00000000000E+00 -0.00000000000E+00 -0.18250000000E+03  0.18250000000E+03  0.00000000000E+00 0.  1.
         25    2    1    2    0    0 -0.54202055188E+02  0.19851128054E+02  0.12438709747E+03  0.18554900497E+03  0.12499741260E+03 0.  0.
         23    2    1    2    0    0  0.54202055188E+02 -0.19851128054E+02 -0.12438709747E+03  0.17945099503E+03  0.11575223336E+03 0.  0.
        -11    1    4    4    0    0  0.51154478730E+02  0.35375812336E+01  0.15738211590E+01  0.51300800074E+02  0.00000000000E+00 0. -1.
         11    1    4    4    0    0  0.30475764579E+01 -0.23388709287E+02 -0.12596091863E+03  0.12815019496E+03  0.00000000000E+00 0.  1.
        -15    1    3    3    0    0 -0.11192751067E+02  0.69640340152E+02  0.77064276779E+02  0.10448499958E+03  0.17770000000E+01 0. -1.
         15    1    3    3    0    0 -0.43009304122E+02 -0.49789212098E+02  0.47322820695E+02  0.81064005390E+02  0.17770000000E+01 0. -1.
</event>
<event>
 8    1  0.2374062E-007  0.1891273E+03  0.7546771E-02  0.1063299E+00
        -11   -1    0    0    0    0  0.00000000000E+00  0.00000000000E+00  0.18250000000E+03  0.18250000000E+03  0.00000000000E+00 0.  1.
         11   -1    0    0    0    0 -0.00000000000E+00 -0.00000000000E+00 -0.18250000000E+03  0.18250000000E+03  0.00000000000E+00 0. -1.
         25    2    1    2    0    0 -0.10810425686E+03 -0.46244988233E+02 -0.79492878055E+02  0.18912728544E+03  0.12499953260E+03 0.  0.
         23    2    1    2    0    0  0.10810425686E+03  0.46244988233E+02  0.79492878055E+02  0.17587271456E+03  0.10386031376E+03 0.  0.
        -11    1    4    4    0    0 -0.10037171770E+02  0.10644652560E+02  0.45635067450E+02  0.47922988497E+02  0.00000000000E+00 0.  1.
         11    1    4    4    0    0  0.11814142863E+03  0.35600335673E+02  0.33857810605E+02  0.12794972606E+03  0.00000000000E+00 0. -1.
        -15    1    3    3    0    0 -0.37672906810E+01 -0.65241844374E+02 -0.26264195283E+02  0.70453221496E+02  0.17770000000E+01 0.  1.
         15    1    3    3    0    0 -0.10433696618E+03  0.18996856140E+02 -0.53228682772E+02  0.11867406395E+03  0.17770000000E+01 0.  1.
</event>
<event>
 8    1  0.2374062E-007  0.1955621E+03  0.7546771E-02  0.1058508E+00
        -11   -1    0    0    0    0  0.00000000000E+00  0.00000000000E+00  0.18250000000E+03  0.18250000000E+03  0.00000000000E+00 0. -1.
         11   -1    0    0    0    0 -0.00000000000E+00 -0.00000000000E+00 -0.18250000000E+03  0.18250000000E+03  0.00000000000E+00 0.  1.
         25    2    1    2    0    0 -0.15197254343E+02  0.11115644483E+03 -0.10016417769E+03  0.19556208662E+03  0.12499982185E+03 0.  0.
         23    2    1    2    0    0  0.15197254343E+02 -0.11115644483E+03  0.10016417769E+03  0.16943791338E+03  0.78036095701E+02 0.  0.
        -11    1    4    4    0    0  0.18611821698E+02  0.43981860451E+01  0.51717060341E+01  0.19811372762E+02  0.00000000000E+00 0.  1.
         11    1    4    4    0    0 -0.34145673545E+01 -0.11555463087E+03  0.94992471660E+02  0.14962654062E+03  0.00000000000E+00 0. -1.
        -15    1    3    3    0    0 -0.36563865306E+02  0.64623086471E+02  0.91537925187E+01  0.74833209190E+02  0.17770000000E+01 0. -1.
         15    1    3    3    0    0  0.21366610963E+02  0.46533358358E+02 -0.10931797021E+03  0.12072887743E+03  0.17770000000E+01 0. -1.
</event>
<event>
 8    1  0.2374062E-007  0.1884937E+03  0.7546771E-02  0.1063781E+00
        -11   -1    0    0    0    0  0.00000000000E+00  0.00000000000E+00  0.18250000000E+03  0.18250000000E+03  0.00000000000E+00 0.  1.
         11   -1    0    0    0    0 -0.00000000000E+00 -0.00000000000E+00 -0.18250000000E+03  0.18250000000E+03  0.00000000000E+00 0. -1.
         25    2    1    2    0    0 -0.58264120373E+02  0.12847959045E+03 -0.19049491840E+01  0.18849370354E+03  0.12499813822E+03 0.  0.
         23    2    1    2    0    0  0.58264120373E+02 -0.12847959045E+03  0.19049491840E+01  0.17650629646E+03  0.10606192047E+03 0.  0.
        -11    1    4    4    0    0  0.17624679091E+02 -0.21484461160E+01  0.35430298271E+02  0.39630180032E+02  0.00000000000E+00 0.  1.
         11    1    4    4    0    0  0.40639441282E+02 -0.12633114433E+03 -0.33525349087E+02  0.13687611643E+03  0.00000000000E+00 0. -1.
        -15    1    3    3    0    0  0.60002366245E+01  0.23590804533E+01  0.40240431257E+02  0.40792378417E+02  0.17770000000E+01 0.  1.
         15    1    3    3    0    0 -0.64264356998E+02  0.12612051000E+03 -0.42145380441E+02  0.14770132513E+03  0.17770000000E+01 0.  1.
</event>
<event>
 7    1  0.2374062E-007  0.1631471E+03  0.7546771E-02  0.1084997E+00
        -11   -1    0    0    0    0  0.00000000000E+00  0.00000000000E+00  0.18250000000E+03  0.18250000000E+03  0.00000000000E+00 0. -1.
         11   -1    0    0    0    0 -0.00000000000E+00 -0.00000000000E+00 -0.18250000000E+03  0.18250000000E+03  0.00000000000E+00 0.  1.
         25    2    1    2    0    0 -0.29741007033E+02 -0.10518978781E+03  0.71226557338E+02  0.18068816717E+03  0.12500228928E+03 0.  0.
        -11    1    1    2    0    0  0.64652266094E+02  0.53349749779E+02  0.70812997582E+01  0.84120485726E+02  0.00000000000E+00 0. -1.
         11    1    1    2    0    0 -0.34911259061E+02  0.51840038029E+02 -0.78307857096E+02  0.10019134711E+03  0.00000000000E+00 0.  1.
        -15    1    3    3    0    0  0.37241421896E+01 -0.42974069596E+02 -0.33294879472E+02  0.54519231660E+02  0.17770000000E+01 0. -1.
         15    1    3    3    0    0 -0.33465149223E+02 -0.62215718212E+02  0.10452143681E+03  0.12616893551E+03  0.17770000000E+01 0. -1.
</event>
<event>
 7    1  0.2374062E-007  0.1603756E+03  0.7546771E-02  0.1087571E+00
        -11   -1    0    0    0    0  0.00000000000E+00  0.00000000000E+00  0.18250000000E+03  0.18250000000E+03  0.00000000000E+00 0. -1.
         11   -1    0    0    0    0 -0.00000000000E+00 -0.00000000000E+00 -0.18250000000E+03  0.18250000000E+03  0.00000000000E+00 0.  1.
         25    2    1    2    0    0  0.17238169478E+02  0.63528774866E+02 -0.11221708224E+03  0.18041397488E+03  0.12499387610E+03 0.  0.
        -11    1    1    2    0    0 -0.72103961949E+02 -0.43404077820E+02  0.44715332604E+02  0.95301396999E+02  0.00000000000E+00 0.  1.
         11    1    1    2    0    0  0.54865792471E+02 -0.20124697046E+02  0.67501749639E+02  0.89284628122E+02  0.00000000000E+00 0. -1.
        -15    1    3    3    0    0  0.49152505404E+02  0.82090510817E+02 -0.49815285383E+02  0.10788670511E+03  0.17770000000E+01 0. -1.
         15    1    3    3    0    0 -0.31914335926E+02 -0.18561735951E+02 -0.62401796859E+02  0.72527269764E+02  0.17770000000E+01 0. -1.
</event>
<event>
 7    1  0.2374062E-007  0.1663724E+03  0.7546771E-02  0.1082070E+00
        -11   -1    0    0    0    0  0.00000000000E+00  0.00000000000E+00  0.18250000000E+03  0.18250000000E+03  0.00000000000E+00 0. -1.
         11   -1    0    0    0    0 -0.00000000000E+00 -0.00000000000E+00 -0.18250000000E+03  0.18250000000E+03  0.00000000000E+00 0. -1.
         25    2    1    2    0    0  0.78122598568E+02  0.50348330571E+02  0.21573355120E+02  0.15725094982E+03  0.12499742705E+03 0.  0.
        -11    1    1    2    0    0 -0.91106164491E+02 -0.16808115529E+02 -0.90810337089E+02  0.12972803582E+03  0.00000000000E+00 0. -1.
         11    1    1    2    0    0  0.12983565923E+02 -0.33540215043E+02  0.69236981969E+02  0.78021014358E+02  0.00000000000E+00 0. -1.
        -15    1    3    3    0    0  0.32551343341E+02 -0.32500862830E+02  0.39901159993E+02  0.60919260795E+02  0.17770000000E+01 0. -1.
         15    1    3    3    0    0  0.45571255227E+02  0.82849193401E+02 -0.18327804873E+02  0.96331689026E+02  0.17770000000E+01 0. -1.
</event>
<event>
 8    1  0.2374062E-007  0.1845266E+03  0.7546771E-02  0.1066853E+00
        -11   -1    0    0    0    0  0.00000000000E+00  0.00000000000E+00  0.18250000000E+03  0.18250000000E+03  0.00000000000E+00 0. -1.
         11   -1    0    0    0    0 -0.00000000000E+00 -0.00000000000E+00 -0.18250000000E+03  0.18250000000E+03  0.00000000000E+00 0.  1.
         25    2    1    2    0    0  0.59122726903E+02  0.98365731410E+02  0.72487486567E+02  0.18452663938E+03  0.12499732389E+03 0.  0.
         23    2    1    2    0    0 -0.59122726903E+02 -0.98365731410E+02 -0.72487486567E+02  0.18047336062E+03  0.11893226742E+03 0.  0.
        -11    1    4    4    0    0  0.31222161228E+02 -0.56700315051E+02 -0.38636108672E+02  0.75382345227E+02  0.00000000000E+00 0.  1.
         11    1    4    4    0    0 -0.90344888130E+02 -0.41665416359E+02 -0.33851377895E+02  0.10509101540E+03  0.00000000000E+00 0. -1.
        -15    1    3    3    0    0  0.66026962139E+02 -0.30628052145E+01  0.42168748386E+02  0.78423858452E+02  0.17770000000E+01 0.  1.
         15    1    3    3    0    0 -0.69042352363E+01  0.10142853662E+03  0.30318738181E+02  0.10610278092E+03  0.17770000000E+01 0.  1.
</event>
<event>
 8    1  0.2374062E-007  0.1887579E+03  0.7546771E-02  0.1063580E+00
        -11   -1    0    0    0    0  0.00000000000E+00  0.00000000000E+00  0.18250000000E+03  0.18250000000E+03  0.00000000000E+00 0. -1.
         11   -1    0    0    0    0 -0.00000000000E+00 -0.00000000000E+00 -0.18250000000E+03  0.18250000000E+03  0.00000000000E+00 0.  1.
         25    2    1    2    0    0 -0.57626347117E+01  0.13822232186E+03 -0.29462789777E+02  0.18875785373E+03  0.12499141228E+03 0.  0.
         23    2    1    2    0    0  0.57626347117E+01 -0.13822232186E+03  0.29462789777E+02  0.17624214627E+03  0.10514095265E+03 0.  0.
        -11    1    4    4    0    0  0.41019646276E+02 -0.68003560212E+02 -0.21886633117E+02  0.82377911428E+02  0.00000000000E+00 0.  1.
         11    1    4    4    0    0 -0.35257011565E+02 -0.70218761644E+02  0.51349422895E+02  0.93864234844E+02  0.00000000000E+00 0. -1.
        -15    1    3    3    0    0 -0.16374691519E+02  0.26324740371E+02  0.44449486287E+02  0.54222108388E+02  0.17770000000E+01 0. -1.
         15    1    3    3    0    0  0.10612056807E+02  0.11189758149E+03 -0.73912276064E+02  0.13453574534E+03  0.17770000000E+01 0. -1.
</event>
<event>
 7    1  0.2374062E-007  0.1541386E+03  0.7546771E-02  0.1093580E+00
        -11   -1    0    0    0    0  0.00000000000E+00  0.00000000000E+00  0.18250000000E+03  0.18250000000E+03  0.00000000000E+00 0.  1.
         11   -1    0    0    0    0 -0.00000000000E+00 -0.00000000000E+00 -0.18250000000E+03  0.18250000000E+03  0.00000000000E+00 0.  1.
         25    2    1    2    0    0  0.35000170004E+02 -0.23788814257E+02  0.51981300227E+01  0.13206793762E+03  0.12499599997E+03 0.  0.
        -11    1    1    2    0    0 -0.13193585304E+03  0.11115272112E+00  0.85062665292E+01  0.13220982657E+03  0.00000000000E+00 0.  1.
         11    1    1    2    0    0  0.96935683035E+02  0.23677661536E+02 -0.13704396552E+02  0.10072223581E+03  0.00000000000E+00 0.  1.
        -15    1    3    3    0    0 -0.10985717918E+02 -0.56965116401E+02 -0.29966872173E+02  0.65321372012E+02  0.17770000000E+01 0. -1.
         15    1    3    3    0    0  0.45985887923E+02  0.33176302144E+02  0.35165002195E+02  0.66746565607E+02  0.17770000000E+01 0. -1.
</event>
<event>
 8    1  0.2374062E-007  0.1843322E+03  0.7546771E-02  0.1067006E+00
        -11   -1    0    0    0    0  0.00000000000E+00  0.00000000000E+00  0.18250000000E+03  0.18250000000E+03  0.00000000000E+00 0.  1.
         11   -1    0    0    0    0 -0.00000000000E+00 -0.00000000000E+00 -0.18250000000E+03  0.18250000000E+03  0.00000000000E+00 0. -1.
         25    2    1    2    0    0  0.12213872752E+03  0.49471834195E+02 -0.31432261105E+02  0.18433222955E+03  0.12500021070E+03 0.  0.
         23    2    1    2    0    0 -0.12213872752E+03 -0.49471834195E+02  0.31432261105E+02  0.18066777045E+03  0.11953043588E+03 0.  0.
        -11    1    4    4    0    0 -0.12280078416E+03 -0.17341126776E+02  0.59907077277E+02  0.13773018977E+03  0.00000000000E+00 0.  1.
         11    1    4    4    0    0  0.66205663214E+00 -0.32130707419E+02 -0.28474816172E+02  0.42937580675E+02  0.00000000000E+00 0. -1.
        -15    1    3    3    0    0  0.10393061665E+03  0.39384656588E+02 -0.76310181184E+02  0.13482998826E+03  0.17770000000E+01 0.  1.
         15    1    3    3    0    0  0.18208110870E+02  0.10087177607E+02  0.44877920079E+02  0.49502241294E+02  0.17770000000E+01 0.  1.
</event>
<event>
 8    1  0.2374062E-007  0.1857964E+03  0.7546771E-02  0.1065861E+00
        -11   -1    0    0    0    0  0.00000000000E+00  0.00000000000E+00  0.18250000000E+03  0.18250000000E+03  0.00000000000E+00 0.  1.
         11   -1    0    0    0    0 -0.00000000000E+00 -0.00000000000E+00 -0.18250000000E+03  0.18250000000E+03  0.00000000000E+00 0. -1.
         25    2    1    2    0    0  0.59860055177E+01  0.41857848092E+01  0.13726706703E+03  0.18579639223E+03  0.12499879447E+03 0.  0.
         23    2    1    2    0    0 -0.59860055177E+01 -0.41857848092E+01 -0.13726706703E+03  0.17920360777E+03  0.11497100631E+03 0.  0.
        -11    1    4    4    0    0  0.23397558096E+02 -0.43064204119E+02 -0.21348621417E+02  0.53457787437E+02  0.00000000000E+00 0.  1.
         11    1    4    4    0    0 -0.29383563613E+02  0.38878419310E+02 -0.11591844561E+03  0.12574582033E+03  0.00000000000E+00 0. -1.
        -15    1    3    3    0    0 -0.22620614525E+02 -0.33332177441E+02 -0.33102994898E+00  0.40323610506E+02  0.17770000000E+01 0. -1.
         15    1    3    3    0    0  0.28606620042E+02  0.37517962250E+02  0.13759809698E+03  0.14547278172E+03  0.17770000000E+01 0. -1.
</event>
<event>
 7    1  0.2374062E-007  0.1745337E+03  0.7546771E-02  0.1074979E+00
        -11   -1    0    0    0    0  0.00000000000E+00  0.00000000000E+00  0.18250000000E+03  0.18250000000E+03  0.00000000000E+00 0.  1.
         11   -1    0    0    0    0 -0.00000000000E+00 -0.00000000000E+00 -0.18250000000E+03  0.18250000000E+03  0.00000000000E+00 0. -1.
         25    2    1    2    0    0 -0.47959309466E+02  0.68926459102E+02 -0.68226153752E+02  0.16531790039E+03  0.12499699199E+03 0.  0.
        -11    1    1    2    0    0  0.13594252187E+02 -0.65752677387E+02  0.11997247076E+03  0.13748313357E+03  0.00000000000E+00 0.  1.
         11    1    1    2    0    0  0.34365057279E+02 -0.31737817158E+01 -0.51746317008E+02  0.62198966037E+02  0.00000000000E+00 0. -1.
        -15    1    3    3    0    0 -0.25079130076E+01 -0.34856060277E+02 -0.44032204176E+01  0.35267274416E+02  0.17770000000E+01 0. -1.
         15    1    3    3    0    0 -0.45451396459E+02  0.10378251938E+03 -0.63822933334E+02  0.13005062598E+03  0.17770000000E+01 0. -1.
</event>
<event>
 8    1  0.2374062E-007  0.1832598E+03  0.7546771E-02  0.1067852E+00
        -11   -1    0    0    0    0  0.00000000000E+00  0.00000000000E+00  0.18250000000E+03  0.18250000000E+03  0.00000000000E+00 0.  1.
         11   -1    0    0    0    0 -0.00000000000E+00 -0.00000000000E+00 -0.18250000000E+03  0.18250000000E+03  0.00000000000E+00 0. -1.
         25    2    1    2    0    0 -0.25466664710E+02 -0.20966084070E+02 -0.12988714251E+03  0.18325975970E+03  0.12500136816E+03 0.  0.
         23    2    1    2    0    0  0.25466664710E+02  0.20966084070E+02  0.12988714251E+03  0.18174024030E+03  0.12276285050E+03 0.  0.
        -11    1    4    4    0    0  0.36879925450E+02  0.52228280488E+02  0.13374017882E+03  0.14823750408E+03  0.00000000000E+00 0.  1.
         11    1    4    4    0    0 -0.11413260740E+02 -0.31262196418E+02 -0.38530363142E+01  0.33502736223E+02  0.00000000000E+00 0. -1.
        -15    1    3    3    0    0  0.30521730821E+02 -0.49806827296E+02 -0.94181783542E+02  0.11084070632E+03  0.17770000000E+01 0.  1.
         15    1    3    3    0    0 -0.55988395531E+02  0.28840743226E+02 -0.35705358967E+02  0.72419053377E+02  0.17770000000E+01 0.  1.
</event>
<event>
 7    1  0.2374062E-007  0.1753309E+03  0.7546771E-02  0.1074309E+00
        -11   -1    0    0    0    0  0.00000000000E+00  0.00000000000E+00  0.18250000000E+03  0.18250000000E+03  0.00000000000E+00 0. -1.
         11   -1    0    0    0    0 -0.00000000000E+00 -0.00000000000E+00 -0.18250000000E+03  0.18250000000E+03  0.00000000000E+00 0.  1.
         25    2    1    2    0    0 -0.72676819931E+02  0.93105490776E+02 -0.50537792055E+02  0.17924893131E+03  0.12500223351E+03 0.  0.
        -11    1    1    2    0    0 -0.26505516492E+02 -0.52658979497E+02 -0.14140731606E+02  0.60625661370E+02  0.00000000000E+00 0. -1.
         11    1    1    2    0    0  0.99182336423E+02 -0.40446511279E+02  0.64678523661E+02  0.12512540732E+03  0.00000000000E+00 0.  1.
        -15    1    3    3    0    0  0.12697876628E+02 -0.23033097497E+02 -0.16606836598E+02  0.31156129444E+02  0.17770000000E+01 0. -1.
         15    1    3    3    0    0 -0.85374696558E+02  0.11613858827E+03 -0.33930955457E+02  0.14809280187E+03  0.17770000000E+01 0. -1.
</event>
<event>
 8    1  0.2374062E-007  0.1962255E+03  0.7546771E-02  0.1058026E+00
        -11   -1    0    0    0    0  0.00000000000E+00  0.00000000000E+00  0.18250000000E+03  0.18250000000E+03  0.00000000000E+00 0.  1.
         11   -1    0    0    0    0 -0.00000000000E+00 -0.00000000000E+00 -0.18250000000E+03  0.18250000000E+03  0.00000000000E+00 0. -1.
         25    2    1    2    0    0 -0.10430244519E+02 -0.11926966739E+03 -0.92442120915E+02  0.19622552613E+03  0.12499947130E+03 0.  0.
         23    2    1    2    0    0  0.10430244519E+02  0.11926966739E+03  0.92442120915E+02  0.16877447387E+03  0.74868109050E+02 0.  0.
        -11    1    4    4    0    0  0.29400369472E+02  0.11313753423E+02  0.18100523089E+02  0.36331964958E+02  0.00000000000E+00 0. -1.
         11    1    4    4    0    0 -0.18970124953E+02  0.10795591396E+03  0.74341597826E+02  0.13244250891E+03  0.00000000000E+00 0.  1.
        -15    1    3    3    0    0  0.10169646084E+01 -0.46392495884E+02  0.28545778268E+02  0.54509788821E+02  0.17770000000E+01 0. -1.
         15    1    3    3    0    0 -0.11447209128E+02 -0.72877171501E+02 -0.12098789918E+03  0.14171573731E+03  0.17770000000E+01 0. -1.
</event>
<event>
 8    1  0.2374062E-007  0.1892257E+03  0.7546771E-02  0.1063224E+00
        -11   -1    0    0    0    0  0.00000000000E+00  0.00000000000E+00  0.18250000000E+03  0.18250000000E+03  0.00000000000E+00 0.  1.
         11   -1    0    0    0    0 -0.00000000000E+00 -0.00000000000E+00 -0.18250000000E+03  0.18250000000E+03  0.00000000000E+00 0. -1.
         25    2    1    2    0    0 -0.64856153805E+02  0.11276770928E+03 -0.57083256499E+02  0.18922570599E+03  0.12499997077E+03 0.  0.
         23    2    1    2    0    0  0.64856153805E+02 -0.11276770928E+03  0.57083256499E+02  0.17577429401E+03  0.10351438219E+03 0.  0.
        -11    1    4    4    0    0 -0.34048304349E+01 -0.88197524890E+02  0.89613172276E+01  0.88716973987E+02  0.00000000000E+00 0.  1.
         11    1    4    4    0    0  0.68260984240E+02 -0.24570184386E+02  0.48121939272E+02  0.87057320022E+02  0.00000000000E+00 0. -1.
        -15    1    3    3    0    0 -0.14746459830E+02  0.12725987513E+03 -0.37791908670E+02  0.13358113634E+03  0.17770000000E+01 0.  1.
         15    1    3    3    0    0 -0.50109693975E+02 -0.14492165856E+02 -0.19291347829E+02  0.55644569650E+02  0.17770000000E+01 0.  1.
</event>
<event>
 8    1  0.2374062E-007  0.1876437E+03  0.7546771E-02  0.1064433E+00
        -11   -1    0    0    0    0  0.00000000000E+00  0.00000000000E+00  0.18250000000E+03  0.18250000000E+03  0.00000000000E+00 0.  1.
         11   -1    0    0    0    0 -0.00000000000E+00 -0.00000000000E+00 -0.18250000000E+03  0.18250000000E+03  0.00000000000E+00 0. -1.
         25    2    1    2    0    0  0.12409566094E+03  0.40583637311E+02  0.50388904506E+02  0.18764372561E+03  0.12499744550E+03 0.  0.
         23    2    1    2    0    0 -0.12409566094E+03 -0.40583637311E+02 -0.50388904506E+02  0.17735627439E+03  0.10894696732E+03 0.  0.
        -11    1    4    4    0    0 -0.18355960669E+02 -0.18954711171E+02 -0.63375231665E+02  0.68648687943E+02  0.00000000000E+00 0. -1.
         11    1    4    4    0    0 -0.10573970027E+03 -0.21628926140E+02  0.12986327159E+02  0.10870758645E+03  0.00000000000E+00 0.  1.
        -15    1    3    3    0    0  0.50076687837E+02  0.78709780264E+02  0.65652470304E+01  0.93536967940E+02  0.17770000000E+01 0.  1.
         15    1    3    3    0    0  0.74018973099E+02 -0.38126142953E+02  0.43823657476E+02  0.94106757667E+02  0.17770000000E+01 0.  1.
</event>
<event>
 7    1  0.2374062E-007  0.2001588E+03  0.7546771E-02  0.1055207E+00
        -11   -1    0    0    0    0  0.00000000000E+00  0.00000000000E+00  0.18250000000E+03  0.18250000000E+03  0.00000000000E+00 0.  1.
         11   -1    0    0    0    0 -0.00000000000E+00 -0.00000000000E+00 -0.18250000000E+03  0.18250000000E+03  0.00000000000E+00 0. -1.
         25    2    1    2    0    0  0.67909483535E+01 -0.12718635051E+03 -0.90640145400E+02  0.20015881860E+03  0.12500172787E+03 0.  0.
        -11    1    1    2    0    0  0.10736114522E+02  0.78019435724E+02  0.28655033397E+02  0.83805772144E+02  0.00000000000E+00 0. -1.
         11    1    1    2    0    0 -0.17527062876E+02  0.49166914787E+02  0.61985112003E+02  0.81035409253E+02  0.00000000000E+00 0.  1.
        -15    1    3    3    0    0 -0.31851107611E+02 -0.12263800355E+02 -0.68978343672E+02  0.76980929327E+02  0.17770000000E+01 0.  1.
         15    1    3    3    0    0  0.38642055965E+02 -0.11492255016E+03 -0.21661801728E+02  0.12317788928E+03  0.17770000000E+01 0.  1.
</event>
<event>
 7    1  0.2374062E-007  0.1639458E+03  0.7546771E-02  0.1084265E+00
        -11   -1    0    0    0    0  0.00000000000E+00  0.00000000000E+00  0.18250000000E+03  0.18250000000E+03  0.00000000000E+00 0. -1.
         11   -1    0    0    0    0 -0.00000000000E+00 -0.00000000000E+00 -0.18250000000E+03  0.18250000000E+03  0.00000000000E+00 0. -1.
         25    2    1    2    0    0  0.27951424376E+02  0.61837817136E+02 -0.67539298466E+02  0.15745960565E+03  0.12500709109E+03 0.  0.
        -11    1    1    2    0    0  0.13644011156E+02 -0.12104988016E+03  0.27660363906E+02  0.12491728567E+03  0.00000000000E+00 0. -1.
         11    1    1    2    0    0 -0.41595435532E+02  0.59212063029E+02  0.39878934560E+02  0.82623108674E+02  0.00000000000E+00 0. -1.
        -15    1    3    3    0    0  0.73826064538E+02  0.45819059646E+02 -0.19418254799E+02  0.89049988099E+02  0.17770000000E+01 0. -1.
         15    1    3    3    0    0 -0.45874640162E+02  0.16018757489E+02 -0.48121043667E+02  0.68409617555E+02  0.17770000000E+01 0. -1.
</event>
<event>
 8    1  0.2374062E-007  0.1866835E+03  0.7546771E-02  0.1065173E+00
        -11   -1    0    0    0    0  0.00000000000E+00  0.00000000000E+00  0.18250000000E+03  0.18250000000E+03  0.00000000000E+00 0. -1.
         11   -1    0    0    0    0 -0.00000000000E+00 -0.00000000000E+00 -0.18250000000E+03  0.18250000000E+03  0.00000000000E+00 0.  1.
         25    2    1    2    0    0 -0.99638372081E+02 -0.90769067695E+02 -0.32565678509E+02  0.18668354531E+03  0.12499357516E+03 0.  0.
         23    2    1    2    0    0  0.99638372081E+02  0.90769067695E+02  0.32565678509E+02  0.17831645469E+03  0.11211336118E+03 0.  0.
        -11    1    4    4    0    0  0.87180108148E+02  0.11274520546E+03  0.74809578729E+01  0.14271586227E+03  0.00000000000E+00 0.  1.
         11    1    4    4    0    0  0.12458263933E+02 -0.21976137768E+02  0.25084720636E+02  0.35600592422E+02  0.00000000000E+00 0. -1.
        -15    1    3    3    0    0 -0.79960792564E+02 -0.94021576117E+02  0.24816643416E+02  0.12590793717E+03  0.17770000000E+01 0.  1.
         15    1    3    3    0    0 -0.19677579517E+02  0.32525084217E+01 -0.57382321924E+02  0.60775608143E+02  0.17770000000E+01 0.  1.
</event>
<event>
 8    1  0.2374062E-007  0.1834623E+03  0.7546771E-02  0.1067691E+00
        -11   -1    0    0    0    0  0.00000000000E+00  0.00000000000E+00  0.18250000000E+03  0.18250000000E+03  0.00000000000E+00 0. -1.
         11   -1    0    0    0    0 -0.00000000000E+00 -0.00000000000E+00 -0.18250000000E+03  0.18250000000E+03  0.00000000000E+00 0. -1.
         25    2    1    2    0    0 -0.10177351374E+03  0.48706824052E+02 -0.72830289032E+02  0.18346229298E+03  0.12499583648E+03 0.  0.
         23    2    1    2    0    0  0.10177351374E+03 -0.48706824052E+02  0.72830289032E+02  0.18153770702E+03  0.12215353151E+03 0.  0.
        -11    1    4    4    0    0  0.10239200367E+03  0.11292689528E+02  0.62957549108E+02  0.12072820815E+03  0.00000000000E+00 0. -1.
         11    1    4    4    0    0 -0.61848993035E+00 -0.59999513579E+02  0.98727399235E+01  0.60809498872E+02  0.00000000000E+00 0. -1.
        -15    1    3    3    0    0  0.29157394939E+02  0.75569548474E+01 -0.58514723405E+01  0.30735300612E+02  0.17770000000E+01 0.  1.
         15    1    3    3    0    0 -0.13093090868E+03  0.41149869204E+02 -0.66978816691E+02  0.15272699237E+03  0.17770000000E+01 0.  1.
</event>
<event>
 8    1  0.2637105E-007  0.1874124E+03  0.7546771E-02  0.1064610E+00
        -11   -1    0    0    0    0  0.00000000000E+00  0.00000000000E+00  0.18250000000E+03  0.18250000000E+03  0.00000000000E+00 0.  1.
         11   -1    0    0    0    0 -0.00000000000E+00 -0.00000000000E+00 -0.18250000000E+03  0.18250000000E+03  0.00000000000E+00 0. -1.
         25    2    1    2    0    0  0.92995614929E+02 -0.56804171132E+02 -0.87313255225E+02  0.18741241502E+03  0.12499964205E+03 0.  0.
         23    2    1    2    0    0 -0.92995614929E+02  0.56804171132E+02  0.87313255225E+02  0.17758758498E+03  0.10972168220E+03 0.  0.
        -11    1    4    4    0    0 -0.75954185468E+02  0.48323372155E+02  0.11371744330E+03  0.14503738655E+03  0.00000000000E+00 0.  1.
         11    1    4    4    0    0 -0.17041429461E+02  0.84807989762E+01 -0.26404188078E+02  0.32550198423E+02  0.00000000000E+00 0. -1.
        -15    1    3    3    0    0  0.31170920336E+02  0.30838679533E+02  0.71695669996E+01  0.44465839134E+02  0.17770000000E+01 0. -1.
         15    1    3    3    0    0  0.61824694593E+02 -0.87642850664E+02 -0.94482822225E+02  0.14294657589E+03  0.17770000000E+01 0. -1.
</event>
<event>
 8    1  0.2374062E-007  0.1862321E+03  0.7546771E-02  0.1065522E+00
        -11   -1    0    0    0    0  0.00000000000E+00  0.00000000000E+00  0.18250000000E+03  0.18250000000E+03  0.00000000000E+00 0.  1.
         11   -1    0    0    0    0 -0.00000000000E+00 -0.00000000000E+00 -0.18250000000E+03  0.18250000000E+03  0.00000000000E+00 0. -1.
         25    2    1    2    0    0  0.12761804321E+01 -0.13433052629E+03 -0.31788562564E+02  0.18623211361E+03  0.12500227398E+03 0.  0.
         23    2    1    2    0    0 -0.12761804321E+01  0.13433052629E+03  0.31788562564E+02  0.17876788639E+03  0.11358312182E+03 0.  0.
        -11    1    4    4    0    0  0.45238095817E+02  0.64398447342E+02  0.49445313205E+02  0.92943446951E+02  0.00000000000E+00 0.  1.
         11    1    4    4    0    0 -0.46514276249E+02  0.69932078949E+02 -0.17656750641E+02  0.85824439435E+02  0.00000000000E+00 0. -1.
        -15    1    3    3    0    0 -0.22836422164E+02 -0.14724458031E+03 -0.45195160660E+02  0.15571842821E+03  0.17770000000E+01 0.  1.
         15    1    3    3    0    0  0.24112602596E+02  0.12914054022E+02  0.13406598096E+02  0.30513685401E+02  0.17770000000E+01 0.  1.
</event>
<event>
 8    1  0.2374062E-007  0.1953962E+03  0.7546771E-02  0.1058629E+00
        -11   -1    0    0    0    0  0.00000000000E+00  0.00000000000E+00  0.18250000000E+03  0.18250000000E+03  0.00000000000E+00 0. -1.
         11   -1    0    0    0    0 -0.00000000000E+00 -0.00000000000E+00 -0.18250000000E+03  0.18250000000E+03  0.00000000000E+00 0.  1.
         25    2    1    2    0    0  0.32655034448E+02  0.41908618257E+02 -0.14047175336E+03  0.19539623299E+03  0.12499876326E+03 0.  0.
         23    2    1    2    0    0 -0.32655034448E+02 -0.41908618257E+02  0.14047175336E+03  0.16960376701E+03  0.78806349578E+02 0.  0.
        -11    1    4    4    0    0  0.11141162840E+02 -0.25725264916E+02  0.80129873975E+01  0.29156864226E+02  0.00000000000E+00 0.  1.
         11    1    4    4    0    0 -0.43796197288E+02 -0.16183353340E+02  0.13245876596E+03  0.14044690278E+03  0.00000000000E+00 0. -1.
        -15    1    3    3    0    0  0.71540894118E+02  0.58443830971E+02 -0.10763243997E+03  0.14185091037E+03  0.17770000000E+01 0. -1.
         15    1    3    3    0    0 -0.38885859670E+02 -0.16535212714E+02 -0.32839313388E+02  0.53545322621E+02  0.17770000000E+01 0. -1.
</event>
<event>
 8    1  0.2374062E-007  0.1850439E+03  0.7546771E-02  0.1066448E+00
        -11   -1    0    0    0    0  0.00000000000E+00  0.00000000000E+00  0.18250000000E+03  0.18250000000E+03  0.00000000000E+00 0. -1.
         11   -1    0    0    0    0 -0.00000000000E+00 -0.00000000000E+00 -0.18250000000E+03  0.18250000000E+03  0.00000000000E+00 0. -1.
         25    2    1    2    0    0 -0.83802957966E+01 -0.87700504604E+02  0.10417358158E+03  0.18504385645E+03  0.12500994298E+03 0.  0.
         23    2    1    2    0    0  0.83802957966E+01  0.87700504604E+02 -0.10417358158E+03  0.17995614355E+03  0.11734764862E+03 0.  0.
        -11    1    4    4    0    0  0.62798770010E+02  0.52944578192E+02 -0.60087688108E+02  0.10177103781E+03  0.00000000000E+00 0. -1.
         11    1    4    4    0    0 -0.54418474213E+02  0.34755926412E+02 -0.44085893473E+02  0.78185105741E+02  0.00000000000E+00 0. -1.
        -15    1    3    3    0    0 -0.50805193078E+02 -0.65723308247E+02  0.15818854915E+02  0.84582000393E+02  0.17770000000E+01 0. -1.
         15    1    3    3    0    0  0.42424897281E+02 -0.21977196357E+02  0.88354726666E+02  0.10046185606E+03  0.17770000000E+01 0. -1.
</event>
<event>
 8    1  0.2374062E-007  0.1866524E+03  0.7546771E-02  0.1065197E+00
        -11   -1    0    0    0    0  0.00000000000E+00  0.00000000000E+00  0.18250000000E+03  0.18250000000E+03  0.00000000000E+00 0. -1.
         11   -1    0    0    0    0 -0.00000000000E+00 -0.00000000000E+00 -0.18250000000E+03  0.18250000000E+03  0.00000000000E+00 0.  1.
         25    2    1    2    0    0 -0.36060343092E+02 -0.91016289016E+02  0.98132247539E+02  0.18665239241E+03  0.12499945750E+03 0.  0.
         23    2    1    2    0    0  0.36060343092E+02  0.91016289016E+02 -0.98132247539E+02  0.17834760759E+03  0.11222128994E+03 0.  0.
        -11    1    4    4    0    0  0.29900136221E+02  0.63461741250E+02  0.60442828775E+01  0.70412670053E+02  0.00000000000E+00 0. -1.
         11    1    4    4    0    0  0.61602068719E+01  0.27554547766E+02 -0.10417653042E+03  0.10793493754E+03  0.00000000000E+00 0.  1.
        -15    1    3    3    0    0  0.25949892287E+01 -0.11330252880E+03  0.78482069489E+02  0.13786511510E+03  0.17770000000E+01 0.  1.
         15    1    3    3    0    0 -0.38655332321E+02  0.22286239787E+02  0.19650178050E+02  0.48787277308E+02  0.17770000000E+01 0.  1.
</event>
<event>
 7    1  0.2374062E-007  0.1484900E+03  0.7546771E-02  0.1099297E+00
        -11   -1    0    0    0    0  0.00000000000E+00  0.00000000000E+00  0.18250000000E+03  0.18250000000E+03  0.00000000000E+00 0.  1.
         11   -1    0    0    0    0 -0.00000000000E+00 -0.00000000000E+00 -0.18250000000E+03  0.18250000000E+03  0.00000000000E+00 0.  1.
         25    2    1    2    0    0  0.30936532815E+02 -0.13112303651E+02 -0.47349848390E+02  0.13781915942E+03  0.12499244374E+03 0.  0.
        -11    1    1    2    0    0  0.53403907115E+02 -0.40979200849E+02  0.94839447200E+02  0.11630044257E+03  0.00000000000E+00 0.  1.
         11    1    1    2    0    0 -0.84340439930E+02  0.54091504500E+02 -0.47489598810E+02  0.11088039801E+03  0.00000000000E+00 0.  1.
        -15    1    3    3    0    0  0.71017854873E+02  0.16077972690E+02 -0.49650854185E+02  0.88149883532E+02  0.17770000000E+01 0.  1.
         15    1    3    3    0    0 -0.40081322057E+02 -0.29190276341E+02  0.23010057942E+01  0.49669275890E+02  0.17770000000E+01 0.  1.
</event>
<event>
 8    1  0.2374062E-007  0.1828407E+03  0.7546771E-02  0.1068184E+00
        -11   -1    0    0    0    0  0.00000000000E+00  0.00000000000E+00  0.18250000000E+03  0.18250000000E+03  0.00000000000E+00 0.  1.
         11   -1    0    0    0    0 -0.00000000000E+00 -0.00000000000E+00 -0.18250000000E+03  0.18250000000E+03  0.00000000000E+00 0. -1.
         25    2    1    2    0    0 -0.13082070005E+03  0.20734939892E+02  0.40602263610E+01  0.18215932352E+03  0.12498616088E+03 0.  0.
         23    2    1    2    0    0  0.13082070005E+03 -0.20734939892E+02 -0.40602263610E+01  0.18284067648E+03  0.12597711793E+03 0.  0.
        -11    1    4    4    0    0  0.11158055601E+03 -0.52386899336E+02 -0.41606029707E+02  0.13009869104E+03  0.00000000000E+00 0. -1.
         11    1    4    4    0    0  0.19240144044E+02  0.31651959444E+02  0.37545803346E+02  0.52741985442E+02  0.00000000000E+00 0.  1.
        -15    1    3    3    0    0 -0.54336648377E+02  0.54217163964E+02  0.45167156255E+02  0.89079750551E+02  0.17770000000E+01 0. -1.
         15    1    3    3    0    0 -0.76484051678E+02 -0.33482224072E+02 -0.41106929894E+02  0.93079572969E+02  0.17770000000E+01 0. -1.
</event>
<event>
 8    1  0.2374062E-007  0.1861805E+03  0.7546771E-02  0.1065562E+00
        -11   -1    0    0    0    0  0.00000000000E+00  0.00000000000E+00  0.18250000000E+03  0.18250000000E+03  0.00000000000E+00 0.  1.
         11   -1    0    0    0    0 -0.00000000000E+00 -0.00000000000E+00 -0.18250000000E+03  0.18250000000E+03  0.00000000000E+00 0. -1.
         25    2    1    2    0    0  0.69813499795E+02  0.10827743131E+03  0.49394594394E+02  0.18618054742E+03  0.12500177358E+03 0.  0.
         23    2    1    2    0    0 -0.69813499795E+02 -0.10827743131E+03 -0.49394594394E+02  0.17881945258E+03  0.11374815946E+03 0.  0.
        -11    1    4    4    0    0  0.11018507738E+02 -0.37212998832E+02  0.26612759559E+02  0.47057983023E+02  0.00000000000E+00 0.  1.
         11    1    4    4    0    0 -0.80832007533E+02 -0.71064432477E+02 -0.76007353953E+02  0.13176146956E+03  0.00000000000E+00 0. -1.
        -15    1    3    3    0    0  0.50777488420E+02  0.37424028818E+01  0.60774961244E+02  0.79303925204E+02  0.17770000000E+01 0. -1.
         15    1    3    3    0    0  0.19036011375E+02  0.10453502843E+03 -0.11380366849E+02  0.10687662222E+03  0.17770000000E+01 0. -1.
</event>
<event>
 8    1  0.2374062E-007  0.1870372E+03  0.7546771E-02  0.1064900E+00
        -11   -1    0    0    0    0  0.00000000000E+00  0.00000000000E+00  0.18250000000E+03  0.18250000000E+03  0.00000000000E+00 0.  1.
         11   -1    0    0    0    0 -0.00000000000E+00 -0.00000000000E+00 -0.18250000000E+03  0.18250000000E+03  0.00000000000E+00 0. -1.
         25    2    1    2    0    0 -0.64089546285E+02 -0.11020796915E+03  0.55722611179E+02  0.18703718391E+03  0.12499852944E+03 0.  0.
         23    2    1    2    0    0  0.64089546285E+02  0.11020796915E+03 -0.55722611179E+02  0.17796281609E+03  0.11096165151E+03 0.  0.
        -11    1    4    4    0    0  0.46627034575E+02  0.69884916024E+02  0.23616256520E+02  0.87268032022E+02  0.00000000000E+00 0.  1.
         11    1    4    4    0    0  0.17462511711E+02  0.40323053128E+02 -0.79338867699E+02  0.90694784064E+02  0.00000000000E+00 0. -1.
        -15    1    3    3    0    0  0.40330992784E+01  0.19737580742E+02  0.32791205489E+02  0.38526080384E+02  0.17770000000E+01 0.  1.
         15    1    3    3    0    0 -0.68122645564E+02 -0.12994554989E+03  0.22931405690E+02  0.14851110353E+03  0.17770000000E+01 0.  1.
</event>
<event>
 7    1  0.2374062E-007  0.1597088E+03  0.7546771E-02  0.1088199E+00
        -11   -1    0    0    0    0  0.00000000000E+00  0.00000000000E+00  0.18250000000E+03  0.18250000000E+03  0.00000000000E+00 0. -1.
         11   -1    0    0    0    0 -0.00000000000E+00 -0.00000000000E+00 -0.18250000000E+03  0.18250000000E+03  0.00000000000E+00 0.  1.
         25    2    1    2    0    0  0.81681402383E+01 -0.10343594872E+03  0.38455684072E+02  0.16694280970E+03  0.12500139227E+03 0.  0.
        -11    1    1    2    0    0  0.75857289521E+02  0.49386699913E+02  0.13087177199E+01  0.90526721160E+02  0.00000000000E+00 0. -1.
         11    1    1    2    0    0 -0.84025429760E+02  0.54049248811E+02 -0.39764401792E+02  0.10753046914E+03  0.00000000000E+00 0.  1.
        -15    1    3    3    0    0 -0.53836260171E+02 -0.79085717942E+02  0.25921561453E+02  0.99136162770E+02  0.17770000000E+01 0.  1.
         15    1    3    3    0    0  0.62004400409E+02 -0.24350230783E+02  0.12534122620E+02  0.67806646932E+02  0.17770000000E+01 0.  1.
</event>
<event>
 8    1  0.2374062E-007  0.1958343E+03  0.7546771E-02  0.1058310E+00
        -11   -1    0    0    0    0  0.00000000000E+00  0.00000000000E+00  0.18250000000E+03  0.18250000000E+03  0.00000000000E+00 0. -1.
         11   -1    0    0    0    0 -0.00000000000E+00 -0.00000000000E+00 -0.18250000000E+03  0.18250000000E+03  0.00000000000E+00 0.  1.
         25    2    1    2    0    0  0.13798988205E+03  0.37254419071E+02 -0.47894785167E+02  0.19583426149E+03  0.12501219235E+03 0.  0.
         23    2    1    2    0    0 -0.13798988205E+03 -0.37254419071E+02  0.47894785167E+02  0.16916573851E+03  0.76772634130E+02 0.  0.
        -11    1    4    4    0    0 -0.80579236845E+02 -0.45510352263E+02  0.59492716937E+02  0.11001631216E+03  0.00000000000E+00 0. -1.
         11    1    4    4    0    0 -0.57410645209E+02  0.82559331924E+01 -0.11597931770E+02  0.59149426350E+02  0.00000000000E+00 0.  1.
        -15    1    3    3    0    0  0.13706037559E+03  0.56527385612E+02 -0.72065010327E+02  0.16485574095E+03  0.17770000000E+01 0.  1.
         15    1    3    3    0    0  0.92950646471E+00 -0.19272966541E+02  0.24170225160E+02  0.30978520540E+02  0.17770000000E+01 0.  1.
</event>
<event>
 8    1  0.2374062E-007  0.1954341E+03  0.7546771E-02  0.1058601E+00
        -11   -1    0    0    0    0  0.00000000000E+00  0.00000000000E+00  0.18250000000E+03  0.18250000000E+03  0.00000000000E+00 0. -1.
         11   -1    0    0    0    0 -0.00000000000E+00 -0.00000000000E+00 -0.18250000000E+03  0.18250000000E+03  0.00000000000E+00 0.  1.
         25    2    1    2    0    0 -0.97886636958E+02 -0.56371660373E+02 -0.99043671036E+02  0.19543412668E+03  0.12500116524E+03 0.  0.
         23    2    1    2    0    0  0.97886636958E+02  0.56371660373E+02  0.99043671036E+02  0.16956587332E+03  0.78634463390E+02 0.  0.
        -11    1    4    4    0    0  0.37244162030E+02 -0.30698550607E+01 -0.21882526858E+01  0.37434476960E+02  0.00000000000E+00 0.  1.
         11    1    4    4    0    0  0.60642474928E+02  0.59441515434E+02  0.10123192372E+03  0.13213139636E+03  0.00000000000E+00 0. -1.
        -15    1    3    3    0    0 -0.10418031215E+03 -0.86614010071E+02 -0.67986034771E+02  0.15159413852E+03  0.17770000000E+01 0.  1.
         15    1    3    3    0    0  0.62936751956E+01  0.30242349698E+02 -0.31057636265E+02  0.43839988163E+02  0.17770000000E+01 0.  1.
</event>
<event>
 8    1  0.2374062E-007  0.1890318E+03  0.7546771E-02  0.1063371E+00
        -11   -1    0    0    0    0  0.00000000000E+00  0.00000000000E+00  0.18250000000E+03  0.18250000000E+03  0.00000000000E+00 0. -1.
         11   -1    0    0    0    0 -0.00000000000E+00 -0.00000000000E+00 -0.18250000000E+03  0.18250000000E+03  0.00000000000E+00 0. -1.
         25    2    1    2    0    0 -0.67512784205E+02 -0.12191285209E+03 -0.26231735983E+02  0.18903181830E+03  0.12499681924E+03 0.  0.
         23    2    1    2    0    0  0.67512784205E+02  0.12191285209E+03  0.26231735983E+02  0.17596818170E+03  0.10419202206E+03 0.  0.
        -11    1    4    4    0    0  0.18742534430E+02  0.11155695923E+03  0.46292367024E+02  0.12222610602E+03  0.00000000000E+00 0. -1.
         11    1    4    4    0    0  0.48770249775E+02  0.10355892864E+02 -0.20060631041E+02  0.53742075675E+02  0.00000000000E+00 0. -1.
        -15    1    3    3    0    0 -0.69402876505E+02 -0.23730089276E+02  0.25937999470E+02  0.77819110440E+02  0.17770000000E+01 0. -1.
         15    1    3    3    0    0  0.18900923002E+01 -0.98182762817E+02 -0.52169735453E+02  0.11121270786E+03  0.17770000000E+01 0. -1.
</event>
<event>
 8    1  0.2374062E-007  0.1879120E+03  0.7546771E-02  0.1064227E+00
        -11   -1    0    0    0    0  0.00000000000E+00  0.00000000000E+00  0.18250000000E+03  0.18250000000E+03  0.00000000000E+00 0.  1.
         11   -1    0    0    0    0 -0.00000000000E+00 -0.00000000000E+00 -0.18250000000E+03  0.18250000000E+03  0.00000000000E+00 0. -1.
         25    2    1    2    0    0  0.12327850795E+03  0.18453879409E+02  0.64417531608E+02  0.18791197745E+03  0.12499262659E+03 0.  0.
         23    2    1    2    0    0 -0.12327850795E+03 -0.18453879409E+02 -0.64417531608E+02  0.17708802255E+03  0.10803894282E+03 0.  0.
        -11    1    4    4    0    0 -0.19768898983E+02  0.28748465425E+02  0.15378661938E+02  0.38128557201E+02  0.00000000000E+00 0.  1.
         11    1    4    4    0    0 -0.10350960897E+03 -0.47202344833E+02 -0.79796193546E+02  0.13895946535E+03  0.00000000000E+00 0. -1.
        -15    1    3    3    0    0  0.54658744923E+02  0.31581626699E+02 -0.30427449294E+02  0.70099678609E+02  0.17770000000E+01 0. -1.
         15    1    3    3    0    0  0.68619763025E+02 -0.13127747290E+02  0.94844980902E+02  0.11781229884E+03  0.17770000000E+01 0. -1.
</event>
<event>
 8    1  0.2374062E-007  0.1831864E+03  0.7546771E-02  0.1067910E+00
        -11   -1    0    0    0    0  0.00000000000E+00  0.00000000000E+00  0.18250000000E+03  0.18250000000E+03  0.00000000000E+00 0. -1.
         11   -1    0    0    0    0 -0.00000000000E+00 -0.00000000000E+00 -0.18250000000E+03  0.18250000000E+03  0.00000000000E+00 0.  1.
         25    2    1    2    0    0 -0.10892982464E+03 -0.35613694553E+02  0.69297186983E+02  0.18318644966E+03  0.12498453217E+03 0.  0.
         23    2    1    2    0    0  0.10892982464E+03  0.35613694553E+02 -0.69297186983E+02  0.18181355034E+03  0.12296351096E+03 0.  0.
        -11    1    4    4    0    0  0.10726612585E+02  0.64367695448E+02 -0.33917573969E+02  0.73543607872E+02  0.00000000000E+00 0.  1.
         11    1    4    4    0    0  0.98203212051E+02 -0.28754000896E+02 -0.35379613014E+02  0.10826994247E+03  0.00000000000E+00 0. -1.
        -15    1    3    3    0    0 -0.13217939018E+03 -0.31712773447E+02  0.33035143999E+02  0.13989842621E+03  0.17770000000E+01 0. -1.
         15    1    3    3    0    0  0.23249565548E+02 -0.39009211057E+01  0.36262042984E+02  0.43288023448E+02  0.17770000000E+01 0. -1.
</event>
<event>
 8    1  0.2374062E-007  0.1870933E+03  0.7546771E-02  0.1064856E+00
        -11   -1    0    0    0    0  0.00000000000E+00  0.00000000000E+00  0.18250000000E+03  0.18250000000E+03  0.00000000000E+00 0.  1.
         11   -1    0    0    0    0 -0.00000000000E+00 -0.00000000000E+00 -0.18250000000E+03  0.18250000000E+03  0.00000000000E+00 0. -1.
         25    2    1    2    0    0  0.78923710821E+01 -0.37441191913E+02 -0.13384607911E+03  0.18709326886E+03  0.12499994395E+03 0.  0.
         23    2    1    2    0    0 -0.78923710821E+01  0.37441191913E+02  0.13384607911E+03  0.17790673114E+03  0.11077860678E+03 0.  0.
        -11    1    4    4    0    0  0.39497084825E+02 -0.16963059957E+02  0.34460079401E+02  0.55093213604E+02  0.00000000000E+00 0. -1.
         11    1    4    4    0    0 -0.47389455908E+02  0.54404251870E+02  0.99385999705E+02  0.12281351754E+03  0.00000000000E+00 0.  1.
        -15    1    3    3    0    0 -0.16181112193E+02  0.16538124961E+01 -0.13980716671E+03  0.14076137638E+03  0.17770000000E+01 0. -1.
         15    1    3    3    0    0  0.24073483275E+02 -0.39095004409E+02  0.59610876004E+01  0.46331892483E+02  0.17770000000E+01 0. -1.
</event>
<event>
 8    1  0.2374062E-007  0.1961457E+03  0.7546771E-02  0.1058084E+00
        -11   -1    0    0    0    0  0.00000000000E+00  0.00000000000E+00  0.18250000000E+03  0.18250000000E+03  0.00000000000E+00 0.  1.
         11   -1    0    0    0    0 -0.00000000000E+00 -0.00000000000E+00 -0.18250000000E+03  0.18250000000E+03  0.00000000000E+00 0. -1.
         25    2    1    2    0    0 -0.13225025585E+03  0.39753782763E+02 -0.61473807631E+02  0.19614570888E+03  0.12499446657E+03 0.  0.
         23    2    1    2    0    0  0.13225025585E+03 -0.39753782763E+02  0.61473807631E+02  0.16885429112E+03  0.75247918165E+02 0.  0.
        -11    1    4    4    0    0  0.78132313161E+02  0.68733956812E+01  0.64757954466E+01  0.78700939351E+02  0.00000000000E+00 0.  1.
         11    1    4    4    0    0  0.54117942685E+02 -0.46627178444E+02  0.54998012185E+02  0.90153351765E+02  0.00000000000E+00 0. -1.
        -15    1    3    3    0    0 -0.11995551072E+03  0.67641331167E+02 -0.81122892592E+02  0.15983978123E+03  0.17770000000E+01 0.  1.
         15    1    3    3    0    0 -0.12294745127E+02 -0.27887548403E+02  0.19649084961E+02  0.36305927649E+02  0.17770000000E+01 0.  1.
</event>
<event>
 8    1  0.2374062E-007  0.1830237E+03  0.7546771E-02  0.1068039E+00
        -11   -1    0    0    0    0  0.00000000000E+00  0.00000000000E+00  0.18250000000E+03  0.18250000000E+03  0.00000000000E+00 0. -1.
         11   -1    0    0    0    0 -0.00000000000E+00 -0.00000000000E+00 -0.18250000000E+03  0.18250000000E+03  0.00000000000E+00 0.  1.
         25    2    1    2    0    0 -0.86195543521E+02 -0.97766745466E+02  0.29761807218E+02  0.18302374281E+03  0.12499566802E+03 0.  0.
         23    2    1    2    0    0  0.86195543521E+02  0.97766745466E+02 -0.29761807218E+02  0.18197625719E+03  0.12345681337E+03 0.  0.
        -11    1    4    4    0    0  0.10543222206E+03  0.34755548719E+02 -0.35457453306E+01  0.11106968050E+03  0.00000000000E+00 0. -1.
         11    1    4    4    0    0 -0.19236678542E+02  0.63011196747E+02 -0.26216061887E+02  0.70906576688E+02  0.00000000000E+00 0.  1.
        -15    1    3    3    0    0  0.24413379360E+02 -0.21963176141E+02  0.36019573708E+02  0.48774600122E+02  0.17770000000E+01 0. -1.
         15    1    3    3    0    0 -0.11060892288E+03 -0.75803569325E+02 -0.62577664907E+01  0.13424914269E+03  0.17770000000E+01 0. -1.
</event>
<event>
 7    1  0.2374062E-007  0.1527314E+03  0.7546771E-02  0.1094978E+00
        -11   -1    0    0    0    0  0.00000000000E+00  0.00000000000E+00  0.18250000000E+03  0.18250000000E+03  0.00000000000E+00 0.  1.
         11   -1    0    0    0    0 -0.00000000000E+00 -0.00000000000E+00 -0.18250000000E+03  0.18250000000E+03  0.00000000000E+00 0. -1.
         25    2    1    2    0    0  0.77147199693E+02  0.61796035175E+01  0.52413829158E+02  0.15608435308E+03  0.12500095148E+03 0.  0.
        -11    1    1    2    0    0  0.10031922543E+02 -0.36878559702E+02 -0.98486866408E+02  0.10564246537E+03  0.00000000000E+00 0. -1.
         11    1    1    2    0    0 -0.87179122235E+02  0.30698956184E+02  0.46073037250E+02  0.10327318154E+03  0.00000000000E+00 0.  1.
        -15    1    3    3    0    0  0.60094668931E+02 -0.11340061733E+02 -0.31393708495E+02  0.68765462960E+02  0.17770000000E+01 0.  1.
         15    1    3    3    0    0  0.17052530762E+02  0.17519665250E+02  0.83807537653E+02  0.87318890123E+02  0.17770000000E+01 0.  1.
</event>
<event>
 8    1  0.2374062E-007  0.1890161E+03  0.7546771E-02  0.1063383E+00
        -11   -1    0    0    0    0  0.00000000000E+00  0.00000000000E+00  0.18250000000E+03  0.18250000000E+03  0.00000000000E+00 0. -1.
         11   -1    0    0    0    0 -0.00000000000E+00 -0.00000000000E+00 -0.18250000000E+03  0.18250000000E+03  0.00000000000E+00 0.  1.
         25    2    1    2    0    0 -0.88439418409E+02  0.73780858391E+02 -0.82697876247E+02  0.18901607778E+03  0.12499197227E+03 0.  0.
         23    2    1    2    0    0  0.88439418409E+02 -0.73780858391E+02  0.82697876247E+02  0.17598392222E+03  0.10424133705E+03 0.  0.
        -11    1    4    4    0    0  0.40522512820E+02 -0.79162803120E+02  0.90792589879E+02  0.12709098245E+03  0.00000000000E+00 0.  1.
         11    1    4    4    0    0  0.47916905589E+02  0.53819447294E+01 -0.80947136323E+01  0.48892939767E+02  0.00000000000E+00 0. -1.
        -15    1    3    3    0    0 -0.10774744226E+02  0.23206470185E+02  0.32341799900E+02  0.41276932073E+02  0.17770000000E+01 0. -1.
         15    1    3    3    0    0 -0.77664674183E+02  0.50574388206E+02 -0.11503967615E+03  0.14773914571E+03  0.17770000000E+01 0. -1.
</event>
<event>
 7    1  0.2374062E-007  0.1624056E+03  0.7546771E-02  0.1085680E+00
        -11   -1    0    0    0    0  0.00000000000E+00  0.00000000000E+00  0.18250000000E+03  0.18250000000E+03  0.00000000000E+00 0.  1.
         11   -1    0    0    0    0 -0.00000000000E+00 -0.00000000000E+00 -0.18250000000E+03  0.18250000000E+03  0.00000000000E+00 0.  1.
         25    2    1    2    0    0  0.69046258978E+02  0.49397624555E+02  0.66630372271E+01  0.15125242512E+03  0.12500155539E+03 0.  0.
        -11    1    1    2    0    0  0.58570617006E+02 -0.61408711482E+02 -0.10501650394E+02  0.85509249109E+02  0.00000000000E+00 0.  1.
         11    1    1    2    0    0 -0.12761687598E+03  0.12011086927E+02  0.38386131669E+01  0.12823832577E+03  0.00000000000E+00 0.  1.
        -15    1    3    3    0    0 -0.27733088991E+02  0.36991477165E+02  0.24024254025E+02  0.52132678027E+02  0.17770000000E+01 0. -1.
         15    1    3    3    0    0  0.96779347969E+02  0.12406147390E+02 -0.17361216798E+02  0.99119747095E+02  0.17770000000E+01 0. -1.
</event>
<event>
 8    1  0.2374062E-007  0.1878914E+03  0.7546771E-02  0.1064242E+00
        -11   -1    0    0    0    0  0.00000000000E+00  0.00000000000E+00  0.18250000000E+03  0.18250000000E+03  0.00000000000E+00 0.  1.
         11   -1    0    0    0    0 -0.00000000000E+00 -0.00000000000E+00 -0.18250000000E+03  0.18250000000E+03  0.00000000000E+00 0. -1.
         25    2    1    2    0    0 -0.59006260866E+02  0.66722930410E+02 -0.10838986483E+03  0.18789141113E+03  0.12498452430E+03 0.  0.
         23    2    1    2    0    0  0.59006260866E+02 -0.66722930410E+02  0.10838986483E+03  0.17710858887E+03  0.10809903418E+03 0.  0.
        -11    1    4    4    0    0  0.29564111713E+02 -0.92087565188E+02  0.55607165353E+02  0.11156304586E+03  0.00000000000E+00 0.  1.
         11    1    4    4    0    0  0.29442149153E+02  0.25364634778E+02  0.52782699479E+02  0.65545543010E+02  0.00000000000E+00 0. -1.
        -15    1    3    3    0    0 -0.80567392485E+02  0.70143473606E+02 -0.36756243865E+02  0.11298402902E+03  0.17770000000E+01 0.  1.
         15    1    3    3    0    0  0.21561131619E+02 -0.34205431969E+01 -0.71633620967E+02  0.74907382108E+02  0.17770000000E+01 0.  1.
</event>
<event>
 8    1  0.2374062E-007  0.1884504E+03  0.7546771E-02  0.1063815E+00
        -11   -1    0    0    0    0  0.00000000000E+00  0.00000000000E+00  0.18250000000E+03  0.18250000000E+03  0.00000000000E+00 0.  1.
         11   -1    0    0    0    0 -0.00000000000E+00 -0.00000000000E+00 -0.18250000000E+03  0.18250000000E+03  0.00000000000E+00 0. -1.
         25    2    1    2    0    0 -0.78079218856E+02 -0.80757118190E+02  0.85248730581E+02  0.18845035999E+03  0.12501246162E+03 0.  0.
         23    2    1    2    0    0  0.78079218856E+02  0.80757118190E+02 -0.85248730581E+02  0.17654964001E+03  0.10622783424E+03 0.  0.
        -11    1    4    4    0    0  0.62321736031E+02  0.47522352610E+02  0.55645253042E+01  0.78570584326E+02  0.00000000000E+00 0.  1.
         11    1    4    4    0    0  0.15757482826E+02  0.33234765580E+02 -0.90813255885E+02  0.97979055684E+02  0.00000000000E+00 0. -1.
        -15    1    3    3    0    0 -0.25749483204E+02 -0.64837703034E+02  0.10848706447E+03  0.12899443595E+03  0.17770000000E+01 0.  1.
         15    1    3    3    0    0 -0.52329735652E+02 -0.15919415156E+02 -0.23238333890E+02  0.59455924039E+02  0.17770000000E+01 0.  1.
</event>
<event>
 7    1  0.2374062E-007  0.1811391E+03  0.7546771E-02  0.1069543E+00
        -11   -1    0    0    0    0  0.00000000000E+00  0.00000000000E+00  0.18250000000E+03  0.18250000000E+03  0.00000000000E+00 0.  1.
         11   -1    0    0    0    0 -0.00000000000E+00 -0.00000000000E+00 -0.18250000000E+03  0.18250000000E+03  0.00000000000E+00 0.  1.
         25    2    1    2    0    0  0.96521471257E+02  0.54994444628E+02  0.20757960010E+02  0.16851202963E+03  0.12499851148E+03 0.  0.
        -11    1    1    2    0    0 -0.13850837043E+03 -0.35366527290E+02 -0.36501502024E+02  0.14753887481E+03  0.00000000000E+00 0.  1.
         11    1    1    2    0    0  0.41986899168E+02 -0.19627917338E+02  0.15743542014E+02  0.48949095558E+02  0.00000000000E+00 0.  1.
        -15    1    3    3    0    0 -0.14675800969E+02  0.28561075872E+02  0.41327499240E+02  0.52366345218E+02  0.17770000000E+01 0.  1.
         15    1    3    3    0    0  0.11119727223E+03  0.26433368756E+02 -0.20569539231E+02  0.11614568441E+03  0.17770000000E+01 0.  1.
</event>
<event>
 8    1  0.2374062E-007  0.1956226E+03  0.7546771E-02  0.1058464E+00
        -11   -1    0    0    0    0  0.00000000000E+00  0.00000000000E+00  0.18250000000E+03  0.18250000000E+03  0.00000000000E+00 0. -1.
         11   -1    0    0    0    0 -0.00000000000E+00 -0.00000000000E+00 -0.18250000000E+03  0.18250000000E+03  0.00000000000E+00 0.  1.
         25    2    1    2    0    0  0.11320247780E+02  0.64656406113E+02 -0.13540445802E+03  0.19562261423E+03  0.12500096434E+03 0.  0.
         23    2    1    2    0    0 -0.11320247780E+02 -0.64656406113E+02  0.13540445802E+03  0.16937738577E+03  0.77754309835E+02 0.  0.
        -11    1    4    4    0    0 -0.19078830088E+02 -0.59927144298E+02  0.14383440901E+03  0.15698280669E+03  0.00000000000E+00 0. -1.
         11    1    4    4    0    0  0.77585823086E+01 -0.47292618145E+01 -0.84299509939E+01  0.12394579078E+02  0.00000000000E+00 0.  1.
        -15    1    3    3    0    0 -0.56878679621E+02  0.29231140020E+02 -0.54768392062E+02  0.84216258765E+02  0.17770000000E+01 0.  1.
         15    1    3    3    0    0  0.68198927401E+02  0.35425266093E+02 -0.80636065956E+02  0.11140635547E+03  0.17770000000E+01 0.  1.
</event>
<event>
 8    1  0.2374062E-007  0.1964995E+03  0.7546771E-02  0.1057827E+00
        -11   -1    0    0    0    0  0.00000000000E+00  0.00000000000E+00  0.18250000000E+03  0.18250000000E+03  0.00000000000E+00 0. -1.
         11   -1    0    0    0    0 -0.00000000000E+00 -0.00000000000E+00 -0.18250000000E+03  0.18250000000E+03  0.00000000000E+00 0. -1.
         25    2    1    2    0    0  0.33597554498E+02  0.66440009390E+02 -0.13207521018E+03  0.19649947035E+03  0.12500044075E+03 0.  0.
         23    2    1    2    0    0 -0.33597554498E+02 -0.66440009390E+02  0.13207521018E+03  0.16850052965E+03  0.73522083972E+02 0.  0.
        -11    1    4    4    0    0 -0.23158341418E+02 -0.76422853460E+02  0.13173988913E+03  0.15405245761E+03  0.00000000000E+00 0. -1.
         11    1    4    4    0    0 -0.10439213081E+02  0.99828440704E+01  0.33532105484E+00  0.14448072040E+02  0.00000000000E+00 0. -1.
        -15    1    3    3    0    0  0.12895023080E+02  0.10279633470E+03 -0.94282897010E+02  0.14009207845E+03  0.17770000000E+01 0.  1.
         15    1    3    3    0    0  0.20702531419E+02 -0.36356325307E+02 -0.37792313172E+02  0.56407391899E+02  0.17770000000E+01 0.  1.
</event>
<event>
 8    1  0.2374062E-007  0.1953877E+03  0.7546771E-02  0.1058635E+00
        -11   -1    0    0    0    0  0.00000000000E+00  0.00000000000E+00  0.18250000000E+03  0.18250000000E+03  0.00000000000E+00 0.  1.
         11   -1    0    0    0    0 -0.00000000000E+00 -0.00000000000E+00 -0.18250000000E+03  0.18250000000E+03  0.00000000000E+00 0. -1.
         25    2    1    2    0    0 -0.11860489347E+03 -0.63880633623E+02  0.66361240325E+02  0.19538771381E+03  0.12499875353E+03 0.  0.
         23    2    1    2    0    0  0.11860489347E+03  0.63880633623E+02 -0.66361240325E+02  0.16961228619E+03  0.78845781769E+02 0.  0.
        -11    1    4    4    0    0  0.15667243461E+02 -0.16703307491E+02  0.22626646431E+00  0.22902274894E+02  0.00000000000E+00 0. -1.
         11    1    4    4    0    0  0.10293765001E+03  0.80583941114E+02 -0.66587506789E+02  0.14671001130E+03  0.00000000000E+00 0.  1.
        -15    1    3    3    0    0  0.13739196511E+02  0.21251462531E+02  0.22813821934E+01  0.25470622572E+02  0.17770000000E+01 0.  1.
         15    1    3    3    0    0 -0.13234408998E+03 -0.85132096154E+02  0.64079858132E+02  0.16991709124E+03  0.17770000000E+01 0.  1.
</event>
<event>
 8    1  0.2374062E-007  0.1891055E+03  0.7546771E-02  0.1063315E+00
        -11   -1    0    0    0    0  0.00000000000E+00  0.00000000000E+00  0.18250000000E+03  0.18250000000E+03  0.00000000000E+00 0.  1.
         11   -1    0    0    0    0 -0.00000000000E+00 -0.00000000000E+00 -0.18250000000E+03  0.18250000000E+03  0.00000000000E+00 0. -1.
         25    2    1    2    0    0  0.11763868074E+03  0.19969651081E+01  0.79329616475E+02  0.18910552591E+03  0.12499945921E+03 0.  0.
         23    2    1    2    0    0 -0.11763868074E+03 -0.19969651081E+01 -0.79329616475E+02  0.17589447409E+03  0.10393666768E+03 0.  0.
        -11    1    4    4    0    0 -0.34716853155E+02  0.38082981436E+02  0.40063160808E+01  0.51687754222E+02  0.00000000000E+00 0.  1.
         11    1    4    4    0    0 -0.82921827589E+02 -0.40079946544E+02 -0.83335932556E+02  0.12420671987E+03  0.00000000000E+00 0. -1.
        -15    1    3    3    0    0  0.10713303772E+03  0.32405454481E+02  0.10059502916E+03  0.15049956436E+03  0.17770000000E+01 0.  1.
         15    1    3    3    0    0  0.10505643026E+02 -0.30408489373E+02 -0.21265412689E+02  0.38605961550E+02  0.17770000000E+01 0.  1.
</event>
<event>
 8    1  0.2374062E-007  0.1851603E+03  0.7546771E-02  0.1066357E+00
        -11   -1    0    0    0    0  0.00000000000E+00  0.00000000000E+00  0.18250000000E+03  0.18250000000E+03  0.00000000000E+00 0. -1.
         11   -1    0    0    0    0 -0.00000000000E+00 -0.00000000000E+00 -0.18250000000E+03  0.18250000000E+03  0.00000000000E+00 0.  1.
         25    2    1    2    0    0  0.23235951660E+02  0.64842689515E+02  0.11797809499E+03  0.18516032859E+03  0.12498412920E+03 0.  0.
         23    2    1    2    0    0 -0.23235951660E+02 -0.64842689515E+02 -0.11797809499E+03  0.17983967141E+03  0.11695722587E+03 0.  0.
        -11    1    4    4    0    0 -0.19419587029E+02  0.65752573808E+01 -0.10520997162E+03  0.10718905027E+03  0.00000000000E+00 0.  1.
         11    1    4    4    0    0 -0.38163646307E+01 -0.71417946896E+02 -0.12768123367E+02  0.72650621141E+02  0.00000000000E+00 0. -1.
        -15    1    3    3    0    0  0.26190220956E+02  0.48863461488E+02  0.14406524803E+03  0.15437460595E+03  0.17770000000E+01 0. -1.
         15    1    3    3    0    0 -0.29542692960E+01  0.15979228027E+02 -0.26087153044E+02  0.30785722639E+02  0.17770000000E+01 0. -1.
</event>
<event>
 8    1  0.2374062E-007  0.1872895E+03  0.7546771E-02  0.1064705E+00
        -11   -1    0    0    0    0  0.00000000000E+00  0.00000000000E+00  0.18250000000E+03  0.18250000000E+03  0.00000000000E+00 0. -1.
         11   -1    0    0    0    0 -0.00000000000E+00 -0.00000000000E+00 -0.18250000000E+03  0.18250000000E+03  0.00000000000E+00 0. -1.
         25    2    1    2    0    0 -0.35559544056E+02 -0.11146480120E+03 -0.75906662406E+02  0.18728946800E+03  0.12500656121E+03 0.  0.
         23    2    1    2    0    0  0.35559544056E+02  0.11146480120E+03  0.75906662406E+02  0.17771053200E+03  0.11013777148E+03 0.  0.
        -11    1    4    4    0    0  0.21937390115E+02  0.11601881264E+03  0.96576243840E+02  0.15254043675E+03  0.00000000000E+00 0. -1.
         11    1    4    4    0    0  0.13622153941E+02 -0.45540114370E+01 -0.20669581434E+02  0.25170095248E+02  0.00000000000E+00 0. -1.
        -15    1    3    3    0    0  0.28505410415E+02 -0.39329054598E+02 -0.76686382779E+02  0.90792576741E+02  0.17770000000E+01 0. -1.
         15    1    3    3    0    0 -0.64064954472E+02 -0.72135746602E+02  0.77972037337E+00  0.96496891257E+02  0.17770000000E+01 0. -1.
</event>
<event>
 8    1  0.2374062E-007  0.1967852E+03  0.7546771E-02  0.1057620E+00
        -11   -1    0    0    0    0  0.00000000000E+00  0.00000000000E+00  0.18250000000E+03  0.18250000000E+03  0.00000000000E+00 0.  1.
         11   -1    0    0    0    0 -0.00000000000E+00 -0.00000000000E+00 -0.18250000000E+03  0.18250000000E+03  0.00000000000E+00 0. -1.
         25    2    1    2    0    0  0.13811558646E+03 -0.63430231486E+02 -0.26187618582E+00  0.19678515363E+03  0.12500007448E+03 0.  0.
         23    2    1    2    0    0 -0.13811558646E+03  0.63430231486E+02  0.26187618582E+00  0.16821484637E+03  0.72089225741E+02 0.  0.
        -11    1    4    4    0    0 -0.55767971826E+02 -0.97673843386E+01  0.10429498685E+02  0.57569461707E+02  0.00000000000E+00 0. -1.
         11    1    4    4    0    0 -0.82347614639E+02  0.73197615824E+02 -0.10167622499E+02  0.11064538466E+03  0.00000000000E+00 0.  1.
        -15    1    3    3    0    0  0.65563989723E+02 -0.65524502972E+02  0.52953496420E+02  0.10676763438E+03  0.17770000000E+01 0. -1.
         15    1    3    3    0    0  0.72551596742E+02  0.20942714864E+01 -0.53215372606E+02  0.90017519259E+02  0.17770000000E+01 0. -1.
</event>
<event>
 8    1  0.2374062E-007  0.1890986E+03  0.7546771E-02  0.1063320E+00
        -11   -1    0    0    0    0  0.00000000000E+00  0.00000000000E+00  0.18250000000E+03  0.18250000000E+03  0.00000000000E+00 0.  1.
         11   -1    0    0    0    0 -0.00000000000E+00 -0.00000000000E+00 -0.18250000000E+03  0.18250000000E+03  0.00000000000E+00 0. -1.
         25    2    1    2    0    0  0.12279938490E+03  0.70955245892E+02  0.38066449642E+01  0.18909858334E+03  0.12501779002E+03 0.  0.
         23    2    1    2    0    0 -0.12279938490E+03 -0.70955245892E+02 -0.38066449642E+01  0.17590141666E+03  0.10398308510E+03 0.  0.
        -11    1    4    4    0    0 -0.45211850303E+02 -0.59481320639E+02  0.41356616749E+02  0.85396186459E+02  0.00000000000E+00 0.  1.
         11    1    4    4    0    0 -0.77587534600E+02 -0.11473925253E+02 -0.45163261714E+02  0.90505230206E+02  0.00000000000E+00 0. -1.
        -15    1    3    3    0    0  0.17774650886E+01  0.64612074622E+02 -0.15181216965E+02  0.66419173787E+02  0.17770000000E+01 0.  1.
         15    1    3    3    0    0  0.12102191981E+03  0.63431712704E+01  0.18987861929E+02  0.12267940955E+03  0.17770000000E+01 0.  1.
</event>
<event>
 8    1  0.2374062E-007  0.1885795E+03  0.7546771E-02  0.1063716E+00
        -11   -1    0    0    0    0  0.00000000000E+00  0.00000000000E+00  0.18250000000E+03  0.18250000000E+03  0.00000000000E+00 0. -1.
         11   -1    0    0    0    0 -0.00000000000E+00 -0.00000000000E+00 -0.18250000000E+03  0.18250000000E+03  0.00000000000E+00 0.  1.
         25    2    1    2    0    0  0.13722095950E+03 -0.32812048562E+02 -0.55270004001E+01  0.18857950676E+03  0.12500184150E+03 0.  0.
         23    2    1    2    0    0 -0.13722095950E+03  0.32812048562E+02  0.55270004001E+01  0.17642049324E+03  0.10577060294E+03 0.  0.
        -11    1    4    4    0    0 -0.12699175841E+03  0.16151394901E+02 -0.33887180468E+02  0.13242399805E+03  0.00000000000E+00 0.  1.
         11    1    4    4    0    0 -0.10229201090E+02  0.16660653662E+02  0.39414180868E+02  0.43996495189E+02  0.00000000000E+00 0. -1.
        -15    1    3    3    0    0  0.81893124915E+02 -0.13569515641E+02 -0.64726898633E+02  0.10527746577E+03  0.17770000000E+01 0.  1.
         15    1    3    3    0    0  0.55327834583E+02 -0.19242532921E+02  0.59199898233E+02  0.83302040987E+02  0.17770000000E+01 0.  1.
</event>
<event>
 8    1  0.2374062E-007  0.1827604E+03  0.7546771E-02  0.1068248E+00
        -11   -1    0    0    0    0  0.00000000000E+00  0.00000000000E+00  0.18250000000E+03  0.18250000000E+03  0.00000000000E+00 0.  1.
         11   -1    0    0    0    0 -0.00000000000E+00 -0.00000000000E+00 -0.18250000000E+03  0.18250000000E+03  0.00000000000E+00 0.  1.
         25    2    1    2    0    0  0.37697165080E+02  0.12195494407E+03 -0.38496394523E+02  0.18276037744E+03  0.12500119413E+03 0.  0.
         23    2    1    2    0    0 -0.37697165080E+02 -0.12195494407E+03  0.38496394523E+02  0.18223962256E+03  0.12423857291E+03 0.  0.
        -11    1    4    4    0    0 -0.49048525022E+02 -0.12380245252E+03  0.68756666434E+02  0.14986755565E+03  0.00000000000E+00 0.  1.
         11    1    4    4    0    0  0.11351359942E+02  0.18475084448E+01 -0.30260271911E+02  0.32372066911E+02  0.00000000000E+00 0.  1.
        -15    1    3    3    0    0  0.58490042974E+02  0.11431593157E+03  0.10609409799E+02  0.12886013598E+03  0.17770000000E+01 0.  1.
         15    1    3    3    0    0 -0.20792877893E+02  0.76390124993E+01 -0.49105804322E+02  0.53900241467E+02  0.17770000000E+01 0.  1.
</event>
<event>
 8    1  0.2374062E-007  0.1992249E+03  0.7546771E-02  0.1055870E+00
        -11   -1    0    0    0    0  0.00000000000E+00  0.00000000000E+00  0.18250000000E+03  0.18250000000E+03  0.00000000000E+00 0.  1.
         11   -1    0    0    0    0 -0.00000000000E+00 -0.00000000000E+00 -0.18250000000E+03  0.18250000000E+03  0.00000000000E+00 0.  1.
         25    2    1    2    0    0 -0.11620467812E+03  0.92748008108E+02 -0.44270833457E+02  0.19922488721E+03  0.12499971505E+03 0.  0.
         23    2    1    2    0    0  0.11620467812E+03 -0.92748008108E+02  0.44270833457E+02  0.16577511279E+03  0.58444513016E+02 0.  0.
        -11    1    4    4    0    0  0.10589189103E+02 -0.15652693451E+02  0.28318370270E+02  0.34045085297E+02  0.00000000000E+00 0.  1.
         11    1    4    4    0    0  0.10561548902E+03 -0.77095314657E+02  0.15952463187E+02  0.13173002750E+03  0.00000000000E+00 0.  1.
        -15    1    3    3    0    0 -0.77482417548E+02  0.81338226527E+02 -0.85736518486E+02  0.14132706908E+03  0.17770000000E+01 0.  1.
         15    1    3    3    0    0 -0.38722260574E+02  0.11409781581E+02  0.41465685029E+02  0.57897818125E+02  0.17770000000E+01 0.  1.
</event>
<event>
 8    1  0.2374062E-007  0.1862071E+03  0.7546771E-02  0.1065542E+00
        -11   -1    0    0    0    0  0.00000000000E+00  0.00000000000E+00  0.18250000000E+03  0.18250000000E+03  0.00000000000E+00 0.  1.
         11   -1    0    0    0    0 -0.00000000000E+00 -0.00000000000E+00 -0.18250000000E+03  0.18250000000E+03  0.00000000000E+00 0. -1.
         25    2    1    2    0    0 -0.48938066542E+01 -0.12411058083E+03 -0.60172615772E+02  0.18620707665E+03  0.12499978435E+03 0.  0.
         23    2    1    2    0    0  0.48938066542E+01  0.12411058083E+03  0.60172615772E+02  0.17879292335E+03  0.11366081178E+03 0.  0.
        -11    1    4    4    0    0 -0.40319310107E+02  0.11249329249E+03  0.29999096005E+02  0.12320849558E+03  0.00000000000E+00 0. -1.
         11    1    4    4    0    0  0.45213116762E+02  0.11617288340E+02  0.30173519767E+02  0.55584427773E+02  0.00000000000E+00 0.  1.
        -15    1    3    3    0    0 -0.34152008141E+02 -0.13299372271E+03 -0.25016700432E+02  0.13958038176E+03  0.17770000000E+01 0.  1.
         15    1    3    3    0    0  0.29258201486E+02  0.88831418865E+01 -0.35155915340E+02  0.46626694890E+02  0.17770000000E+01 0.  1.
</event>
<event>
 8    1  0.2374062E-007  0.1886246E+03  0.7546771E-02  0.1063681E+00
        -11   -1    0    0    0    0  0.00000000000E+00  0.00000000000E+00  0.18250000000E+03  0.18250000000E+03  0.00000000000E+00 0.  1.
         11   -1    0    0    0    0 -0.00000000000E+00 -0.00000000000E+00 -0.18250000000E+03  0.18250000000E+03  0.00000000000E+00 0. -1.
         25    2    1    2    0    0  0.82170578364E+02 -0.33704465101E+02  0.10984345513E+03  0.18862463687E+03  0.12500269631E+03 0.  0.
         23    2    1    2    0    0 -0.82170578364E+02  0.33704465101E+02 -0.10984345513E+03  0.17637536313E+03  0.10561576192E+03 0.  0.
        -11    1    4    4    0    0 -0.95316557051E+02  0.43582495260E+02 -0.53483266908E+02  0.11766537205E+03  0.00000000000E+00 0.  1.
         11    1    4    4    0    0  0.13145978687E+02 -0.98780301583E+01 -0.56360188224E+02  0.58709991075E+02  0.00000000000E+00 0. -1.
        -15    1    3    3    0    0 -0.17458280755E+02 -0.18096813451E+02  0.79347474868E+02  0.83255424574E+02  0.17770000000E+01 0. -1.
         15    1    3    3    0    0  0.99628859119E+02 -0.15607651651E+02  0.30495980263E+02  0.10536921230E+03  0.17770000000E+01 0. -1.
</event>
<event>
 8    1  0.2374062E-007  0.1858446E+03  0.7546771E-02  0.1065823E+00
        -11   -1    0    0    0    0  0.00000000000E+00  0.00000000000E+00  0.18250000000E+03  0.18250000000E+03  0.00000000000E+00 0.  1.
         11   -1    0    0    0    0 -0.00000000000E+00 -0.00000000000E+00 -0.18250000000E+03  0.18250000000E+03  0.00000000000E+00 0. -1.
         25    2    1    2    0    0 -0.82734911994E+02  0.10364728000E+03  0.36398988249E+02  0.18584464334E+03  0.12500208318E+03 0.  0.
         23    2    1    2    0    0  0.82734911994E+02 -0.10364728000E+03 -0.36398988249E+02  0.17915535666E+03  0.11482130099E+03 0.  0.
        -11    1    4    4    0    0  0.18070443667E+02 -0.21420086781E-01  0.33760985201E+02  0.38292891180E+02  0.00000000000E+00 0.  1.
         11    1    4    4    0    0  0.64664468327E+02 -0.10362585991E+03 -0.70159973450E+02  0.14086246548E+03  0.00000000000E+00 0. -1.
        -15    1    3    3    0    0 -0.10006140349E+03  0.12113641540E+03  0.35795631624E+02  0.16115458597E+03  0.17770000000E+01 0.  1.
         15    1    3    3    0    0  0.17326491501E+02 -0.17489135405E+02  0.60335662519E+00  0.24690057375E+02  0.17770000000E+01 0.  1.
</event>
<event>
 7    1  0.2374062E-007  0.2025130E+03  0.7546771E-02  0.1053554E+00
        -11   -1    0    0    0    0  0.00000000000E+00  0.00000000000E+00  0.18250000000E+03  0.18250000000E+03  0.00000000000E+00 0.  1.
         11   -1    0    0    0    0 -0.00000000000E+00 -0.00000000000E+00 -0.18250000000E+03  0.18250000000E+03  0.00000000000E+00 0. -1.
         25    2    1    2    0    0 -0.79592763580E+02 -0.62680226844E+02 -0.12297687982E+03  0.20251298386E+03  0.12499750722E+03 0.  0.
        -11    1    1    2    0    0  0.64579096469E+02  0.32191707066E+02  0.86097687599E+02  0.11233689294E+03  0.00000000000E+00 0. -1.
         11    1    1    2    0    0  0.15013667111E+02  0.30488519778E+02  0.36879192221E+02  0.50150123203E+02  0.00000000000E+00 0.  1.
        -15    1    3    3    0    0 -0.92693690808E+02  0.40648546757E+01 -0.73595814082E+02  0.11844047002E+03  0.17770000000E+01 0.  1.
         15    1    3    3    0    0  0.13100927228E+02 -0.66745081520E+02 -0.49381065737E+02  0.84072513842E+02  0.17770000000E+01 0.  1.
</event>
<event>
 8    1  0.2374062E-007  0.1879257E+03  0.7546771E-02  0.1064216E+00
        -11   -1    0    0    0    0  0.00000000000E+00  0.00000000000E+00  0.18250000000E+03  0.18250000000E+03  0.00000000000E+00 0. -1.
         11   -1    0    0    0    0 -0.00000000000E+00 -0.00000000000E+00 -0.18250000000E+03  0.18250000000E+03  0.00000000000E+00 0.  1.
         25    2    1    2    0    0  0.18260442310E+02 -0.13450587775E+03 -0.35570346557E+02  0.18792573881E+03  0.12500223537E+03 0.  0.
         23    2    1    2    0    0 -0.18260442310E+02  0.13450587775E+03  0.35570346557E+02  0.17707426119E+03  0.10800356253E+03 0.  0.
        -11    1    4    4    0    0 -0.41217396707E+01  0.74432601627E+02 -0.35820428109E+02  0.82706130322E+02  0.00000000000E+00 0.  1.
         11    1    4    4    0    0 -0.14138702639E+02  0.60073276126E+02  0.71390774666E+02  0.94368130872E+02  0.00000000000E+00 0. -1.
        -15    1    3    3    0    0  0.25122310877E+02  0.17706504121E+02  0.24278013157E+01  0.30882077978E+02  0.17770000000E+01 0.  1.
         15    1    3    3    0    0 -0.68618685674E+01 -0.15221238187E+03 -0.37998147873E+02  0.15704366083E+03  0.17770000000E+01 0.  1.
</event>
<event>
 8    1  0.2374062E-007  0.1955318E+03  0.7546771E-02  0.1058530E+00
        -11   -1    0    0    0    0  0.00000000000E+00  0.00000000000E+00  0.18250000000E+03  0.18250000000E+03  0.00000000000E+00 0. -1.
         11   -1    0    0    0    0 -0.00000000000E+00 -0.00000000000E+00 -0.18250000000E+03  0.18250000000E+03  0.00000000000E+00 0.  1.
         25    2    1    2    0    0 -0.13312563752E+03 -0.62475855077E+02  0.31321321317E+02  0.19553184770E+03  0.12500404178E+03 0.  0.
         23    2    1    2    0    0  0.13312563752E+03  0.62475855077E+02 -0.31321321317E+02  0.16946815230E+03  0.78184152117E+02 0.  0.
        -11    1    4    4    0    0  0.93171551131E+01  0.39485368650E+02 -0.57871047233E+01  0.40980413588E+02  0.00000000000E+00 0.  1.
         11    1    4    4    0    0  0.12380848241E+03  0.22990486427E+02 -0.25534216593E+02  0.12848773871E+03  0.00000000000E+00 0. -1.
        -15    1    3    3    0    0 -0.11356186600E+03 -0.13212333497E+02  0.66135290307E+02  0.13209048989E+03  0.17770000000E+01 0. -1.
         15    1    3    3    0    0 -0.19563771519E+02 -0.49263521580E+02 -0.34813968991E+02  0.63441357807E+02  0.17770000000E+01 0. -1.
</event>
<event>
 8    1  0.2374062E-007  0.1857693E+03  0.7546771E-02  0.1065882E+00
        -11   -1    0    0    0    0  0.00000000000E+00  0.00000000000E+00  0.18250000000E+03  0.18250000000E+03  0.00000000000E+00 0.  1.
         11   -1    0    0    0    0 -0.00000000000E+00 -0.00000000000E+00 -0.18250000000E+03  0.18250000000E+03  0.00000000000E+00 0. -1.
         25    2    1    2    0    0 -0.13513562260E+03 -0.19067216458E+02  0.16008799098E+02  0.18576925912E+03  0.12501496210E+03 0.  0.
         23    2    1    2    0    0  0.13513562260E+03  0.19067216458E+02 -0.16008799098E+02  0.17923074088E+03  0.11507467831E+03 0.  0.
        -11    1    4    4    0    0  0.38608244740E+02  0.40653646388E+02 -0.49513005036E+02  0.74798751288E+02  0.00000000000E+00 0. -1.
         11    1    4    4    0    0  0.96527377860E+02 -0.21586429930E+02  0.33504205938E+02  0.10443198959E+03  0.00000000000E+00 0.  1.
        -15    1    3    3    0    0 -0.88808697724E+02  0.29200433307E+02 -0.36833822758E+02  0.10049645926E+03  0.17770000000E+01 0.  1.
         15    1    3    3    0    0 -0.46326924876E+02 -0.48267649765E+02  0.52842621856E+02  0.85272799860E+02  0.17770000000E+01 0.  1.
</event>
<event>
 8    1  0.2374062E-007  0.1886853E+03  0.7546771E-02  0.1063635E+00
        -11   -1    0    0    0    0  0.00000000000E+00  0.00000000000E+00  0.18250000000E+03  0.18250000000E+03  0.00000000000E+00 0.  1.
         11   -1    0    0    0    0 -0.00000000000E+00 -0.00000000000E+00 -0.18250000000E+03  0.18250000000E+03  0.00000000000E+00 0. -1.
         25    2    1    2    0    0  0.34296553412E+02 -0.67511406349E+02  0.11934566398E+03  0.18868529314E+03  0.12499883508E+03 0.  0.
         23    2    1    2    0    0 -0.34296553412E+02  0.67511406349E+02 -0.11934566398E+03  0.17631470686E+03  0.10540135095E+03 0.  0.
        -11    1    4    4    0    0 -0.54248183667E+02  0.36298680924E+02 -0.12284096809E+03  0.13910558259E+03  0.00000000000E+00 0.  1.
         11    1    4    4    0    0  0.19951630254E+02  0.31212725426E+02  0.34953041023E+01  0.37209124272E+02  0.00000000000E+00 0. -1.
        -15    1    3    3    0    0 -0.22250909892E+02  0.18362644486E+02  0.67694880660E+02  0.73607365800E+02  0.17770000000E+01 0.  1.
         15    1    3    3    0    0  0.56547463304E+02 -0.85874050835E+02  0.51650783324E+02  0.11507792734E+03  0.17770000000E+01 0.  1.
</event>
<event>
 8    1  0.2374062E-007  0.1849489E+03  0.7546771E-02  0.1066522E+00
        -11   -1    0    0    0    0  0.00000000000E+00  0.00000000000E+00  0.18250000000E+03  0.18250000000E+03  0.00000000000E+00 0.  1.
         11   -1    0    0    0    0 -0.00000000000E+00 -0.00000000000E+00 -0.18250000000E+03  0.18250000000E+03  0.00000000000E+00 0. -1.
         25    2    1    2    0    0  0.31082366829E+02 -0.12066983828E+03 -0.55262623296E+02  0.18494885336E+03  0.12499918970E+03 0.  0.
         23    2    1    2    0    0 -0.31082366829E+02  0.12066983828E+03  0.55262623296E+02  0.18005114664E+03  0.11763134987E+03 0.  0.
        -11    1    4    4    0    0  0.53406760463E+01  0.97292464990E+02  0.83543535237E+02  0.12835057010E+03  0.00000000000E+00 0.  1.
         11    1    4    4    0    0 -0.36423042876E+02  0.23377373294E+02 -0.28280911941E+02  0.51700576541E+02  0.00000000000E+00 0. -1.
        -15    1    3    3    0    0  0.37022492766E+02 -0.79945931532E+02  0.27658981183E+02  0.92359048870E+02  0.17770000000E+01 0. -1.
         15    1    3    3    0    0 -0.59401259365E+01 -0.40723906752E+02 -0.82921604479E+02  0.92589804491E+02  0.17770000000E+01 0. -1.
</event>
<event>
 7    1  0.2374062E-007  0.1865120E+03  0.7546771E-02  0.1065305E+00
        -11   -1    0    0    0    0  0.00000000000E+00  0.00000000000E+00  0.18250000000E+03  0.18250000000E+03  0.00000000000E+00 0. -1.
         11   -1    0    0    0    0 -0.00000000000E+00 -0.00000000000E+00 -0.18250000000E+03  0.18250000000E+03  0.00000000000E+00 0. -1.
         25    2    1    2    0    0 -0.42396926136E+02  0.21633854802E+02  0.11715785330E+03  0.17783257281E+03  0.12503174933E+03 0.  0.
        -11    1    1    2    0    0  0.74864981221E+02 -0.40367273069E+02 -0.12267741365E+03  0.14927836403E+03  0.00000000000E+00 0. -1.
         11    1    1    2    0    0 -0.32468055085E+02  0.18733418266E+02  0.55195603459E+01  0.37889063163E+02  0.00000000000E+00 0. -1.
        -15    1    3    3    0    0  0.38857753481E+02  0.15897008326E+02  0.75303508193E+02  0.86234656342E+02  0.17770000000E+01 0.  1.
         15    1    3    3    0    0 -0.81254679618E+02  0.57368464767E+01  0.41854345109E+02  0.91597916465E+02  0.17770000000E+01 0.  1.
</event>
<event>
 8    1  0.2374062E-007  0.1857065E+03  0.7546771E-02  0.1065931E+00
        -11   -1    0    0    0    0  0.00000000000E+00  0.00000000000E+00  0.18250000000E+03  0.18250000000E+03  0.00000000000E+00 0. -1.
         11   -1    0    0    0    0 -0.00000000000E+00 -0.00000000000E+00 -0.18250000000E+03  0.18250000000E+03  0.00000000000E+00 0. -1.
         25    2    1    2    0    0  0.66420700563E+02 -0.65928375934E+02  0.10049188493E+03  0.18570647843E+03  0.12502006629E+03 0.  0.
         23    2    1    2    0    0 -0.66420700563E+02  0.65928375934E+02 -0.10049188493E+03  0.17929352157E+03  0.11527917299E+03 0.  0.
        -11    1    4    4    0    0 -0.80015732163E+02  0.82895612311E+01 -0.87124986138E+02  0.11858329321E+03  0.00000000000E+00 0. -1.
         11    1    4    4    0    0  0.13595031600E+02  0.57638814703E+02 -0.13366898795E+02  0.60710228364E+02  0.00000000000E+00 0. -1.
        -15    1    3    3    0    0  0.99633659057E+02 -0.65133434380E+02  0.60042013142E+02  0.13333203427E+03  0.17770000000E+01 0.  1.
         15    1    3    3    0    0 -0.33212958494E+02 -0.79494155443E+00  0.40449871791E+02  0.52374444158E+02  0.17770000000E+01 0.  1.
</event>
<event>
 8    1  0.2374062E-007  0.1884228E+03  0.7546771E-02  0.1063836E+00
        -11   -1    0    0    0    0  0.00000000000E+00  0.00000000000E+00  0.18250000000E+03  0.18250000000E+03  0.00000000000E+00 0. -1.
         11   -1    0    0    0    0 -0.00000000000E+00 -0.00000000000E+00 -0.18250000000E+03  0.18250000000E+03  0.00000000000E+00 0.  1.
         25    2    1    2    0    0 -0.97463562288E+02  0.99948758894E+02  0.19718276993E+02  0.18842279686E+03  0.12500175820E+03 0.  0.
         23    2    1    2    0    0  0.97463562288E+02 -0.99948758894E+02 -0.19718276993E+02  0.17657720314E+03  0.10630991413E+03 0.  0.
        -11    1    4    4    0    0  0.11626411755E+03 -0.98234699319E+02 -0.44104538967E+01  0.15227229979E+03  0.00000000000E+00 0. -1.
         11    1    4    4    0    0 -0.18800555266E+02 -0.17140595755E+01 -0.15307823096E+02  0.24304903342E+02  0.00000000000E+00 0.  1.
        -15    1    3    3    0    0 -0.27727905835E+02  0.80354643160E+02  0.61359554568E+02  0.10485160039E+03  0.17770000000E+01 0.  1.
         15    1    3    3    0    0 -0.69735656453E+02  0.19594115734E+02 -0.41641277575E+02  0.83571196470E+02  0.17770000000E+01 0.  1.
</event>
<event>
 8    1  0.2374062E-007  0.1861750E+03  0.7546771E-02  0.1065567E+00
        -11   -1    0    0    0    0  0.00000000000E+00  0.00000000000E+00  0.18250000000E+03  0.18250000000E+03  0.00000000000E+00 0.  1.
         11   -1    0    0    0    0 -0.00000000000E+00 -0.00000000000E+00 -0.18250000000E+03  0.18250000000E+03  0.00000000000E+00 0. -1.
         25    2    1    2    0    0 -0.64124271652E+02  0.11964078002E+03 -0.24718652919E+02  0.18617501974E+03  0.12499715083E+03 0.  0.
         23    2    1    2    0    0  0.64124271652E+02 -0.11964078002E+03  0.24718652919E+02  0.17882498026E+03  0.11376081621E+03 0.  0.
        -11    1    4    4    0    0 -0.22129578677E+01 -0.19132106366E+02 -0.38326622526E+02  0.42893643711E+02  0.00000000000E+00 0. -1.
         11    1    4    4    0    0  0.66337229519E+02 -0.10050867365E+03  0.63045275445E+02  0.13593133655E+03  0.00000000000E+00 0.  1.
        -15    1    3    3    0    0 -0.80155394580E+01 -0.26028939457E+02  0.35534481996E+01  0.27523431566E+02  0.17770000000E+01 0. -1.
         15    1    3    3    0    0 -0.56108732194E+02  0.14566971947E+03 -0.28272101119E+02  0.15865158818E+03  0.17770000000E+01 0. -1.
</event>
<event>
 7    1  0.2374062E-007  0.1800183E+03  0.7546771E-02  0.1070448E+00
        -11   -1    0    0    0    0  0.00000000000E+00  0.00000000000E+00  0.18250000000E+03  0.18250000000E+03  0.00000000000E+00 0.  1.
         11   -1    0    0    0    0 -0.00000000000E+00 -0.00000000000E+00 -0.18250000000E+03  0.18250000000E+03  0.00000000000E+00 0. -1.
         25    2    1    2    0    0  0.19083037641E+02  0.43643495271E+02 -0.10674582148E+03  0.17113706392E+03  0.12499722893E+03 0.  0.
        -11    1    1    2    0    0  0.82002570218E+01  0.50470237576E+02  0.30943308016E+01  0.51225618389E+02  0.00000000000E+00 0.  1.
         11    1    1    2    0    0 -0.27283294663E+02 -0.94113732846E+02  0.10365149068E+03  0.14263731769E+03  0.00000000000E+00 0. -1.
        -15    1    3    3    0    0 -0.44474462682E+02  0.53159930396E+02 -0.51448883734E+02  0.86337137994E+02  0.17770000000E+01 0.  1.
         15    1    3    3    0    0  0.63557500323E+02 -0.95164351254E+01 -0.55296937743E+02  0.84799925929E+02  0.17770000000E+01 0.  1.
</event>
<event>
 7    1  0.2374062E-007  0.1704125E+03  0.7546771E-02  0.1078505E+00
        -11   -1    0    0    0    0  0.00000000000E+00  0.00000000000E+00  0.18250000000E+03  0.18250000000E+03  0.00000000000E+00 0.  1.
         11   -1    0    0    0    0 -0.00000000000E+00 -0.00000000000E+00 -0.18250000000E+03  0.18250000000E+03  0.00000000000E+00 0. -1.
         25    2    1    2    0    0  0.75797723081E+02 -0.28886621994E+02  0.10113282961E+03  0.18010053706E+03  0.12501448904E+03 0.  0.
        -11    1    1    2    0    0 -0.46747567154E+02  0.51960818200E+02  0.73199307568E+01  0.70276902672E+02  0.00000000000E+00 0.  1.
         11    1    1    2    0    0 -0.29050155927E+02 -0.23074196207E+02 -0.10845276037E+03  0.11462256027E+03  0.00000000000E+00 0. -1.
        -15    1    3    3    0    0 -0.65509502213E+01  0.66366623426E+01 -0.24188330214E+02  0.25984481588E+02  0.17770000000E+01 0.  1.
         15    1    3    3    0    0  0.82348673302E+02 -0.35523284336E+02  0.12532115983E+03  0.15411605547E+03  0.17770000000E+01 0.  1.
</event>
<event>
 8    1  0.2374062E-007  0.1960933E+03  0.7546771E-02  0.1058122E+00
        -11   -1    0    0    0    0  0.00000000000E+00  0.00000000000E+00  0.18250000000E+03  0.18250000000E+03  0.00000000000E+00 0.  1.
         11   -1    0    0    0    0 -0.00000000000E+00 -0.00000000000E+00 -0.18250000000E+03  0.18250000000E+03  0.00000000000E+00 0.  1.
         25    2    1    2    0    0 -0.13610213547E+02 -0.97050067861E+02 -0.11500709621E+03  0.19609333397E+03  0.12498803888E+03 0.  0.
         23    2    1    2    0    0  0.13610213547E+02  0.97050067861E+02  0.11500709621E+03  0.16890666603E+03  0.75490900561E+02 0.  0.
        -11    1    4    4    0    0  0.18206534532E+02  0.64391021232E+02  0.11814280703E+03  0.13577703918E+03  0.00000000000E+00 0.  1.
         11    1    4    4    0    0 -0.45963209848E+01  0.32659046629E+02 -0.31357108193E+01  0.33129626857E+02  0.00000000000E+00 0.  1.
        -15    1    3    3    0    0  0.40560437440E+02 -0.96397718721E+02 -0.77386330582E+02  0.13011330120E+03  0.17770000000E+01 0. -1.
         15    1    3    3    0    0 -0.54170650988E+02 -0.65234913998E+00 -0.37620765629E+02  0.65980032762E+02  0.17770000000E+01 0. -1.
</event>
<event>
 8    1  0.2374062E-007  0.1864226E+03  0.7546771E-02  0.1065375E+00
        -11   -1    0    0    0    0  0.00000000000E+00  0.00000000000E+00  0.18250000000E+03  0.18250000000E+03  0.00000000000E+00 0.  1.
         11   -1    0    0    0    0 -0.00000000000E+00 -0.00000000000E+00 -0.18250000000E+03  0.18250000000E+03  0.00000000000E+00 0. -1.
         25    2    1    2    0    0 -0.94106407863E+02 -0.10110090440E+03  0.70702642479E+01  0.18642260708E+03  0.12500396364E+03 0.  0.
         23    2    1    2    0    0  0.94106407863E+02  0.10110090440E+03 -0.70702642479E+01  0.17857739292E+03  0.11297118107E+03 0.  0.
        -11    1    4    4    0    0  0.82462140477E+02  0.29590070244E+02  0.35516400456E+02  0.94535662955E+02  0.00000000000E+00 0.  1.
         11    1    4    4    0    0  0.11644267386E+02  0.71510834153E+02 -0.42586664703E+02  0.84041729960E+02  0.00000000000E+00 0. -1.
        -15    1    3    3    0    0 -0.16130544561E+02 -0.31515416412E+02 -0.54572265503E+02  0.65074617407E+02  0.17770000000E+01 0.  1.
         15    1    3    3    0    0 -0.77975863301E+02 -0.69585487985E+02  0.61642529751E+02  0.12134798968E+03  0.17770000000E+01 0.  1.
</event>
<event>
 8    1  0.2374062E-007  0.1866824E+03  0.7546771E-02  0.1065174E+00
        -11   -1    0    0    0    0  0.00000000000E+00  0.00000000000E+00  0.18250000000E+03  0.18250000000E+03  0.00000000000E+00 0.  1.
         11   -1    0    0    0    0 -0.00000000000E+00 -0.00000000000E+00 -0.18250000000E+03  0.18250000000E+03  0.00000000000E+00 0. -1.
         25    2    1    2    0    0 -0.75778135779E+02  0.69138192813E+02  0.93289830735E+02  0.18668235043E+03  0.12499956751E+03 0.  0.
         23    2    1    2    0    0  0.75778135779E+02 -0.69138192813E+02 -0.93289830735E+02  0.17831764957E+03  0.11212393171E+03 0.  0.
        -11    1    4    4    0    0  0.67865452894E+02 -0.37831046219E+01 -0.89488873148E+02  0.11237566460E+03  0.00000000000E+00 0.  1.
         11    1    4    4    0    0  0.79126828854E+01 -0.65355088191E+02 -0.38009575872E+01  0.65941984968E+02  0.00000000000E+00 0. -1.
        -15    1    3    3    0    0  0.29394593045E+02  0.36286382729E+02  0.81776833127E+01  0.47442342956E+02  0.17770000000E+01 0.  1.
         15    1    3    3    0    0 -0.10517272882E+03  0.32851810084E+02  0.85112147422E+02  0.13924000748E+03  0.17770000000E+01 0.  1.
</event>
<event>
 8    1  0.2374062E-007  0.1954694E+03  0.7546771E-02  0.1058576E+00
        -11   -1    0    0    0    0  0.00000000000E+00  0.00000000000E+00  0.18250000000E+03  0.18250000000E+03  0.00000000000E+00 0.  1.
         11   -1    0    0    0    0 -0.00000000000E+00 -0.00000000000E+00 -0.18250000000E+03  0.18250000000E+03  0.00000000000E+00 0. -1.
         25    2    1    2    0    0 -0.40544834339E+02 -0.10439568660E+03  0.10020685231E+03  0.19546936152E+03  0.12499806027E+03 0.  0.
         23    2    1    2    0    0  0.40544834339E+02  0.10439568660E+03 -0.10020685231E+03  0.16953063848E+03  0.78465796117E+02 0.  0.
        -11    1    4    4    0    0  0.48478321136E+02  0.11337262090E+03 -0.97635870330E+02  0.15727765882E+03  0.00000000000E+00 0.  1.
         11    1    4    4    0    0 -0.79334867966E+01 -0.89769342954E+01 -0.25709819773E+01  0.12252979655E+02  0.00000000000E+00 0. -1.
        -15    1    3    3    0    0 -0.69511657965E+02 -0.11334830579E+03  0.62162211881E+02  0.14678898914E+03  0.17770000000E+01 0. -1.
         15    1    3    3    0    0  0.28966823626E+02  0.89526191832E+01  0.38044640426E+02  0.48680372384E+02  0.17770000000E+01 0. -1.
</event>
<event>
 8    1  0.2374062E-007  0.1886642E+03  0.7546771E-02  0.1063651E+00
        -11   -1    0    0    0    0  0.00000000000E+00  0.00000000000E+00  0.18250000000E+03  0.18250000000E+03  0.00000000000E+00 0.  1.
         11   -1    0    0    0    0 -0.00000000000E+00 -0.00000000000E+00 -0.18250000000E+03  0.18250000000E+03  0.00000000000E+00 0. -1.
         25    2    1    2    0    0  0.10221586907E+02  0.42758217535E+02 -0.13430085738E+03  0.18866422648E+03  0.12499889622E+03 0.  0.
         23    2    1    2    0    0 -0.10221586907E+02 -0.42758217535E+02  0.13430085738E+03  0.17633577352E+03  0.10547435102E+03 0.  0.
        -11    1    4    4    0    0 -0.60769903183E+00 -0.74596200011E+02  0.62931623553E+02  0.97597907751E+02  0.00000000000E+00 0.  1.
         11    1    4    4    0    0 -0.96138878752E+01  0.31837982476E+02  0.71369233827E+02  0.78737865766E+02  0.00000000000E+00 0. -1.
        -15    1    3    3    0    0  0.57652118420E+02  0.49539446231E+02 -0.47935144962E+02  0.89882475170E+02  0.17770000000E+01 0.  1.
         15    1    3    3    0    0 -0.47430531513E+02 -0.67812286959E+01 -0.86365712418E+02  0.98781751314E+02  0.17770000000E+01 0.  1.
</event>
<event>
 8    1  0.2374062E-007  0.1979053E+03  0.7546771E-02  0.1056813E+00
        -11   -1    0    0    0    0  0.00000000000E+00  0.00000000000E+00  0.18250000000E+03  0.18250000000E+03  0.00000000000E+00 0. -1.
         11   -1    0    0    0    0 -0.00000000000E+00 -0.00000000000E+00 -0.18250000000E+03  0.18250000000E+03  0.00000000000E+00 0. -1.
         25    2    1    2    0    0  0.15088044432E+02  0.13039037211E+01 -0.15268256388E+03  0.19790529254E+03  0.12500076101E+03 0.  0.
         23    2    1    2    0    0 -0.15088044432E+02 -0.13039037211E+01  0.15268256388E+03  0.16709470746E+03  0.66176481463E+02 0.  0.
        -11    1    4    4    0    0  0.98753910115E+01 -0.28979373736E+02  0.69243348678E+02  0.75709766780E+02  0.00000000000E+00 0. -1.
         11    1    4    4    0    0 -0.24963435443E+02  0.27675470015E+02  0.83439215203E+02  0.91384940681E+02  0.00000000000E+00 0. -1.
        -15    1    3    3    0    0  0.55346291792E+02  0.40539139072E+02 -0.71134828490E+02  0.98843084559E+02  0.17770000000E+01 0.  1.
         15    1    3    3    0    0 -0.40258247361E+02 -0.39235235350E+02 -0.81547735391E+02  0.99062207980E+02  0.17770000000E+01 0.  1.
</event>
<event>
 8    1  0.2374062E-007  0.1886632E+03  0.7546771E-02  0.1063652E+00
        -11   -1    0    0    0    0  0.00000000000E+00  0.00000000000E+00  0.18250000000E+03  0.18250000000E+03  0.00000000000E+00 0. -1.
         11   -1    0    0    0    0 -0.00000000000E+00 -0.00000000000E+00 -0.18250000000E+03  0.18250000000E+03  0.00000000000E+00 0.  1.
         25    2    1    2    0    0 -0.44784032992E+02  0.13187512450E+03 -0.23931255216E+02  0.18866321489E+03  0.12499778240E+03 0.  0.
         23    2    1    2    0    0  0.44784032992E+02 -0.13187512450E+03  0.23931255216E+02  0.17633678511E+03  0.10547653167E+03 0.  0.
        -11    1    4    4    0    0  0.52114719047E+02 -0.11468350826E+03 -0.20968640436E+02  0.12770252500E+03  0.00000000000E+00 0.  1.
         11    1    4    4    0    0 -0.73306860552E+01 -0.17191616237E+02  0.44899895652E+02  0.48634260110E+02  0.00000000000E+00 0. -1.
        -15    1    3    3    0    0 -0.68818593988E+02  0.12198279696E+03  0.16007095036E+02  0.14097938308E+03  0.17770000000E+01 0. -1.
         15    1    3    3    0    0  0.24034560996E+02  0.98923275392E+01 -0.39938350252E+02  0.47683831812E+02  0.17770000000E+01 0. -1.
</event>
<event>
 7    1  0.2374062E-007  0.1730485E+03  0.7546771E-02  0.1076237E+00
        -11   -1    0    0    0    0  0.00000000000E+00  0.00000000000E+00  0.18250000000E+03  0.18250000000E+03  0.00000000000E+00 0. -1.
         11   -1    0    0    0    0 -0.00000000000E+00 -0.00000000000E+00 -0.18250000000E+03  0.18250000000E+03  0.00000000000E+00 0. -1.
         25    2    1    2    0    0 -0.10077280214E+03  0.22085101118E+02  0.27594064897E+01  0.16209400392E+03  0.12499576969E+03 0.  0.
        -11    1    1    2    0    0 -0.32739459994E+02 -0.55995366940E+02 -0.57837583161E+01  0.65121465123E+02  0.00000000000E+00 0. -1.
         11    1    1    2    0    0  0.13351226213E+03  0.33910265822E+02  0.30243518264E+01  0.13778453096E+03  0.00000000000E+00 0. -1.
        -15    1    3    3    0    0 -0.73915388547E+02  0.16247635276E+01 -0.57041572834E+02  0.93397126728E+02  0.17770000000E+01 0. -1.
         15    1    3    3    0    0 -0.26857413588E+02  0.20460337590E+02  0.59800979323E+02  0.68696877193E+02  0.17770000000E+01 0. -1.
</event>
<event>
 8    1  0.2374062E-007  0.1990730E+03  0.7546771E-02  0.1055978E+00
        -11   -1    0    0    0    0  0.00000000000E+00  0.00000000000E+00  0.18250000000E+03  0.18250000000E+03  0.00000000000E+00 0.  1.
         11   -1    0    0    0    0 -0.00000000000E+00 -0.00000000000E+00 -0.18250000000E+03  0.18250000000E+03  0.00000000000E+00 0.  1.
         25    2    1    2    0    0 -0.71861061701E+02 -0.46251911566E+02 -0.12923396419E+03  0.19907298937E+03  0.12500154433E+03 0.  0.
         23    2    1    2    0    0  0.71861061701E+02  0.46251911566E+02  0.12923396419E+03  0.16592701063E+03  0.59389425345E+02 0.  0.
        -11    1    4    4    0    0  0.39149545940E+01 -0.72178560312E+01 -0.22936912962E+01  0.85255694779E+01  0.00000000000E+00 0.  1.
         11    1    4    4    0    0  0.67946107107E+02  0.53469767597E+02  0.13152765549E+03  0.15740144115E+03  0.00000000000E+00 0.  1.
        -15    1    3    3    0    0 -0.46526650818E+02  0.28649607052E+02 -0.10145442200E+03  0.11524620034E+03  0.17770000000E+01 0. -1.
         15    1    3    3    0    0 -0.25334410883E+02 -0.74901518618E+02 -0.27779542191E+02  0.83826789032E+02  0.17770000000E+01 0. -1.
</event>
<event>
 8    1  0.2374062E-007  0.1831233E+03  0.7546771E-02  0.1067960E+00
        -11   -1    0    0    0    0  0.00000000000E+00  0.00000000000E+00  0.18250000000E+03  0.18250000000E+03  0.00000000000E+00 0.  1.
         11   -1    0    0    0    0 -0.00000000000E+00 -0.00000000000E+00 -0.18250000000E+03  0.18250000000E+03  0.00000000000E+00 0.  1.
         25    2    1    2    0    0 -0.85830761410E+02  0.10003316506E+03 -0.89254343528E+01  0.18187670939E+03  0.12500368124E+03 0.  0.
         23    2    1    2    0    0  0.85830761410E+02 -0.10003316506E+03  0.89254343528E+01  0.18312329061E+03  0.12681057712E+03 0.  0.
        -11    1    4    4    0    0  0.61059942327E+02 -0.41367571142E+02  0.64972887857E+02  0.98290735350E+02  0.00000000000E+00 0.  1.
         11    1    4    4    0    0  0.24770819083E+02 -0.58665593916E+02 -0.56047453504E+02  0.84832555259E+02  0.00000000000E+00 0.  1.
        -15    1    3    3    0    0  0.70793164859E+01  0.67322176241E+02 -0.39910380050E+02  0.78602724511E+02  0.17770000000E+01 0. -1.
         15    1    3    3    0    0 -0.92910077896E+02  0.32710988817E+02  0.30984945697E+02  0.10327398488E+03  0.17770000000E+01 0. -1.
</event>
<event>
 8    1  0.2374062E-007  0.1889279E+03  0.7546771E-02  0.1063450E+00
        -11   -1    0    0    0    0  0.00000000000E+00  0.00000000000E+00  0.18250000000E+03  0.18250000000E+03  0.00000000000E+00 0.  1.
         11   -1    0    0    0    0 -0.00000000000E+00 -0.00000000000E+00 -0.18250000000E+03  0.18250000000E+03  0.00000000000E+00 0. -1.
         25    2    1    2    0    0 -0.13925168775E+03  0.26001763913E+02 -0.92361565704E+00  0.18892791859E+03  0.12500312432E+03 0.  0.
         23    2    1    2    0    0  0.13925168775E+03 -0.26001763913E+02  0.92361565704E+00  0.17607208141E+03  0.10456290221E+03 0.  0.
        -11    1    4    4    0    0  0.35510236156E+02 -0.49745337410E+02  0.26501563055E+02  0.66617627624E+02  0.00000000000E+00 0.  1.
         11    1    4    4    0    0  0.10374145159E+03  0.23743573497E+02 -0.25577947398E+02  0.10945445379E+03  0.00000000000E+00 0. -1.
        -15    1    3    3    0    0 -0.50966120896E+02 -0.15986279658E+02  0.54667958608E+02  0.76451618975E+02  0.17770000000E+01 0.  1.
         15    1    3    3    0    0 -0.88285566850E+02  0.41988043571E+02 -0.55591574266E+02  0.11247629962E+03  0.17770000000E+01 0.  1.
</event>
<event>
 7    1  0.2374062E-007  0.1737529E+03  0.7546771E-02  0.1075639E+00
        -11   -1    0    0    0    0  0.00000000000E+00  0.00000000000E+00  0.18250000000E+03  0.18250000000E+03  0.00000000000E+00 0.  1.
         11   -1    0    0    0    0 -0.00000000000E+00 -0.00000000000E+00 -0.18250000000E+03  0.18250000000E+03  0.00000000000E+00 0.  1.
         25    2    1    2    0    0 -0.10115598604E+02  0.10958970619E+03  0.64056707686E+02  0.17843818480E+03  0.12499877983E+03 0.  0.
        -11    1    1    2    0    0  0.38960242595E+02  0.89248910481E+01 -0.49650833961E+02  0.63739779544E+02  0.00000000000E+00 0.  1.
         11    1    1    2    0    0 -0.28844643991E+02 -0.11851459724E+03 -0.14405873725E+02  0.12282203566E+03  0.00000000000E+00 0.  1.
        -15    1    3    3    0    0  0.50597282462E+02  0.38092295140E+02 -0.25081802773E+01  0.63407859441E+02  0.17770000000E+01 0. -1.
         15    1    3    3    0    0 -0.60712881066E+02  0.71497411047E+02  0.66564887963E+02  0.11503032536E+03  0.17770000000E+01 0. -1.
</event>
<event>
 7    1  0.2374062E-007  0.1784445E+03  0.7546771E-02  0.1071730E+00
        -11   -1    0    0    0    0  0.00000000000E+00  0.00000000000E+00  0.18250000000E+03  0.18250000000E+03  0.00000000000E+00 0.  1.
         11   -1    0    0    0    0 -0.00000000000E+00 -0.00000000000E+00 -0.18250000000E+03  0.18250000000E+03  0.00000000000E+00 0. -1.
         25    2    1    2    0    0  0.45162037351E+02 -0.10550895770E+03  0.51893199804E+02  0.17745449848E+03  0.12500178027E+03 0.  0.
        -11    1    1    2    0    0 -0.28766734205E+02  0.14464547343E+02  0.43856298802E+02  0.54407013070E+02  0.00000000000E+00 0.  1.
         11    1    1    2    0    0 -0.16395303146E+02  0.91044410362E+02 -0.95749498606E+02  0.13313848845E+03  0.00000000000E+00 0. -1.
        -15    1    3    3    0    0  0.69870096317E+02 -0.12149215027E+03  0.41153244514E+02  0.14607847274E+03  0.17770000000E+01 0.  1.
         15    1    3    3    0    0 -0.24708058966E+02  0.15983192563E+02  0.10739955290E+02  0.31376025736E+02  0.17770000000E+01 0.  1.
</event>
<event>
 8    1  0.2374062E-007  0.1890185E+03  0.7546771E-02  0.1063381E+00
        -11   -1    0    0    0    0  0.00000000000E+00  0.00000000000E+00  0.18250000000E+03  0.18250000000E+03  0.00000000000E+00 0. -1.
         11   -1    0    0    0    0 -0.00000000000E+00 -0.00000000000E+00 -0.18250000000E+03  0.18250000000E+03  0.00000000000E+00 0.  1.
         25    2    1    2    0    0  0.87394497059E+02  0.70477715892E+02 -0.86588924429E+02  0.18901846376E+03  0.12500172501E+03 0.  0.
         23    2    1    2    0    0 -0.87394497059E+02 -0.70477715892E+02  0.86588924429E+02  0.17598153624E+03  0.10424467713E+03 0.  0.
        -11    1    4    4    0    0 -0.75282288149E+02 -0.10394907978E+02  0.85891883084E+02  0.11468606106E+03  0.00000000000E+00 0. -1.
         11    1    4    4    0    0 -0.12112208911E+02 -0.60082807915E+02  0.69704134542E+00  0.61295475186E+02  0.00000000000E+00 0.  1.
        -15    1    3    3    0    0 -0.88395063915E+01  0.67570590819E+02 -0.17134974083E+02  0.70290018372E+02  0.17770000000E+01 0. -1.
         15    1    3    3    0    0  0.96234003451E+02  0.29071250731E+01 -0.69453950346E+02  0.11872844539E+03  0.17770000000E+01 0. -1.
</event>
<event>
 8    1  0.2374062E-007  0.1886251E+03  0.7546771E-02  0.1063681E+00
        -11   -1    0    0    0    0  0.00000000000E+00  0.00000000000E+00  0.18250000000E+03  0.18250000000E+03  0.00000000000E+00 0. -1.
         11   -1    0    0    0    0 -0.00000000000E+00 -0.00000000000E+00 -0.18250000000E+03  0.18250000000E+03  0.00000000000E+00 0.  1.
         25    2    1    2    0    0 -0.11818726523E+03 -0.75264649181E+02  0.17914503653E+02  0.18862505989E+03  0.12500194678E+03 0.  0.
         23    2    1    2    0    0  0.11818726523E+03  0.75264649181E+02 -0.17914503653E+02  0.17637494011E+03  0.10561341287E+03 0.  0.
        -11    1    4    4    0    0  0.32637238188E+01  0.58929659239E+02 -0.11420659363E+02  0.60114790954E+02  0.00000000000E+00 0.  1.
         11    1    4    4    0    0  0.11492354141E+03  0.16334989942E+02 -0.64938442897E+01  0.11626014915E+03  0.00000000000E+00 0. -1.
        -15    1    3    3    0    0 -0.12830843308E+03 -0.64065372028E+02  0.50994501213E+02  0.15222031000E+03  0.17770000000E+01 0. -1.
         15    1    3    3    0    0  0.10121167849E+02 -0.11199277153E+02 -0.33079997560E+02  0.36404749896E+02  0.17770000000E+01 0. -1.
</event>
<event>
 8    1  0.2374062E-007  0.1955574E+03  0.7546771E-02  0.1058511E+00
        -11   -1    0    0    0    0  0.00000000000E+00  0.00000000000E+00  0.18250000000E+03  0.18250000000E+03  0.00000000000E+00 0. -1.
         11   -1    0    0    0    0 -0.00000000000E+00 -0.00000000000E+00 -0.18250000000E+03  0.18250000000E+03  0.00000000000E+00 0.  1.
         25    2    1    2    0    0 -0.10238251488E+03  0.84931135494E+02  0.70167399024E+02  0.19555741357E+03  0.12499504385E+03 0.  0.
         23    2    1    2    0    0  0.10238251488E+03 -0.84931135494E+02 -0.70167399024E+02  0.16944258643E+03  0.78050298409E+02 0.  0.
        -11    1    4    4    0    0  0.61509250489E+02 -0.78167210904E+01 -0.50524384398E+02  0.79982513358E+02  0.00000000000E+00 0.  1.
         11    1    4    4    0    0  0.40873264389E+02 -0.77114414404E+02 -0.19643014625E+02  0.89460073073E+02  0.00000000000E+00 0. -1.
        -15    1    3    3    0    0 -0.42272991309E+01  0.20293698483E+02  0.75085615396E+02  0.77914771543E+02  0.17770000000E+01 0. -1.
         15    1    3    3    0    0 -0.98155215747E+02  0.64637437011E+02 -0.49182163727E+01  0.11764264203E+03  0.17770000000E+01 0. -1.
</event>
<event>
 8    1  0.2374062E-007  0.1874477E+03  0.7546771E-02  0.1064583E+00
        -11   -1    0    0    0    0  0.00000000000E+00  0.00000000000E+00  0.18250000000E+03  0.18250000000E+03  0.00000000000E+00 0.  1.
         11   -1    0    0    0    0 -0.00000000000E+00 -0.00000000000E+00 -0.18250000000E+03  0.18250000000E+03  0.00000000000E+00 0. -1.
         25    2    1    2    0    0 -0.10609429184E+03 -0.77050476934E+02 -0.48170459817E+02  0.18744770281E+03  0.12499389319E+03 0.  0.
         23    2    1    2    0    0  0.10609429184E+03  0.77050476934E+02  0.48170459817E+02  0.17755229719E+03  0.10959767461E+03 0.  0.
        -11    1    4    4    0    0  0.49524053198E+02  0.29846624762E+02  0.78819023558E+02  0.97754239445E+02  0.00000000000E+00 0.  1.
         11    1    4    4    0    0  0.56570238642E+02  0.47203852171E+02 -0.30648563740E+02  0.79798057741E+02  0.00000000000E+00 0. -1.
        -15    1    3    3    0    0 -0.73065225691E+02 -0.10775562594E+03 -0.55833669461E+02  0.14166989272E+03  0.17770000000E+01 0. -1.
         15    1    3    3    0    0 -0.33029066149E+02  0.30705149009E+02  0.76632096436E+01  0.45777810099E+02  0.17770000000E+01 0. -1.
</event>
<event>
 8    1  0.2374062E-007  0.1883806E+03  0.7546771E-02  0.1063868E+00
        -11   -1    0    0    0    0  0.00000000000E+00  0.00000000000E+00  0.18250000000E+03  0.18250000000E+03  0.00000000000E+00 0.  1.
         11   -1    0    0    0    0 -0.00000000000E+00 -0.00000000000E+00 -0.18250000000E+03  0.18250000000E+03  0.00000000000E+00 0. -1.
         25    2    1    2    0    0  0.11172406889E+03  0.71524512346E+02  0.47570233963E+02  0.18838062273E+03  0.12500523360E+03 0.  0.
         23    2    1    2    0    0 -0.11172406889E+03 -0.71524512346E+02 -0.47570233963E+02  0.17661937727E+03  0.10645869543E+03 0.  0.
        -11    1    4    4    0    0 -0.12350887656E+03 -0.30981708298E+02 -0.29583054233E+02  0.13072668410E+03  0.00000000000E+00 0.  1.
         11    1    4    4    0    0  0.11784807667E+02 -0.40542804048E+02 -0.17987179729E+02  0.45892693171E+02  0.00000000000E+00 0. -1.
        -15    1    3    3    0    0  0.11113585238E+03  0.60023516569E+02 -0.12733155353E+02  0.12696177062E+03  0.17770000000E+01 0.  1.
         15    1    3    3    0    0  0.58821650840E+00  0.11500995776E+02  0.60303389316E+02  0.61418852110E+02  0.17770000000E+01 0.  1.
</event>
<event>
 8    1  0.2374062E-007  0.1829879E+03  0.7546771E-02  0.1068067E+00
        -11   -1    0    0    0    0  0.00000000000E+00  0.00000000000E+00  0.18250000000E+03  0.18250000000E+03  0.00000000000E+00 0.  1.
         11   -1    0    0    0    0 -0.00000000000E+00 -0.00000000000E+00 -0.18250000000E+03  0.18250000000E+03  0.00000000000E+00 0. -1.
         25    2    1    2    0    0  0.54427205926E+02 -0.90625426696E+02 -0.81748619095E+02  0.18298793938E+03  0.12500584196E+03 0.  0.
         23    2    1    2    0    0 -0.54427205926E+02  0.90625426696E+02  0.81748619095E+02  0.18201206062E+03  0.12357291281E+03 0.  0.
        -11    1    4    4    0    0 -0.56964312499E+02  0.31671127501E+02 -0.16655793727E+02  0.67271157864E+02  0.00000000000E+00 0. -1.
         11    1    4    4    0    0  0.25371065739E+01  0.58954299195E+02  0.98404412823E+02  0.11474090276E+03  0.00000000000E+00 0.  1.
        -15    1    3    3    0    0  0.71876835775E+02 -0.16946245654E+02 -0.32970141319E+01  0.73942428916E+02  0.17770000000E+01 0. -1.
         15    1    3    3    0    0 -0.17449629850E+02 -0.73679181042E+02 -0.78451604964E+02  0.10904551046E+03  0.17770000000E+01 0. -1.
</event>
<event>
 8    1  0.2374062E-007  0.1832408E+03  0.7546771E-02  0.1067867E+00
        -11   -1    0    0    0    0  0.00000000000E+00  0.00000000000E+00  0.18250000000E+03  0.18250000000E+03  0.00000000000E+00 0.  1.
         11   -1    0    0    0    0 -0.00000000000E+00 -0.00000000000E+00 -0.18250000000E+03  0.18250000000E+03  0.00000000000E+00 0. -1.
         25    2    1    2    0    0 -0.11021976706E+03  0.68838489540E+02 -0.32626968312E+02  0.18324084319E+03  0.12500221142E+03 0.  0.
         23    2    1    2    0    0  0.11021976706E+03 -0.68838489540E+02  0.32626968312E+02  0.18175915681E+03  0.12281993865E+03 0.  0.
        -11    1    4    4    0    0  0.40581339008E+02 -0.84012819673E+02 -0.17098830244E+02  0.94854461892E+02  0.00000000000E+00 0. -1.
         11    1    4    4    0    0  0.69638428049E+02  0.15174330133E+02  0.49725798556E+02  0.86904694915E+02  0.00000000000E+00 0.  1.
        -15    1    3    3    0    0 -0.85563941650E+02  0.44738479981E+01  0.29295303142E+02  0.90568073523E+02  0.17770000000E+01 0.  1.
         15    1    3    3    0    0 -0.24655825408E+02  0.64364641542E+02 -0.61922271454E+02  0.92672769670E+02  0.17770000000E+01 0.  1.
</event>
<event>
 8    1  0.2374062E-007  0.1833712E+03  0.7546771E-02  0.1067763E+00
        -11   -1    0    0    0    0  0.00000000000E+00  0.00000000000E+00  0.18250000000E+03  0.18250000000E+03  0.00000000000E+00 0. -1.
         11   -1    0    0    0    0 -0.00000000000E+00 -0.00000000000E+00 -0.18250000000E+03  0.18250000000E+03  0.00000000000E+00 0.  1.
         25    2    1    2    0    0  0.22198646785E+02 -0.38942706216E+02 -0.12645563279E+03  0.18337119604E+03  0.12499861674E+03 0.  0.
         23    2    1    2    0    0 -0.22198646785E+02  0.38942706216E+02  0.12645563279E+03  0.18162880396E+03  0.12242826910E+03 0.  0.
        -11    1    4    4    0    0 -0.48154257054E+02  0.44380547114E+01  0.37484383994E+00  0.48359790218E+02  0.00000000000E+00 0.  1.
         11    1    4    4    0    0  0.25955610269E+02  0.34504651505E+02  0.12608078895E+03  0.13326901374E+03  0.00000000000E+00 0. -1.
        -15    1    3    3    0    0  0.16087207000E+02 -0.33821445306E+02 -0.15199800474E+03  0.15655427035E+03  0.17770000000E+01 0. -1.
         15    1    3    3    0    0  0.61114397848E+01 -0.51212609100E+01  0.25542371951E+02  0.26816925689E+02  0.17770000000E+01 0. -1.
</event>
<event>
 8    1  0.2374062E-007  0.1984977E+03  0.7546771E-02  0.1056389E+00
        -11   -1    0    0    0    0  0.00000000000E+00  0.00000000000E+00  0.18250000000E+03  0.18250000000E+03  0.00000000000E+00 0.  1.
         11   -1    0    0    0    0 -0.00000000000E+00 -0.00000000000E+00 -0.18250000000E+03  0.18250000000E+03  0.00000000000E+00 0.  1.
         25    2    1    2    0    0 -0.12655006652E+03  0.80961757420E+02 -0.34721675162E+02  0.19849774450E+03  0.12500413731E+03 0.  0.
         23    2    1    2    0    0  0.12655006652E+03 -0.80961757420E+02  0.34721675162E+02  0.16650225550E+03  0.62830572660E+02 0.  0.
        -11    1    4    4    0    0  0.39749510744E+02  0.37471495640E+01  0.18956390335E+02  0.44197392103E+02  0.00000000000E+00 0.  1.
         11    1    4    4    0    0  0.86800555772E+02 -0.84708906984E+02  0.15765284827E+02  0.12230486340E+03  0.00000000000E+00 0.  1.
        -15    1    3    3    0    0 -0.90975923307E+02 -0.89755900081E+01 -0.43713665701E+02  0.10134703812E+03  0.17770000000E+01 0. -1.
         15    1    3    3    0    0 -0.35574143210E+02  0.89937347428E+02  0.89919905395E+01  0.97150706381E+02  0.17770000000E+01 0. -1.
</event>
<event>
 7    1  0.2374062E-007  0.1766595E+03  0.7546771E-02  0.1073201E+00
        -11   -1    0    0    0    0  0.00000000000E+00  0.00000000000E+00  0.18250000000E+03  0.18250000000E+03  0.00000000000E+00 0.  1.
         11   -1    0    0    0    0 -0.00000000000E+00 -0.00000000000E+00 -0.18250000000E+03  0.18250000000E+03  0.00000000000E+00 0. -1.
         25    2    1    2    0    0  0.33639197526E+02 -0.17462654207E+02 -0.10155919733E+03  0.16545640376E+03  0.12500004433E+03 0.  0.
        -11    1    1    2    0    0 -0.28058776492E+02  0.72735674182E+02  0.11816099795E+03  0.14156198174E+03  0.00000000000E+00 0.  1.
         11    1    1    2    0    0 -0.55804210348E+01 -0.55273019975E+02 -0.16601800618E+02  0.57981614498E+02  0.00000000000E+00 0. -1.
        -15    1    3    3    0    0 -0.31058845762E+02  0.27480120150E+00  0.12167638509E+02  0.33405636825E+02  0.17770000000E+01 0.  1.
         15    1    3    3    0    0  0.64698043289E+02 -0.17737455409E+02 -0.11372683584E+03  0.13205076694E+03  0.17770000000E+01 0.  1.
</event>
<event>
 8    1  0.2374062E-007  0.1871035E+03  0.7546771E-02  0.1064848E+00
        -11   -1    0    0    0    0  0.00000000000E+00  0.00000000000E+00  0.18250000000E+03  0.18250000000E+03  0.00000000000E+00 0. -1.
         11   -1    0    0    0    0 -0.00000000000E+00 -0.00000000000E+00 -0.18250000000E+03  0.18250000000E+03  0.00000000000E+00 0.  1.
         25    2    1    2    0    0  0.44294808298E+02  0.38720604603E+02  0.12616663940E+03  0.18710348523E+03  0.12501351136E+03 0.  0.
         23    2    1    2    0    0 -0.44294808298E+02 -0.38720604603E+02 -0.12616663940E+03  0.17789651477E+03  0.11076025373E+03 0.  0.
        -11    1    4    4    0    0 -0.56794637802E+02 -0.58081505033E+02 -0.13119506931E+03  0.15430890551E+03  0.00000000000E+00 0.  1.
         11    1    4    4    0    0  0.12499829503E+02  0.19360900430E+02  0.50284299047E+01  0.23587609255E+02  0.00000000000E+00 0. -1.
        -15    1    3    3    0    0  0.70413980916E+02  0.65476965608E+02  0.67433838956E+02  0.11745570271E+03  0.17770000000E+01 0. -1.
         15    1    3    3    0    0 -0.26119172618E+02 -0.26756361005E+02  0.58732800449E+02  0.69647782521E+02  0.17770000000E+01 0. -1.
</event>
<event>
 8    1  0.4185215E-007  0.1890288E+03  0.7546771E-02  0.1063374E+00
        -11   -1    0    0    0    0  0.00000000000E+00  0.00000000000E+00  0.18250000000E+03  0.18250000000E+03  0.00000000000E+00 0.  1.
         11   -1    0    0    0    0 -0.00000000000E+00 -0.00000000000E+00 -0.18250000000E+03  0.18250000000E+03  0.00000000000E+00 0. -1.
         25    2    1    2    0    0 -0.48807003918E+02  0.12410484333E+03  0.48195375232E+02  0.18902875855E+03  0.12499976638E+03 0.  0.
         23    2    1    2    0    0  0.48807003918E+02 -0.12410484333E+03 -0.48195375232E+02  0.17597124145E+03  0.10420627550E+03 0.  0.
        -11    1    4    4    0    0  0.10346386730E+02 -0.52440701723E+02  0.31548475818E+02  0.62067553858E+02  0.00000000000E+00 0.  1.
         11    1    4    4    0    0  0.38460617188E+02 -0.71664141608E+02 -0.79743851049E+02  0.11390368759E+03  0.00000000000E+00 0. -1.
        -15    1    3    3    0    0  0.35568961545E+01  0.88318908677E+02 -0.25277770605E+02  0.91951098720E+02  0.17770000000E+01 0. -1.
         15    1    3    3    0    0 -0.52363900072E+02  0.35785934654E+02  0.73473145837E+02  0.97077659829E+02  0.17770000000E+01 0. -1.
</event>
<event>
 8    1  0.2374062E-007  0.1892114E+03  0.7546771E-02  0.1063235E+00
        -11   -1    0    0    0    0  0.00000000000E+00  0.00000000000E+00  0.18250000000E+03  0.18250000000E+03  0.00000000000E+00 0. -1.
         11   -1    0    0    0    0 -0.00000000000E+00 -0.00000000000E+00 -0.18250000000E+03  0.18250000000E+03  0.00000000000E+00 0.  1.
         25    2    1    2    0    0 -0.12429337647E+03  0.66683891192E+02 -0.16738988450E+02  0.18921142155E+03  0.12500073412E+03 0.  0.
         23    2    1    2    0    0  0.12429337647E+03 -0.66683891192E+02  0.16738988450E+02  0.17578857845E+03  0.10356565937E+03 0.  0.
        -11    1    4    4    0    0  0.42137162998E+02 -0.80727798985E+02  0.15872147827E+02  0.92436156947E+02  0.00000000000E+00 0.  1.
         11    1    4    4    0    0  0.82156213475E+02  0.14043907792E+02  0.86684062267E+00  0.83352421508E+02  0.00000000000E+00 0. -1.
        -15    1    3    3    0    0 -0.42211065130E+02  0.41903261204E+02  0.52217284720E+02  0.79167290414E+02  0.17770000000E+01 0.  1.
         15    1    3    3    0    0 -0.82082311343E+02  0.24780629988E+02 -0.68956273170E+02  0.11004413113E+03  0.17770000000E+01 0.  1.
</event>
<event>
 8    1  0.2374062E-007  0.1889135E+03  0.7546771E-02  0.1063461E+00
        -11   -1    0    0    0    0  0.00000000000E+00  0.00000000000E+00  0.18250000000E+03  0.18250000000E+03  0.00000000000E+00 0.  1.
         11   -1    0    0    0    0 -0.00000000000E+00 -0.00000000000E+00 -0.18250000000E+03  0.18250000000E+03  0.00000000000E+00 0. -1.
         25    2    1    2    0    0 -0.80750032116E+02  0.85114980081E+02 -0.79361487788E+02  0.18891345266E+03  0.12499967733E+03 0.  0.
         23    2    1    2    0    0  0.80750032116E+02 -0.85114980081E+02  0.79361487788E+02  0.17608654734E+03  0.10460926769E+03 0.  0.
        -11    1    4    4    0    0  0.26500822509E+02 -0.90778272920E+02  0.76206601448E+02  0.12145136694E+03  0.00000000000E+00 0.  1.
         11    1    4    4    0    0  0.54249209606E+02  0.56632928393E+01  0.31548863404E+01  0.54635180393E+02  0.00000000000E+00 0. -1.
        -15    1    3    3    0    0 -0.95223914890E+02  0.22548045770E+02 -0.16921250301E+02  0.99325197084E+02  0.17770000000E+01 0. -1.
         15    1    3    3    0    0  0.14473882774E+02  0.62566934311E+02 -0.62440237487E+02  0.89588255581E+02  0.17770000000E+01 0. -1.
</event>
<event>
 8    1  0.2374062E-007  0.1884080E+03  0.7546771E-02  0.1063847E+00
        -11   -1    0    0    0    0  0.00000000000E+00  0.00000000000E+00  0.18250000000E+03  0.18250000000E+03  0.00000000000E+00 0. -1.
         11   -1    0    0    0    0 -0.00000000000E+00 -0.00000000000E+00 -0.18250000000E+03  0.18250000000E+03  0.00000000000E+00 0.  1.
         25    2    1    2    0    0  0.65216232149E+01 -0.87672574687E+02  0.11019443988E+03  0.18840797672E+03  0.12500295672E+03 0.  0.
         23    2    1    2    0    0 -0.65216232149E+01  0.87672574687E+02 -0.11019443988E+03  0.17659202328E+03  0.10636219339E+03 0.  0.
        -11    1    4    4    0    0 -0.22224101255E+02  0.10896509997E+03 -0.93655994055E+02  0.14539170854E+03  0.00000000000E+00 0.  1.
         11    1    4    4    0    0  0.15702478041E+02 -0.21292525285E+02 -0.16538445828E+02  0.31200314743E+02  0.00000000000E+00 0. -1.
        -15    1    3    3    0    0 -0.41957521130E+02  0.10461049433E+02  0.28592990021E+02  0.51870839033E+02  0.17770000000E+01 0.  1.
         15    1    3    3    0    0  0.48479144345E+02 -0.98133624121E+02  0.81601449862E+02  0.13653713769E+03  0.17770000000E+01 0.  1.
</event>
<event>
 8    1  0.2374062E-007  0.1867889E+03  0.7546771E-02  0.1065091E+00
        -11   -1    0    0    0    0  0.00000000000E+00  0.00000000000E+00  0.18250000000E+03  0.18250000000E+03  0.00000000000E+00 0.  1.
         11   -1    0    0    0    0 -0.00000000000E+00 -0.00000000000E+00 -0.18250000000E+03  0.18250000000E+03  0.00000000000E+00 0. -1.
         25    2    1    2    0    0 -0.76844142710E+02  0.11163256352E+03 -0.29970038627E+02  0.18678889649E+03  0.12500014852E+03 0.  0.
         23    2    1    2    0    0  0.76844142710E+02 -0.11163256352E+03  0.29970038627E+02  0.17821110351E+03  0.11177720113E+03 0.  0.
        -11    1    4    4    0    0  0.55175912837E+02 -0.24316239780E+02  0.58319080209E+02  0.83885493328E+02  0.00000000000E+00 0.  1.
         11    1    4    4    0    0  0.21668229873E+02 -0.87316323740E+02 -0.28349041583E+02  0.94325610181E+02  0.00000000000E+00 0. -1.
        -15    1    3    3    0    0 -0.39818457062E+02 -0.22102781656E+02 -0.84402661938E+01  0.46351249198E+02  0.17770000000E+01 0. -1.
         15    1    3    3    0    0 -0.37025685648E+02  0.13373534518E+03 -0.21529772433E+02  0.14043764729E+03  0.17770000000E+01 0. -1.
</event>
<event>
 8    1  0.2374062E-007  0.1879920E+03  0.7546771E-02  0.1064165E+00
        -11   -1    0    0    0    0  0.00000000000E+00  0.00000000000E+00  0.18250000000E+03  0.18250000000E+03  0.00000000000E+00 0.  1.
         11   -1    0    0    0    0 -0.00000000000E+00 -0.00000000000E+00 -0.18250000000E+03  0.18250000000E+03  0.00000000000E+00 0. -1.
         25    2    1    2    0    0 -0.10206307909E+03 -0.69577552009E+02  0.66761716042E+02  0.18799195626E+03  0.12500376407E+03 0.  0.
         23    2    1    2    0    0  0.10206307909E+03  0.69577552009E+02 -0.66761716042E+02  0.17700804374E+03  0.10778132010E+03 0.  0.
        -11    1    4    4    0    0  0.18114160810E+02  0.45042836135E+02  0.21190540593E+02  0.52971869134E+02  0.00000000000E+00 0.  1.
         11    1    4    4    0    0  0.83948918284E+02  0.24534715875E+02 -0.87952256635E+02  0.12403617461E+03  0.00000000000E+00 0. -1.
        -15    1    3    3    0    0 -0.22241031832E+02  0.31593558826E+02 -0.72793457537E+01  0.39356868014E+02  0.17770000000E+01 0.  1.
         15    1    3    3    0    0 -0.79822047262E+02 -0.10117111084E+03  0.74041061795E+02  0.14863508825E+03  0.17770000000E+01 0.  1.
</event>
<event>
 8    1  0.2374062E-007  0.1889981E+03  0.7546771E-02  0.1063397E+00
        -11   -1    0    0    0    0  0.00000000000E+00  0.00000000000E+00  0.18250000000E+03  0.18250000000E+03  0.00000000000E+00 0. -1.
         11   -1    0    0    0    0 -0.00000000000E+00 -0.00000000000E+00 -0.18250000000E+03  0.18250000000E+03  0.00000000000E+00 0. -1.
         25    2    1    2    0    0 -0.13919489393E+03 -0.24356510876E+02 -0.11279750114E+02  0.18899810167E+03  0.12499836621E+03 0.  0.
         23    2    1    2    0    0  0.13919489393E+03  0.24356510876E+02  0.11279750114E+02  0.17600189833E+03  0.10431192326E+03 0.  0.
        -11    1    4    4    0    0  0.11514385288E+03  0.37002299522E+02  0.48171002736E+02  0.13018341880E+03  0.00000000000E+00 0. -1.
         11    1    4    4    0    0  0.24051041044E+02 -0.12645788646E+02 -0.36891252621E+02  0.45818479522E+02  0.00000000000E+00 0. -1.
        -15    1    3    3    0    0  0.20630598639E+02 -0.18492160370E+02  0.50712739032E+01  0.28221572304E+02  0.17770000000E+01 0. -1.
         15    1    3    3    0    0 -0.15982549257E+03 -0.58643505067E+01 -0.16351024018E+02  0.16077652937E+03  0.17770000000E+01 0. -1.
</event>
<event>
 8    1  0.2374062E-007  0.1872813E+03  0.7546771E-02  0.1064711E+00
        -11   -1    0    0    0    0  0.00000000000E+00  0.00000000000E+00  0.18250000000E+03  0.18250000000E+03  0.00000000000E+00 0. -1.
         11   -1    0    0    0    0 -0.00000000000E+00 -0.00000000000E+00 -0.18250000000E+03  0.18250000000E+03  0.00000000000E+00 0.  1.
         25    2    1    2    0    0 -0.11934167629E+03  0.68868676152E+02  0.21505840593E+02  0.18728125295E+03  0.12500574495E+03 0.  0.
         23    2    1    2    0    0  0.11934167629E+03 -0.68868676152E+02 -0.21505840593E+02  0.17771874705E+03  0.11016406682E+03 0.  0.
        -11    1    4    4    0    0  0.11560869880E+03 -0.47315274126E+02  0.24025177044E+02  0.12720579993E+03  0.00000000000E+00 0. -1.
         11    1    4    4    0    0  0.37329774931E+01 -0.21553402026E+02 -0.45531017637E+02  0.50512947122E+02  0.00000000000E+00 0.  1.
        -15    1    3    3    0    0 -0.15507534608E+02 -0.21711810513E+02 -0.29981947778E+02  0.40174136792E+02  0.17770000000E+01 0. -1.
         15    1    3    3    0    0 -0.10383414168E+03  0.90580486666E+02  0.51487788371E+02  0.14710711616E+03  0.17770000000E+01 0. -1.
</event>
<event>
 7    1  0.2374062E-007  0.1718545E+03  0.7546771E-02  0.1077259E+00
        -11   -1    0    0    0    0  0.00000000000E+00  0.00000000000E+00  0.18250000000E+03  0.18250000000E+03  0.00000000000E+00 0. -1.
         11   -1    0    0    0    0 -0.00000000000E+00 -0.00000000000E+00 -0.18250000000E+03  0.18250000000E+03  0.00000000000E+00 0. -1.
         25    2    1    2    0    0 -0.97956439116E+02  0.15762056039E+02 -0.30026072057E+02  0.16238574235E+03  0.12499463165E+03 0.  0.
        -11    1    1    2    0    0 -0.45444296933E+01  0.67299600813E+02  0.66538809081E+00  0.67456140211E+02  0.00000000000E+00 0. -1.
         11    1    1    2    0    0  0.10250086881E+03 -0.83061656852E+02  0.29360683966E+02  0.13515811744E+03  0.00000000000E+00 0. -1.
        -15    1    3    3    0    0 -0.10286794745E+03  0.39412968010E+02  0.15066822501E+02  0.11119965616E+03  0.17770000000E+01 0. -1.
         15    1    3    3    0    0  0.49115083385E+01 -0.23650911971E+02 -0.45092894558E+02  0.51186086194E+02  0.17770000000E+01 0. -1.
</event>
<event>
 8    1  0.2374062E-007  0.1956832E+03  0.7546771E-02  0.1058420E+00
        -11   -1    0    0    0    0  0.00000000000E+00  0.00000000000E+00  0.18250000000E+03  0.18250000000E+03  0.00000000000E+00 0.  1.
         11   -1    0    0    0    0 -0.00000000000E+00 -0.00000000000E+00 -0.18250000000E+03  0.18250000000E+03  0.00000000000E+00 0. -1.
         25    2    1    2    0    0 -0.56593899236E+02 -0.12931521697E+03 -0.52382537079E+02  0.19568322504E+03  0.12499079807E+03 0.  0.
         23    2    1    2    0    0  0.56593899236E+02  0.12931521697E+03  0.52382537079E+02  0.16931677496E+03  0.77452858701E+02 0.  0.
        -11    1    4    4    0    0  0.19658607466E+02  0.98101173616E+02  0.28494272614E+01  0.10009205937E+03  0.00000000000E+00 0. -1.
         11    1    4    4    0    0  0.36935291769E+02  0.31214043351E+02  0.49533109818E+02  0.69224715591E+02  0.00000000000E+00 0.  1.
        -15    1    3    3    0    0 -0.68666985698E+02 -0.49906811570E+02 -0.73844245273E+02  0.11252544181E+03  0.17770000000E+01 0.  1.
         15    1    3    3    0    0  0.12073086462E+02 -0.79408405397E+02  0.21461708194E+02  0.83157783231E+02  0.17770000000E+01 0.  1.
</event>
<event>
 7    1  0.2374062E-007  0.2004351E+03  0.7546771E-02  0.1055012E+00
        -11   -1    0    0    0    0  0.00000000000E+00  0.00000000000E+00  0.18250000000E+03  0.18250000000E+03  0.00000000000E+00 0. -1.
         11   -1    0    0    0    0 -0.00000000000E+00 -0.00000000000E+00 -0.18250000000E+03  0.18250000000E+03  0.00000000000E+00 0.  1.
         25    2    1    2    0    0  0.24807726639E+02 -0.13935841997E+03 -0.67176392892E+02  0.20043507792E+03  0.12500144071E+03 0.  0.
        -11    1    1    2    0    0  0.24863961286E+01  0.87269410929E+02  0.20999021882E+02  0.89794716824E+02  0.00000000000E+00 0. -1.
         11    1    1    2    0    0 -0.27294122768E+02  0.52089009045E+02  0.46177371010E+02  0.74770205258E+02  0.00000000000E+00 0.  1.
        -15    1    3    3    0    0 -0.48220937334E+02 -0.80906638317E+02 -0.22990160221E+02  0.96968284078E+02  0.17770000000E+01 0.  1.
         15    1    3    3    0    0  0.73028663973E+02 -0.58451781657E+02 -0.44186232672E+02  0.10346679384E+03  0.17770000000E+01 0.  1.
</event>
<event>
 8    1  0.2374062E-007  0.1872956E+03  0.7546771E-02  0.1064700E+00
        -11   -1    0    0    0    0  0.00000000000E+00  0.00000000000E+00  0.18250000000E+03  0.18250000000E+03  0.00000000000E+00 0.  1.
         11   -1    0    0    0    0 -0.00000000000E+00 -0.00000000000E+00 -0.18250000000E+03  0.18250000000E+03  0.00000000000E+00 0. -1.
         25    2    1    2    0    0 -0.41140844553E+02  0.10563458086E+03  0.81260948695E+02  0.18729564967E+03  0.12500033936E+03 0.  0.
         23    2    1    2    0    0  0.41140844553E+02 -0.10563458086E+03 -0.81260948695E+02  0.17770435033E+03  0.11011022014E+03 0.  0.
        -11    1    4    4    0    0  0.56761628014E+02 -0.97692655468E+02 -0.20965807624E+02  0.11491432651E+03  0.00000000000E+00 0.  1.
         11    1    4    4    0    0 -0.15620783461E+02 -0.79419253901E+01 -0.60295141071E+02  0.62790023822E+02  0.00000000000E+00 0. -1.
        -15    1    3    3    0    0  0.28164371283E+02  0.54420208568E+01 -0.14627768356E+02  0.32248670312E+02  0.17770000000E+01 0.  1.
         15    1    3    3    0    0 -0.69305215837E+02  0.10019256000E+03  0.95888717051E+02  0.15504697936E+03  0.17770000000E+01 0.  1.
</event>
<event>
 7    1  0.2374062E-007  0.1656880E+03  0.7546771E-02  0.1082685E+00
        -11   -1    0    0    0    0  0.00000000000E+00  0.00000000000E+00  0.18250000000E+03  0.18250000000E+03  0.00000000000E+00 0. -1.
         11   -1    0    0    0    0 -0.00000000000E+00 -0.00000000000E+00 -0.18250000000E+03  0.18250000000E+03  0.00000000000E+00 0.  1.
         25    2    1    2    0    0 -0.81743444818E+02  0.41846531799E+02  0.85652305960E+02  0.17718264039E+03  0.12499699014E+03 0.  0.
        -11    1    1    2    0    0  0.28632717404E+02 -0.73896790192E+02  0.33613399050E+01  0.79321287890E+02  0.00000000000E+00 0. -1.
         11    1    1    2    0    0  0.53110727414E+02  0.32050258392E+02 -0.89013645865E+02  0.10849607172E+03  0.00000000000E+00 0.  1.
        -15    1    3    3    0    0 -0.91481693102E+02 -0.10108090045E+02  0.83445650496E+02  0.12424736606E+03  0.17770000000E+01 0. -1.
         15    1    3    3    0    0  0.97382482840E+01  0.51954621844E+02  0.22066554638E+01  0.52935274326E+02  0.17770000000E+01 0. -1.
</event>
<event>
 8    1  0.2374062E-007  0.1830050E+03  0.7546771E-02  0.1068054E+00
        -11   -1    0    0    0    0  0.00000000000E+00  0.00000000000E+00  0.18250000000E+03  0.18250000000E+03  0.00000000000E+00 0.  1.
         11   -1    0    0    0    0 -0.00000000000E+00 -0.00000000000E+00 -0.18250000000E+03  0.18250000000E+03  0.00000000000E+00 0. -1.
         25    2    1    2    0    0 -0.68216473810E+02 -0.11172498283E+03  0.26996739839E+02  0.18300500706E+03  0.12500419817E+03 0.  0.
         23    2    1    2    0    0  0.68216473810E+02  0.11172498283E+03 -0.26996739839E+02  0.18199499294E+03  0.12352082579E+03 0.  0.
        -11    1    4    4    0    0  0.81847478658E+02  0.12866385228E+03 -0.73125468763E+01  0.15266587696E+03  0.00000000000E+00 0.  1.
         11    1    4    4    0    0 -0.13631004848E+02 -0.16938869449E+02 -0.19684192963E+02  0.29329115977E+02  0.00000000000E+00 0. -1.
        -15    1    3    3    0    0 -0.42779850417E+02 -0.18625328064E+02  0.64346657587E+02  0.79502632150E+02  0.17770000000E+01 0.  1.
         15    1    3    3    0    0 -0.25436623393E+02 -0.93099654769E+02 -0.37349917748E+02  0.10350237491E+03  0.17770000000E+01 0.  1.
</event>
<event>
 8    1  0.2374062E-007  0.1877119E+03  0.7546771E-02  0.1064380E+00
        -11   -1    0    0    0    0  0.00000000000E+00  0.00000000000E+00  0.18250000000E+03  0.18250000000E+03  0.00000000000E+00 0.  1.
         11   -1    0    0    0    0 -0.00000000000E+00 -0.00000000000E+00 -0.18250000000E+03  0.18250000000E+03  0.00000000000E+00 0. -1.
         25    2    1    2    0    0 -0.12720455296E+03 -0.18350123093E+02 -0.55622880509E+02  0.18771186422E+03  0.12499645524E+03 0.  0.
         23    2    1    2    0    0  0.12720455296E+03  0.18350123093E+02  0.55622880509E+02  0.17728813578E+03  0.10871730746E+03 0.  0.
        -11    1    4    4    0    0  0.10152547421E+03  0.13686704120E+01  0.86721325780E+02  0.13352858689E+03  0.00000000000E+00 0.  1.
         11    1    4    4    0    0  0.25679078749E+02  0.16981452681E+02 -0.31098445271E+02  0.43759548888E+02  0.00000000000E+00 0. -1.
        -15    1    3    3    0    0  0.11887716826E-01  0.19833359303E+02 -0.51052122342E+02  0.54798167918E+02  0.17770000000E+01 0.  1.
         15    1    3    3    0    0 -0.12721644067E+03 -0.38183482397E+02 -0.45707581668E+01  0.13291369630E+03  0.17770000000E+01 0.  1.
</event>
<event>
 8    1  0.2374062E-007  0.1958202E+03  0.7546771E-02  0.1058320E+00
        -11   -1    0    0    0    0  0.00000000000E+00  0.00000000000E+00  0.18250000000E+03  0.18250000000E+03  0.00000000000E+00 0.  1.
         11   -1    0    0    0    0 -0.00000000000E+00 -0.00000000000E+00 -0.18250000000E+03  0.18250000000E+03  0.00000000000E+00 0. -1.
         25    2    1    2    0    0 -0.61905998600E+01  0.14207884085E+03 -0.49958162239E+02  0.19582020226E+03  0.12500005238E+03 0.  0.
         23    2    1    2    0    0  0.61905998600E+01 -0.14207884085E+03  0.49958162239E+02  0.16917979774E+03  0.76819694381E+02 0.  0.
        -11    1    4    4    0    0 -0.12279415625E+02 -0.65392205588E+02 -0.13562865659E+02  0.67903430875E+02  0.00000000000E+00 0.  1.
         11    1    4    4    0    0  0.18470015485E+02 -0.76686635264E+02  0.63521027899E+02  0.10127636687E+03  0.00000000000E+00 0. -1.
        -15    1    3    3    0    0 -0.38172064241E+02  0.92146904505E+02 -0.81334164917E+02  0.12871115962E+03  0.17770000000E+01 0.  1.
         15    1    3    3    0    0  0.31981464381E+02  0.49931936347E+02  0.31376002677E+02  0.67109042642E+02  0.17770000000E+01 0.  1.
</event>
<event>
 8    1  0.2374062E-007  0.1862484E+03  0.7546771E-02  0.1065510E+00
        -11   -1    0    0    0    0  0.00000000000E+00  0.00000000000E+00  0.18250000000E+03  0.18250000000E+03  0.00000000000E+00 0.  1.
         11   -1    0    0    0    0 -0.00000000000E+00 -0.00000000000E+00 -0.18250000000E+03  0.18250000000E+03  0.00000000000E+00 0. -1.
         25    2    1    2    0    0  0.10643807746E+03  0.15328215836E+00 -0.87948391354E+02  0.18624838808E+03  0.12499781874E+03 0.  0.
         23    2    1    2    0    0 -0.10643807746E+03 -0.15328215836E+00  0.87948391354E+02  0.17875161192E+03  0.11352590627E+03 0.  0.
        -11    1    4    4    0    0 -0.91817003519E+02  0.40671614480E+02  0.27067307950E+02  0.10400568023E+03  0.00000000000E+00 0. -1.
         11    1    4    4    0    0 -0.14621073941E+02 -0.40824896639E+02  0.60881083404E+02  0.74745931697E+02  0.00000000000E+00 0.  1.
        -15    1    3    3    0    0  0.10740781088E+03  0.42843375888E+02 -0.84771672779E+02  0.14339242285E+03  0.17770000000E+01 0. -1.
         15    1    3    3    0    0 -0.96973342357E+00 -0.42690093730E+02 -0.31767185749E+01  0.42855965227E+02  0.17770000000E+01 0. -1.
</event>
<event>
 7    1  0.2374062E-007  0.1689009E+03  0.7546771E-02  0.1079826E+00
        -11   -1    0    0    0    0  0.00000000000E+00  0.00000000000E+00  0.18250000000E+03  0.18250000000E+03  0.00000000000E+00 0.  1.
         11   -1    0    0    0    0 -0.00000000000E+00 -0.00000000000E+00 -0.18250000000E+03  0.18250000000E+03  0.00000000000E+00 0.  1.
         25    2    1    2    0    0  0.61698196209E+02  0.62694735692E+02  0.83780482845E+02  0.17430178979E+03  0.12499858926E+03 0.  0.
        -11    1    1    2    0    0  0.54273440298E+01 -0.46288625108E+02 -0.10787857750E+03  0.11751544733E+03  0.00000000000E+00 0.  1.
         11    1    1    2    0    0 -0.67125540239E+02 -0.16406110584E+02  0.24098094658E+02  0.73182762882E+02  0.00000000000E+00 0.  1.
        -15    1    3    3    0    0  0.66247318087E+02  0.31314225295E+02  0.11063446121E+03  0.13271182915E+03  0.17770000000E+01 0. -1.
         15    1    3    3    0    0 -0.45491218783E+01  0.31380510397E+02 -0.26853978367E+02  0.41589960637E+02  0.17770000000E+01 0. -1.
</event>
<event>
 8    1  0.2374062E-007  0.1888410E+03  0.7546771E-02  0.1063517E+00
        -11   -1    0    0    0    0  0.00000000000E+00  0.00000000000E+00  0.18250000000E+03  0.18250000000E+03  0.00000000000E+00 0.  1.
         11   -1    0    0    0    0 -0.00000000000E+00 -0.00000000000E+00 -0.18250000000E+03  0.18250000000E+03  0.00000000000E+00 0. -1.
         25    2    1    2    0    0 -0.46711044353E+02 -0.31096534441E+02  0.12995051793E+03  0.18884097465E+03  0.12499944191E+03 0.  0.
         23    2    1    2    0    0  0.46711044353E+02  0.31096534441E+02 -0.12995051793E+03  0.17615902535E+03  0.10486157059E+03 0.  0.
        -11    1    4    4    0    0 -0.12563508153E+02  0.53369293820E+02 -0.70430963533E+02  0.89256057969E+02  0.00000000000E+00 0.  1.
         11    1    4    4    0    0  0.59274552506E+02 -0.22272759379E+02 -0.59519554393E+02  0.86902967385E+02  0.00000000000E+00 0. -1.
        -15    1    3    3    0    0 -0.65515531981E+02 -0.40771010405E+02  0.14400552549E+03  0.16338699251E+03  0.17770000000E+01 0. -1.
         15    1    3    3    0    0  0.18804487628E+02  0.96744759636E+01 -0.14055007564E+02  0.25453982139E+02  0.17770000000E+01 0. -1.
</event>
<event>
 8    1  0.2374062E-007  0.1884621E+03  0.7546771E-02  0.1063806E+00
        -11   -1    0    0    0    0  0.00000000000E+00  0.00000000000E+00  0.18250000000E+03  0.18250000000E+03  0.00000000000E+00 0.  1.
         11   -1    0    0    0    0 -0.00000000000E+00 -0.00000000000E+00 -0.18250000000E+03  0.18250000000E+03  0.00000000000E+00 0. -1.
         25    2    1    2    0    0 -0.78485263085E+02 -0.89964797222E+02 -0.75088655880E+02  0.18846211352E+03  0.12500424285E+03 0.  0.
         23    2    1    2    0    0  0.78485263085E+02  0.89964797222E+02  0.75088655880E+02  0.17653788648E+03  0.10617776537E+03 0.  0.
        -11    1    4    4    0    0 -0.83842164662E+01 -0.28532115419E+01 -0.17265783748E+02  0.19404720825E+02  0.00000000000E+00 0. -1.
         11    1    4    4    0    0  0.86869479552E+02  0.92818008764E+02  0.92354439628E+02  0.15713316565E+03  0.00000000000E+00 0.  1.
        -15    1    3    3    0    0 -0.49719896319E+02 -0.97763027644E+02 -0.10086446334E+03  0.14901837255E+03  0.17770000000E+01 0. -1.
         15    1    3    3    0    0 -0.28765366766E+02  0.77982304214E+01  0.25775807458E+02  0.39443740974E+02  0.17770000000E+01 0. -1.
</event>
<event>
 8    1  0.2374062E-007  0.1884330E+03  0.7546771E-02  0.1063828E+00
        -11   -1    0    0    0    0  0.00000000000E+00  0.00000000000E+00  0.18250000000E+03  0.18250000000E+03  0.00000000000E+00 0.  1.
         11   -1    0    0    0    0 -0.00000000000E+00 -0.00000000000E+00 -0.18250000000E+03  0.18250000000E+03  0.00000000000E+00 0. -1.
         25    2    1    2    0    0  0.70160882304E+02 -0.77368101162E+02 -0.94722858949E+02  0.18843298285E+03  0.12500478605E+03 0.  0.
         23    2    1    2    0    0 -0.70160882304E+02  0.77368101162E+02  0.94722858949E+02  0.17656701715E+03  0.10627849762E+03 0.  0.
        -11    1    4    4    0    0 -0.49649584306E+02  0.67707247920E+02  0.11750948694E+03  0.14442240880E+03  0.00000000000E+00 0.  1.
         11    1    4    4    0    0 -0.20511297997E+02  0.96608532421E+01 -0.22786627991E+02  0.32144608352E+02  0.00000000000E+00 0. -1.
        -15    1    3    3    0    0  0.70076337034E+02 -0.97172386473E+02 -0.34016295397E+02  0.12455292765E+03  0.17770000000E+01 0. -1.
         15    1    3    3    0    0  0.84545269496E-01  0.19804285310E+02 -0.60706563552E+02  0.63880055196E+02  0.17770000000E+01 0. -1.
</event>
<event>
 7    1  0.2374062E-007  0.1609435E+03  0.7546771E-02  0.1087039E+00
        -11   -1    0    0    0    0  0.00000000000E+00  0.00000000000E+00  0.18250000000E+03  0.18250000000E+03  0.00000000000E+00 0.  1.
         11   -1    0    0    0    0 -0.00000000000E+00 -0.00000000000E+00 -0.18250000000E+03  0.18250000000E+03  0.00000000000E+00 0. -1.
         25    2    1    2    0    0  0.98010141644E+01 -0.95420896717E+02 -0.86325249690E+02  0.17966886204E+03  0.12501057493E+03 0.  0.
        -11    1    1    2    0    0 -0.53527950659E+02  0.80219446697E+02  0.11198952391E+02  0.97086650292E+02  0.00000000000E+00 0. -1.
         11    1    1    2    0    0  0.43726936495E+02  0.15201450020E+02  0.75126297298E+02  0.88244487667E+02  0.00000000000E+00 0.  1.
        -15    1    3    3    0    0  0.13737174829E+02  0.16974777649E+02  0.16378965760E+02  0.27354730795E+02  0.17770000000E+01 0.  1.
         15    1    3    3    0    0 -0.39361606647E+01 -0.11239567437E+03 -0.10270421545E+03  0.15231413125E+03  0.17770000000E+01 0.  1.
</event>
<event>
 8    1  0.2374062E-007  0.1882349E+03  0.7546771E-02  0.1063979E+00
        -11   -1    0    0    0    0  0.00000000000E+00  0.00000000000E+00  0.18250000000E+03  0.18250000000E+03  0.00000000000E+00 0. -1.
         11   -1    0    0    0    0 -0.00000000000E+00 -0.00000000000E+00 -0.18250000000E+03  0.18250000000E+03  0.00000000000E+00 0.  1.
         25    2    1    2    0    0  0.83811396937E+02  0.84843830847E+02  0.74733856903E+02  0.18823488942E+03  0.12499759333E+03 0.  0.
         23    2    1    2    0    0 -0.83811396937E+02 -0.84843830847E+02 -0.74733856903E+02  0.17676511058E+03  0.10694825413E+03 0.  0.
        -11    1    4    4    0    0  0.54444395966E+01 -0.28938956718E+02 -0.64557601732E+02  0.70956247645E+02  0.00000000000E+00 0.  1.
         11    1    4    4    0    0 -0.89255836534E+02 -0.55904874129E+02 -0.10176255170E+02  0.10580886294E+03  0.00000000000E+00 0. -1.
        -15    1    3    3    0    0  0.15550728123E+02 -0.31659763779E+02  0.33161557507E+01  0.35472812204E+02  0.17770000000E+01 0. -1.
         15    1    3    3    0    0  0.68260668814E+02  0.11650359463E+03  0.71417701152E+02  0.15276207721E+03  0.17770000000E+01 0. -1.
</event>
<event>
 8    1  0.2374062E-007  0.1842337E+03  0.7546771E-02  0.1067083E+00
        -11   -1    0    0    0    0  0.00000000000E+00  0.00000000000E+00  0.18250000000E+03  0.18250000000E+03  0.00000000000E+00 0.  1.
         11   -1    0    0    0    0 -0.00000000000E+00 -0.00000000000E+00 -0.18250000000E+03  0.18250000000E+03  0.00000000000E+00 0. -1.
         25    2    1    2    0    0 -0.40609590963E+02 -0.11000324748E+03  0.67582880757E+02  0.18423367509E+03  0.12499899172E+03 0.  0.
         23    2    1    2    0    0  0.40609590963E+02  0.11000324748E+03 -0.67582880757E+02  0.18076632491E+03  0.11982973385E+03 0.  0.
        -11    1    4    4    0    0  0.14230677117E+02  0.72959775761E+01  0.31697849932E+02  0.35503480819E+02  0.00000000000E+00 0.  1.
         11    1    4    4    0    0  0.26378913846E+02  0.10270726990E+03 -0.99280730689E+02  0.14526284409E+03  0.00000000000E+00 0. -1.
        -15    1    3    3    0    0  0.35114321990E+02 -0.17705872162E+02  0.49859386950E+02  0.63526606346E+02  0.17770000000E+01 0.  1.
         15    1    3    3    0    0 -0.75723912953E+02 -0.92297375318E+02  0.17723493807E+02  0.12070706875E+03  0.17770000000E+01 0.  1.
</event>
<event>
 8    1  0.2374062E-007  0.1877292E+03  0.7546771E-02  0.1064367E+00
        -11   -1    0    0    0    0  0.00000000000E+00  0.00000000000E+00  0.18250000000E+03  0.18250000000E+03  0.00000000000E+00 0. -1.
         11   -1    0    0    0    0 -0.00000000000E+00 -0.00000000000E+00 -0.18250000000E+03  0.18250000000E+03  0.00000000000E+00 0.  1.
         25    2    1    2    0    0 -0.85672087669E+02 -0.76961793540E+02 -0.79716341911E+02  0.18772919487E+03  0.12499892466E+03 0.  0.
         23    2    1    2    0    0  0.85672087669E+02  0.76961793540E+02  0.79716341911E+02  0.17727080513E+03  0.10866194787E+03 0.  0.
        -11    1    4    4    0    0  0.10550639367E+03  0.83704667350E+02  0.56638507695E+02  0.14610267279E+03  0.00000000000E+00 0. -1.
         11    1    4    4    0    0 -0.19834306003E+02 -0.67428738102E+01  0.23077834216E+02  0.31168132346E+02  0.00000000000E+00 0.  1.
        -15    1    3    3    0    0  0.11468032536E+02 -0.35287355023E+02 -0.72868444681E+02  0.81790471046E+02  0.17770000000E+01 0.  1.
         15    1    3    3    0    0 -0.97140120205E+02 -0.41674438517E+02 -0.68478972301E+01  0.10593872382E+03  0.17770000000E+01 0.  1.
</event>
<event>
 8    1  0.2374062E-007  0.1874065E+03  0.7546771E-02  0.1064615E+00
        -11   -1    0    0    0    0  0.00000000000E+00  0.00000000000E+00  0.18250000000E+03  0.18250000000E+03  0.00000000000E+00 0. -1.
         11   -1    0    0    0    0 -0.00000000000E+00 -0.00000000000E+00 -0.18250000000E+03  0.18250000000E+03  0.00000000000E+00 0.  1.
         25    2    1    2    0    0 -0.73576898206E+02  0.11691645260E+03  0.20336043275E+02  0.18740650754E+03  0.12499851029E+03 0.  0.
         23    2    1    2    0    0  0.73576898206E+02 -0.11691645260E+03 -0.20336043275E+02  0.17759349246E+03  0.10974004315E+03 0.  0.
        -11    1    4    4    0    0  0.45246441652E+02 -0.12332240387E+03 -0.45648125642E+02  0.13906619702E+03  0.00000000000E+00 0.  1.
         11    1    4    4    0    0  0.28330456554E+02  0.64059512730E+01  0.25312082366E+02  0.38527295441E+02  0.00000000000E+00 0. -1.
        -15    1    3    3    0    0  0.31796785129E+02  0.55206637144E+02  0.13099507708E+02  0.65065837123E+02  0.17770000000E+01 0.  1.
         15    1    3    3    0    0 -0.10537368333E+03  0.61709815451E+02  0.72365355678E+01  0.12234067042E+03  0.17770000000E+01 0.  1.
</event>
<event>
 8    1  0.2766577E-007  0.1875215E+03  0.7546771E-02  0.1064527E+00
        -11   -1    0    0    0    0  0.00000000000E+00  0.00000000000E+00  0.18250000000E+03  0.18250000000E+03  0.00000000000E+00 0.  1.
         11   -1    0    0    0    0 -0.00000000000E+00 -0.00000000000E+00 -0.18250000000E+03  0.18250000000E+03  0.00000000000E+00 0.  1.
         25    2    1    2    0    0  0.76692862036E+02 -0.10919547659E+03  0.41572431708E+02  0.18752150563E+03  0.12502240119E+03 0.  0.
         23    2    1    2    0    0 -0.76692862036E+02  0.10919547659E+03 -0.41572431708E+02  0.17747849437E+03  0.10938419306E+03 0.  0.
        -11    1    4    4    0    0 -0.34333267931E+02  0.31305647876E+02  0.36699791258E+02  0.59208880703E+02  0.00000000000E+00 0.  1.
         11    1    4    4    0    0 -0.42359594105E+02  0.77889828711E+02 -0.78272222966E+02  0.11826961367E+03  0.00000000000E+00 0.  1.
        -15    1    3    3    0    0  0.17686230083E+02 -0.34363046695E+02 -0.44590454985E+02  0.59034634897E+02  0.17770000000E+01 0.  1.
         15    1    3    3    0    0  0.59006631953E+02 -0.74832429892E+02  0.86162886692E+02  0.12848687073E+03  0.17770000000E+01 0.  1.
</event>
<event>
 8    1  0.2374062E-007  0.1891489E+03  0.7546771E-02  0.1063282E+00
        -11   -1    0    0    0    0  0.00000000000E+00  0.00000000000E+00  0.18250000000E+03  0.18250000000E+03  0.00000000000E+00 0. -1.
         11   -1    0    0    0    0 -0.00000000000E+00 -0.00000000000E+00 -0.18250000000E+03  0.18250000000E+03  0.00000000000E+00 0.  1.
         25    2    1    2    0    0  0.57723128108E+02  0.12651471549E+03 -0.28523555662E+02  0.18914889719E+03  0.12500311726E+03 0.  0.
         23    2    1    2    0    0 -0.57723128108E+02 -0.12651471549E+03  0.28523555662E+02  0.17585110281E+03  0.10378865246E+03 0.  0.
        -11    1    4    4    0    0  0.25561064058E+02 -0.62009716587E+02  0.20812228834E+02  0.70226218864E+02  0.00000000000E+00 0. -1.
         11    1    4    4    0    0 -0.83284192166E+02 -0.64504998903E+02  0.77113268282E+01  0.10562488395E+03  0.00000000000E+00 0.  1.
        -15    1    3    3    0    0  0.64162346342E+02  0.14567778259E+03 -0.66781165458E+01  0.15933166037E+03  0.17770000000E+01 0. -1.
         15    1    3    3    0    0 -0.64392182343E+01 -0.19163067096E+02 -0.21845439116E+02  0.29817236813E+02  0.17770000000E+01 0. -1.
</event>
<event>
 8    1  0.2682656E-007  0.1890770E+03  0.7546771E-02  0.1063337E+00
        -11   -1    0    0    0    0  0.00000000000E+00  0.00000000000E+00  0.18250000000E+03  0.18250000000E+03  0.00000000000E+00 0.  1.
         11   -1    0    0    0    0 -0.00000000000E+00 -0.00000000000E+00 -0.18250000000E+03  0.18250000000E+03  0.00000000000E+00 0. -1.
         25    2    1    2    0    0 -0.76561916805E+02 -0.11750304867E+03 -0.21365827312E+02  0.18907696625E+03  0.12499962816E+03 0.  0.
         23    2    1    2    0    0  0.76561916805E+02  0.11750304867E+03  0.21365827312E+02  0.17592303375E+03  0.10403711682E+03 0.  0.
        -11    1    4    4    0    0  0.68454328628E+02  0.10238036668E+03  0.57502005628E+02  0.13591988538E+03  0.00000000000E+00 0.  1.
         11    1    4    4    0    0  0.81075881771E+01  0.15122681987E+02 -0.36136178316E+02  0.40003148374E+02  0.00000000000E+00 0. -1.
        -15    1    3    3    0    0  0.14776923016E+01 -0.15120923909E+02  0.42638574228E+02  0.45299356017E+02  0.17770000000E+01 0.  1.
         15    1    3    3    0    0 -0.78039609106E+02 -0.10238212476E+03 -0.64004401539E+02  0.14377761023E+03  0.17770000000E+01 0.  1.
</event>
<event>
 8    1  0.2374062E-007  0.1967653E+03  0.7546771E-02  0.1057635E+00
        -11   -1    0    0    0    0  0.00000000000E+00  0.00000000000E+00  0.18250000000E+03  0.18250000000E+03  0.00000000000E+00 0.  1.
         11   -1    0    0    0    0 -0.00000000000E+00 -0.00000000000E+00 -0.18250000000E+03  0.18250000000E+03  0.00000000000E+00 0. -1.
         25    2    1    2    0    0 -0.10659245289E+03 -0.10830501846E+03 -0.24507586596E+00  0.19676526710E+03  0.12499832894E+03 0.  0.
         23    2    1    2    0    0  0.10659245289E+03  0.10830501846E+03  0.24507586596E+00  0.16823473290E+03  0.72186821901E+02 0.  0.
        -11    1    4    4    0    0  0.29130292836E+02  0.11444539268E+02 -0.26904585201E+02  0.41272365386E+02  0.00000000000E+00 0. -1.
         11    1    4    4    0    0  0.77462160055E+02  0.96860479190E+02  0.27149661067E+02  0.12696236752E+03  0.00000000000E+00 0.  1.
        -15    1    3    3    0    0 -0.86036252150E+02 -0.13581012081E+03 -0.98044708083E+01  0.16107734470E+03  0.17770000000E+01 0.  1.
         15    1    3    3    0    0 -0.20556200741E+02  0.27505102353E+02  0.95593949423E+01  0.35687922397E+02  0.17770000000E+01 0.  1.
</event>
<event>
 8    1  0.2374062E-007  0.1887289E+03  0.7546771E-02  0.1063602E+00
        -11   -1    0    0    0    0  0.00000000000E+00  0.00000000000E+00  0.18250000000E+03  0.18250000000E+03  0.00000000000E+00 0.  1.
         11   -1    0    0    0    0 -0.00000000000E+00 -0.00000000000E+00 -0.18250000000E+03  0.18250000000E+03  0.00000000000E+00 0. -1.
         25    2    1    2    0    0  0.41572547721E+02 -0.11730580017E+03 -0.67119681468E+02  0.18872893673E+03  0.12499852975E+03 0.  0.
         23    2    1    2    0    0 -0.41572547721E+02  0.11730580017E+03  0.67119681468E+02  0.17627106327E+03  0.10524974409E+03 0.  0.
        -11    1    4    4    0    0 -0.70633769407E+02  0.10524282821E+03  0.69790712107E+02  0.14469252146E+03  0.00000000000E+00 0.  1.
         11    1    4    4    0    0  0.29061221686E+02  0.12062971960E+02 -0.26710306392E+01  0.31578541814E+02  0.00000000000E+00 0. -1.
        -15    1    3    3    0    0 -0.17486891161E+02 -0.11210550521E+03 -0.25600990975E+02  0.11632714270E+03  0.17770000000E+01 0. -1.
         15    1    3    3    0    0  0.59059438882E+02 -0.52002949542E+01 -0.41518690492E+02  0.72401794024E+02  0.17770000000E+01 0. -1.
</event>
<event>
 7    1  0.2374062E-007  0.1667505E+03  0.7546771E-02  0.1081732E+00
        -11   -1    0    0    0    0  0.00000000000E+00  0.00000000000E+00  0.18250000000E+03  0.18250000000E+03  0.00000000000E+00 0.  1.
         11   -1    0    0    0    0 -0.00000000000E+00 -0.00000000000E+00 -0.18250000000E+03  0.18250000000E+03  0.00000000000E+00 0.  1.
         25    2    1    2    0    0 -0.32667648201E+02 -0.54337908086E+02  0.50549688732E+02  0.14900383262E+03  0.12500835017E+03 0.  0.
        -11    1    1    2    0    0  0.12133446922E+02 -0.75960869342E+02 -0.77203368324E+01  0.77310269733E+02  0.00000000000E+00 0.  1.
         11    1    1    2    0    0  0.20534201279E+02  0.13029877743E+03 -0.42829351900E+02  0.13868589764E+03  0.00000000000E+00 0.  1.
        -15    1    3    3    0    0 -0.74300872491E+02 -0.45583050390E+01  0.34848467561E+02  0.82212962592E+02  0.17770000000E+01 0.  1.
         15    1    3    3    0    0  0.41633224290E+02 -0.49779603047E+02  0.15701221171E+02  0.66790870031E+02  0.17770000000E+01 0.  1.
</event>
<event>
 8    1  0.2374062E-007  0.1837296E+03  0.7546771E-02  0.1067480E+00
        -11   -1    0    0    0    0  0.00000000000E+00  0.00000000000E+00  0.18250000000E+03  0.18250000000E+03  0.00000000000E+00 0.  1.
         11   -1    0    0    0    0 -0.00000000000E+00 -0.00000000000E+00 -0.18250000000E+03  0.18250000000E+03  0.00000000000E+00 0. -1.
         25    2    1    2    0    0 -0.26021009526E+02 -0.13211108297E+03  0.14567540454E+01  0.18372960348E+03  0.12499605547E+03 0.  0.
         23    2    1    2    0    0  0.26021009526E+02  0.13211108297E+03 -0.14567540454E+01  0.18127039652E+03  0.12135239322E+03 0.  0.
        -11    1    4    4    0    0  0.70377857115E+02  0.46034142107E+02  0.48130881178E+01  0.84233905459E+02  0.00000000000E+00 0.  1.
         11    1    4    4    0    0 -0.44356847589E+02  0.86076940864E+02 -0.62698421632E+01  0.97036491060E+02  0.00000000000E+00 0. -1.
        -15    1    3    3    0    0  0.14001846201E+02 -0.11848040665E+03 -0.38653970326E+02  0.12542306649E+03  0.17770000000E+01 0. -1.
         15    1    3    3    0    0 -0.40022855727E+02 -0.13630676325E+02  0.40110724371E+02  0.58306536994E+02  0.17770000000E+01 0. -1.
</event>
<event>
 7    1  0.2374062E-007  0.1565019E+03  0.7546771E-02  0.1091267E+00
        -11   -1    0    0    0    0  0.00000000000E+00  0.00000000000E+00  0.18250000000E+03  0.18250000000E+03  0.00000000000E+00 0. -1.
         11   -1    0    0    0    0 -0.00000000000E+00 -0.00000000000E+00 -0.18250000000E+03  0.18250000000E+03  0.00000000000E+00 0.  1.
         25    2    1    2    0    0 -0.83704146571E+02 -0.17725875151E+02 -0.81771790251E+02  0.17213989053E+03  0.12499970171E+03 0.  0.
        -11    1    1    2    0    0  0.94034499690E+02  0.16102636995E+02 -0.14082573209E+02  0.96437030845E+02  0.00000000000E+00 0.  1.
         11    1    1    2    0    0 -0.10330353119E+02  0.16232381565E+01  0.95854363460E+02  0.96423078628E+02  0.00000000000E+00 0. -1.
        -15    1    3    3    0    0 -0.64747523537E+02  0.29739758921E+02 -0.95521925973E+02  0.11918175672E+03  0.17770000000E+01 0.  1.
         15    1    3    3    0    0 -0.18956623035E+02 -0.47465634072E+02  0.13750135722E+02  0.52958133805E+02  0.17770000000E+01 0.  1.
</event>
<event>
 8    1  0.2374062E-007  0.1885917E+03  0.7546771E-02  0.1063707E+00
        -11   -1    0    0    0    0  0.00000000000E+00  0.00000000000E+00  0.18250000000E+03  0.18250000000E+03  0.00000000000E+00 0.  1.
         11   -1    0    0    0    0 -0.00000000000E+00 -0.00000000000E+00 -0.18250000000E+03  0.18250000000E+03  0.00000000000E+00 0. -1.
         25    2    1    2    0    0  0.10857123213E+03 -0.77176228291E+02 -0.46868081809E+02  0.18859168084E+03  0.12500528921E+03 0.  0.
         23    2    1    2    0    0 -0.10857123213E+03  0.77176228291E+02  0.46868081809E+02  0.17640831916E+03  0.10573265965E+03 0.  0.
        -11    1    4    4    0    0 -0.32638479886E+02  0.83176040830E+02  0.45403643783E+02  0.10022482231E+03  0.00000000000E+00 0. -1.
         11    1    4    4    0    0 -0.75932752247E+02 -0.59998125393E+01  0.14644380259E+01  0.76183496855E+02  0.00000000000E+00 0.  1.
        -15    1    3    3    0    0  0.10329463358E+03 -0.76177688135E+02  0.12489678677E+02  0.12896500029E+03  0.17770000000E+01 0.  1.
         15    1    3    3    0    0  0.52765985489E+01 -0.99854015660E+00 -0.59357760486E+02  0.59626680552E+02  0.17770000000E+01 0.  1.
</event>
<event>
 7    1  0.2374062E-007  0.1709144E+03  0.7546771E-02  0.1078070E+00
        -11   -1    0    0    0    0  0.00000000000E+00  0.00000000000E+00  0.18250000000E+03  0.18250000000E+03  0.00000000000E+00 0.  1.
         11   -1    0    0    0    0 -0.00000000000E+00 -0.00000000000E+00 -0.18250000000E+03  0.18250000000E+03  0.00000000000E+00 0. -1.
         25    2    1    2    0    0 -0.59001701238E+02 -0.35690132291E+02 -0.71318817777E+02  0.15958497176E+03  0.12500401254E+03 0.  0.
        -11    1    1    2    0    0  0.41194231269E+02 -0.15716732433E+02 -0.53457459920E+02  0.69294158407E+02  0.00000000000E+00 0. -1.
         11    1    1    2    0    0  0.17807469969E+02  0.51406864723E+02  0.12477627770E+03  0.13612086983E+03  0.00000000000E+00 0.  1.
        -15    1    3    3    0    0 -0.22085393629E+02  0.39276189350E+02  0.62855815520E+01  0.45530758022E+02  0.17770000000E+01 0.  1.
         15    1    3    3    0    0 -0.36916307609E+02 -0.74966321641E+02 -0.77604399329E+02  0.11405421374E+03  0.17770000000E+01 0.  1.
</event>
<event>
 7    1  0.2374062E-007  0.1851792E+03  0.7546771E-02  0.1066342E+00
        -11   -1    0    0    0    0  0.00000000000E+00  0.00000000000E+00  0.18250000000E+03  0.18250000000E+03  0.00000000000E+00 0.  1.
         11   -1    0    0    0    0 -0.00000000000E+00 -0.00000000000E+00 -0.18250000000E+03  0.18250000000E+03  0.00000000000E+00 0. -1.
         25    2    1    2    0    0  0.55625383786E+02 -0.97656606899E+02 -0.27520570325E+02  0.17033379654E+03  0.12500089704E+03 0.  0.
        -11    1    1    2    0    0 -0.66322593858E+02  0.13677388650E+03  0.24861300941E+02  0.15402553934E+03  0.00000000000E+00 0.  1.
         11    1    1    2    0    0  0.10697210072E+02 -0.39117279600E+02  0.26592693841E+01  0.40640664122E+02  0.00000000000E+00 0. -1.
        -15    1    3    3    0    0  0.54913837864E+02 -0.82587104364E+02 -0.72496415675E+02  0.12286190382E+03  0.17770000000E+01 0. -1.
         15    1    3    3    0    0  0.71154592244E+00 -0.15069502535E+02  0.44975845350E+02  0.47471892717E+02  0.17770000000E+01 0. -1.
</event>
<event>
 7    1  0.2374062E-007  0.1592212E+03  0.7546771E-02  0.1088660E+00
        -11   -1    0    0    0    0  0.00000000000E+00  0.00000000000E+00  0.18250000000E+03  0.18250000000E+03  0.00000000000E+00 0.  1.
         11   -1    0    0    0    0 -0.00000000000E+00 -0.00000000000E+00 -0.18250000000E+03  0.18250000000E+03  0.00000000000E+00 0. -1.
         25    2    1    2    0    0  0.10382657025E+03 -0.12134979697E+02 -0.62969913876E+02  0.17470427712E+03  0.12501663876E+03 0.  0.
        -11    1    1    2    0    0 -0.46091753817E+02 -0.58752623578E+02  0.64774690177E+02  0.98853836722E+02  0.00000000000E+00 0.  1.
         11    1    1    2    0    0 -0.57734816435E+02  0.70887603275E+02 -0.18047763011E+01  0.91441886159E+02  0.00000000000E+00 0. -1.
        -15    1    3    3    0    0  0.68885450288E+02  0.43430498835E+02  0.31576490678E+01  0.81514059935E+02  0.17770000000E+01 0.  1.
         15    1    3    3    0    0  0.34941119964E+02 -0.55565478533E+02 -0.66127562943E+02  0.93190217183E+02  0.17770000000E+01 0.  1.
</event>
<event>
 8    1  0.2374062E-007  0.1852482E+03  0.7546771E-02  0.1066288E+00
        -11   -1    0    0    0    0  0.00000000000E+00  0.00000000000E+00  0.18250000000E+03  0.18250000000E+03  0.00000000000E+00 0. -1.
         11   -1    0    0    0    0 -0.00000000000E+00 -0.00000000000E+00 -0.18250000000E+03  0.18250000000E+03  0.00000000000E+00 0.  1.
         25    2    1    2    0    0  0.10715896157E+02 -0.13059934743E+03 -0.38999453946E+02  0.18524816369E+03  0.12499961905E+03 0.  0.
         23    2    1    2    0    0 -0.10715896157E+02  0.13059934743E+03  0.38999453946E+02  0.17975183631E+03  0.11669937990E+03 0.  0.
        -11    1    4    4    0    0  0.13317580534E+02  0.39737619476E+02 -0.39277061276E+02  0.57438000447E+02  0.00000000000E+00 0.  1.
         11    1    4    4    0    0 -0.24033476691E+02  0.90861727953E+02  0.78276515223E+02  0.12231383586E+03  0.00000000000E+00 0. -1.
        -15    1    3    3    0    0 -0.50779347178E+02 -0.63317454059E+02 -0.46867419850E+02  0.93740892148E+02  0.17770000000E+01 0. -1.
         15    1    3    3    0    0  0.61495243335E+02 -0.67281893370E+02  0.78679659037E+01  0.91507271540E+02  0.17770000000E+01 0. -1.
</event>
<event>
 8    1  0.2374062E-007  0.1970848E+03  0.7546771E-02  0.1057404E+00
        -11   -1    0    0    0    0  0.00000000000E+00  0.00000000000E+00  0.18250000000E+03  0.18250000000E+03  0.00000000000E+00 0. -1.
         11   -1    0    0    0    0 -0.00000000000E+00 -0.00000000000E+00 -0.18250000000E+03  0.18250000000E+03  0.00000000000E+00 0. -1.
         25    2    1    2    0    0  0.13647768395E+03 -0.34756729938E+02 -0.58157120942E+02  0.19708481128E+03  0.12500393445E+03 0.  0.
         23    2    1    2    0    0 -0.13647768395E+03  0.34756729938E+02  0.58157120942E+02  0.16791518872E+03  0.70562535337E+02 0.  0.
        -11    1    4    4    0    0 -0.13302020976E+03  0.12788153219E+02  0.40857733943E+02  0.13973999961E+03  0.00000000000E+00 0. -1.
         11    1    4    4    0    0 -0.34574741913E+01  0.21968576719E+02  0.17299386999E+02  0.28175189110E+02  0.00000000000E+00 0. -1.
        -15    1    3    3    0    0  0.77743439013E+02 -0.75616425157E+02 -0.62850252077E+02  0.12536027273E+03  0.17770000000E+01 0.  1.
         15    1    3    3    0    0  0.58734244939E+02  0.40859695218E+02  0.46931311346E+01  0.71724538554E+02  0.17770000000E+01 0.  1.
</event>
<event>
 8    1  0.2374062E-007  0.1843157E+03  0.7546771E-02  0.1067019E+00
        -11   -1    0    0    0    0  0.00000000000E+00  0.00000000000E+00  0.18250000000E+03  0.18250000000E+03  0.00000000000E+00 0.  1.
         11   -1    0    0    0    0 -0.00000000000E+00 -0.00000000000E+00 -0.18250000000E+03  0.18250000000E+03  0.00000000000E+00 0. -1.
         25    2    1    2    0    0  0.88472870641E+02 -0.62716196088E+02  0.81130577084E+02  0.18431573166E+03  0.12501739202E+03 0.  0.
         23    2    1    2    0    0 -0.88472870641E+02  0.62716196088E+02 -0.81130577084E+02  0.18068426834E+03  0.11959876336E+03 0.  0.
        -11    1    4    4    0    0 -0.34662724334E+02 -0.24327087456E+02  0.10159912908E+02  0.43549230449E+02  0.00000000000E+00 0.  1.
         11    1    4    4    0    0 -0.53810146307E+02  0.87043283545E+02 -0.91290489992E+02  0.13713503790E+03  0.00000000000E+00 0. -1.
        -15    1    3    3    0    0  0.96214853874E+02 -0.79480079176E+02  0.27824311504E+02  0.12787388761E+03  0.17770000000E+01 0.  1.
         15    1    3    3    0    0 -0.77419832330E+01  0.16763883088E+02  0.53306265580E+02  0.56441844049E+02  0.17770000000E+01 0.  1.
</event>
<event>
 8    1  0.2374062E-007  0.1981106E+03  0.7546771E-02  0.1056666E+00
        -11   -1    0    0    0    0  0.00000000000E+00  0.00000000000E+00  0.18250000000E+03  0.18250000000E+03  0.00000000000E+00 0.  1.
         11   -1    0    0    0    0 -0.00000000000E+00 -0.00000000000E+00 -0.18250000000E+03  0.18250000000E+03  0.00000000000E+00 0. -1.
         25    2    1    2    0    0  0.70443122033E+02  0.94875259316E+01  0.13627622115E+03  0.19811063637E+03  0.12499747679E+03 0.  0.
         23    2    1    2    0    0 -0.70443122033E+02 -0.94875259316E+01 -0.13627622115E+03  0.16688936363E+03  0.65027722180E+02 0.  0.
        -11    1    4    4    0    0 -0.36917985960E+02 -0.36566630672E+02 -0.60827772809E+02  0.80000463192E+02  0.00000000000E+00 0.  1.
         11    1    4    4    0    0 -0.33525136073E+02  0.27079104741E+02 -0.75448448340E+02  0.86888900437E+02  0.00000000000E+00 0. -1.
        -15    1    3    3    0    0  0.15118507818E+02  0.89573295482E+01  0.14141796212E+03  0.14251666839E+03  0.17770000000E+01 0. -1.
         15    1    3    3    0    0  0.55324614215E+02  0.53019638340E+00 -0.51417409702E+01  0.55593967977E+02  0.17770000000E+01 0. -1.
</event>
<event>
 8    1  0.2374062E-007  0.1884789E+03  0.7546771E-02  0.1063793E+00
        -11   -1    0    0    0    0  0.00000000000E+00  0.00000000000E+00  0.18250000000E+03  0.18250000000E+03  0.00000000000E+00 0.  1.
         11   -1    0    0    0    0 -0.00000000000E+00 -0.00000000000E+00 -0.18250000000E+03  0.18250000000E+03  0.00000000000E+00 0. -1.
         25    2    1    2    0    0  0.12113962523E+03  0.65274469518E+02 -0.31065562185E+02  0.18847885148E+03  0.12499457241E+03 0.  0.
         23    2    1    2    0    0 -0.12113962523E+03 -0.65274469518E+02  0.31065562185E+02  0.17652114852E+03  0.10610881937E+03 0.  0.
        -11    1    4    4    0    0 -0.11017147814E+03 -0.51647985226E+01  0.33807213544E+02  0.11535752003E+03  0.00000000000E+00 0.  1.
         11    1    4    4    0    0 -0.10968147094E+02 -0.60109670995E+02 -0.27416513592E+01  0.61163628489E+02  0.00000000000E+00 0. -1.
        -15    1    3    3    0    0  0.10929011573E+03  0.86146819975E+02 -0.59386819101E+02  0.15131277540E+03  0.17770000000E+01 0.  1.
         15    1    3    3    0    0  0.11849509502E+02 -0.20872350457E+02  0.28321256916E+02  0.37166076082E+02  0.17770000000E+01 0.  1.
</event>
<event>
 8    1  0.2374062E-007  0.1883760E+03  0.7546771E-02  0.1063871E+00
        -11   -1    0    0    0    0  0.00000000000E+00  0.00000000000E+00  0.18250000000E+03  0.18250000000E+03  0.00000000000E+00 0. -1.
         11   -1    0    0    0    0 -0.00000000000E+00 -0.00000000000E+00 -0.18250000000E+03  0.18250000000E+03  0.00000000000E+00 0.  1.
         25    2    1    2    0    0 -0.61836149585E+02 -0.12168411984E+03 -0.35120252487E+02  0.18837602514E+03  0.12498544033E+03 0.  0.
         23    2    1    2    0    0  0.61836149585E+02  0.12168411984E+03  0.35120252487E+02  0.17662397486E+03  0.10645121861E+03 0.  0.
        -11    1    4    4    0    0 -0.24992509012E+02  0.63255234439E+02  0.19904702387E+02  0.70866405071E+02  0.00000000000E+00 0. -1.
         11    1    4    4    0    0  0.86828658596E+02  0.58428885405E+02  0.15215550100E+02  0.10575756979E+03  0.00000000000E+00 0.  1.
        -15    1    3    3    0    0 -0.85684768081E+02 -0.31092424737E+02 -0.21797221195E+02  0.93738438956E+02  0.17770000000E+01 0. -1.
         15    1    3    3    0    0  0.23848618496E+02 -0.90591695106E+02 -0.13323031292E+02  0.94637586182E+02  0.17770000000E+01 0. -1.
</event>
<event>
 8    1  0.2374062E-007  0.1882361E+03  0.7546771E-02  0.1063978E+00
        -11   -1    0    0    0    0  0.00000000000E+00  0.00000000000E+00  0.18250000000E+03  0.18250000000E+03  0.00000000000E+00 0. -1.
         11   -1    0    0    0    0 -0.00000000000E+00 -0.00000000000E+00 -0.18250000000E+03  0.18250000000E+03  0.00000000000E+00 0.  1.
         25    2    1    2    0    0  0.13843961085E+03  0.20158328116E+02  0.15368853558E+02  0.18823612974E+03  0.12499901934E+03 0.  0.
         23    2    1    2    0    0 -0.13843961085E+03 -0.20158328116E+02 -0.15368853558E+02  0.17676387026E+03  0.10694568774E+03 0.  0.
        -11    1    4    4    0    0 -0.33421042098E+02  0.38311048337E+01 -0.52899389840E+02  0.62689623261E+02  0.00000000000E+00 0.  1.
         11    1    4    4    0    0 -0.10501856875E+03 -0.23989432949E+02  0.37530536282E+02  0.11407424700E+03  0.00000000000E+00 0. -1.
        -15    1    3    3    0    0  0.15861442664E+03  0.92775479735E-01  0.17814686433E+02  0.15962163302E+03  0.17770000000E+01 0. -1.
         15    1    3    3    0    0 -0.20174815796E+02  0.20065552636E+02 -0.24458328749E+01  0.28614496718E+02  0.17770000000E+01 0. -1.
</event>
<event>
 8    1  0.2374062E-007  0.1880527E+03  0.7546771E-02  0.1064119E+00
        -11   -1    0    0    0    0  0.00000000000E+00  0.00000000000E+00  0.18250000000E+03  0.18250000000E+03  0.00000000000E+00 0.  1.
         11   -1    0    0    0    0 -0.00000000000E+00 -0.00000000000E+00 -0.18250000000E+03  0.18250000000E+03  0.00000000000E+00 0. -1.
         25    2    1    2    0    0 -0.11409385040E+03 -0.87653639406E+01  0.81512848601E+02  0.18805273659E+03  0.12500099578E+03 0.  0.
         23    2    1    2    0    0  0.11409385040E+03  0.87653639406E+01 -0.81512848601E+02  0.17694726341E+03  0.10757207462E+03 0.  0.
        -11    1    4    4    0    0 -0.48153321392E+01  0.34951845685E+02 -0.19290349832E+02  0.40211149412E+02  0.00000000000E+00 0.  1.
         11    1    4    4    0    0  0.11890918254E+03 -0.26186481745E+02 -0.62222498769E+02  0.13673611400E+03  0.00000000000E+00 0. -1.
        -15    1    3    3    0    0  0.23578910131E+02  0.13471398655E+02  0.26923446373E+02  0.38281500471E+02  0.17770000000E+01 0. -1.
         15    1    3    3    0    0 -0.13767276053E+03 -0.22236762596E+02  0.54589402229E+02  0.14977123612E+03  0.17770000000E+01 0. -1.
</event>
<event>
 8    1  0.2374062E-007  0.1889623E+03  0.7546771E-02  0.1063424E+00
        -11   -1    0    0    0    0  0.00000000000E+00  0.00000000000E+00  0.18250000000E+03  0.18250000000E+03  0.00000000000E+00 0.  1.
         11   -1    0    0    0    0 -0.00000000000E+00 -0.00000000000E+00 -0.18250000000E+03  0.18250000000E+03  0.00000000000E+00 0. -1.
         25    2    1    2    0    0  0.53604652956E+02 -0.23364847509E+02 -0.12906592653E+03  0.18896228245E+03  0.12501742231E+03 0.  0.
         23    2    1    2    0    0 -0.53604652956E+02  0.23364847509E+02  0.12906592653E+03  0.17603771755E+03  0.10445999086E+03 0.  0.
        -11    1    4    4    0    0  0.14288202227E+02  0.39825316963E+02  0.20694352115E+02  0.47100581775E+02  0.00000000000E+00 0. -1.
         11    1    4    4    0    0 -0.67892855183E+02 -0.16460469455E+02  0.10837157442E+03  0.12893713577E+03  0.00000000000E+00 0.  1.
        -15    1    3    3    0    0 -0.36211902274E+02  0.16005468817E+02 -0.31591484035E+02  0.50681914830E+02  0.17770000000E+01 0.  1.
         15    1    3    3    0    0  0.89816555231E+02 -0.39370316325E+02 -0.97474442496E+02  0.13828036762E+03  0.17770000000E+01 0.  1.
</event>
<event>
 7    1  0.2374062E-007  0.1601784E+03  0.7546771E-02  0.1087756E+00
        -11   -1    0    0    0    0  0.00000000000E+00  0.00000000000E+00  0.18250000000E+03  0.18250000000E+03  0.00000000000E+00 0. -1.
         11   -1    0    0    0    0 -0.00000000000E+00 -0.00000000000E+00 -0.18250000000E+03  0.18250000000E+03  0.00000000000E+00 0.  1.
         25    2    1    2    0    0 -0.31676985712E+02  0.48088148052E+02  0.79016375847E+01  0.13782542141E+03  0.12497003443E+03 0.  0.
        -11    1    1    2    0    0  0.43652041992E+02 -0.10738866802E+03 -0.74033416734E+02  0.13754553276E+03  0.00000000000E+00 0. -1.
         11    1    1    2    0    0 -0.11975056280E+02  0.59300519971E+02  0.66131779150E+02  0.89629045824E+02  0.00000000000E+00 0.  1.
        -15    1    3    3    0    0 -0.25880126684E+01  0.28994412699E+02 -0.57076565466E+02  0.64095755177E+02  0.17770000000E+01 0.  1.
         15    1    3    3    0    0 -0.29088973044E+02  0.19093735352E+02  0.64978203051E+02  0.73729666235E+02  0.17770000000E+01 0.  1.
</event>
<event>
 8    1  0.2374062E-007  0.1871126E+03  0.7546771E-02  0.1064841E+00
        -11   -1    0    0    0    0  0.00000000000E+00  0.00000000000E+00  0.18250000000E+03  0.18250000000E+03  0.00000000000E+00 0.  1.
         11   -1    0    0    0    0 -0.00000000000E+00 -0.00000000000E+00 -0.18250000000E+03  0.18250000000E+03  0.00000000000E+00 0. -1.
         25    2    1    2    0    0 -0.80024325835E+02 -0.56814362296E+02  0.98778276834E+02  0.18711262929E+03  0.12498889381E+03 0.  0.
         23    2    1    2    0    0  0.80024325835E+02  0.56814362296E+02 -0.98778276834E+02  0.17788737071E+03  0.11070232245E+03 0.  0.
        -11    1    4    4    0    0  0.71011972620E+02 -0.10848621108E+02 -0.21948214512E+02  0.75114026357E+02  0.00000000000E+00 0.  1.
         11    1    4    4    0    0  0.90123532152E+01  0.67662983404E+02 -0.76830062322E+02  0.10277334436E+03  0.00000000000E+00 0. -1.
        -15    1    3    3    0    0 -0.22381527140E+02 -0.62774385177E+01 -0.29538539634E+02  0.37630068352E+02  0.17770000000E+01 0. -1.
         15    1    3    3    0    0 -0.57642798695E+02 -0.50536923778E+02  0.12831681647E+03  0.14948256094E+03  0.17770000000E+01 0. -1.
</event>
<event>
 8    1  0.2374062E-007  0.1891600E+03  0.7546771E-02  0.1063274E+00
        -11   -1    0    0    0    0  0.00000000000E+00  0.00000000000E+00  0.18250000000E+03  0.18250000000E+03  0.00000000000E+00 0.  1.
         11   -1    0    0    0    0 -0.00000000000E+00 -0.00000000000E+00 -0.18250000000E+03  0.18250000000E+03  0.00000000000E+00 0. -1.
         25    2    1    2    0    0 -0.60980571754E+02  0.63629900959E+02 -0.11130506020E+03  0.18916002143E+03  0.12500121142E+03 0.  0.
         23    2    1    2    0    0  0.60980571754E+02 -0.63629900959E+02  0.11130506020E+03  0.17583997857E+03  0.10374722748E+03 0.  0.
        -11    1    4    4    0    0  0.72132122087E+02 -0.64523639214E+01  0.85713366154E+02  0.11221166238E+03  0.00000000000E+00 0.  1.
         11    1    4    4    0    0 -0.11151550333E+02 -0.57177537038E+02  0.25591694044E+02  0.63628316185E+02  0.00000000000E+00 0. -1.
        -15    1    3    3    0    0 -0.63922399732E+02  0.72008051935E+02 -0.13383263730E+03  0.16488045750E+03  0.17770000000E+01 0. -1.
         15    1    3    3    0    0  0.29418279775E+01 -0.83781509761E+01  0.22527577101E+02  0.24279563931E+02  0.17770000000E+01 0. -1.
</event>
<event>
 8    1  0.2374062E-007  0.1891547E+03  0.7546771E-02  0.1063278E+00
        -11   -1    0    0    0    0  0.00000000000E+00  0.00000000000E+00  0.18250000000E+03  0.18250000000E+03  0.00000000000E+00 0. -1.
         11   -1    0    0    0    0 -0.00000000000E+00 -0.00000000000E+00 -0.18250000000E+03  0.18250000000E+03  0.00000000000E+00 0.  1.
         25    2    1    2    0    0  0.12419422537E+02  0.87178119989E+02 -0.11137329256E+03  0.18915466376E+03  0.12498483854E+03 0.  0.
         23    2    1    2    0    0 -0.12419422537E+02 -0.87178119989E+02  0.11137329256E+03  0.17584533624E+03  0.10374635088E+03 0.  0.
        -11    1    4    4    0    0 -0.16330929478E+02 -0.19494397073E+02 -0.17055223852E+02  0.30620441465E+02  0.00000000000E+00 0.  1.
         11    1    4    4    0    0  0.39115069408E+01 -0.67683722915E+02  0.12842851641E+03  0.14522489478E+03  0.00000000000E+00 0. -1.
        -15    1    3    3    0    0  0.54551216912E+02 -0.14103172453E+01 -0.44242739276E+02  0.70273764443E+02  0.17770000000E+01 0. -1.
         15    1    3    3    0    0 -0.42131794375E+02  0.88588437234E+02 -0.67130553286E+02  0.11888089932E+03  0.17770000000E+01 0. -1.
</event>
<event>
 8    1  0.2374062E-007  0.1870185E+03  0.7546771E-02  0.1064914E+00
        -11   -1    0    0    0    0  0.00000000000E+00  0.00000000000E+00  0.18250000000E+03  0.18250000000E+03  0.00000000000E+00 0.  1.
         11   -1    0    0    0    0 -0.00000000000E+00 -0.00000000000E+00 -0.18250000000E+03  0.18250000000E+03  0.00000000000E+00 0. -1.
         25    2    1    2    0    0  0.11771911369E+03 -0.26033384347E+02 -0.69392234624E+02  0.18701846808E+03  0.12500039338E+03 0.  0.
         23    2    1    2    0    0 -0.11771911369E+03  0.26033384347E+02  0.69392234624E+02  0.17798153192E+03  0.11102529735E+03 0.  0.
        -11    1    4    4    0    0  0.44538909404E+01  0.19485083066E+01 -0.22629047343E+02  0.23145358342E+02  0.00000000000E+00 0. -1.
         11    1    4    4    0    0 -0.12217300463E+03  0.24084876040E+02  0.92021281967E+02  0.15483617358E+03  0.00000000000E+00 0.  1.
        -15    1    3    3    0    0  0.10957613412E+03 -0.65613873425E+02 -0.71745666469E+02  0.14650156293E+03  0.17770000000E+01 0.  1.
         15    1    3    3    0    0  0.81429795709E+01  0.39580489079E+02  0.23534318450E+01  0.40516905144E+02  0.17770000000E+01 0.  1.
</event>
<event>
 7    1  0.2374062E-007  0.2001771E+03  0.7546771E-02  0.1055194E+00
        -11   -1    0    0    0    0  0.00000000000E+00  0.00000000000E+00  0.18250000000E+03  0.18250000000E+03  0.00000000000E+00 0. -1.
         11   -1    0    0    0    0 -0.00000000000E+00 -0.00000000000E+00 -0.18250000000E+03  0.18250000000E+03  0.00000000000E+00 0.  1.
         25    2    1    2    0    0 -0.14140133223E+03  0.12839343675E+02 -0.65467863163E+02  0.20017711365E+03  0.12500260085E+03 0.  0.
        -11    1    1    2    0    0  0.10649718084E+03 -0.25794469629E+01  0.23147108032E+02  0.10901418112E+03  0.00000000000E+00 0.  1.
         11    1    1    2    0    0  0.34904151387E+02 -0.10259896712E+02  0.42320755131E+02  0.55808705230E+02  0.00000000000E+00 0. -1.
        -15    1    3    3    0    0 -0.10154452095E+03  0.35537890720E+02  0.13899359556E+02  0.10849231003E+03  0.17770000000E+01 0.  1.
         15    1    3    3    0    0 -0.39856811284E+02 -0.22698547045E+02 -0.79367222719E+02  0.91684803619E+02  0.17770000000E+01 0.  1.
</event>
<event>
 8    1  0.2374062E-007  0.1885735E+03  0.7546771E-02  0.1063721E+00
        -11   -1    0    0    0    0  0.00000000000E+00  0.00000000000E+00  0.18250000000E+03  0.18250000000E+03  0.00000000000E+00 0.  1.
         11   -1    0    0    0    0 -0.00000000000E+00 -0.00000000000E+00 -0.18250000000E+03  0.18250000000E+03  0.00000000000E+00 0. -1.
         25    2    1    2    0    0 -0.12409430587E+03  0.39396965572E+02  0.54625677480E+02  0.18857347338E+03  0.12499789029E+03 0.  0.
         23    2    1    2    0    0  0.12409430587E+03 -0.39396965572E+02 -0.54625677480E+02  0.17642652662E+03  0.10578675253E+03 0.  0.
        -11    1    4    4    0    0  0.92519876244E+02 -0.69682337899E+02 -0.13904267745E+02  0.11665712313E+03  0.00000000000E+00 0.  1.
         11    1    4    4    0    0  0.31574429625E+02  0.30285372326E+02 -0.40721409735E+02  0.59769403492E+02  0.00000000000E+00 0. -1.
        -15    1    3    3    0    0 -0.34682139187E+02  0.41007893657E+02 -0.33243862737E+02  0.63188687750E+02  0.17770000000E+01 0.  1.
         15    1    3    3    0    0 -0.89412166682E+02 -0.16109280853E+01  0.87869540218E+02  0.12538478563E+03  0.17770000000E+01 0.  1.
</event>
<event>
 7    1  0.2374062E-007  0.1589584E+03  0.7546771E-02  0.1088910E+00
        -11   -1    0    0    0    0  0.00000000000E+00  0.00000000000E+00  0.18250000000E+03  0.18250000000E+03  0.00000000000E+00 0. -1.
         11   -1    0    0    0    0 -0.00000000000E+00 -0.00000000000E+00 -0.18250000000E+03  0.18250000000E+03  0.00000000000E+00 0.  1.
         25    2    1    2    0    0 -0.45803187294E+02 -0.94776905037E+02  0.40655446458E+02  0.16839712941E+03  0.12499653664E+03 0.  0.
        -11    1    1    2    0    0 -0.50661179820E+02  0.55862823368E+02 -0.52536035512E+02  0.91908896210E+02  0.00000000000E+00 0.  1.
         11    1    1    2    0    0  0.96464367113E+02  0.38914081670E+02  0.11880589054E+02  0.10469397438E+03  0.00000000000E+00 0. -1.
        -15    1    3    3    0    0 -0.42065933670E+02  0.86483108169E+01 -0.21083525727E+02  0.47874929155E+02  0.17770000000E+01 0. -1.
         15    1    3    3    0    0 -0.37372536236E+01 -0.10342521585E+03  0.61738972186E+02  0.12052220026E+03  0.17770000000E+01 0. -1.
</event>
