<event>
 8    1  0.1270595E-008  0.5018419E+03  0.7546771E-02  0.9395698E-01
        -11   -1    0    0    0    0  0.00000000000E+00  0.00000000000E+00  0.50000000000E+03  0.50000000000E+03  0.00000000000E+00 0. -1.
         11   -1    0    0    0    0 -0.00000000000E+00 -0.00000000000E+00 -0.50000000000E+03  0.50000000000E+03  0.00000000000E+00 0.  1.
         25    2    1    2    0    0  0.85517418855E+02  0.15356797804E+03 -0.45312668213E+03  0.50184185996E+03  0.12500043819E+03 0.  0.
         23    2    1    2    0    0 -0.85517418855E+02 -0.15356797804E+03  0.45312668213E+03  0.49815814004E+03  0.10927666551E+03 0.  0.
        -11    1    4    4    0    0  0.86953074543E+01 -0.62386969235E+01 -0.17315476612E+01  0.10841031701E+02  0.00000000000E+00 0.  1.
         11    1    4    4    0    0 -0.94212726310E+02 -0.14732928112E+03  0.45485822979E+03  0.48731710834E+03  0.00000000000E+00 0. -1.
        -15    1    3    3    0    0  0.19999705925E+01  0.70447061093E+02 -0.63835379831E+02  0.95104688350E+02  0.17770000000E+01 0. -1.
         15    1    3    3    0    0  0.83517448263E+02  0.83120916947E+02 -0.38929130230E+03  0.40673717161E+03  0.17770000000E+01 0. -1.
</event>
<event>
 8    1  0.1270595E-008  0.5008438E+03  0.7546771E-02  0.9397924E-01
        -11   -1    0    0    0    0  0.00000000000E+00  0.00000000000E+00  0.50000000000E+03  0.50000000000E+03  0.00000000000E+00 0. -1.
         11   -1    0    0    0    0 -0.00000000000E+00 -0.00000000000E+00 -0.50000000000E+03  0.50000000000E+03  0.00000000000E+00 0.  1.
         25    2    1    2    0    0 -0.39159958266E+03  0.78261886089E+02  0.27521614569E+03  0.50084376130E+03  0.12500156173E+03 0.  0.
         23    2    1    2    0    0  0.39159958266E+03 -0.78261886089E+02 -0.27521614569E+03  0.49915623870E+03  0.11805874736E+03 0.  0.
        -11    1    4    4    0    0  0.22007783687E+02  0.14163808170E+02  0.44576058234E+01  0.26548564074E+02  0.00000000000E+00 0. -1.
         11    1    4    4    0    0  0.36959179897E+03 -0.92425694260E+02 -0.27967375151E+03  0.47260767462E+03  0.00000000000E+00 0.  1.
        -15    1    3    3    0    0 -0.75417380248E+02 -0.78802300876E+01  0.48573300060E+01  0.76004148923E+02  0.17770000000E+01 0.  1.
         15    1    3    3    0    0 -0.31618220241E+03  0.86142116177E+02  0.27035881568E+03  0.42483961238E+03  0.17770000000E+01 0.  1.
</event>
<event>
 8    1  0.1270595E-008  0.5061788E+03  0.7546771E-02  0.9386089E-01
        -11   -1    0    0    0    0  0.00000000000E+00  0.00000000000E+00  0.50000000000E+03  0.50000000000E+03  0.00000000000E+00 0.  1.
         11   -1    0    0    0    0 -0.00000000000E+00 -0.00000000000E+00 -0.50000000000E+03  0.50000000000E+03  0.00000000000E+00 0. -1.
         25    2    1    2    0    0  0.26734626929E+03 -0.16303479684E+03 -0.37754128332E+03  0.50617875476E+03  0.12500055388E+03 0.  0.
         23    2    1    2    0    0 -0.26734626929E+03  0.16303479684E+03  0.37754128332E+03  0.49382124524E+03  0.57163178309E+02 0.  0.
        -11    1    4    4    0    0 -0.62236957062E+02  0.11701788168E+02  0.79847292979E+02  0.10191153451E+03  0.00000000000E+00 0. -1.
         11    1    4    4    0    0 -0.20510931223E+03  0.15133300867E+03  0.29769399034E+03  0.39190971073E+03  0.00000000000E+00 0.  1.
        -15    1    3    3    0    0  0.26055418046E+03 -0.13719943025E+03 -0.37829237499E+03  0.47939591500E+03  0.17770000000E+01 0.  1.
         15    1    3    3    0    0  0.67920888323E+01 -0.25835366593E+02  0.75109166808E+00  0.26782839756E+02  0.17770000000E+01 0.  1.
</event>
<event>
 8    1  0.1270595E-008  0.5010520E+03  0.7546771E-02  0.9397459E-01
        -11   -1    0    0    0    0  0.00000000000E+00  0.00000000000E+00  0.50000000000E+03  0.50000000000E+03  0.00000000000E+00 0.  1.
         11   -1    0    0    0    0 -0.00000000000E+00 -0.00000000000E+00 -0.50000000000E+03  0.50000000000E+03  0.00000000000E+00 0. -1.
         25    2    1    2    0    0  0.97504229559E+02 -0.42784056715E+03  0.20706893707E+03  0.50105199287E+03  0.12498371568E+03 0.  0.
         23    2    1    2    0    0 -0.97504229559E+02  0.42784056715E+03 -0.20706893707E+03  0.49894800713E+03  0.11626239050E+03 0.  0.
        -11    1    4    4    0    0  0.25536376145E+02  0.11070775015E+03 -0.57822717707E+02  0.12748246598E+03  0.00000000000E+00 0. -1.
         11    1    4    4    0    0 -0.12304060570E+03  0.31713281700E+03 -0.14924621936E+03  0.37146554115E+03  0.00000000000E+00 0.  1.
        -15    1    3    3    0    0  0.93549338451E+02 -0.39606692411E+03  0.22425872467E+03  0.46466721470E+03  0.17770000000E+01 0. -1.
         15    1    3    3    0    0  0.39548911075E+01 -0.31773643040E+02 -0.17189787606E+02  0.36384778172E+02  0.17770000000E+01 0. -1.
</event>
<event>
 7    1  0.1270595E-008  0.5031674E+03  0.7546771E-02  0.9392750E-01
        -11   -1    0    0    0    0  0.00000000000E+00  0.00000000000E+00  0.50000000000E+03  0.50000000000E+03  0.00000000000E+00 0.  1.
         11   -1    0    0    0    0 -0.00000000000E+00 -0.00000000000E+00 -0.50000000000E+03  0.50000000000E+03  0.00000000000E+00 0. -1.
         25    2    1    2    0    0 -0.45347287273E+03 -0.14302388982E+03 -0.71582815351E+02  0.49683256399E+03  0.12500007129E+03 0.  0.
        -11    1    1    2    0    0  0.22811129070E+03  0.41752187847E+02  0.10367646382E+03  0.25402128904E+03  0.00000000000E+00 0.  1.
         11    1    1    2    0    0  0.22536158203E+03  0.10127170197E+03 -0.32093648474E+02  0.24914614697E+03  0.00000000000E+00 0. -1.
        -15    1    3    3    0    0 -0.43440672943E+03 -0.11036606925E+03 -0.85881349067E+02  0.45636459072E+03  0.17770000000E+01 0.  1.
         15    1    3    3    0    0 -0.19066143302E+02 -0.32657820574E+02  0.14298533716E+02  0.40467973269E+02  0.17770000000E+01 0.  1.
</event>
<event>
 8    1  0.1270595E-008  0.5014983E+03  0.7546771E-02  0.9396463E-01
        -11   -1    0    0    0    0  0.00000000000E+00  0.00000000000E+00  0.50000000000E+03  0.50000000000E+03  0.00000000000E+00 0. -1.
         11   -1    0    0    0    0 -0.00000000000E+00 -0.00000000000E+00 -0.50000000000E+03  0.50000000000E+03  0.00000000000E+00 0.  1.
         25    2    1    2    0    0 -0.39209459931E+03  0.61868539084E+02 -0.27983784654E+03  0.50149834793E+03  0.12500192671E+03 0.  0.
         23    2    1    2    0    0  0.39209459931E+03 -0.61868539084E+02  0.27983784654E+03  0.49850165207E+03  0.11237787073E+03 0.  0.
        -11    1    4    4    0    0  0.23988619589E+03 -0.78766760359E+02  0.12893594252E+03  0.28350320420E+03  0.00000000000E+00 0.  1.
         11    1    4    4    0    0  0.15220840341E+03  0.16898221275E+02  0.15090190402E+03  0.21499844787E+03  0.00000000000E+00 0. -1.
        -15    1    3    3    0    0 -0.28908475234E+03  0.97971652259E+02 -0.18527443111E+03  0.35706891664E+03  0.17770000000E+01 0.  1.
         15    1    3    3    0    0 -0.10300984697E+03 -0.36103113176E+02 -0.94563415435E+02  0.14442943129E+03  0.17770000000E+01 0.  1.
</event>
<event>
 8    1  0.1270595E-008  0.5003236E+03  0.7546771E-02  0.9399086E-01
        -11   -1    0    0    0    0  0.00000000000E+00  0.00000000000E+00  0.50000000000E+03  0.50000000000E+03  0.00000000000E+00 0.  1.
         11   -1    0    0    0    0 -0.00000000000E+00 -0.00000000000E+00 -0.50000000000E+03  0.50000000000E+03  0.00000000000E+00 0. -1.
         25    2    1    2    0    0 -0.36868837825E+02 -0.48002173553E+03  0.47667138789E+02  0.49967639468E+03  0.12499666194E+03 0.  0.
         23    2    1    2    0    0  0.36868837825E+02  0.48002173553E+03 -0.47667138789E+02  0.50032360532E+03  0.12755930437E+03 0.  0.
        -11    1    4    4    0    0  0.22236897876E+02  0.29493496061E+03  0.33557396888E+02  0.29766963147E+03  0.00000000000E+00 0.  1.
         11    1    4    4    0    0  0.14631939949E+02  0.18508677493E+03 -0.81224535677E+02  0.20265397385E+03  0.00000000000E+00 0. -1.
        -15    1    3    3    0    0  0.24559843210E+02 -0.61575334667E+02 -0.24365916416E+02  0.70650996806E+02  0.17770000000E+01 0.  1.
         15    1    3    3    0    0 -0.61428681035E+02 -0.41844640087E+03  0.72033055205E+02  0.42902539788E+03  0.17770000000E+01 0.  1.
</event>
<event>
 8    1  0.1270595E-008  0.5020579E+03  0.7546771E-02  0.9395217E-01
        -11   -1    0    0    0    0  0.00000000000E+00  0.00000000000E+00  0.50000000000E+03  0.50000000000E+03  0.00000000000E+00 0. -1.
         11   -1    0    0    0    0 -0.00000000000E+00 -0.00000000000E+00 -0.50000000000E+03  0.50000000000E+03  0.00000000000E+00 0.  1.
         25    2    1    2    0    0  0.38633273191E+03  0.70225703564E+02 -0.28679693430E+03  0.50205789879E+03  0.12500009209E+03 0.  0.
         23    2    1    2    0    0 -0.38633273191E+03 -0.70225703564E+02  0.28679693430E+03  0.49794210121E+03  0.10728105818E+03 0.  0.
        -11    1    4    4    0    0 -0.93132888086E+02 -0.18198144979E+02  0.13131517674E+03  0.16201414434E+03  0.00000000000E+00 0. -1.
         11    1    4    4    0    0 -0.29319984383E+03 -0.52027558585E+02  0.15548175756E+03  0.33592795687E+03  0.00000000000E+00 0.  1.
        -15    1    3    3    0    0  0.19805892225E+03 -0.33476718374E+01 -0.82294869417E+02  0.21450908338E+03  0.17770000000E+01 0. -1.
         15    1    3    3    0    0  0.18827380966E+03  0.73573375401E+02 -0.20450206489E+03  0.28754881541E+03  0.17770000000E+01 0. -1.
</event>
<event>
 8    1  0.1270595E-008  0.5023115E+03  0.7546771E-02  0.9394652E-01
        -11   -1    0    0    0    0  0.00000000000E+00  0.00000000000E+00  0.50000000000E+03  0.50000000000E+03  0.00000000000E+00 0.  1.
         11   -1    0    0    0    0 -0.00000000000E+00 -0.00000000000E+00 -0.50000000000E+03  0.50000000000E+03  0.00000000000E+00 0. -1.
         25    2    1    2    0    0  0.37498849879E+03 -0.66661831574E+02  0.30270705157E+03  0.50231148787E+03  0.12500039104E+03 0.  0.
         23    2    1    2    0    0 -0.37498849879E+03  0.66661831574E+02 -0.30270705157E+03  0.49768851213E+03  0.10489100064E+03 0.  0.
        -11    1    4    4    0    0 -0.29705567667E+03  0.39270580514E+02 -0.17930964551E+03  0.34919364615E+03  0.00000000000E+00 0.  1.
         11    1    4    4    0    0 -0.77932822120E+02  0.27391251060E+02 -0.12339740607E+03  0.14849486598E+03  0.00000000000E+00 0. -1.
        -15    1    3    3    0    0  0.14351389023E+03 -0.14293015868E+02  0.19276207458E+03  0.24075070533E+03  0.17770000000E+01 0.  1.
         15    1    3    3    0    0  0.23147460857E+03 -0.52368815706E+02  0.10994497699E+03  0.26156078254E+03  0.17770000000E+01 0.  1.
</event>
<event>
 8    1  0.1270595E-008  0.5022362E+03  0.7546771E-02  0.9394820E-01
        -11   -1    0    0    0    0  0.00000000000E+00  0.00000000000E+00  0.50000000000E+03  0.50000000000E+03  0.00000000000E+00 0. -1.
         11   -1    0    0    0    0 -0.00000000000E+00 -0.00000000000E+00 -0.50000000000E+03  0.50000000000E+03  0.00000000000E+00 0.  1.
         25    2    1    2    0    0 -0.19066444567E+03  0.25990278470E+03 -0.36429967927E+03  0.50223620573E+03  0.12499824677E+03 0.  0.
         23    2    1    2    0    0  0.19066444567E+03 -0.25990278470E+03  0.36429967927E+03  0.49776379427E+03  0.10560374157E+03 0.  0.
        -11    1    4    4    0    0  0.10067544107E+03 -0.21759178292E+03  0.25642698328E+03  0.35105060346E+03  0.00000000000E+00 0. -1.
         11    1    4    4    0    0  0.89989004597E+02 -0.42311001773E+02  0.10787269599E+03  0.14671319081E+03  0.00000000000E+00 0.  1.
        -15    1    3    3    0    0 -0.71163382302E+02  0.19187062788E+03 -0.18191619698E+03  0.27381604277E+03  0.17770000000E+01 0.  1.
         15    1    3    3    0    0 -0.11950106337E+03  0.68032156813E+02 -0.18238348228E+03  0.22842016296E+03  0.17770000000E+01 0.  1.
</event>
<event>
 8    1  0.1270595E-008  0.5049442E+03  0.7546771E-02  0.9388814E-01
        -11   -1    0    0    0    0  0.00000000000E+00  0.00000000000E+00  0.50000000000E+03  0.50000000000E+03  0.00000000000E+00 0.  1.
         11   -1    0    0    0    0 -0.00000000000E+00 -0.00000000000E+00 -0.50000000000E+03  0.50000000000E+03  0.00000000000E+00 0. -1.
         25    2    1    2    0    0  0.26231311202E+03  0.22153961231E+03  0.34850537069E+03  0.50494424723E+03  0.12499892341E+03 0.  0.
         23    2    1    2    0    0 -0.26231311202E+03 -0.22153961231E+03 -0.34850537069E+03  0.49505575277E+03  0.75737945491E+02 0.  0.
        -11    1    4    4    0    0 -0.46730018026E+02 -0.68351893119E+02 -0.11851264010E+03  0.14457151082E+03  0.00000000000E+00 0.  1.
         11    1    4    4    0    0 -0.21558309400E+03 -0.15318771919E+03 -0.22999273059E+03  0.35048424194E+03  0.00000000000E+00 0. -1.
        -15    1    3    3    0    0  0.20721621245E+03  0.21168091194E+03  0.23407831766E+03  0.37754891565E+03  0.17770000000E+01 0.  1.
         15    1    3    3    0    0  0.55096899573E+02  0.98587003717E+01  0.11442705303E+03  0.12739533158E+03  0.17770000000E+01 0.  1.
</event>
<event>
 8    1  0.1270595E-008  0.5001188E+03  0.7546771E-02  0.9399544E-01
        -11   -1    0    0    0    0  0.00000000000E+00  0.00000000000E+00  0.50000000000E+03  0.50000000000E+03  0.00000000000E+00 0. -1.
         11   -1    0    0    0    0 -0.00000000000E+00 -0.00000000000E+00 -0.50000000000E+03  0.50000000000E+03  0.00000000000E+00 0.  1.
         25    2    1    2    0    0 -0.31440242834E+02  0.45906169827E+03 -0.15088933951E+03  0.50011880476E+03  0.12500037759E+03 0.  0.
         23    2    1    2    0    0  0.31440242834E+02 -0.45906169827E+03  0.15088933951E+03  0.49988119524E+03  0.12404630139E+03 0.  0.
        -11    1    4    4    0    0  0.17345315389E+02 -0.29322017117E+03  0.15753145616E+03  0.33330929844E+03  0.00000000000E+00 0.  1.
         11    1    4    4    0    0  0.14094927445E+02 -0.16584152710E+03 -0.66421166431E+01  0.16657189680E+03  0.00000000000E+00 0. -1.
        -15    1    3    3    0    0 -0.72086980709E+02  0.18261270526E+03 -0.45973554813E+02  0.20164488187E+03  0.17770000000E+01 0.  1.
         15    1    3    3    0    0  0.40646737876E+02  0.27644899301E+03 -0.10491578470E+03  0.29847392289E+03  0.17770000000E+01 0.  1.
</event>
<event>
 7    1  0.1270595E-008  0.5017197E+03  0.7546771E-02  0.9395970E-01
        -11   -1    0    0    0    0  0.00000000000E+00  0.00000000000E+00  0.50000000000E+03  0.50000000000E+03  0.00000000000E+00 0. -1.
         11   -1    0    0    0    0 -0.00000000000E+00 -0.00000000000E+00 -0.50000000000E+03  0.50000000000E+03  0.00000000000E+00 0.  1.
         25    2    1    2    0    0  0.18176590532E+03  0.44551159999E+03  0.33687176404E+02  0.49828034293E+03  0.12501617590E+03 0.  0.
        -11    1    1    2    0    0 -0.99018549844E+02 -0.97650928244E+02  0.18750602422E+02  0.14032805169E+03  0.00000000000E+00 0.  1.
         11    1    1    2    0    0 -0.82747355474E+02 -0.34786067175E+03 -0.52437778826E+02  0.36139160538E+03  0.00000000000E+00 0. -1.
        -15    1    3    3    0    0  0.28740037579E+02  0.14238902255E+03  0.61131103091E+02  0.15760962216E+03  0.17770000000E+01 0.  1.
         15    1    3    3    0    0  0.15302586774E+03  0.30312257744E+03 -0.27443926687E+02  0.34067072077E+03  0.17770000000E+01 0.  1.
</event>
<event>
 8    1  0.1270595E-008  0.5019947E+03  0.7546771E-02  0.9395357E-01
        -11   -1    0    0    0    0  0.00000000000E+00  0.00000000000E+00  0.50000000000E+03  0.50000000000E+03  0.00000000000E+00 0.  1.
         11   -1    0    0    0    0 -0.00000000000E+00 -0.00000000000E+00 -0.50000000000E+03  0.50000000000E+03  0.00000000000E+00 0. -1.
         25    2    1    2    0    0  0.40533254131E+03 -0.24781878155E+03  0.10327236910E+03  0.50199472064E+03  0.12499959920E+03 0.  0.
         23    2    1    2    0    0 -0.40533254131E+03  0.24781878155E+03 -0.10327236910E+03  0.49800527936E+03  0.10786778256E+03 0.  0.
        -11    1    4    4    0    0 -0.16470192057E+03  0.12279621370E+03 -0.95932741511E+02  0.22673491930E+03  0.00000000000E+00 0.  1.
         11    1    4    4    0    0 -0.24063062074E+03  0.12502256785E+03 -0.73396275908E+01  0.27127036005E+03  0.00000000000E+00 0. -1.
        -15    1    3    3    0    0  0.19695166748E+03 -0.18757813699E+03  0.81742731187E+02  0.28400800804E+03  0.17770000000E+01 0. -1.
         15    1    3    3    0    0  0.20838087383E+03 -0.60240644568E+02  0.21529637914E+02  0.21798671260E+03  0.17770000000E+01 0. -1.
</event>
<event>
 8    1  0.1270595E-008  0.5000752E+03  0.7546771E-02  0.9399641E-01
        -11   -1    0    0    0    0  0.00000000000E+00  0.00000000000E+00  0.50000000000E+03  0.50000000000E+03  0.00000000000E+00 0.  1.
         11   -1    0    0    0    0 -0.00000000000E+00 -0.00000000000E+00 -0.50000000000E+03  0.50000000000E+03  0.00000000000E+00 0. -1.
         25    2    1    2    0    0  0.31719934735E+03 -0.34389381355E+03 -0.12417999610E+03  0.49992478456E+03  0.12500295129E+03 0.  0.
         23    2    1    2    0    0 -0.31719934735E+03  0.34389381355E+03  0.12417999610E+03  0.50007521544E+03  0.12560321936E+03 0.  0.
        -11    1    4    4    0    0 -0.12199789820E+03  0.20993314460E+03  0.98176320561E+02  0.26190456714E+03  0.00000000000E+00 0.  1.
         11    1    4    4    0    0 -0.19520144915E+03  0.13396066894E+03  0.26003675542E+02  0.23817064830E+03  0.00000000000E+00 0. -1.
        -15    1    3    3    0    0  0.31949814516E+03 -0.32573597153E+03 -0.13826288908E+03  0.47676280490E+03  0.17770000000E+01 0.  1.
         15    1    3    3    0    0 -0.22987978130E+01 -0.18157842019E+02  0.14082892978E+02  0.23161979660E+02  0.17770000000E+01 0.  1.
</event>
<event>
 8    1  0.1270595E-008  0.5016911E+03  0.7546771E-02  0.9396034E-01
        -11   -1    0    0    0    0  0.00000000000E+00  0.00000000000E+00  0.50000000000E+03  0.50000000000E+03  0.00000000000E+00 0.  1.
         11   -1    0    0    0    0 -0.00000000000E+00 -0.00000000000E+00 -0.50000000000E+03  0.50000000000E+03  0.00000000000E+00 0. -1.
         25    2    1    2    0    0  0.11909392187E+03 -0.38946986457E+03 -0.26495159449E+03  0.50169105644E+03  0.12499772422E+03 0.  0.
         23    2    1    2    0    0 -0.11909392187E+03  0.38946986457E+03  0.26495159449E+03  0.49830894356E+03  0.11064500972E+03 0.  0.
        -11    1    4    4    0    0 -0.20842819937E+02  0.25188562110E+03  0.15079153457E+03  0.29431084955E+03  0.00000000000E+00 0.  1.
         11    1    4    4    0    0 -0.98251101934E+02  0.13758424346E+03  0.11416005991E+03  0.20399809401E+03  0.00000000000E+00 0. -1.
        -15    1    3    3    0    0  0.10569446124E+03 -0.25629832084E+03 -0.23747403853E+03  0.36504414132E+03  0.17770000000E+01 0. -1.
         15    1    3    3    0    0  0.13399460630E+02 -0.13317154372E+03 -0.27477555953E+02  0.13664691512E+03  0.17770000000E+01 0. -1.
</event>
<event>
 7    1  0.1270595E-008  0.4775076E+03  0.7546771E-02  0.9451594E-01
        -11   -1    0    0    0    0  0.00000000000E+00  0.00000000000E+00  0.50000000000E+03  0.50000000000E+03  0.00000000000E+00 0.  1.
         11   -1    0    0    0    0 -0.00000000000E+00 -0.00000000000E+00 -0.50000000000E+03  0.50000000000E+03  0.00000000000E+00 0. -1.
         25    2    1    2    0    0 -0.27041848553E+03 -0.17247470603E+03 -0.35282031922E+03  0.49293103152E+03  0.12500057054E+03 0.  0.
        -11    1    1    2    0    0  0.27209861271E+03  0.19424387765E+03  0.29721675582E+03  0.44733224675E+03  0.00000000000E+00 0.  1.
         11    1    1    2    0    0 -0.16801271780E+01 -0.21769171617E+02  0.55603563399E+02  0.59736721729E+02  0.00000000000E+00 0. -1.
        -15    1    3    3    0    0 -0.12358868467E+03 -0.12719074002E+03 -0.25556376971E+03  0.31107498363E+03  0.17770000000E+01 0. -1.
         15    1    3    3    0    0 -0.14682980086E+03 -0.45283966018E+02 -0.97256549510E+02  0.18185604788E+03  0.17770000000E+01 0. -1.
</event>
<event>
 8    1  0.1270595E-008  0.5023838E+03  0.7546771E-02  0.9394492E-01
        -11   -1    0    0    0    0  0.00000000000E+00  0.00000000000E+00  0.50000000000E+03  0.50000000000E+03  0.00000000000E+00 0. -1.
         11   -1    0    0    0    0 -0.00000000000E+00 -0.00000000000E+00 -0.50000000000E+03  0.50000000000E+03  0.00000000000E+00 0.  1.
         25    2    1    2    0    0  0.13573684902E+03 -0.45947932610E+03 -0.84969168654E+02  0.50238378948E+03  0.12499587603E+03 0.  0.
         23    2    1    2    0    0 -0.13573684902E+03  0.45947932610E+03  0.84969168654E+02  0.49761621052E+03  0.10419400202E+03 0.  0.
        -11    1    4    4    0    0  0.15622231784E+02  0.84443873440E+02  0.15689978696E+02  0.87298323689E+02  0.00000000000E+00 0. -1.
         11    1    4    4    0    0 -0.15135908080E+03  0.37503545266E+03  0.69279189959E+02  0.41031788683E+03  0.00000000000E+00 0.  1.
        -15    1    3    3    0    0  0.27563862362E+01 -0.62594020168E+02 -0.53881968005E+02  0.82656114299E+02  0.17770000000E+01 0.  1.
         15    1    3    3    0    0  0.13298046278E+03 -0.39688530593E+03 -0.31087200649E+02  0.41972767518E+03  0.17770000000E+01 0.  1.
</event>
<event>
 8    1  0.1270595E-008  0.5049174E+03  0.7546771E-02  0.9388873E-01
        -11   -1    0    0    0    0  0.00000000000E+00  0.00000000000E+00  0.50000000000E+03  0.50000000000E+03  0.00000000000E+00 0.  1.
         11   -1    0    0    0    0 -0.00000000000E+00 -0.00000000000E+00 -0.50000000000E+03  0.50000000000E+03  0.00000000000E+00 0. -1.
         25    2    1    2    0    0 -0.30849155915E+03  0.22463212058E+03 -0.30609143241E+03  0.50491737890E+03  0.12499185115E+03 0.  0.
         23    2    1    2    0    0  0.30849155915E+03 -0.22463212058E+03  0.30609143241E+03  0.49508262110E+03  0.76080254068E+02 0.  0.
        -11    1    4    4    0    0  0.24525887670E+03 -0.18066900176E+03  0.20164721411E+03  0.36531466403E+03  0.00000000000E+00 0.  1.
         11    1    4    4    0    0  0.63232682451E+02 -0.43963118823E+02  0.10444421830E+03  0.12976795708E+03  0.00000000000E+00 0. -1.
        -15    1    3    3    0    0 -0.26210617681E+03  0.23525752292E+03 -0.25336207254E+03  0.43386777657E+03  0.17770000000E+01 0.  1.
         15    1    3    3    0    0 -0.46385382339E+02 -0.10625402342E+02 -0.52729359873E+02  0.71049602330E+02  0.17770000000E+01 0.  1.
</event>
<event>
 8    1  0.1270595E-008  0.5017846E+03  0.7546771E-02  0.9395825E-01
        -11   -1    0    0    0    0  0.00000000000E+00  0.00000000000E+00  0.50000000000E+03  0.50000000000E+03  0.00000000000E+00 0. -1.
         11   -1    0    0    0    0 -0.00000000000E+00 -0.00000000000E+00 -0.50000000000E+03  0.50000000000E+03  0.00000000000E+00 0.  1.
         25    2    1    2    0    0  0.34118437141E+03  0.33627963935E+03 -0.81670903590E+02  0.50178458609E+03  0.12500745260E+03 0.  0.
         23    2    1    2    0    0 -0.34118437141E+03 -0.33627963935E+03  0.81670903590E+02  0.49821541391E+03  0.10980751811E+03 0.  0.
        -11    1    4    4    0    0 -0.17606876149E+03 -0.98616633376E+02  0.41832572717E+02  0.20609564113E+03  0.00000000000E+00 0.  1.
         11    1    4    4    0    0 -0.16511560992E+03 -0.23766300597E+03  0.39838330874E+02  0.29211977279E+03  0.00000000000E+00 0. -1.
        -15    1    3    3    0    0  0.15836622602E+03  0.92481701951E+02 -0.71606038316E+02  0.19688399933E+03  0.17770000000E+01 0. -1.
         15    1    3    3    0    0  0.18281814539E+03  0.24379793740E+03 -0.10064865274E+02  0.30490058676E+03  0.17770000000E+01 0. -1.
</event>
<event>
 7    1  0.1270595E-008  0.5231980E+03  0.7546771E-02  0.9349348E-01
        -11   -1    0    0    0    0  0.00000000000E+00  0.00000000000E+00  0.50000000000E+03  0.50000000000E+03  0.00000000000E+00 0.  1.
         11   -1    0    0    0    0 -0.00000000000E+00 -0.00000000000E+00 -0.50000000000E+03  0.50000000000E+03  0.00000000000E+00 0. -1.
         25    2    1    2    0    0  0.30858179022E+03 -0.34099761237E+03 -0.14544620619E+02  0.47680203627E+03  0.12500617146E+03 0.  0.
        -11    1    1    2    0    0 -0.11646843364E+03  0.22475705350E+03  0.11398608047E+03  0.27762106490E+03  0.00000000000E+00 0.  1.
         11    1    1    2    0    0 -0.19211335658E+03  0.11624055887E+03 -0.99441459848E+02  0.24557689883E+03  0.00000000000E+00 0. -1.
        -15    1    3    3    0    0  0.14228806426E+03 -0.83559381302E+02  0.28012227988E+02  0.16737952706E+03  0.17770000000E+01 0. -1.
         15    1    3    3    0    0  0.16629372596E+03 -0.25743823107E+03 -0.42556848607E+02  0.30942250921E+03  0.17770000000E+01 0. -1.
</event>
<event>
 7    1  0.1270595E-008  0.5093597E+03  0.7546771E-02  0.9379107E-01
        -11   -1    0    0    0    0  0.00000000000E+00  0.00000000000E+00  0.50000000000E+03  0.50000000000E+03  0.00000000000E+00 0.  1.
         11   -1    0    0    0    0 -0.00000000000E+00 -0.00000000000E+00 -0.50000000000E+03  0.50000000000E+03  0.00000000000E+00 0. -1.
         25    2    1    2    0    0 -0.33293567423E+03 -0.29408875599E+03  0.16663857737E+03  0.49064029305E+03  0.12500048849E+03 0.  0.
        -11    1    1    2    0    0  0.14167881392E+03  0.10563699990E+03  0.26373819929E+02  0.17868307261E+03  0.00000000000E+00 0.  1.
         11    1    1    2    0    0  0.19125686031E+03  0.18845175609E+03 -0.19301239730E+03  0.33067663434E+03  0.00000000000E+00 0. -1.
        -15    1    3    3    0    0 -0.16262455882E+02  0.10304888396E+02 -0.33921801871E+01  0.19629641148E+02  0.17770000000E+01 0.  1.
         15    1    3    3    0    0 -0.31667321834E+03 -0.30439364438E+03  0.17003075756E+03  0.47101065190E+03  0.17770000000E+01 0.  1.
</event>
<event>
 7    1  0.1270595E-008  0.5008101E+03  0.7546771E-02  0.9397999E-01
        -11   -1    0    0    0    0  0.00000000000E+00  0.00000000000E+00  0.50000000000E+03  0.50000000000E+03  0.00000000000E+00 0. -1.
         11   -1    0    0    0    0 -0.00000000000E+00 -0.00000000000E+00 -0.50000000000E+03  0.50000000000E+03  0.00000000000E+00 0.  1.
         25    2    1    2    0    0 -0.44403927690E+03 -0.15999721740E+03 -0.10389995782E+03  0.49918986526E+03  0.12500132535E+03 0.  0.
        -11    1    1    2    0    0  0.16801317501E+03 -0.49962546095E+01  0.43233767174E+02  0.17355848628E+03  0.00000000000E+00 0. -1.
         11    1    1    2    0    0  0.27602610189E+03  0.16499347201E+03  0.60666190642E+02  0.32725164846E+03  0.00000000000E+00 0.  1.
        -15    1    3    3    0    0 -0.72166478938E+01  0.14712604673E+01 -0.25905087790E+02  0.26990293006E+02  0.17770000000E+01 0.  1.
         15    1    3    3    0    0 -0.43682262901E+03 -0.16146847787E+03 -0.77994870027E+02  0.47219957225E+03  0.17770000000E+01 0.  1.
</event>
<event>
 8    1  0.1270595E-008  0.5022997E+03  0.7546771E-02  0.9394679E-01
        -11   -1    0    0    0    0  0.00000000000E+00  0.00000000000E+00  0.50000000000E+03  0.50000000000E+03  0.00000000000E+00 0.  1.
         11   -1    0    0    0    0 -0.00000000000E+00 -0.00000000000E+00 -0.50000000000E+03  0.50000000000E+03  0.00000000000E+00 0. -1.
         25    2    1    2    0    0  0.37562792837E+03  0.23356095673E+03  0.20257562813E+03  0.50229967675E+03  0.12498407527E+03 0.  0.
         23    2    1    2    0    0 -0.37562792837E+03 -0.23356095673E+03 -0.20257562813E+03  0.49770032325E+03  0.10498412054E+03 0.  0.
        -11    1    4    4    0    0  0.46121057324E+01 -0.11385065458E+02  0.14026201844E+01  0.12363598916E+02  0.00000000000E+00 0.  1.
         11    1    4    4    0    0 -0.38024003410E+03 -0.22217589128E+03 -0.20397824831E+03  0.48533672433E+03  0.00000000000E+00 0. -1.
        -15    1    3    3    0    0  0.26550746585E+02  0.37777786617E+02 -0.12589719707E+02  0.47893236236E+02  0.17770000000E+01 0.  1.
         15    1    3    3    0    0  0.34907718179E+03  0.19578317012E+03  0.21516534783E+03  0.45440644052E+03  0.17770000000E+01 0.  1.
</event>
<event>
 7    1  0.1270595E-008  0.5021394E+03  0.7546771E-02  0.9395035E-01
        -11   -1    0    0    0    0  0.00000000000E+00  0.00000000000E+00  0.50000000000E+03  0.50000000000E+03  0.00000000000E+00 0. -1.
         11   -1    0    0    0    0 -0.00000000000E+00 -0.00000000000E+00 -0.50000000000E+03  0.50000000000E+03  0.00000000000E+00 0.  1.
         25    2    1    2    0    0  0.70187455076E+02 -0.44278271865E+03  0.17680238204E+03  0.49786063543E+03  0.12499326074E+03 0.  0.
        -11    1    1    2    0    0  0.24556464807E+02  0.32025144371E+02 -0.45059897263E+02  0.60489868384E+02  0.00000000000E+00 0.  1.
         11    1    1    2    0    0 -0.94743919883E+02  0.41075757428E+03 -0.13174248478E+03  0.44164949618E+03  0.00000000000E+00 0. -1.
        -15    1    3    3    0    0 -0.34733396377E+02 -0.70627643033E+02  0.28322350239E+02  0.83665919204E+02  0.17770000000E+01 0.  1.
         15    1    3    3    0    0  0.10492085145E+03 -0.37215507562E+03  0.14848003180E+03  0.41419471623E+03  0.17770000000E+01 0.  1.
</event>
<event>
 7    1  0.1270595E-008  0.5033282E+03  0.7546771E-02  0.9392393E-01
        -11   -1    0    0    0    0  0.00000000000E+00  0.00000000000E+00  0.50000000000E+03  0.50000000000E+03  0.00000000000E+00 0.  1.
         11   -1    0    0    0    0 -0.00000000000E+00 -0.00000000000E+00 -0.50000000000E+03  0.50000000000E+03  0.00000000000E+00 0. -1.
         25    2    1    2    0    0  0.25940259433E+03 -0.38649156177E+03 -0.11996224761E+03  0.49667180304E+03  0.12500602314E+03 0.  0.
        -11    1    1    2    0    0 -0.12637354232E+03  0.22672793523E+03  0.13920944241E+03  0.29454218318E+03  0.00000000000E+00 0.  1.
         11    1    1    2    0    0 -0.13302905201E+03  0.15976362654E+03 -0.19247194800E+02  0.20878601378E+03  0.00000000000E+00 0. -1.
        -15    1    3    3    0    0  0.21373340598E+03 -0.32324695249E+03 -0.47927224163E+02  0.39047501543E+03  0.17770000000E+01 0. -1.
         15    1    3    3    0    0  0.45669188349E+02 -0.63244609277E+02 -0.72035023451E+02  0.10619678761E+03  0.17770000000E+01 0. -1.
</event>
<event>
 8    1  0.1270595E-008  0.5016901E+03  0.7546771E-02  0.9396036E-01
        -11   -1    0    0    0    0  0.00000000000E+00  0.00000000000E+00  0.50000000000E+03  0.50000000000E+03  0.00000000000E+00 0.  1.
         11   -1    0    0    0    0 -0.00000000000E+00 -0.00000000000E+00 -0.50000000000E+03  0.50000000000E+03  0.00000000000E+00 0. -1.
         25    2    1    2    0    0  0.30730141736E+03  0.23856799083E+02 -0.37558789835E+03  0.50169005024E+03  0.12499331643E+03 0.  0.
         23    2    1    2    0    0 -0.30730141736E+03 -0.23856799083E+02  0.37558789835E+03  0.49830994976E+03  0.11064912412E+03 0.  0.
        -11    1    4    4    0    0  0.73612619368E+01  0.77516025131E+01  0.18056709731E+02  0.20983810072E+02  0.00000000000E+00 0.  1.
         11    1    4    4    0    0 -0.31466267929E+03 -0.31608401596E+02  0.35753118862E+03  0.47732613969E+03  0.00000000000E+00 0. -1.
        -15    1    3    3    0    0  0.31235835528E+03  0.33579988852E+02 -0.37672346540E+03  0.49052939247E+03  0.17770000000E+01 0. -1.
         15    1    3    3    0    0 -0.50569379223E+01 -0.97231897687E+01  0.11355670485E+01  0.11160657774E+02  0.17770000000E+01 0. -1.
</event>
<event>
 8    1  0.1303755E-008  0.5012872E+03  0.7546771E-02  0.9396934E-01
        -11   -1    0    0    0    0  0.00000000000E+00  0.00000000000E+00  0.50000000000E+03  0.50000000000E+03  0.00000000000E+00 0. -1.
         11   -1    0    0    0    0 -0.00000000000E+00 -0.00000000000E+00 -0.50000000000E+03  0.50000000000E+03  0.00000000000E+00 0.  1.
         25    2    1    2    0    0 -0.27912428951E+03 -0.39513262205E+03  0.40279214248E+02  0.50128724514E+03  0.12500531603E+03 0.  0.
         23    2    1    2    0    0  0.27912428951E+03  0.39513262205E+03 -0.40279214248E+02  0.49871275486E+03  0.11424464432E+03 0.  0.
        -11    1    4    4    0    0  0.15000975838E+03  0.30240494016E+03 -0.38351146264E+02  0.33973884951E+03  0.00000000000E+00 0.  1.
         11    1    4    4    0    0  0.12911453113E+03  0.92727681888E+02 -0.19280679833E+01  0.15897390535E+03  0.00000000000E+00 0. -1.
        -15    1    3    3    0    0 -0.28389858299E+03 -0.33527400843E+03  0.40702669858E+02  0.44121075601E+03  0.17770000000E+01 0. -1.
         15    1    3    3    0    0  0.47742934812E+01 -0.59858613617E+02 -0.42345561067E+00  0.60076489128E+02  0.17770000000E+01 0. -1.
</event>
<event>
 8    1  0.1270595E-008  0.5022477E+03  0.7546771E-02  0.9394794E-01
        -11   -1    0    0    0    0  0.00000000000E+00  0.00000000000E+00  0.50000000000E+03  0.50000000000E+03  0.00000000000E+00 0.  1.
         11   -1    0    0    0    0 -0.00000000000E+00 -0.00000000000E+00 -0.50000000000E+03  0.50000000000E+03  0.00000000000E+00 0. -1.
         25    2    1    2    0    0  0.33919659336E+03  0.20268552113E+03 -0.28370281212E+03  0.50224769183E+03  0.12501883427E+03 0.  0.
         23    2    1    2    0    0 -0.33919659336E+03 -0.20268552113E+03  0.28370281212E+03  0.49775230817E+03  0.10551931230E+03 0.  0.
        -11    1    4    4    0    0 -0.68164224674E+02 -0.58270372078E+02  0.17578997913E+02  0.91382815426E+02  0.00000000000E+00 0.  1.
         11    1    4    4    0    0 -0.27103236869E+03 -0.14441514905E+03  0.26612381420E+03  0.40636949275E+03  0.00000000000E+00 0. -1.
        -15    1    3    3    0    0 -0.84554609100E+01  0.19237819097E+02 -0.18598702951E+02  0.28118641206E+02  0.17770000000E+01 0.  1.
         15    1    3    3    0    0  0.34765205427E+03  0.18344770203E+03 -0.26510410917E+03  0.47412905062E+03  0.17770000000E+01 0.  1.
</event>
<event>
 8    1  0.1270595E-008  0.5014279E+03  0.7546771E-02  0.9396620E-01
        -11   -1    0    0    0    0  0.00000000000E+00  0.00000000000E+00  0.50000000000E+03  0.50000000000E+03  0.00000000000E+00 0.  1.
         11   -1    0    0    0    0 -0.00000000000E+00 -0.00000000000E+00 -0.50000000000E+03  0.50000000000E+03  0.00000000000E+00 0. -1.
         25    2    1    2    0    0 -0.20025275204E+03 -0.42637981433E+03  0.11792183814E+03  0.50142792713E+03  0.12499398158E+03 0.  0.
         23    2    1    2    0    0  0.20025275204E+03  0.42637981433E+03 -0.11792183814E+03  0.49857207287E+03  0.11299398730E+03 0.  0.
        -11    1    4    4    0    0  0.96306603354E+02  0.26494969219E+03 -0.18907231378E+02  0.28254342080E+03  0.00000000000E+00 0.  1.
         11    1    4    4    0    0  0.10394614868E+03  0.16143012214E+03 -0.99014606760E+02  0.21602865206E+03  0.00000000000E+00 0. -1.
        -15    1    3    3    0    0 -0.95055598201E+02 -0.85634556771E+02  0.55124665519E+02  0.13932239784E+03  0.17770000000E+01 0. -1.
         15    1    3    3    0    0 -0.10519715384E+03 -0.34074525756E+03  0.62797172619E+02  0.36210552929E+03  0.17770000000E+01 0. -1.
</event>
<event>
 8    1  0.1270595E-008  0.5047436E+03  0.7546771E-02  0.9389258E-01
        -11   -1    0    0    0    0  0.00000000000E+00  0.00000000000E+00  0.50000000000E+03  0.50000000000E+03  0.00000000000E+00 0.  1.
         11   -1    0    0    0    0 -0.00000000000E+00 -0.00000000000E+00 -0.50000000000E+03  0.50000000000E+03  0.00000000000E+00 0. -1.
         25    2    1    2    0    0 -0.38273216704E+03 -0.10643886880E+03  0.28518092386E+03  0.50474356249E+03  0.12499904023E+03 0.  0.
         23    2    1    2    0    0  0.38273216704E+03  0.10643886880E+03 -0.28518092386E+03  0.49525643751E+03  0.78343060202E+02 0.  0.
        -11    1    4    4    0    0  0.59398956428E+02 -0.95234034952E+01 -0.57017718756E+02  0.82885170513E+02  0.00000000000E+00 0.  1.
         11    1    4    4    0    0  0.32333321061E+03  0.11596227229E+03 -0.22816320511E+03  0.41237126700E+03  0.00000000000E+00 0. -1.
        -15    1    3    3    0    0 -0.30715691924E+03 -0.97160936102E+02  0.16371569905E+03  0.36137460949E+03  0.17770000000E+01 0. -1.
         15    1    3    3    0    0 -0.75575247804E+02 -0.92779326932E+01  0.12146522481E+03  0.14336895300E+03  0.17770000000E+01 0. -1.
</event>
<event>
 8    1  0.1270595E-008  0.5007258E+03  0.7546771E-02  0.9398187E-01
        -11   -1    0    0    0    0  0.00000000000E+00  0.00000000000E+00  0.50000000000E+03  0.50000000000E+03  0.00000000000E+00 0.  1.
         11   -1    0    0    0    0 -0.00000000000E+00 -0.00000000000E+00 -0.50000000000E+03  0.50000000000E+03  0.00000000000E+00 0. -1.
         25    2    1    2    0    0 -0.68362466875E+02  0.21664843748E+03 -0.42835610022E+03  0.50072579804E+03  0.12500961519E+03 0.  0.
         23    2    1    2    0    0  0.68362466875E+02 -0.21664843748E+03  0.42835610022E+03  0.49927420196E+03  0.11906220143E+03 0.  0.
        -11    1    4    4    0    0  0.87776848840E+02 -0.12161387786E+03  0.32266907787E+03  0.35582305194E+03  0.00000000000E+00 0.  1.
         11    1    4    4    0    0 -0.19414381965E+02 -0.95034559615E+02  0.10568702235E+03  0.14345115002E+03  0.00000000000E+00 0. -1.
        -15    1    3    3    0    0 -0.40404584230E+02  0.78893781658E+02 -0.29092521867E+03  0.30413385178E+03  0.17770000000E+01 0.  1.
         15    1    3    3    0    0 -0.27957882645E+02  0.13775465582E+03 -0.13743088154E+03  0.19659194626E+03  0.17770000000E+01 0.  1.
</event>
<event>
 8    1  0.1270595E-008  0.5003117E+03  0.7546771E-02  0.9399113E-01
        -11   -1    0    0    0    0  0.00000000000E+00  0.00000000000E+00  0.50000000000E+03  0.50000000000E+03  0.00000000000E+00 0.  1.
         11   -1    0    0    0    0 -0.00000000000E+00 -0.00000000000E+00 -0.50000000000E+03  0.50000000000E+03  0.00000000000E+00 0. -1.
         25    2    1    2    0    0 -0.74271514156E+01  0.45987711754E+03  0.15006749359E+03  0.49968828808E+03  0.12500402712E+03 0.  0.
         23    2    1    2    0    0  0.74271514156E+01 -0.45987711754E+03 -0.15006749359E+03  0.50031171192E+03  0.12747325458E+03 0.  0.
        -11    1    4    4    0    0 -0.39490738588E+02 -0.23186234528E+03 -0.26310479221E+02  0.23666834793E+03  0.00000000000E+00 0.  1.
         11    1    4    4    0    0  0.46917890003E+02 -0.22801477226E+03 -0.12375701437E+03  0.26364336399E+03  0.00000000000E+00 0. -1.
        -15    1    3    3    0    0 -0.64838488102E+01  0.44023434160E+03  0.10818144274E+03  0.45338140467E+03  0.17770000000E+01 0.  1.
         15    1    3    3    0    0 -0.94330260539E+00  0.19642775946E+02  0.41886050849E+02  0.46306883413E+02  0.17770000000E+01 0.  1.
</event>
<event>
 7    1  0.1270595E-008  0.5018556E+03  0.7546771E-02  0.9395667E-01
        -11   -1    0    0    0    0  0.00000000000E+00  0.00000000000E+00  0.50000000000E+03  0.50000000000E+03  0.00000000000E+00 0.  1.
         11   -1    0    0    0    0 -0.00000000000E+00 -0.00000000000E+00 -0.50000000000E+03  0.50000000000E+03  0.00000000000E+00 0. -1.
         25    2    1    2    0    0  0.18983164656E+03  0.43987057209E+03 -0.54778122743E+02  0.49814442034E+03  0.12500018624E+03 0.  0.
        -11    1    1    2    0    0 -0.16403338103E+03 -0.28345303631E+03  0.89632058549E+02  0.33953862785E+03  0.00000000000E+00 0.  1.
         11    1    1    2    0    0 -0.25798265529E+02 -0.15641753578E+03 -0.34853935806E+02  0.16231695181E+03  0.00000000000E+00 0. -1.
        -15    1    3    3    0    0  0.85929796672E+02  0.19765799864E+03 -0.87374935580E+02  0.23257289498E+03  0.17770000000E+01 0.  1.
         15    1    3    3    0    0  0.10390184988E+03  0.24221257345E+03  0.32596812837E+02  0.26557152536E+03  0.17770000000E+01 0.  1.
</event>
<event>
 8    1  0.1270595E-008  0.5021844E+03  0.7546771E-02  0.9394935E-01
        -11   -1    0    0    0    0  0.00000000000E+00  0.00000000000E+00  0.50000000000E+03  0.50000000000E+03  0.00000000000E+00 0. -1.
         11   -1    0    0    0    0 -0.00000000000E+00 -0.00000000000E+00 -0.50000000000E+03  0.50000000000E+03  0.00000000000E+00 0.  1.
         25    2    1    2    0    0  0.18691424989E+03 -0.29676237838E+03  0.33698553473E+03  0.50218438519E+03  0.12500024031E+03 0.  0.
         23    2    1    2    0    0 -0.18691424989E+03  0.29676237838E+03 -0.33698553473E+03  0.49781561481E+03  0.10609566297E+03 0.  0.
        -11    1    4    4    0    0 -0.73413028302E+02  0.10217178850E+03 -0.19324291622E+03  0.23058918396E+03  0.00000000000E+00 0.  1.
         11    1    4    4    0    0 -0.11350122158E+03  0.19459058988E+03 -0.14374261851E+03  0.26722643085E+03  0.00000000000E+00 0. -1.
        -15    1    3    3    0    0  0.15374354440E+03 -0.17204741787E+03  0.15082471204E+03  0.27566037606E+03  0.17770000000E+01 0. -1.
         15    1    3    3    0    0  0.33170705492E+02 -0.12471496051E+03  0.18616082269E+03  0.22652400913E+03  0.17770000000E+01 0. -1.
</event>
<event>
 7    1  0.1270595E-008  0.5023930E+03  0.7546771E-02  0.9394471E-01
        -11   -1    0    0    0    0  0.00000000000E+00  0.00000000000E+00  0.50000000000E+03  0.50000000000E+03  0.00000000000E+00 0. -1.
         11   -1    0    0    0    0 -0.00000000000E+00 -0.00000000000E+00 -0.50000000000E+03  0.50000000000E+03  0.00000000000E+00 0.  1.
         25    2    1    2    0    0  0.14055412491E+03  0.27170244503E+03  0.37203468247E+03  0.49760695797E+03  0.12500079596E+03 0.  0.
        -11    1    1    2    0    0 -0.46580295235E+02 -0.21598012072E+03 -0.29564206605E+03  0.36908178994E+03  0.00000000000E+00 0.  1.
         11    1    1    2    0    0 -0.93973829674E+02 -0.55722324313E+02 -0.76392616421E+02  0.13331125209E+03  0.00000000000E+00 0. -1.
        -15    1    3    3    0    0  0.14573380451E+03  0.27854498511E+03  0.37405173851E+03  0.48861386731E+03  0.17770000000E+01 0. -1.
         15    1    3    3    0    0 -0.51796796012E+01 -0.68425400807E+01 -0.20170560455E+01  0.89930906600E+01  0.17770000000E+01 0. -1.
</event>
<event>
 7    1  0.1270595E-008  0.4270254E+03  0.7546771E-02  0.9579756E-01
        -11   -1    0    0    0    0  0.00000000000E+00  0.00000000000E+00  0.50000000000E+03  0.50000000000E+03  0.00000000000E+00 0. -1.
         11   -1    0    0    0    0 -0.00000000000E+00 -0.00000000000E+00 -0.50000000000E+03  0.50000000000E+03  0.00000000000E+00 0.  1.
         25    2    1    2    0    0 -0.46655497520E+02 -0.21730568395E+03 -0.38057933789E+03  0.45810939829E+03  0.12500037058E+03 0.  0.
        -11    1    1    2    0    0 -0.28222269269E+02  0.14840360655E+03  0.32675724599E+01  0.15109865635E+03  0.00000000000E+00 0.  1.
         11    1    1    2    0    0  0.74877766789E+02  0.68902077401E+02  0.37731176543E+03  0.39079194536E+03  0.00000000000E+00 0. -1.
        -15    1    3    3    0    0  0.38863613214E+02 -0.78630421159E+02 -0.94938060034E+02  0.12926529517E+03  0.17770000000E+01 0.  1.
         15    1    3    3    0    0 -0.85519110734E+02 -0.13867526279E+03 -0.28564127785E+03  0.32884410312E+03  0.17770000000E+01 0.  1.
</event>
<event>
 7    1  0.1270595E-008  0.5016157E+03  0.7546771E-02  0.9396202E-01
        -11   -1    0    0    0    0  0.00000000000E+00  0.00000000000E+00  0.50000000000E+03  0.50000000000E+03  0.00000000000E+00 0.  1.
         11   -1    0    0    0    0 -0.00000000000E+00 -0.00000000000E+00 -0.50000000000E+03  0.50000000000E+03  0.00000000000E+00 0. -1.
         25    2    1    2    0    0  0.47952152125E+03  0.94422364479E+01  0.52263093532E+02  0.49838426106E+03  0.12500158223E+03 0.  0.
        -11    1    1    2    0    0 -0.22479622497E+03  0.19363884234E+02  0.40042966124E+02  0.22915440626E+03  0.00000000000E+00 0. -1.
         11    1    1    2    0    0 -0.25472529628E+03 -0.28806120681E+02 -0.92306059656E+02  0.27246133267E+03  0.00000000000E+00 0.  1.
        -15    1    3    3    0    0  0.46892157828E+02 -0.14521077319E+02  0.42536684418E+02  0.64978945841E+02  0.17770000000E+01 0. -1.
         15    1    3    3    0    0  0.43262936342E+03  0.23963313767E+02  0.97264091141E+01  0.43340531522E+03  0.17770000000E+01 0. -1.
</event>
<event>
 8    1  0.1270595E-008  0.5007195E+03  0.7546771E-02  0.9398201E-01
        -11   -1    0    0    0    0  0.00000000000E+00  0.00000000000E+00  0.50000000000E+03  0.50000000000E+03  0.00000000000E+00 0.  1.
         11   -1    0    0    0    0 -0.00000000000E+00 -0.00000000000E+00 -0.50000000000E+03  0.50000000000E+03  0.00000000000E+00 0. -1.
         25    2    1    2    0    0 -0.23655470490E+03  0.42197275277E+03 -0.32806766671E+02  0.50071949446E+03  0.12499838279E+03 0.  0.
         23    2    1    2    0    0  0.23655470490E+03 -0.42197275277E+03  0.32806766671E+02  0.49928050554E+03  0.11910334500E+03 0.  0.
        -11    1    4    4    0    0  0.13506719198E+03 -0.34340778090E+03  0.11607127983E+02  0.36919747528E+03  0.00000000000E+00 0.  1.
         11    1    4    4    0    0  0.10148751291E+03 -0.78564971866E+02  0.21199638688E+02  0.13008303026E+03  0.00000000000E+00 0. -1.
        -15    1    3    3    0    0 -0.58568336765E+02  0.21226795129E+03 -0.47480653860E+02  0.22526762625E+03  0.17770000000E+01 0. -1.
         15    1    3    3    0    0 -0.17798636813E+03  0.20970480148E+03  0.14673887189E+02  0.27545186821E+03  0.17770000000E+01 0. -1.
</event>
<event>
 8    1  0.1270595E-008  0.5024402E+03  0.7546771E-02  0.9394366E-01
        -11   -1    0    0    0    0  0.00000000000E+00  0.00000000000E+00  0.50000000000E+03  0.50000000000E+03  0.00000000000E+00 0.  1.
         11   -1    0    0    0    0 -0.00000000000E+00 -0.00000000000E+00 -0.50000000000E+03  0.50000000000E+03  0.00000000000E+00 0. -1.
         25    2    1    2    0    0 -0.24145514337E+03  0.41602343358E+03  0.73786503328E+02  0.50244021919E+03  0.12500256892E+03 0.  0.
         23    2    1    2    0    0  0.24145514337E+03 -0.41602343358E+03 -0.73786503328E+02  0.49755978081E+03  0.10365907517E+03 0.  0.
        -11    1    4    4    0    0  0.17787613573E+03 -0.23772840734E+03 -0.75196760740E+01  0.29700380612E+03  0.00000000000E+00 0.  1.
         11    1    4    4    0    0  0.63579007643E+02 -0.17829502624E+03 -0.66266827254E+02  0.20055597470E+03  0.00000000000E+00 0. -1.
        -15    1    3    3    0    0 -0.86979975381E+02  0.57032474256E+02 -0.33542214354E+01  0.10407991049E+03  0.17770000000E+01 0. -1.
         15    1    3    3    0    0 -0.15447516799E+03  0.35899095932E+03  0.77140724764E+02  0.39836030870E+03  0.17770000000E+01 0. -1.
</event>
<event>
 8    1  0.1270595E-008  0.5023247E+03  0.7546771E-02  0.9394623E-01
        -11   -1    0    0    0    0  0.00000000000E+00  0.00000000000E+00  0.50000000000E+03  0.50000000000E+03  0.00000000000E+00 0.  1.
         11   -1    0    0    0    0 -0.00000000000E+00 -0.00000000000E+00 -0.50000000000E+03  0.50000000000E+03  0.00000000000E+00 0. -1.
         25    2    1    2    0    0 -0.23226227665E+03  0.35931315783E+03  0.23163206414E+03  0.50232470669E+03  0.12499994905E+03 0.  0.
         23    2    1    2    0    0  0.23226227665E+03 -0.35931315783E+03 -0.23163206414E+03  0.49767529331E+03  0.10476437318E+03 0.  0.
        -11    1    4    4    0    0  0.91596260384E+02 -0.71115611914E+02 -0.33468063219E+02  0.12069555265E+03  0.00000000000E+00 0. -1.
         11    1    4    4    0    0  0.14066601627E+03 -0.28819754592E+03 -0.19816400093E+03  0.37697974066E+03  0.00000000000E+00 0.  1.
        -15    1    3    3    0    0 -0.47710907667E+02  0.14019940386E+03  0.27711714993E+02  0.15067614420E+03  0.17770000000E+01 0.  1.
         15    1    3    3    0    0 -0.18455136898E+03  0.21911375397E+03  0.20392034915E+03  0.35164856249E+03  0.17770000000E+01 0.  1.
</event>
<event>
 8    1  0.1270595E-008  0.5022964E+03  0.7546771E-02  0.9394686E-01
        -11   -1    0    0    0    0  0.00000000000E+00  0.00000000000E+00  0.50000000000E+03  0.50000000000E+03  0.00000000000E+00 0.  1.
         11   -1    0    0    0    0 -0.00000000000E+00 -0.00000000000E+00 -0.50000000000E+03  0.50000000000E+03  0.00000000000E+00 0. -1.
         25    2    1    2    0    0 -0.36392415988E+03 -0.28878160522E+03 -0.14436521535E+03  0.50229636011E+03  0.12499883328E+03 0.  0.
         23    2    1    2    0    0  0.36392415988E+03  0.28878160522E+03  0.14436521535E+03  0.49770363989E+03  0.10503327139E+03 0.  0.
        -11    1    4    4    0    0  0.24196404499E+03  0.18367995630E+03  0.14520238179E+03  0.33670262413E+03  0.00000000000E+00 0.  1.
         11    1    4    4    0    0  0.12196011489E+03  0.10510164892E+03 -0.83716644468E+00  0.16100101576E+03  0.00000000000E+00 0. -1.
        -15    1    3    3    0    0 -0.74514963553E+02 -0.42354388831E+01 -0.31496138021E+02  0.81028286265E+02  0.17770000000E+01 0. -1.
         15    1    3    3    0    0 -0.28940919632E+03 -0.28454616634E+03 -0.11286907733E+03  0.42126807385E+03  0.17770000000E+01 0. -1.
</event>
<event>
 8    1  0.1270595E-008  0.5012081E+03  0.7546771E-02  0.9397111E-01
        -11   -1    0    0    0    0  0.00000000000E+00  0.00000000000E+00  0.50000000000E+03  0.50000000000E+03  0.00000000000E+00 0.  1.
         11   -1    0    0    0    0 -0.00000000000E+00 -0.00000000000E+00 -0.50000000000E+03  0.50000000000E+03  0.00000000000E+00 0. -1.
         25    2    1    2    0    0  0.31444493219E+03  0.36973855777E+03  0.80939740705E+00  0.50120810104E+03  0.12500675555E+03 0.  0.
         23    2    1    2    0    0 -0.31444493219E+03 -0.36973855777E+03 -0.80939740705E+00  0.49879189896E+03  0.11493688207E+03 0.  0.
        -11    1    4    4    0    0 -0.19667587144E+03 -0.26778031315E+03 -0.48762234118E+02  0.33580567296E+03  0.00000000000E+00 0.  1.
         11    1    4    4    0    0 -0.11776906076E+03 -0.10195824462E+03  0.47952836711E+02  0.16298622600E+03  0.00000000000E+00 0. -1.
        -15    1    3    3    0    0  0.16828163733E+03  0.17575876566E+03  0.61218409578E+02  0.25091971738E+03  0.17770000000E+01 0.  1.
         15    1    3    3    0    0  0.14616329486E+03  0.19397979212E+03 -0.60409012171E+02  0.25028838366E+03  0.17770000000E+01 0.  1.
</event>
<event>
 8    1  0.1270595E-008  0.5012639E+03  0.7546771E-02  0.9396986E-01
        -11   -1    0    0    0    0  0.00000000000E+00  0.00000000000E+00  0.50000000000E+03  0.50000000000E+03  0.00000000000E+00 0. -1.
         11   -1    0    0    0    0 -0.00000000000E+00 -0.00000000000E+00 -0.50000000000E+03  0.50000000000E+03  0.00000000000E+00 0.  1.
         25    2    1    2    0    0 -0.28115217922E+03 -0.35537019376E+03  0.17408744909E+03  0.50126390228E+03  0.12499814921E+03 0.  0.
         23    2    1    2    0    0  0.28115217922E+03  0.35537019376E+03 -0.17408744909E+03  0.49873609772E+03  0.11444095744E+03 0.  0.
        -11    1    4    4    0    0  0.49295552321E+02  0.35886719062E+02 -0.65146531226E+02  0.89229919951E+02  0.00000000000E+00 0.  1.
         11    1    4    4    0    0  0.23185662690E+03  0.31948347470E+03 -0.10894091787E+03  0.40950617777E+03  0.00000000000E+00 0. -1.
        -15    1    3    3    0    0 -0.25984268312E+03 -0.25355241547E+03  0.15816682803E+03  0.39601382625E+03  0.17770000000E+01 0. -1.
         15    1    3    3    0    0 -0.21309496093E+02 -0.10181777829E+03  0.15920621060E+02  0.10525007603E+03  0.17770000000E+01 0. -1.
</event>
<event>
 7    1  0.1270595E-008  0.4694335E+03  0.7546771E-02  0.9470928E-01
        -11   -1    0    0    0    0  0.00000000000E+00  0.00000000000E+00  0.50000000000E+03  0.50000000000E+03  0.00000000000E+00 0.  1.
         11   -1    0    0    0    0 -0.00000000000E+00 -0.00000000000E+00 -0.50000000000E+03  0.50000000000E+03  0.00000000000E+00 0.  1.
         25    2    1    2    0    0 -0.12515008922E+03  0.16592571415E+03  0.37963251591E+03  0.45048727382E+03  0.12499619712E+03 0.  0.
        -11    1    1    2    0    0 -0.11376388659E+02 -0.45531406596E+02  0.58542892329E+02  0.75032002824E+02  0.00000000000E+00 0.  1.
         11    1    1    2    0    0  0.13652647788E+03 -0.12039430756E+03 -0.43817540823E+03  0.47448072335E+03  0.00000000000E+00 0.  1.
        -15    1    3    3    0    0 -0.11929304893E+03  0.16306840975E+03  0.25349110583E+03  0.32416513730E+03  0.17770000000E+01 0.  1.
         15    1    3    3    0    0 -0.58570402909E+01  0.28573044048E+01  0.12614141008E+03  0.12632213652E+03  0.17770000000E+01 0.  1.
</event>
<event>
 8    1  0.1270595E-008  0.5047623E+03  0.7546771E-02  0.9389216E-01
        -11   -1    0    0    0    0  0.00000000000E+00  0.00000000000E+00  0.50000000000E+03  0.50000000000E+03  0.00000000000E+00 0. -1.
         11   -1    0    0    0    0 -0.00000000000E+00 -0.00000000000E+00 -0.50000000000E+03  0.50000000000E+03  0.00000000000E+00 0.  1.
         25    2    1    2    0    0 -0.33573076374E+03 -0.11882181074E+03  0.33515071493E+03  0.50476226772E+03  0.12500070705E+03 0.  0.
         23    2    1    2    0    0  0.33573076374E+03  0.11882181074E+03 -0.33515071493E+03  0.49523773228E+03  0.78106602368E+02 0.  0.
        -11    1    4    4    0    0  0.79836105920E+02 -0.53126782650E+01 -0.80023946197E+02  0.11316298124E+03  0.00000000000E+00 0.  1.
         11    1    4    4    0    0  0.25589465782E+03  0.12413448900E+03 -0.25512676874E+03  0.38207475104E+03  0.00000000000E+00 0. -1.
        -15    1    3    3    0    0 -0.70382139530E+01 -0.30981993887E+02  0.81126795535E+01  0.32838905271E+02  0.17770000000E+01 0.  1.
         15    1    3    3    0    0 -0.32869254978E+03 -0.87839816850E+02  0.32703803538E+03  0.47192336244E+03  0.17770000000E+01 0.  1.
</event>
<event>
 7    1  0.1270595E-008  0.5193069E+03  0.7546771E-02  0.9357616E-01
        -11   -1    0    0    0    0  0.00000000000E+00  0.00000000000E+00  0.50000000000E+03  0.50000000000E+03  0.00000000000E+00 0. -1.
         11   -1    0    0    0    0 -0.00000000000E+00 -0.00000000000E+00 -0.50000000000E+03  0.50000000000E+03  0.00000000000E+00 0. -1.
         25    2    1    2    0    0 -0.14639664442E+03 -0.24627003950E+03  0.36518378292E+03  0.48069305602E+03  0.12500283574E+03 0.  0.
        -11    1    1    2    0    0 -0.13563630860E+02  0.13107033922E+03 -0.26992659868E+03  0.30037272610E+03  0.00000000000E+00 0. -1.
         11    1    1    2    0    0  0.15996027528E+03  0.11519970028E+03 -0.95257184241E+02  0.21893421788E+03  0.00000000000E+00 0. -1.
        -15    1    3    3    0    0 -0.91291585436E+02 -0.20906829345E+03  0.20291228433E+03  0.30531992689E+03  0.17770000000E+01 0.  1.
         15    1    3    3    0    0 -0.55105058981E+02 -0.37201746052E+02  0.16227149860E+03  0.17537312913E+03  0.17770000000E+01 0.  1.
</event>
<event>
 8    1  0.1270595E-008  0.5002756E+03  0.7546771E-02  0.9399193E-01
        -11   -1    0    0    0    0  0.00000000000E+00  0.00000000000E+00  0.50000000000E+03  0.50000000000E+03  0.00000000000E+00 0. -1.
         11   -1    0    0    0    0 -0.00000000000E+00 -0.00000000000E+00 -0.50000000000E+03  0.50000000000E+03  0.00000000000E+00 0.  1.
         25    2    1    2    0    0 -0.24793193442E+03  0.37295190061E+03 -0.18462567572E+03  0.50027557964E+03  0.12500260466E+03 0.  0.
         23    2    1    2    0    0  0.24793193442E+03 -0.37295190061E+03  0.18462567572E+03  0.49972442036E+03  0.12277822239E+03 0.  0.
        -11    1    4    4    0    0  0.14677419948E+03 -0.12150530330E+03  0.49452243155E+02  0.19685458774E+03  0.00000000000E+00 0.  1.
         11    1    4    4    0    0  0.10115773494E+03 -0.25144659731E+03  0.13517343257E+03  0.30286983262E+03  0.00000000000E+00 0. -1.
        -15    1    3    3    0    0 -0.22844352056E+03  0.37656963108E+03 -0.18997008234E+03  0.47966959363E+03  0.17770000000E+01 0. -1.
         15    1    3    3    0    0 -0.19488413857E+02 -0.36177304643E+01  0.53444066213E+01  0.20605986011E+02  0.17770000000E+01 0. -1.
</event>
<event>
 7    1  0.1270595E-008  0.5006272E+03  0.7546771E-02  0.9398407E-01
        -11   -1    0    0    0    0  0.00000000000E+00  0.00000000000E+00  0.50000000000E+03  0.50000000000E+03  0.00000000000E+00 0.  1.
         11   -1    0    0    0    0 -0.00000000000E+00 -0.00000000000E+00 -0.50000000000E+03  0.50000000000E+03  0.00000000000E+00 0. -1.
         25    2    1    2    0    0 -0.44042281742E+03  0.36302738030E+02 -0.19610651501E+03  0.49937283263E+03  0.12500125539E+03 0.  0.
        -11    1    1    2    0    0  0.25147148733E+03  0.40386159357E+02  0.13199659511E+03  0.28686591281E+03  0.00000000000E+00 0. -1.
         11    1    1    2    0    0  0.18895133008E+03 -0.76688897387E+02  0.64109919892E+02  0.21376125456E+03  0.00000000000E+00 0.  1.
        -15    1    3    3    0    0 -0.24542169116E+02  0.35440760967E+02 -0.13948882355E+02  0.45344179900E+02  0.17770000000E+01 0.  1.
         15    1    3    3    0    0 -0.41588064830E+03  0.86197706260E+00 -0.18215763265E+03  0.45402865273E+03  0.17770000000E+01 0.  1.
</event>
<event>
 7    1  0.1270595E-008  0.5013200E+03  0.7546771E-02  0.9396861E-01
        -11   -1    0    0    0    0  0.00000000000E+00  0.00000000000E+00  0.50000000000E+03  0.50000000000E+03  0.00000000000E+00 0.  1.
         11   -1    0    0    0    0 -0.00000000000E+00 -0.00000000000E+00 -0.50000000000E+03  0.50000000000E+03  0.00000000000E+00 0. -1.
         25    2    1    2    0    0 -0.25478718848E+03 -0.40930553133E+03 -0.24673160489E+02  0.49868002993E+03  0.12500191203E+03 0.  0.
        -11    1    1    2    0    0  0.27417832551E+02  0.28200587295E+02 -0.36116986377E+02  0.53398945407E+02  0.00000000000E+00 0. -1.
         11    1    1    2    0    0  0.22736935593E+03  0.38110494403E+03  0.60790146866E+02  0.44792102466E+03  0.00000000000E+00 0.  1.
        -15    1    3    3    0    0 -0.26229984073E+03 -0.40007841779E+03 -0.84403178080E+01  0.47847501871E+03  0.17770000000E+01 0.  1.
         15    1    3    3    0    0  0.75126522511E+01 -0.92271135338E+01 -0.16232842681E+02  0.20205011223E+02  0.17770000000E+01 0.  1.
</event>
<event>
 8    1  0.1270595E-008  0.5012914E+03  0.7546771E-02  0.9396925E-01
        -11   -1    0    0    0    0  0.00000000000E+00  0.00000000000E+00  0.50000000000E+03  0.50000000000E+03  0.00000000000E+00 0. -1.
         11   -1    0    0    0    0 -0.00000000000E+00 -0.00000000000E+00 -0.50000000000E+03  0.50000000000E+03  0.00000000000E+00 0.  1.
         25    2    1    2    0    0  0.40110289121E+03  0.34952057757E+02 -0.27122634495E+03  0.50129135402E+03  0.12499646291E+03 0.  0.
         23    2    1    2    0    0 -0.40110289121E+03 -0.34952057757E+02  0.27122634495E+03  0.49870864598E+03  0.11419898296E+03 0.  0.
        -11    1    4    4    0    0 -0.95959667749E+02  0.24793486730E+02  0.11137457156E+03  0.14908812833E+03  0.00000000000E+00 0.  1.
         11    1    4    4    0    0 -0.30514322346E+03 -0.59745544487E+02  0.15985177338E+03  0.34962051765E+03  0.00000000000E+00 0. -1.
        -15    1    3    3    0    0  0.74489545210E+02  0.51390974014E+02 -0.31626497625E+02  0.95880746955E+02  0.17770000000E+01 0. -1.
         15    1    3    3    0    0  0.32661334600E+03 -0.16438916257E+02 -0.23959984732E+03  0.40541060706E+03  0.17770000000E+01 0. -1.
</event>
<event>
 8    1  0.1270595E-008  0.5016420E+03  0.7546771E-02  0.9396143E-01
        -11   -1    0    0    0    0  0.00000000000E+00  0.00000000000E+00  0.50000000000E+03  0.50000000000E+03  0.00000000000E+00 0.  1.
         11   -1    0    0    0    0 -0.00000000000E+00 -0.00000000000E+00 -0.50000000000E+03  0.50000000000E+03  0.00000000000E+00 0. -1.
         25    2    1    2    0    0 -0.45744954704E+03 -0.16789489459E+02 -0.16272245413E+03  0.50164203904E+03  0.12499665278E+03 0.  0.
         23    2    1    2    0    0  0.45744954704E+03  0.16789489459E+02  0.16272245413E+03  0.49835796096E+03  0.11108593581E+03 0.  0.
        -11    1    4    4    0    0  0.33311669925E+02  0.14624687186E+02 -0.13850945535E+02  0.38928107079E+02  0.00000000000E+00 0. -1.
         11    1    4    4    0    0  0.42413787711E+03  0.21648022728E+01  0.17657339967E+03  0.45942985389E+03  0.00000000000E+00 0.  1.
        -15    1    3    3    0    0 -0.45032006578E+03 -0.75887076641E+01 -0.13291088630E+03  0.46958940741E+03  0.17770000000E+01 0. -1.
         15    1    3    3    0    0 -0.71294812605E+01 -0.92007817947E+01 -0.29811567826E+02  0.32052631623E+02  0.17770000000E+01 0. -1.
</event>
<event>
 8    1  0.1270595E-008  0.5020193E+03  0.7546771E-02  0.9395303E-01
        -11   -1    0    0    0    0  0.00000000000E+00  0.00000000000E+00  0.50000000000E+03  0.50000000000E+03  0.00000000000E+00 0.  1.
         11   -1    0    0    0    0 -0.00000000000E+00 -0.00000000000E+00 -0.50000000000E+03  0.50000000000E+03  0.00000000000E+00 0. -1.
         25    2    1    2    0    0 -0.41086800517E+03 -0.20148791908E+03 -0.16427708332E+03  0.50201929456E+03  0.12500605107E+03 0.  0.
         23    2    1    2    0    0  0.41086800517E+03  0.20148791908E+03  0.16427708332E+03  0.49798070544E+03  0.10764721861E+03 0.  0.
        -11    1    4    4    0    0  0.33110705549E+03  0.17074721135E+03  0.17542475302E+03  0.41177704690E+03  0.00000000000E+00 0.  1.
         11    1    4    4    0    0  0.79760949677E+02  0.30740707727E+02 -0.11147669703E+02  0.86203658534E+02  0.00000000000E+00 0. -1.
        -15    1    3    3    0    0 -0.19480516299E+03 -0.90516795060E+02 -0.14327591690E+03  0.25821209849E+03  0.17770000000E+01 0.  1.
         15    1    3    3    0    0 -0.21606284218E+03 -0.11097112402E+03 -0.21001166420E+02  0.24380719607E+03  0.17770000000E+01 0.  1.
</event>
<event>
 7    1  0.1270595E-008  0.5020163E+03  0.7546771E-02  0.9395309E-01
        -11   -1    0    0    0    0  0.00000000000E+00  0.00000000000E+00  0.50000000000E+03  0.50000000000E+03  0.00000000000E+00 0. -1.
         11   -1    0    0    0    0 -0.00000000000E+00 -0.00000000000E+00 -0.50000000000E+03  0.50000000000E+03  0.00000000000E+00 0.  1.
         25    2    1    2    0    0  0.36781323253E+03  0.27064965027E+03 -0.15435442899E+03  0.49798366089E+03  0.12499851819E+03 0.  0.
        -11    1    1    2    0    0 -0.77787450727E+02 -0.85427206993E+02  0.10163166178E+03  0.15387556616E+03  0.00000000000E+00 0.  1.
         11    1    1    2    0    0 -0.29002578180E+03 -0.18522244328E+03  0.52722767205E+02  0.34814077295E+03  0.00000000000E+00 0. -1.
        -15    1    3    3    0    0  0.35474185772E+03  0.28304736702E+03 -0.14016101496E+03  0.47497985793E+03  0.17770000000E+01 0. -1.
         15    1    3    3    0    0  0.13071374811E+02 -0.12397716749E+02 -0.14193414021E+02  0.23003802960E+02  0.17770000000E+01 0. -1.
</event>
<event>
 8    1  0.1270595E-008  0.5048605E+03  0.7546771E-02  0.9388999E-01
        -11   -1    0    0    0    0  0.00000000000E+00  0.00000000000E+00  0.50000000000E+03  0.50000000000E+03  0.00000000000E+00 0. -1.
         11   -1    0    0    0    0 -0.00000000000E+00 -0.00000000000E+00 -0.50000000000E+03  0.50000000000E+03  0.00000000000E+00 0. -1.
         25    2    1    2    0    0  0.84078229559E+02 -0.11075205777E+03  0.46895921455E+03  0.50486049346E+03  0.12500482374E+03 0.  0.
         23    2    1    2    0    0 -0.84078229559E+02  0.11075205777E+03 -0.46895921455E+03  0.49513950654E+03  0.76845422979E+02 0.  0.
        -11    1    4    4    0    0  0.13395066562E+01  0.48748083043E+02 -0.98100082312E+02  0.10955270890E+03  0.00000000000E+00 0. -1.
         11    1    4    4    0    0 -0.85417736216E+02  0.62003974724E+02 -0.37085913224E+03  0.38558679763E+03  0.00000000000E+00 0. -1.
        -15    1    3    3    0    0  0.51758846623E+02 -0.83239535599E+02  0.44584925435E+03  0.45650028896E+03  0.17770000000E+01 0. -1.
         15    1    3    3    0    0  0.32319382937E+02 -0.27512522169E+02  0.23109960205E+02  0.48360204499E+02  0.17770000000E+01 0.  1.
</event>
<event>
 7    1  0.1270595E-008  0.5331582E+03  0.7546771E-02  0.9328527E-01
        -11   -1    0    0    0    0  0.00000000000E+00  0.00000000000E+00  0.50000000000E+03  0.50000000000E+03  0.00000000000E+00 0.  1.
         11   -1    0    0    0    0 -0.00000000000E+00 -0.00000000000E+00 -0.50000000000E+03  0.50000000000E+03  0.00000000000E+00 0. -1.
         25    2    1    2    0    0 -0.18167634886E+03 -0.24721909417E+03  0.14419693513E+02  0.33159966768E+03  0.12500734294E+03 0.  0.
        -11    1    1    2    0    0  0.14628345041E+03  0.43785141046E+03 -0.69487865098E+02  0.46684180286E+03  0.00000000000E+00 0.  1.
         11    1    1    2    0    0  0.35392898444E+02 -0.19063231629E+03  0.55068171586E+02  0.20155852945E+03  0.00000000000E+00 0. -1.
        -15    1    3    3    0    0 -0.63495436319E+02 -0.24409505313E+02  0.38584254917E+02  0.78226573742E+02  0.17770000000E+01 0. -1.
         15    1    3    3    0    0 -0.11818091254E+03 -0.22280958886E+03 -0.24164561404E+02  0.25337309394E+03  0.17770000000E+01 0. -1.
</event>
<event>
 8    1  0.1270595E-008  0.5008535E+03  0.7546771E-02  0.9397902E-01
        -11   -1    0    0    0    0  0.00000000000E+00  0.00000000000E+00  0.50000000000E+03  0.50000000000E+03  0.00000000000E+00 0. -1.
         11   -1    0    0    0    0 -0.00000000000E+00 -0.00000000000E+00 -0.50000000000E+03  0.50000000000E+03  0.00000000000E+00 0.  1.
         25    2    1    2    0    0  0.29375740207E+03 -0.38504964120E+03 -0.25935760946E+02  0.50085352626E+03  0.12499981448E+03 0.  0.
         23    2    1    2    0    0 -0.29375740207E+03  0.38504964120E+03  0.25935760946E+02  0.49914647374E+03  0.11797415435E+03 0.  0.
        -11    1    4    4    0    0 -0.42119910891E+02  0.46248316841E+02  0.44408117265E+02  0.76714239768E+02  0.00000000000E+00 0.  1.
         11    1    4    4    0    0 -0.25163749118E+03  0.33880132435E+03 -0.18472356319E+02  0.42243223397E+03  0.00000000000E+00 0. -1.
        -15    1    3    3    0    0  0.23696017666E+03 -0.28492453403E+03  0.32008153015E+02  0.37196746498E+03  0.17770000000E+01 0.  1.
         15    1    3    3    0    0  0.56797225411E+02 -0.10012510716E+03 -0.57943913961E+02  0.12888606128E+03  0.17770000000E+01 0.  1.
</event>
<event>
 8    1  0.1270595E-008  0.5022650E+03  0.7546771E-02  0.9394756E-01
        -11   -1    0    0    0    0  0.00000000000E+00  0.00000000000E+00  0.50000000000E+03  0.50000000000E+03  0.00000000000E+00 0. -1.
         11   -1    0    0    0    0 -0.00000000000E+00 -0.00000000000E+00 -0.50000000000E+03  0.50000000000E+03  0.00000000000E+00 0.  1.
         25    2    1    2    0    0  0.47815687985E+03  0.58815586733E+02  0.67469931856E+02  0.50226498605E+03  0.12499859805E+03 0.  0.
         23    2    1    2    0    0 -0.47815687985E+03 -0.58815586733E+02 -0.67469931856E+02  0.49773501395E+03  0.10533127467E+03 0.  0.
        -11    1    4    4    0    0 -0.13584349864E+03  0.11488262600E+02 -0.57986370070E+02  0.14814808609E+03  0.00000000000E+00 0.  1.
         11    1    4    4    0    0 -0.34231338121E+03 -0.70303849333E+02 -0.94835617860E+01  0.34958692786E+03  0.00000000000E+00 0. -1.
        -15    1    3    3    0    0  0.24431717305E+03  0.46660974812E+02  0.95476548686E+02  0.26643396311E+03  0.17770000000E+01 0. -1.
         15    1    3    3    0    0  0.23383970679E+03  0.12154611921E+02 -0.28006616830E+02  0.23583102294E+03  0.17770000000E+01 0. -1.
</event>
<event>
 8    1  0.1270595E-008  0.5016360E+03  0.7546771E-02  0.9396157E-01
        -11   -1    0    0    0    0  0.00000000000E+00  0.00000000000E+00  0.50000000000E+03  0.50000000000E+03  0.00000000000E+00 0.  1.
         11   -1    0    0    0    0 -0.00000000000E+00 -0.00000000000E+00 -0.50000000000E+03  0.50000000000E+03  0.00000000000E+00 0. -1.
         25    2    1    2    0    0 -0.19089386249E+03  0.39590885913E+03  0.20695048191E+03  0.50163596677E+03  0.12500339885E+03 0.  0.
         23    2    1    2    0    0  0.19089386249E+03 -0.39590885913E+03 -0.20695048191E+03  0.49836403323E+03  0.11114817220E+03 0.  0.
        -11    1    4    4    0    0  0.35914995110E+02 -0.19742560133E+03 -0.10720575718E+03  0.22750786647E+03  0.00000000000E+00 0.  1.
         11    1    4    4    0    0  0.15497886738E+03 -0.19848325780E+03 -0.99744724736E+02  0.27085616676E+03  0.00000000000E+00 0. -1.
        -15    1    3    3    0    0 -0.82336868762E+00  0.12219307857E+02  0.40301189810E+02  0.42158427978E+02  0.17770000000E+01 0.  1.
         15    1    3    3    0    0 -0.19007049380E+03  0.38368955127E+03  0.16664929210E+03  0.45947753879E+03  0.17770000000E+01 0.  1.
</event>
<event>
 8    1  0.1270595E-008  0.5022084E+03  0.7546771E-02  0.9394882E-01
        -11   -1    0    0    0    0  0.00000000000E+00  0.00000000000E+00  0.50000000000E+03  0.50000000000E+03  0.00000000000E+00 0.  1.
         11   -1    0    0    0    0 -0.00000000000E+00 -0.00000000000E+00 -0.50000000000E+03  0.50000000000E+03  0.00000000000E+00 0. -1.
         25    2    1    2    0    0 -0.43003537358E+03  0.25755317138E+02  0.22582729069E+03  0.50220843418E+03  0.12498634829E+03 0.  0.
         23    2    1    2    0    0  0.43003537358E+03 -0.25755317138E+02 -0.22582729069E+03  0.49779156582E+03  0.10585234475E+03 0.  0.
        -11    1    4    4    0    0  0.11257376270E+03 -0.53543668075E+02 -0.71593347468E+02  0.14375459589E+03  0.00000000000E+00 0.  1.
         11    1    4    4    0    0  0.31746161088E+03  0.27788350937E+02 -0.15423394322E+03  0.35403696992E+03  0.00000000000E+00 0. -1.
        -15    1    3    3    0    0 -0.20464510127E+03  0.65799675392E+02  0.73304333434E+02  0.22712529094E+03  0.17770000000E+01 0.  1.
         15    1    3    3    0    0 -0.22539027231E+03 -0.40044358254E+02  0.15252295726E+03  0.27508314325E+03  0.17770000000E+01 0.  1.
</event>
<event>
 8    1  0.1270595E-008  0.5049532E+03  0.7546771E-02  0.9388794E-01
        -11   -1    0    0    0    0  0.00000000000E+00  0.00000000000E+00  0.50000000000E+03  0.50000000000E+03  0.00000000000E+00 0.  1.
         11   -1    0    0    0    0 -0.00000000000E+00 -0.00000000000E+00 -0.50000000000E+03  0.50000000000E+03  0.00000000000E+00 0. -1.
         25    2    1    2    0    0 -0.32944311500E+03  0.50485098936E+02 -0.35815041795E+03  0.50495321770E+03  0.12499807579E+03 0.  0.
         23    2    1    2    0    0  0.32944311500E+03 -0.50485098936E+02  0.35815041795E+03  0.49504678230E+03  0.75618010777E+02 0.  0.
        -11    1    4    4    0    0  0.16636247663E+03 -0.52963636198E+02  0.14695822664E+03  0.22820679387E+03  0.00000000000E+00 0. -1.
         11    1    4    4    0    0  0.16308063838E+03  0.24785372622E+01  0.21119219130E+03  0.26683998844E+03  0.00000000000E+00 0.  1.
        -15    1    3    3    0    0 -0.11304669957E+03  0.78528547150E+02 -0.13309980154E+03  0.19148107975E+03  0.17770000000E+01 0.  1.
         15    1    3    3    0    0 -0.21639641543E+03 -0.28043448214E+02 -0.22505061640E+03  0.31347213795E+03  0.17770000000E+01 0.  1.
</event>
<event>
 8    1  0.1270595E-008  0.5022434E+03  0.7546771E-02  0.9394804E-01
        -11   -1    0    0    0    0  0.00000000000E+00  0.00000000000E+00  0.50000000000E+03  0.50000000000E+03  0.00000000000E+00 0.  1.
         11   -1    0    0    0    0 -0.00000000000E+00 -0.00000000000E+00 -0.50000000000E+03  0.50000000000E+03  0.00000000000E+00 0. -1.
         25    2    1    2    0    0 -0.31153114178E+03 -0.12353301399E+03  0.35257950227E+03  0.50224344550E+03  0.12499646107E+03 0.  0.
         23    2    1    2    0    0  0.31153114178E+03  0.12353301399E+03 -0.35257950227E+03  0.49775655450E+03  0.10553304827E+03 0.  0.
        -11    1    4    4    0    0  0.51800228220E+02  0.18624255753E+02 -0.12590747131E+03  0.13741476586E+03  0.00000000000E+00 0. -1.
         11    1    4    4    0    0  0.25973091357E+03  0.10490875823E+03 -0.22667203096E+03  0.36034178863E+03  0.00000000000E+00 0.  1.
        -15    1    3    3    0    0 -0.15310648753E+01  0.10967208993E+02 -0.30942932144E+01  0.11634268874E+02  0.17770000000E+01 0.  1.
         15    1    3    3    0    0 -0.31000007691E+03 -0.13450022298E+03  0.35567379549E+03  0.49060917663E+03  0.17770000000E+01 0.  1.
</event>
<event>
 7    1  0.1270595E-008  0.5056967E+03  0.7546771E-02  0.9387152E-01
        -11   -1    0    0    0    0  0.00000000000E+00  0.00000000000E+00  0.50000000000E+03  0.50000000000E+03  0.00000000000E+00 0.  1.
         11   -1    0    0    0    0 -0.00000000000E+00 -0.00000000000E+00 -0.50000000000E+03  0.50000000000E+03  0.00000000000E+00 0. -1.
         25    2    1    2    0    0 -0.35301912072E+03  0.12634384836E+03 -0.29686161046E+03  0.49430329165E+03  0.12499464296E+03 0.  0.
        -11    1    1    2    0    0  0.29485475182E+03 -0.10616643450E+03  0.31208722424E+03  0.44227714390E+03  0.00000000000E+00 0.  1.
         11    1    1    2    0    0  0.58164368896E+02 -0.20177413858E+02 -0.15225613782E+02  0.63419564443E+02  0.00000000000E+00 0. -1.
        -15    1    3    3    0    0 -0.20907581673E+03  0.88073884834E+01 -0.16332718110E+03  0.26546034176E+03  0.17770000000E+01 0.  1.
         15    1    3    3    0    0 -0.14394330398E+03  0.11753645988E+03 -0.13353442936E+03  0.22884294989E+03  0.17770000000E+01 0.  1.
</event>
<event>
 8    1  0.1467081E-008  0.5021906E+03  0.7546771E-02  0.9394921E-01
        -11   -1    0    0    0    0  0.00000000000E+00  0.00000000000E+00  0.50000000000E+03  0.50000000000E+03  0.00000000000E+00 0.  1.
         11   -1    0    0    0    0 -0.00000000000E+00 -0.00000000000E+00 -0.50000000000E+03  0.50000000000E+03  0.00000000000E+00 0. -1.
         25    2    1    2    0    0  0.22753601116E+03  0.34363720172E+03  0.25828601256E+03  0.50219061243E+03  0.12499833657E+03 0.  0.
         23    2    1    2    0    0 -0.22753601116E+03 -0.34363720172E+03 -0.25828601256E+03  0.49780938757E+03  0.10603470794E+03 0.  0.
        -11    1    4    4    0    0 -0.13178989719E+03 -0.10915437148E+03 -0.12230286699E+03  0.21033602898E+03  0.00000000000E+00 0.  1.
         11    1    4    4    0    0 -0.95746113976E+02 -0.23448283024E+03 -0.13598314557E+03  0.28747335859E+03  0.00000000000E+00 0. -1.
        -15    1    3    3    0    0  0.10180019256E+03  0.16173795675E+03  0.19301496200E+03  0.27162543906E+03  0.17770000000E+01 0. -1.
         15    1    3    3    0    0  0.12573581860E+03  0.18189924497E+03  0.65271050553E+02  0.23056517337E+03  0.17770000000E+01 0. -1.
</event>
<event>
 7    1  0.1270595E-008  0.4315320E+03  0.7546771E-02  0.9567564E-01
        -11   -1    0    0    0    0  0.00000000000E+00  0.00000000000E+00  0.50000000000E+03  0.50000000000E+03  0.00000000000E+00 0.  1.
         11   -1    0    0    0    0 -0.00000000000E+00 -0.00000000000E+00 -0.50000000000E+03  0.50000000000E+03  0.00000000000E+00 0. -1.
         25    2    1    2    0    0  0.24681916535E+03 -0.39163600491E+03  0.30803178823E+02  0.48049194445E+03  0.12500084853E+03 0.  0.
        -11    1    1    2    0    0 -0.12948296957E+03  0.42312747152E+02  0.44664493347E+02  0.14335663552E+03  0.00000000000E+00 0.  1.
         11    1    1    2    0    0 -0.11733619578E+03  0.34932325776E+03 -0.75467672169E+02  0.37615142003E+03  0.00000000000E+00 0. -1.
        -15    1    3    3    0    0  0.10153810675E+03 -0.27421152821E+03  0.10780217465E+02  0.29261120987E+03  0.17770000000E+01 0.  1.
         15    1    3    3    0    0  0.14528105860E+03 -0.11742447670E+03  0.20022961358E+02  0.18788073458E+03  0.17770000000E+01 0.  1.
</event>
<event>
 7    1  0.1270595E-008  0.5015613E+03  0.7546771E-02  0.9396323E-01
        -11   -1    0    0    0    0  0.00000000000E+00  0.00000000000E+00  0.50000000000E+03  0.50000000000E+03  0.00000000000E+00 0.  1.
         11   -1    0    0    0    0 -0.00000000000E+00 -0.00000000000E+00 -0.50000000000E+03  0.50000000000E+03  0.00000000000E+00 0. -1.
         25    2    1    2    0    0 -0.44867341879E+03  0.10556337426E+01  0.17750302086E+03  0.49843872321E+03  0.12499954918E+03 0.  0.
        -11    1    1    2    0    0  0.22364515639E+03 -0.68678281063E+02 -0.95501156808E+02  0.25269414956E+03  0.00000000000E+00 0. -1.
         11    1    1    2    0    0  0.22502826239E+03  0.67622647320E+02 -0.82001864056E+02  0.24886712723E+03  0.00000000000E+00 0.  1.
        -15    1    3    3    0    0 -0.25848976812E+03 -0.22796732321E+02  0.16247986598E+03  0.30616909675E+03  0.17770000000E+01 0.  1.
         15    1    3    3    0    0 -0.19018365067E+03  0.23852366064E+02  0.15023154880E+02  0.19226962646E+03  0.17770000000E+01 0.  1.
</event>
<event>
 8    1  0.1270595E-008  0.5022196E+03  0.7546771E-02  0.9394857E-01
        -11   -1    0    0    0    0  0.00000000000E+00  0.00000000000E+00  0.50000000000E+03  0.50000000000E+03  0.00000000000E+00 0.  1.
         11   -1    0    0    0    0 -0.00000000000E+00 -0.00000000000E+00 -0.50000000000E+03  0.50000000000E+03  0.00000000000E+00 0. -1.
         25    2    1    2    0    0 -0.15523464606E+03 -0.46074791899E+03 -0.14581080967E+02  0.50221961984E+03  0.12500199374E+03 0.  0.
         23    2    1    2    0    0  0.15523464606E+03  0.46074791899E+03  0.14581080967E+02  0.49778038016E+03  0.10576511128E+03 0.  0.
        -11    1    4    4    0    0  0.14163125112E+03  0.36498367987E+03 -0.27141282312E+02  0.39243999168E+03  0.00000000000E+00 0. -1.
         11    1    4    4    0    0  0.13603394936E+02  0.95764239117E+02  0.41722363278E+02  0.10534038848E+03  0.00000000000E+00 0.  1.
        -15    1    3    3    0    0 -0.16044200592E+03 -0.43617988352E+03  0.12919405714E+02  0.46493504582E+03  0.17770000000E+01 0. -1.
         15    1    3    3    0    0  0.52073598628E+01 -0.24568035463E+02 -0.27500486680E+02  0.37284574021E+02  0.17770000000E+01 0. -1.
</event>
<event>
 8    1  0.1382447E-008  0.5024640E+03  0.7546771E-02  0.9394313E-01
        -11   -1    0    0    0    0  0.00000000000E+00  0.00000000000E+00  0.50000000000E+03  0.50000000000E+03  0.00000000000E+00 0. -1.
         11   -1    0    0    0    0 -0.00000000000E+00 -0.00000000000E+00 -0.50000000000E+03  0.50000000000E+03  0.00000000000E+00 0.  1.
         25    2    1    2    0    0  0.47892109001E+03  0.59149432948E+02 -0.63116885646E+02  0.50246396794E+03  0.12498892731E+03 0.  0.
         23    2    1    2    0    0 -0.47892109001E+03 -0.59149432948E+02  0.63116885646E+02  0.49753603206E+03  0.10341322968E+03 0.  0.
        -11    1    4    4    0    0 -0.19550675156E+03  0.26406452604E+02  0.31969952317E+02  0.19985561913E+03  0.00000000000E+00 0.  1.
         11    1    4    4    0    0 -0.28341433845E+03 -0.85555885552E+02  0.31146933329E+02  0.29768041293E+03  0.00000000000E+00 0. -1.
        -15    1    3    3    0    0  0.13101260389E+03  0.15387008881E+02  0.38418044751E+02  0.13740511749E+03  0.17770000000E+01 0.  1.
         15    1    3    3    0    0  0.34790848612E+03  0.43762424068E+02 -0.10153493040E+03  0.36505885045E+03  0.17770000000E+01 0.  1.
</event>
<event>
 8    1  0.1270595E-008  0.5048569E+03  0.7546771E-02  0.9389007E-01
        -11   -1    0    0    0    0  0.00000000000E+00  0.00000000000E+00  0.50000000000E+03  0.50000000000E+03  0.00000000000E+00 0.  1.
         11   -1    0    0    0    0 -0.00000000000E+00 -0.00000000000E+00 -0.50000000000E+03  0.50000000000E+03  0.00000000000E+00 0. -1.
         25    2    1    2    0    0  0.15957680267E+03 -0.46189877809E+03  0.20991494751E+02  0.50485693892E+03  0.12499859508E+03 0.  0.
         23    2    1    2    0    0 -0.15957680267E+03  0.46189877809E+03 -0.20991494751E+02  0.49514306108E+03  0.76881538322E+02 0.  0.
        -11    1    4    4    0    0 -0.62981937809E+01  0.76650454487E+02 -0.23817767932E+02  0.80512393376E+02  0.00000000000E+00 0. -1.
         11    1    4    4    0    0 -0.15327860889E+03  0.38524832360E+03  0.28262731811E+01  0.41463066771E+03  0.00000000000E+00 0.  1.
        -15    1    3    3    0    0  0.30392301998E+02 -0.10998429967E+02  0.15237309012E+02  0.35776959029E+02  0.17770000000E+01 0.  1.
         15    1    3    3    0    0  0.12918450068E+03 -0.45090034812E+03  0.57541857384E+01  0.46907997989E+03  0.17770000000E+01 0.  1.
</event>
<event>
 7    1  0.1270595E-008  0.5061674E+03  0.7546771E-02  0.9386115E-01
        -11   -1    0    0    0    0  0.00000000000E+00  0.00000000000E+00  0.50000000000E+03  0.50000000000E+03  0.00000000000E+00 0. -1.
         11   -1    0    0    0    0 -0.00000000000E+00 -0.00000000000E+00 -0.50000000000E+03  0.50000000000E+03  0.00000000000E+00 0.  1.
         25    2    1    2    0    0 -0.44044043436E+03  0.42642671464E+02  0.18011165130E+03  0.49383263058E+03  0.12499714575E+03 0.  0.
        -11    1    1    2    0    0  0.32837825425E+03 -0.44180778169E+02 -0.20730240344E+03  0.39084332603E+03  0.00000000000E+00 0.  1.
         11    1    1    2    0    0  0.11206218011E+03  0.15381067049E+01  0.27190752148E+02  0.11532404339E+03  0.00000000000E+00 0. -1.
        -15    1    3    3    0    0 -0.23814360557E+03  0.34709111964E+02  0.31575324860E+02  0.24272877496E+03  0.17770000000E+01 0. -1.
         15    1    3    3    0    0 -0.20229682879E+03  0.79335595001E+01  0.14853632644E+03  0.25110385562E+03  0.17770000000E+01 0. -1.
</event>
<event>
 7    1  0.1270595E-008  0.5020796E+03  0.7546771E-02  0.9395169E-01
        -11   -1    0    0    0    0  0.00000000000E+00  0.00000000000E+00  0.50000000000E+03  0.50000000000E+03  0.00000000000E+00 0.  1.
         11   -1    0    0    0    0 -0.00000000000E+00 -0.00000000000E+00 -0.50000000000E+03  0.50000000000E+03  0.00000000000E+00 0. -1.
         25    2    1    2    0    0 -0.26483313063E+03 -0.11596836184E+03  0.38563780957E+03  0.49792044248E+03  0.12499199514E+03 0.  0.
        -11    1    1    2    0    0  0.22102280529E+03  0.12620895514E+03 -0.37910216491E+03  0.45661606658E+03  0.00000000000E+00 0. -1.
         11    1    1    2    0    0  0.43810325335E+02 -0.10240593300E+02 -0.65356446590E+01  0.45463490938E+02  0.00000000000E+00 0.  1.
        -15    1    3    3    0    0 -0.41990352316E+02  0.11483556463E+02  0.12372525547E+03  0.13117224678E+03  0.17770000000E+01 0.  1.
         15    1    3    3    0    0 -0.22284277831E+03 -0.12745191830E+03  0.26191255410E+03  0.36674819570E+03  0.17770000000E+01 0.  1.
</event>
<event>
 8    1  0.1270595E-008  0.5024124E+03  0.7546771E-02  0.9394428E-01
        -11   -1    0    0    0    0  0.00000000000E+00  0.00000000000E+00  0.50000000000E+03  0.50000000000E+03  0.00000000000E+00 0.  1.
         11   -1    0    0    0    0 -0.00000000000E+00 -0.00000000000E+00 -0.50000000000E+03  0.50000000000E+03  0.00000000000E+00 0. -1.
         25    2    1    2    0    0 -0.20465075992E+03  0.37861001945E+03 -0.22707276926E+03  0.50241242925E+03  0.12501490379E+03 0.  0.
         23    2    1    2    0    0  0.20465075992E+03 -0.37861001945E+03  0.22707276926E+03  0.49758757075E+03  0.10394165508E+03 0.  0.
        -11    1    4    4    0    0  0.15729386020E+03 -0.19998828303E+03  0.16220467655E+03  0.30174000215E+03  0.00000000000E+00 0.  1.
         11    1    4    4    0    0  0.47356899724E+02 -0.17862173642E+03  0.64868092710E+02  0.19584756860E+03  0.00000000000E+00 0. -1.
        -15    1    3    3    0    0 -0.19297290331E+03  0.36454038122E+03 -0.24245553467E+03  0.47845174780E+03  0.17770000000E+01 0.  1.
         15    1    3    3    0    0 -0.11677856608E+02  0.14069638227E+02  0.15382765415E+02  0.23960681451E+02  0.17770000000E+01 0.  1.
</event>
<event>
 7    1  0.1270595E-008  0.4156444E+03  0.7546771E-02  0.9611273E-01
        -11   -1    0    0    0    0  0.00000000000E+00  0.00000000000E+00  0.50000000000E+03  0.50000000000E+03  0.00000000000E+00 0.  1.
         11   -1    0    0    0    0 -0.00000000000E+00 -0.00000000000E+00 -0.50000000000E+03  0.50000000000E+03  0.00000000000E+00 0. -1.
         25    2    1    2    0    0  0.17188505725E+03 -0.40056122897E+03  0.12420454592E+03  0.47015527368E+03  0.12500176432E+03 0.  0.
        -11    1    1    2    0    0 -0.97919162024E+02  0.11403924783E+03  0.80034929756E+02  0.17029005349E+03  0.00000000000E+00 0.  1.
         11    1    1    2    0    0 -0.73965895227E+02  0.28652198114E+03 -0.20423947567E+03  0.35955467283E+03  0.00000000000E+00 0. -1.
        -15    1    3    3    0    0  0.11602030591E+03 -0.37373564075E+03  0.11093589006E+03  0.40675418864E+03  0.17770000000E+01 0.  1.
         15    1    3    3    0    0  0.55864751345E+02 -0.26825588221E+02  0.13268655855E+02  0.63401085033E+02  0.17770000000E+01 0.  1.
</event>
<event>
 8    1  0.1270595E-008  0.5007230E+03  0.7546771E-02  0.9398193E-01
        -11   -1    0    0    0    0  0.00000000000E+00  0.00000000000E+00  0.50000000000E+03  0.50000000000E+03  0.00000000000E+00 0.  1.
         11   -1    0    0    0    0 -0.00000000000E+00 -0.00000000000E+00 -0.50000000000E+03  0.50000000000E+03  0.00000000000E+00 0. -1.
         25    2    1    2    0    0 -0.12768511695E+03 -0.27547838033E+03  0.37802988606E+03  0.50072299920E+03  0.12500040021E+03 0.  0.
         23    2    1    2    0    0  0.12768511695E+03  0.27547838033E+03 -0.37802988606E+03  0.49927700080E+03  0.11907603309E+03 0.  0.
        -11    1    4    4    0    0 -0.15141486361E+02  0.87736437576E+02 -0.12345868955E+03  0.15221364956E+03  0.00000000000E+00 0.  1.
         11    1    4    4    0    0  0.14282660331E+03  0.18774194275E+03 -0.25457119651E+03  0.34706335124E+03  0.00000000000E+00 0. -1.
        -15    1    3    3    0    0 -0.50655624924E+02 -0.26179073813E+02  0.26420675579E+02  0.62869277626E+02  0.17770000000E+01 0.  1.
         15    1    3    3    0    0 -0.77029492025E+02 -0.24929930651E+03  0.35160921048E+03  0.43785372157E+03  0.17770000000E+01 0.  1.
</event>
<event>
 8    1  0.1270595E-008  0.5002744E+03  0.7546771E-02  0.9399196E-01
        -11   -1    0    0    0    0  0.00000000000E+00  0.00000000000E+00  0.50000000000E+03  0.50000000000E+03  0.00000000000E+00 0. -1.
         11   -1    0    0    0    0 -0.00000000000E+00 -0.00000000000E+00 -0.50000000000E+03  0.50000000000E+03  0.00000000000E+00 0.  1.
         25    2    1    2    0    0  0.45489795150E+03 -0.14316494362E+03  0.84980724221E+02  0.50027435014E+03  0.12499741821E+03 0.  0.
         23    2    1    2    0    0 -0.45489795150E+03  0.14316494362E+03 -0.84980724221E+02  0.49972564986E+03  0.12278295595E+03 0.  0.
        -11    1    4    4    0    0 -0.19269997024E+03  0.11019761062E+03  0.49222498421E+00  0.22198431071E+03  0.00000000000E+00 0. -1.
         11    1    4    4    0    0 -0.26219798127E+03  0.32967332996E+02 -0.85472949205E+02  0.27774133915E+03  0.00000000000E+00 0.  1.
        -15    1    3    3    0    0  0.42760243747E+03 -0.11036217447E+03  0.10371745805E+03  0.45363434935E+03  0.17770000000E+01 0. -1.
         15    1    3    3    0    0  0.27295514036E+02 -0.32802769148E+02 -0.18736733825E+02  0.46640000790E+02  0.17770000000E+01 0. -1.
</event>
<event>
 8    1  0.1270595E-008  0.5051595E+03  0.7546771E-02  0.9388338E-01
        -11   -1    0    0    0    0  0.00000000000E+00  0.00000000000E+00  0.50000000000E+03  0.50000000000E+03  0.00000000000E+00 0.  1.
         11   -1    0    0    0    0 -0.00000000000E+00 -0.00000000000E+00 -0.50000000000E+03  0.50000000000E+03  0.00000000000E+00 0. -1.
         25    2    1    2    0    0 -0.25213310371E+03  0.18686882655E+01  0.41950594889E+03  0.50515951560E+03  0.12500520414E+03 0.  0.
         23    2    1    2    0    0  0.25213310371E+03 -0.18686882655E+01 -0.41950594889E+03  0.49484048440E+03  0.72851011380E+02 0.  0.
        -11    1    4    4    0    0  0.20187022180E+03 -0.21674743595E+01 -0.27012331704E+03  0.33722824733E+03  0.00000000000E+00 0.  1.
         11    1    4    4    0    0  0.50262881913E+02  0.29878609401E+00 -0.14938263186E+03  0.15761223706E+03  0.00000000000E+00 0. -1.
        -15    1    3    3    0    0 -0.19327608756E+03  0.49669081496E+02  0.34666209718E+03  0.40000053879E+03  0.17770000000E+01 0.  1.
         15    1    3    3    0    0 -0.58857016150E+02 -0.47800393231E+02  0.72843851716E+02  0.10515897682E+03  0.17770000000E+01 0.  1.
</event>
<event>
 8    1  0.1270595E-008  0.5023880E+03  0.7546771E-02  0.9394482E-01
        -11   -1    0    0    0    0  0.00000000000E+00  0.00000000000E+00  0.50000000000E+03  0.50000000000E+03  0.00000000000E+00 0.  1.
         11   -1    0    0    0    0 -0.00000000000E+00 -0.00000000000E+00 -0.50000000000E+03  0.50000000000E+03  0.00000000000E+00 0. -1.
         25    2    1    2    0    0  0.11098371115E+03  0.46673477756E+03  0.81293879536E+02  0.50238803384E+03  0.12500521977E+03 0.  0.
         23    2    1    2    0    0 -0.11098371115E+03 -0.46673477756E+03 -0.81293879536E+02  0.49761196616E+03  0.10416447232E+03 0.  0.
        -11    1    4    4    0    0 -0.34004315809E+02 -0.31592489365E+03 -0.82507967162E+02  0.32828706427E+03  0.00000000000E+00 0. -1.
         11    1    4    4    0    0 -0.76979395345E+02 -0.15080988390E+03  0.12140876253E+01  0.16932490189E+03  0.00000000000E+00 0.  1.
        -15    1    3    3    0    0  0.33248146961E+02  0.15335100897E+03  0.87048543134E+02  0.17945076712E+03  0.17770000000E+01 0.  1.
         15    1    3    3    0    0  0.77735564193E+02  0.31338376858E+03 -0.57546635971E+01  0.32293726672E+03  0.17770000000E+01 0.  1.
</event>
<event>
 8    1  0.1270595E-008  0.5003425E+03  0.7546771E-02  0.9399044E-01
        -11   -1    0    0    0    0  0.00000000000E+00  0.00000000000E+00  0.50000000000E+03  0.50000000000E+03  0.00000000000E+00 0. -1.
         11   -1    0    0    0    0 -0.00000000000E+00 -0.00000000000E+00 -0.50000000000E+03  0.50000000000E+03  0.00000000000E+00 0.  1.
         25    2    1    2    0    0  0.43392763576E+03 -0.10036653751E+03  0.19065913407E+03  0.50034250801E+03  0.12500033998E+03 0.  0.
         23    2    1    2    0    0 -0.43392763576E+03  0.10036653751E+03 -0.19065913407E+03  0.49965749199E+03  0.12222957484E+03 0.  0.
        -11    1    4    4    0    0 -0.10400447644E+03  0.73147211441E+02 -0.81727615435E+02  0.15115174093E+03  0.00000000000E+00 0. -1.
         11    1    4    4    0    0 -0.32992315932E+03  0.27219326065E+02 -0.10893151863E+03  0.34850575106E+03  0.00000000000E+00 0.  1.
        -15    1    3    3    0    0  0.54988784100E+02 -0.15927458494E+02  0.76699843869E+02  0.95726036633E+02  0.17770000000E+01 0. -1.
         15    1    3    3    0    0  0.37893885166E+03 -0.84439079012E+02  0.11395929020E+03  0.40461647138E+03  0.17770000000E+01 0. -1.
</event>
<event>
 8    1  0.1270595E-008  0.5047166E+03  0.7546771E-02  0.9389317E-01
        -11   -1    0    0    0    0  0.00000000000E+00  0.00000000000E+00  0.50000000000E+03  0.50000000000E+03  0.00000000000E+00 0.  1.
         11   -1    0    0    0    0 -0.00000000000E+00 -0.00000000000E+00 -0.50000000000E+03  0.50000000000E+03  0.00000000000E+00 0. -1.
         25    2    1    2    0    0  0.33640273916E+03  0.63619442654E+02 -0.34914238690E+03  0.50471657198E+03  0.12499670119E+03 0.  0.
         23    2    1    2    0    0 -0.33640273916E+03 -0.63619442654E+02  0.34914238690E+03  0.49528342802E+03  0.78683107134E+02 0.  0.
        -11    1    4    4    0    0 -0.24348977329E+03 -0.59182827740E+02  0.20508798849E+03  0.32380697927E+03  0.00000000000E+00 0. -1.
         11    1    4    4    0    0 -0.92912965862E+02 -0.44366149135E+01  0.14405439841E+03  0.17147644875E+03  0.00000000000E+00 0.  1.
        -15    1    3    3    0    0  0.14253514040E+03  0.41734263114E+02 -0.23694472637E+03  0.27964973815E+03  0.17770000000E+01 0. -1.
         15    1    3    3    0    0  0.19386759876E+03  0.21885179540E+02 -0.11219766053E+03  0.22506683383E+03  0.17770000000E+01 0. -1.
</event>
<event>
 7    1  0.1270595E-008  0.5014636E+03  0.7546771E-02  0.9396541E-01
        -11   -1    0    0    0    0  0.00000000000E+00  0.00000000000E+00  0.50000000000E+03  0.50000000000E+03  0.00000000000E+00 0.  1.
         11   -1    0    0    0    0 -0.00000000000E+00 -0.00000000000E+00 -0.50000000000E+03  0.50000000000E+03  0.00000000000E+00 0. -1.
         25    2    1    2    0    0 -0.44522409092E+03 -0.17769981365E+03 -0.55780140914E+02  0.49853639683E+03  0.12500159972E+03 0.  0.
        -11    1    1    2    0    0  0.40009841597E+03  0.13054368113E+03  0.86294719704E+01  0.42094520182E+03  0.00000000000E+00 0. -1.
         11    1    1    2    0    0  0.45125674951E+02  0.47156132525E+02  0.47150668944E+02  0.80518401352E+02  0.00000000000E+00 0.  1.
        -15    1    3    3    0    0 -0.28277490811E+03 -0.15582752520E+03  0.71373016268E+01  0.32295195474E+03  0.17770000000E+01 0. -1.
         15    1    3    3    0    0 -0.16244918281E+03 -0.21872288448E+02 -0.62917442541E+02  0.17558444209E+03  0.17770000000E+01 0. -1.
</event>
<event>
 8    1  0.1270595E-008  0.5013574E+03  0.7546771E-02  0.9396777E-01
        -11   -1    0    0    0    0  0.00000000000E+00  0.00000000000E+00  0.50000000000E+03  0.50000000000E+03  0.00000000000E+00 0. -1.
         11   -1    0    0    0    0 -0.00000000000E+00 -0.00000000000E+00 -0.50000000000E+03  0.50000000000E+03  0.00000000000E+00 0.  1.
         25    2    1    2    0    0  0.48236638759E+03 -0.31804403213E+02 -0.45241250595E+02  0.50135743526E+03  0.12499462068E+03 0.  0.
         23    2    1    2    0    0 -0.48236638759E+03  0.31804403213E+02  0.45241250595E+02  0.49864256474E+03  0.11361683271E+03 0.  0.
        -11    1    4    4    0    0 -0.37310789960E+03  0.61869124448E+02  0.45234695006E+01  0.37822976493E+03  0.00000000000E+00 0.  1.
         11    1    4    4    0    0 -0.10925848799E+03 -0.30064721235E+02  0.40717781095E+02  0.12041279981E+03  0.00000000000E+00 0. -1.
        -15    1    3    3    0    0  0.21881754668E+03  0.45114996341E+02 -0.20887550989E+01  0.22343679700E+03  0.17770000000E+01 0.  1.
         15    1    3    3    0    0  0.26354884091E+03 -0.76919399554E+02 -0.43152495497E+02  0.27792063826E+03  0.17770000000E+01 0.  1.
</event>
<event>
 8    1  0.1270595E-008  0.5021545E+03  0.7546771E-02  0.9395002E-01
        -11   -1    0    0    0    0  0.00000000000E+00  0.00000000000E+00  0.50000000000E+03  0.50000000000E+03  0.00000000000E+00 0. -1.
         11   -1    0    0    0    0 -0.00000000000E+00 -0.00000000000E+00 -0.50000000000E+03  0.50000000000E+03  0.00000000000E+00 0.  1.
         25    2    1    2    0    0 -0.42018303623E+03 -0.24360255963E+03 -0.25270550446E+02  0.50215453806E+03  0.12499835353E+03 0.  0.
         23    2    1    2    0    0  0.42018303623E+03  0.24360255963E+03  0.25270550446E+02  0.49784546194E+03  0.10637439667E+03 0.  0.
        -11    1    4    4    0    0  0.39519571667E+03  0.19096240609E+03  0.23712887005E+02  0.43955499772E+03  0.00000000000E+00 0. -1.
         11    1    4    4    0    0  0.24987319557E+02  0.52640153542E+02  0.15576634411E+01  0.58290464219E+02  0.00000000000E+00 0.  1.
        -15    1    3    3    0    0 -0.75637688562E+02 -0.20662530380E+02  0.37606511351E+02  0.86979351099E+02  0.17770000000E+01 0. -1.
         15    1    3    3    0    0 -0.34454534766E+03 -0.22294002925E+03 -0.62877061797E+02  0.41517518696E+03  0.17770000000E+01 0. -1.
</event>
<event>
 7    1  0.1270595E-008  0.5093805E+03  0.7546771E-02  0.9379061E-01
        -11   -1    0    0    0    0  0.00000000000E+00  0.00000000000E+00  0.50000000000E+03  0.50000000000E+03  0.00000000000E+00 0.  1.
         11   -1    0    0    0    0 -0.00000000000E+00 -0.00000000000E+00 -0.50000000000E+03  0.50000000000E+03  0.00000000000E+00 0. -1.
         25    2    1    2    0    0 -0.89185921616E+02  0.46593090835E+03  0.58272904663E+01  0.49061946317E+03  0.12501104095E+03 0.  0.
        -11    1    1    2    0    0  0.13260499998E+02 -0.34018680877E+03  0.64537087964E+02  0.34650821266E+03  0.00000000000E+00 0.  1.
         11    1    1    2    0    0  0.75925421618E+02 -0.12574409958E+03 -0.70364378430E+02  0.16287232417E+03  0.00000000000E+00 0. -1.
        -15    1    3    3    0    0 -0.99833766168E+02  0.43371381857E+03 -0.23579875053E+02  0.44568332426E+03  0.17770000000E+01 0.  1.
         15    1    3    3    0    0  0.10647844552E+02  0.32217089779E+02  0.29407165519E+02  0.44936138912E+02  0.17770000000E+01 0.  1.
</event>
<event>
 8    1  0.1270595E-008  0.5019700E+03  0.7546771E-02  0.9395412E-01
        -11   -1    0    0    0    0  0.00000000000E+00  0.00000000000E+00  0.50000000000E+03  0.50000000000E+03  0.00000000000E+00 0.  1.
         11   -1    0    0    0    0 -0.00000000000E+00 -0.00000000000E+00 -0.50000000000E+03  0.50000000000E+03  0.00000000000E+00 0. -1.
         25    2    1    2    0    0 -0.15743014587E+03 -0.29737325783E+03 -0.35090601376E+03  0.50196999694E+03  0.12499496803E+03 0.  0.
         23    2    1    2    0    0  0.15743014587E+03  0.29737325783E+03  0.35090601376E+03  0.49803000306E+03  0.10809138793E+03 0.  0.
        -11    1    4    4    0    0  0.95763177888E+02  0.12355794554E+03  0.22783275829E+03  0.27630584123E+03  0.00000000000E+00 0.  1.
         11    1    4    4    0    0  0.61666967986E+02  0.17381531229E+03  0.12307325548E+03  0.22172416183E+03  0.00000000000E+00 0. -1.
        -15    1    3    3    0    0 -0.16449490201E+03 -0.19555187105E+03 -0.23077579315E+03  0.34432503756E+03  0.17770000000E+01 0.  1.
         15    1    3    3    0    0  0.70647561348E+01 -0.10182138678E+03 -0.12013022062E+03  0.15764495939E+03  0.17770000000E+01 0.  1.
</event>
<event>
 7    1  0.1270595E-008  0.3894136E+03  0.7546771E-02  0.9688208E-01
        -11   -1    0    0    0    0  0.00000000000E+00  0.00000000000E+00  0.50000000000E+03  0.50000000000E+03  0.00000000000E+00 0.  1.
         11   -1    0    0    0    0 -0.00000000000E+00 -0.00000000000E+00 -0.50000000000E+03  0.50000000000E+03  0.00000000000E+00 0.  1.
         25    2    1    2    0    0 -0.28788466158E+03  0.18627098820E+03 -0.34062652159E+02  0.36654672613E+03  0.12498711431E+03 0.  0.
        -11    1    1    2    0    0  0.30975709805E+02  0.11556421472E+03  0.17567624086E+03  0.21254816849E+03  0.00000000000E+00 0.  1.
         11    1    1    2    0    0  0.25690895178E+03 -0.30183520293E+03 -0.14161358871E+03  0.42090510538E+03  0.00000000000E+00 0.  1.
        -15    1    3    3    0    0 -0.20009146968E+03  0.69580707532E+02 -0.55352930623E+02  0.21896386861E+03  0.17770000000E+01 0. -1.
         15    1    3    3    0    0 -0.87793191901E+02  0.11669028067E+03  0.21290278464E+02  0.14758285752E+03  0.17770000000E+01 0. -1.
</event>
<event>
 7    1  0.1270595E-008  0.5033193E+03  0.7546771E-02  0.9392413E-01
        -11   -1    0    0    0    0  0.00000000000E+00  0.00000000000E+00  0.50000000000E+03  0.50000000000E+03  0.00000000000E+00 0.  1.
         11   -1    0    0    0    0 -0.00000000000E+00 -0.00000000000E+00 -0.50000000000E+03  0.50000000000E+03  0.00000000000E+00 0. -1.
         25    2    1    2    0    0  0.99039905066E+02  0.47037637309E+03  0.70101046271E-01  0.49668074514E+03  0.12501568911E+03 0.  0.
        -11    1    1    2    0    0 -0.13610191968E+03 -0.41432187099E+03  0.13337091491E+01  0.43610563410E+03  0.00000000000E+00 0.  1.
         11    1    1    2    0    0  0.37062014610E+02 -0.56054502100E+02 -0.14038101954E+01  0.67213620760E+02  0.00000000000E+00 0. -1.
        -15    1    3    3    0    0  0.58678707544E+01  0.86134278303E+02 -0.47323439917E+02  0.98469342947E+02  0.17770000000E+01 0. -1.
         15    1    3    3    0    0  0.93172034311E+02  0.38424209478E+03  0.47393540963E+02  0.39821140219E+03  0.17770000000E+01 0. -1.
</event>
<event>
 8    1  0.1270595E-008  0.5003492E+03  0.7546771E-02  0.9399029E-01
        -11   -1    0    0    0    0  0.00000000000E+00  0.00000000000E+00  0.50000000000E+03  0.50000000000E+03  0.00000000000E+00 0. -1.
         11   -1    0    0    0    0 -0.00000000000E+00 -0.00000000000E+00 -0.50000000000E+03  0.50000000000E+03  0.00000000000E+00 0.  1.
         25    2    1    2    0    0 -0.17461643232E+03 -0.11121825881E+03  0.43802488236E+03  0.50034915200E+03  0.12499230701E+03 0.  0.
         23    2    1    2    0    0  0.17461643232E+03  0.11121825881E+03 -0.43802488236E+03  0.49965084800E+03  0.12216698744E+03 0.  0.
        -11    1    4    4    0    0  0.68328876197E+02  0.99233213742E+02 -0.14993022111E+03  0.19234120004E+03  0.00000000000E+00 0. -1.
         11    1    4    4    0    0  0.10628755612E+03  0.11985045071E+02 -0.28809466125E+03  0.30730964796E+03  0.00000000000E+00 0.  1.
        -15    1    3    3    0    0 -0.25750433354E+02 -0.87290344685E+02  0.16180031514E+03  0.18564802397E+03  0.17770000000E+01 0. -1.
         15    1    3    3    0    0 -0.14886599896E+03 -0.23927914128E+02  0.27622456721E+03  0.31470112803E+03  0.17770000000E+01 0. -1.
</event>
<event>
 8    1  0.1270595E-008  0.5000568E+03  0.7546771E-02  0.9399683E-01
        -11   -1    0    0    0    0  0.00000000000E+00  0.00000000000E+00  0.50000000000E+03  0.50000000000E+03  0.00000000000E+00 0.  1.
         11   -1    0    0    0    0 -0.00000000000E+00 -0.00000000000E+00 -0.50000000000E+03  0.50000000000E+03  0.00000000000E+00 0. -1.
         25    2    1    2    0    0 -0.32940368450E+03 -0.33235843685E+03  0.12390041988E+03  0.49994320769E+03  0.12499191556E+03 0.  0.
         23    2    1    2    0    0  0.32940368450E+03  0.33235843685E+03 -0.12390041988E+03  0.50005679231E+03  0.12544546060E+03 0.  0.
        -11    1    4    4    0    0  0.22741057455E+03  0.14568122147E+03 -0.89854161186E+02  0.28462669936E+03  0.00000000000E+00 0. -1.
         11    1    4    4    0    0  0.10199310995E+03  0.18667721538E+03 -0.34046258694E+02  0.21543009295E+03  0.00000000000E+00 0.  1.
        -15    1    3    3    0    0 -0.16449978612E+03 -0.23122583959E+03  0.11528049509E+03  0.30629776166E+03  0.17770000000E+01 0. -1.
         15    1    3    3    0    0 -0.16490389838E+03 -0.10113259727E+03  0.86199247937E+01  0.19364544602E+03  0.17770000000E+01 0. -1.
</event>
<event>
 7    1  0.1270595E-008  0.5113234E+03  0.7546771E-02  0.9374823E-01
        -11   -1    0    0    0    0  0.00000000000E+00  0.00000000000E+00  0.50000000000E+03  0.50000000000E+03  0.00000000000E+00 0. -1.
         11   -1    0    0    0    0 -0.00000000000E+00 -0.00000000000E+00 -0.50000000000E+03  0.50000000000E+03  0.00000000000E+00 0. -1.
         25    2    1    2    0    0  0.28301453748E+02  0.27907352989E+03 -0.38012951665E+03  0.48867655965E+03  0.12499329245E+03 0.  0.
        -11    1    1    2    0    0 -0.10344522768E+03 -0.17753811147E+03  0.29301181116E+03  0.35787793678E+03  0.00000000000E+00 0. -1.
         11    1    1    2    0    0  0.75143773935E+02 -0.10153541843E+03  0.87117705490E+02  0.15344550357E+03  0.00000000000E+00 0. -1.
        -15    1    3    3    0    0  0.42199334157E+02  0.69945265193E+02 -0.44671881100E+02  0.93122814693E+02  0.17770000000E+01 0.  1.
         15    1    3    3    0    0 -0.13897880409E+02  0.20912826470E+03 -0.33545763555E+03  0.39555374496E+03  0.17770000000E+01 0.  1.
</event>
<event>
 8    1  0.1270595E-008  0.5022805E+03  0.7546771E-02  0.9394721E-01
        -11   -1    0    0    0    0  0.00000000000E+00  0.00000000000E+00  0.50000000000E+03  0.50000000000E+03  0.00000000000E+00 0. -1.
         11   -1    0    0    0    0 -0.00000000000E+00 -0.00000000000E+00 -0.50000000000E+03  0.50000000000E+03  0.00000000000E+00 0.  1.
         25    2    1    2    0    0 -0.13099562945E+03 -0.44767628004E+03 -0.13815389179E+03  0.50228052088E+03  0.12500126874E+03 0.  0.
         23    2    1    2    0    0  0.13099562945E+03  0.44767628004E+03  0.13815389179E+03  0.49771947912E+03  0.10518685962E+03 0.  0.
        -11    1    4    4    0    0  0.11216329237E+03  0.23755716593E+03  0.11032347724E+03  0.28493030880E+03  0.00000000000E+00 0. -1.
         11    1    4    4    0    0  0.18832337084E+02  0.21011911411E+03  0.27830414542E+02  0.21278917033E+03  0.00000000000E+00 0.  1.
        -15    1    3    3    0    0 -0.22515150266E+02 -0.26231471433E+03 -0.11124385036E+03  0.28582213581E+03  0.17770000000E+01 0. -1.
         15    1    3    3    0    0 -0.10848047919E+03 -0.18536156571E+03 -0.26910041424E+02  0.21645838507E+03  0.17770000000E+01 0. -1.
</event>
<event>
 8    1  0.1270595E-008  0.5009665E+03  0.7546771E-02  0.9397650E-01
        -11   -1    0    0    0    0  0.00000000000E+00  0.00000000000E+00  0.50000000000E+03  0.50000000000E+03  0.00000000000E+00 0. -1.
         11   -1    0    0    0    0 -0.00000000000E+00 -0.00000000000E+00 -0.50000000000E+03  0.50000000000E+03  0.00000000000E+00 0.  1.
         25    2    1    2    0    0  0.76842480192E+02  0.19404698345E+03  0.43792807484E+03  0.50096645279E+03  0.12500955776E+03 0.  0.
         23    2    1    2    0    0 -0.76842480192E+02 -0.19404698345E+03 -0.43792807484E+03  0.49903354721E+03  0.11702343338E+03 0.  0.
        -11    1    4    4    0    0 -0.65540524928E+02 -0.44823389127E+02 -0.22640355275E+03  0.23992345721E+03  0.00000000000E+00 0.  1.
         11    1    4    4    0    0 -0.11301955264E+02 -0.14922359433E+03 -0.21152452209E+03  0.25911009001E+03  0.00000000000E+00 0. -1.
        -15    1    3    3    0    0  0.19526455295E+02 -0.30944190265E+01  0.30816102598E+01  0.20087606535E+02  0.17770000000E+01 0. -1.
         15    1    3    3    0    0  0.57316024897E+02  0.19714140248E+03  0.43484646458E+03  0.48087884625E+03  0.17770000000E+01 0. -1.
</event>
<event>
 8    1  0.1721251E-008  0.5024555E+03  0.7546771E-02  0.9394332E-01
        -11   -1    0    0    0    0  0.00000000000E+00  0.00000000000E+00  0.50000000000E+03  0.50000000000E+03  0.00000000000E+00 0.  1.
         11   -1    0    0    0    0 -0.00000000000E+00 -0.00000000000E+00 -0.50000000000E+03  0.50000000000E+03  0.00000000000E+00 0. -1.
         25    2    1    2    0    0 -0.45875865724E+03 -0.88920489509E+02 -0.13590979668E+03  0.50245553702E+03  0.12499493910E+03 0.  0.
         23    2    1    2    0    0  0.45875865724E+03  0.88920489509E+02  0.13590979668E+03  0.49754446298E+03  0.10350198435E+03 0.  0.
        -11    1    4    4    0    0  0.22661892934E+03  0.42895686274E+02  0.13338572728E+02  0.23102834579E+03  0.00000000000E+00 0.  1.
         11    1    4    4    0    0  0.23213972790E+03  0.46024803235E+02  0.12257122396E+03  0.26651611719E+03  0.00000000000E+00 0. -1.
        -15    1    3    3    0    0 -0.46038708628E+03 -0.81299541934E+02 -0.14581692250E+03  0.48972606358E+03  0.17770000000E+01 0.  1.
         15    1    3    3    0    0  0.16284290433E+01 -0.76209475747E+01  0.99071258165E+01  0.12729473439E+02  0.17770000000E+01 0.  1.
</event>
<event>
 7    1  0.1270595E-008  0.4778417E+03  0.7546771E-02  0.9450803E-01
        -11   -1    0    0    0    0  0.00000000000E+00  0.00000000000E+00  0.50000000000E+03  0.50000000000E+03  0.00000000000E+00 0.  1.
         11   -1    0    0    0    0 -0.00000000000E+00 -0.00000000000E+00 -0.50000000000E+03  0.50000000000E+03  0.00000000000E+00 0. -1.
         25    2    1    2    0    0 -0.31044482102E+03 -0.19052741760E+03 -0.26428942318E+03  0.46706575810E+03  0.12499935772E+03 0.  0.
        -11    1    1    2    0    0  0.35505670226E+03  0.21155746269E+03  0.23173055380E+03  0.47383633398E+03  0.00000000000E+00 0.  1.
         11    1    1    2    0    0 -0.44611881242E+02 -0.21030045096E+02  0.32558869383E+02  0.59097907917E+02  0.00000000000E+00 0. -1.
        -15    1    3    3    0    0 -0.10472705320E+03 -0.10187180282E+03 -0.43300916625E+02  0.15239339550E+03  0.17770000000E+01 0.  1.
         15    1    3    3    0    0 -0.20571776781E+03 -0.88655614783E+02 -0.22098850656E+03  0.31467236260E+03  0.17770000000E+01 0.  1.
</event>
<event>
 8    1  0.1270595E-008  0.5024341E+03  0.7546771E-02  0.9394380E-01
        -11   -1    0    0    0    0  0.00000000000E+00  0.00000000000E+00  0.50000000000E+03  0.50000000000E+03  0.00000000000E+00 0.  1.
         11   -1    0    0    0    0 -0.00000000000E+00 -0.00000000000E+00 -0.50000000000E+03  0.50000000000E+03  0.00000000000E+00 0. -1.
         25    2    1    2    0    0 -0.46361712104E+03  0.13668940381E+03  0.56469290526E+02  0.50243408462E+03  0.12500560221E+03 0.  0.
         23    2    1    2    0    0  0.46361712104E+03 -0.13668940381E+03 -0.56469290526E+02  0.49756591538E+03  0.10372189420E+03 0.  0.
        -11    1    4    4    0    0  0.29511865205E+03 -0.85209936683E+02  0.14752793665E+02  0.30752788007E+03  0.00000000000E+00 0.  1.
         11    1    4    4    0    0  0.16849846899E+03 -0.51479467129E+02 -0.71222084191E+02  0.19003803531E+03  0.00000000000E+00 0. -1.
        -15    1    3    3    0    0 -0.15930714267E+03  0.35872482418E+02  0.78309066912E+02  0.18111065234E+03  0.17770000000E+01 0. -1.
         15    1    3    3    0    0 -0.30430997837E+03  0.10081692140E+03 -0.21839776386E+02  0.32132343229E+03  0.17770000000E+01 0. -1.
</event>
<event>
 8    1  0.1270595E-008  0.5023690E+03  0.7546771E-02  0.9394524E-01
        -11   -1    0    0    0    0  0.00000000000E+00  0.00000000000E+00  0.50000000000E+03  0.50000000000E+03  0.00000000000E+00 0.  1.
         11   -1    0    0    0    0 -0.00000000000E+00 -0.00000000000E+00 -0.50000000000E+03  0.50000000000E+03  0.00000000000E+00 0. -1.
         25    2    1    2    0    0  0.77034514661E+01 -0.10076193518E+03  0.47595855055E+03  0.50236904218E+03  0.12500320778E+03 0.  0.
         23    2    1    2    0    0 -0.77034514661E+01  0.10076193518E+03 -0.47595855055E+03  0.49763095782E+03  0.10434422646E+03 0.  0.
        -11    1    4    4    0    0 -0.29232464031E+02 -0.84560354275E+01 -0.63514007190E+02  0.70427768656E+02  0.00000000000E+00 0.  1.
         11    1    4    4    0    0  0.21529012565E+02  0.10921797061E+03 -0.41244454336E+03  0.42720318916E+03  0.00000000000E+00 0. -1.
        -15    1    3    3    0    0  0.43802293733E+02 -0.10090184951E+03  0.43027760851E+03  0.44411913074E+03  0.17770000000E+01 0.  1.
         15    1    3    3    0    0 -0.36098842266E+02  0.13991432503E+00  0.45680942033E+02  0.58249911442E+02  0.17770000000E+01 0.  1.
</event>
<event>
 8    1  0.1270595E-008  0.5024310E+03  0.7546771E-02  0.9394387E-01
        -11   -1    0    0    0    0  0.00000000000E+00  0.00000000000E+00  0.50000000000E+03  0.50000000000E+03  0.00000000000E+00 0.  1.
         11   -1    0    0    0    0 -0.00000000000E+00 -0.00000000000E+00 -0.50000000000E+03  0.50000000000E+03  0.00000000000E+00 0. -1.
         25    2    1    2    0    0 -0.22246449816E+03 -0.41627293085E+03  0.11848360094E+03  0.50243100610E+03  0.12499978522E+03 0.  0.
         23    2    1    2    0    0  0.22246449816E+03  0.41627293085E+03 -0.11848360094E+03  0.49756899390E+03  0.10374456177E+03 0.  0.
        -11    1    4    4    0    0  0.16063005674E+03  0.23777544964E+03 -0.28597154271E+02  0.28836951436E+03  0.00000000000E+00 0.  1.
         11    1    4    4    0    0  0.61834441418E+02  0.17849748121E+03 -0.89886446666E+02  0.20919947954E+03  0.00000000000E+00 0. -1.
        -15    1    3    3    0    0 -0.14340438119E+03 -0.36481940339E+03  0.77578294428E+02  0.39959925317E+03  0.17770000000E+01 0. -1.
         15    1    3    3    0    0 -0.79060116966E+02 -0.51453527460E+02  0.40905306509E+02  0.10283175294E+03  0.17770000000E+01 0. -1.
</event>
<event>
 8    1  0.1270595E-008  0.5006764E+03  0.7546771E-02  0.9398297E-01
        -11   -1    0    0    0    0  0.00000000000E+00  0.00000000000E+00  0.50000000000E+03  0.50000000000E+03  0.00000000000E+00 0. -1.
         11   -1    0    0    0    0 -0.00000000000E+00 -0.00000000000E+00 -0.50000000000E+03  0.50000000000E+03  0.00000000000E+00 0.  1.
         25    2    1    2    0    0 -0.32437926737E+03  0.34342994878E+03  0.10902727880E+03  0.50067641412E+03  0.12499554116E+03 0.  0.
         23    2    1    2    0    0  0.32437926737E+03 -0.34342994878E+03 -0.10902727880E+03  0.49932358588E+03  0.11946152970E+03 0.  0.
        -11    1    4    4    0    0  0.58296485463E+02 -0.33877700137E+02  0.21496062082E+02  0.70769057284E+02  0.00000000000E+00 0. -1.
         11    1    4    4    0    0  0.26608278191E+03 -0.30955224865E+03 -0.13052334088E+03  0.42855452860E+03  0.00000000000E+00 0.  1.
        -15    1    3    3    0    0 -0.16612543848E+03  0.22968537588E+03  0.13926036628E+02  0.28381353990E+03  0.17770000000E+01 0. -1.
         15    1    3    3    0    0 -0.15825382889E+03  0.11374457290E+03  0.95101242173E+02  0.21686287422E+03  0.17770000000E+01 0. -1.
</event>
<event>
 8    1  0.1270595E-008  0.5002660E+03  0.7546771E-02  0.9399215E-01
        -11   -1    0    0    0    0  0.00000000000E+00  0.00000000000E+00  0.50000000000E+03  0.50000000000E+03  0.00000000000E+00 0.  1.
         11   -1    0    0    0    0 -0.00000000000E+00 -0.00000000000E+00 -0.50000000000E+03  0.50000000000E+03  0.00000000000E+00 0. -1.
         25    2    1    2    0    0 -0.45637957570E+03  0.23577077249E+02 -0.16063119069E+03  0.50026602196E+03  0.12500207046E+03 0.  0.
         23    2    1    2    0    0  0.45637957570E+03 -0.23577077249E+02  0.16063119069E+03  0.49973397804E+03  0.12285549922E+03 0.  0.
        -11    1    4    4    0    0  0.22186878101E+03 -0.60311451162E+02  0.11847400710E+03  0.25864902375E+03  0.00000000000E+00 0.  1.
         11    1    4    4    0    0  0.23451079470E+03  0.36734373913E+02  0.42157183589E+02  0.24108495429E+03  0.00000000000E+00 0. -1.
        -15    1    3    3    0    0 -0.43109483753E+02  0.16153739489E+02 -0.58557580528E+02  0.74508515320E+02  0.17770000000E+01 0.  1.
         15    1    3    3    0    0 -0.41327009195E+03  0.74233377594E+01 -0.10207361016E+03  0.42575750664E+03  0.17770000000E+01 0.  1.
</event>
<event>
 8    1  0.1270595E-008  0.5005568E+03  0.7546771E-02  0.9398565E-01
        -11   -1    0    0    0    0  0.00000000000E+00  0.00000000000E+00  0.50000000000E+03  0.50000000000E+03  0.00000000000E+00 0.  1.
         11   -1    0    0    0    0 -0.00000000000E+00 -0.00000000000E+00 -0.50000000000E+03  0.50000000000E+03  0.00000000000E+00 0. -1.
         25    2    1    2    0    0  0.71113897125E+02 -0.37886011084E+03  0.29383807295E+03  0.50055681060E+03  0.12499655025E+03 0.  0.
         23    2    1    2    0    0 -0.71113897125E+02  0.37886011084E+03 -0.29383807295E+03  0.49944318940E+03  0.12045960473E+03 0.  0.
        -11    1    4    4    0    0 -0.14655017995E+02  0.10872203236E+02  0.82310009707E+01  0.20018085138E+02  0.00000000000E+00 0.  1.
         11    1    4    4    0    0 -0.56458879130E+02  0.36798790761E+03 -0.30206907392E+03  0.47942510426E+03  0.00000000000E+00 0. -1.
        -15    1    3    3    0    0  0.25276175878E+02 -0.11159617388E+03  0.16380530961E+03  0.19981973946E+03  0.17770000000E+01 0.  1.
         15    1    3    3    0    0  0.45837721247E+02 -0.26726393696E+03  0.13003276334E+03  0.30073707114E+03  0.17770000000E+01 0.  1.
</event>
<event>
 7    1  0.1270595E-008  0.5009872E+03  0.7546771E-02  0.9397603E-01
        -11   -1    0    0    0    0  0.00000000000E+00  0.00000000000E+00  0.50000000000E+03  0.50000000000E+03  0.00000000000E+00 0.  1.
         11   -1    0    0    0    0 -0.00000000000E+00 -0.00000000000E+00 -0.50000000000E+03  0.50000000000E+03  0.00000000000E+00 0. -1.
         25    2    1    2    0    0 -0.17734303397E+03 -0.38381537835E+03  0.23371574880E+03  0.49901277838E+03  0.12500362154E+03 0.  0.
        -11    1    1    2    0    0  0.16091343172E+03  0.20012742794E+03 -0.15880540388E+03  0.30193256900E+03  0.00000000000E+00 0.  1.
         11    1    1    2    0    0  0.16429602255E+02  0.18368795041E+03 -0.74910344917E+02  0.19905465262E+03  0.00000000000E+00 0. -1.
        -15    1    3    3    0    0 -0.24293739542E+02 -0.19762438892E+03  0.91287813565E+02  0.21904841363E+03  0.17770000000E+01 0. -1.
         15    1    3    3    0    0 -0.15304929443E+03 -0.18619098942E+03  0.14242793523E+03  0.27996436475E+03  0.17770000000E+01 0. -1.
</event>
<event>
 8    1  0.1368355E-008  0.5022978E+03  0.7546771E-02  0.9394683E-01
        -11   -1    0    0    0    0  0.00000000000E+00  0.00000000000E+00  0.50000000000E+03  0.50000000000E+03  0.00000000000E+00 0. -1.
         11   -1    0    0    0    0 -0.00000000000E+00 -0.00000000000E+00 -0.50000000000E+03  0.50000000000E+03  0.00000000000E+00 0.  1.
         25    2    1    2    0    0  0.19853971398E+02 -0.41227598590E+03  0.25751131975E+03  0.50229778495E+03  0.12500126491E+03 0.  0.
         23    2    1    2    0    0 -0.19853971398E+02  0.41227598590E+03 -0.25751131975E+03  0.49770221505E+03  0.10502259917E+03 0.  0.
        -11    1    4    4    0    0  0.27065696639E+02  0.25443527249E+03 -0.19445096946E+03  0.32137367556E+03  0.00000000000E+00 0.  1.
         11    1    4    4    0    0 -0.46919668037E+02  0.15784071342E+03 -0.63060350290E+02  0.17632853949E+03  0.00000000000E+00 0. -1.
        -15    1    3    3    0    0  0.58505225611E+02 -0.36671174845E+03  0.21737136848E+03  0.43029505858E+03  0.17770000000E+01 0.  1.
         15    1    3    3    0    0 -0.38651254214E+02 -0.45564237458E+02  0.40139951270E+02  0.72002726368E+02  0.17770000000E+01 0.  1.
</event>
<event>
 8    1  0.1270595E-008  0.5051067E+03  0.7546771E-02  0.9388455E-01
        -11   -1    0    0    0    0  0.00000000000E+00  0.00000000000E+00  0.50000000000E+03  0.50000000000E+03  0.00000000000E+00 0. -1.
         11   -1    0    0    0    0 -0.00000000000E+00 -0.00000000000E+00 -0.50000000000E+03  0.50000000000E+03  0.00000000000E+00 0.  1.
         25    2    1    2    0    0  0.33909214056E+03  0.26831667934E+03 -0.22919107814E+03  0.50510674659E+03  0.12500781954E+03 0.  0.
         23    2    1    2    0    0 -0.33909214056E+03 -0.26831667934E+03  0.22919107814E+03  0.49489325341E+03  0.73576231032E+02 0.  0.
        -11    1    4    4    0    0 -0.26364541775E+03 -0.22706161920E+03  0.15335985071E+03  0.38024351280E+03  0.00000000000E+00 0.  1.
         11    1    4    4    0    0 -0.75446722817E+02 -0.41255060137E+02  0.75831227426E+02  0.11464974062E+03  0.00000000000E+00 0. -1.
        -15    1    3    3    0    0  0.29899036498E+02  0.77748333489E+02 -0.18975542831E+02  0.85451651233E+02  0.17770000000E+01 0. -1.
         15    1    3    3    0    0  0.30919310407E+03  0.19056834585E+03 -0.21021553531E+03  0.41965509535E+03  0.17770000000E+01 0. -1.
</event>
<event>
 8    1  0.1270595E-008  0.5010266E+03  0.7546771E-02  0.9397516E-01
        -11   -1    0    0    0    0  0.00000000000E+00  0.00000000000E+00  0.50000000000E+03  0.50000000000E+03  0.00000000000E+00 0.  1.
         11   -1    0    0    0    0 -0.00000000000E+00 -0.00000000000E+00 -0.50000000000E+03  0.50000000000E+03  0.00000000000E+00 0. -1.
         25    2    1    2    0    0  0.11199238738E+03 -0.31815716318E+03 -0.34876416739E+03  0.50102658410E+03  0.12499967281E+03 0.  0.
         23    2    1    2    0    0 -0.11199238738E+03  0.31815716318E+03  0.34876416739E+03  0.49897341590E+03  0.11649785407E+03 0.  0.
        -11    1    4    4    0    0 -0.52994208046E+02  0.28215308557E+03  0.29254674463E+03  0.40988089438E+03  0.00000000000E+00 0.  1.
         11    1    4    4    0    0 -0.58998179330E+02  0.36004077618E+02  0.56217422762E+02  0.89092521523E+02  0.00000000000E+00 0. -1.
        -15    1    3    3    0    0 -0.81703599272E+01  0.29644267383E+01  0.34160172644E+01  0.95062879284E+01  0.17770000000E+01 0.  1.
         15    1    3    3    0    0  0.12016274730E+03 -0.32112158992E+03 -0.35218018466E+03  0.49152029617E+03  0.17770000000E+01 0.  1.
</event>
<event>
 8    1  0.1270595E-008  0.5016150E+03  0.7546771E-02  0.9396203E-01
        -11   -1    0    0    0    0  0.00000000000E+00  0.00000000000E+00  0.50000000000E+03  0.50000000000E+03  0.00000000000E+00 0.  1.
         11   -1    0    0    0    0 -0.00000000000E+00 -0.00000000000E+00 -0.50000000000E+03  0.50000000000E+03  0.00000000000E+00 0. -1.
         25    2    1    2    0    0 -0.45248994687E+03  0.32896107973E+02 -0.17367172409E+03  0.50161503230E+03  0.12500586765E+03 0.  0.
         23    2    1    2    0    0  0.45248994687E+03 -0.32896107973E+02  0.17367172409E+03  0.49838496770E+03  0.11133913211E+03 0.  0.
        -11    1    4    4    0    0  0.30828564467E+03 -0.74241131862E+02  0.11512523027E+03  0.33735086040E+03  0.00000000000E+00 0.  1.
         11    1    4    4    0    0  0.14420430220E+03  0.41345023889E+02  0.58546493824E+02  0.16103410729E+03  0.00000000000E+00 0. -1.
        -15    1    3    3    0    0 -0.11537736872E+03  0.26932920232E+02  0.77293601035E+01  0.11874434783E+03  0.17770000000E+01 0.  1.
         15    1    3    3    0    0 -0.33711257815E+03  0.59631877412E+01 -0.18140108419E+03  0.38287068447E+03  0.17770000000E+01 0.  1.
</event>
<event>
 7    1  0.1270595E-008  0.5165959E+03  0.7546771E-02  0.9363422E-01
        -11   -1    0    0    0    0  0.00000000000E+00  0.00000000000E+00  0.50000000000E+03  0.50000000000E+03  0.00000000000E+00 0.  1.
         11   -1    0    0    0    0 -0.00000000000E+00 -0.00000000000E+00 -0.50000000000E+03  0.50000000000E+03  0.00000000000E+00 0. -1.
         25    2    1    2    0    0  0.82362585728E+02 -0.40292294554E+03  0.22118658778E+03  0.48340413205E+03  0.12500221077E+03 0.  0.
        -11    1    1    2    0    0  0.53056267836E+02  0.27602957241E+03 -0.14033915272E+03  0.31416933362E+03  0.00000000000E+00 0.  1.
         11    1    1    2    0    0 -0.13541885356E+03  0.12689337313E+03 -0.80847435058E+02  0.20242653433E+03  0.00000000000E+00 0. -1.
        -15    1    3    3    0    0  0.32661757629E+02 -0.44238843052E+02  0.74716513514E+02  0.92787826609E+02  0.17770000000E+01 0.  1.
         15    1    3    3    0    0  0.49700828099E+02 -0.35868410249E+03  0.14647007426E+03  0.39061630544E+03  0.17770000000E+01 0.  1.
</event>
<event>
 8    1  0.1270595E-008  0.5016912E+03  0.7546771E-02  0.9396034E-01
        -11   -1    0    0    0    0  0.00000000000E+00  0.00000000000E+00  0.50000000000E+03  0.50000000000E+03  0.00000000000E+00 0. -1.
         11   -1    0    0    0    0 -0.00000000000E+00 -0.00000000000E+00 -0.50000000000E+03  0.50000000000E+03  0.00000000000E+00 0.  1.
         25    2    1    2    0    0  0.15459766010E+03 -0.15927841706E+03  0.43220146122E+03  0.50169117155E+03  0.12500351144E+03 0.  0.
         23    2    1    2    0    0 -0.15459766010E+03  0.15927841706E+03 -0.43220146122E+03  0.49830882845E+03  0.11065050737E+03 0.  0.
        -11    1    4    4    0    0 -0.71675040057E+02  0.67986518457E+02 -0.86644960570E+02  0.13140330000E+03  0.00000000000E+00 0.  1.
         11    1    4    4    0    0 -0.82922620046E+02  0.91291898601E+02 -0.34555650065E+03  0.36690552845E+03  0.00000000000E+00 0. -1.
        -15    1    3    3    0    0  0.34984728142E+02 -0.30735496965E+02  0.14860752142E+02  0.48914227583E+02  0.17770000000E+01 0.  1.
         15    1    3    3    0    0  0.11961293196E+03 -0.12854292009E+03  0.41734070908E+03  0.45277694396E+03  0.17770000000E+01 0.  1.
</event>
<event>
 8    1  0.1270595E-008  0.5022329E+03  0.7546771E-02  0.9394827E-01
        -11   -1    0    0    0    0  0.00000000000E+00  0.00000000000E+00  0.50000000000E+03  0.50000000000E+03  0.00000000000E+00 0.  1.
         11   -1    0    0    0    0 -0.00000000000E+00 -0.00000000000E+00 -0.50000000000E+03  0.50000000000E+03  0.00000000000E+00 0. -1.
         25    2    1    2    0    0  0.16744243134E+03 -0.43430715356E+03 -0.14125214396E+03  0.50223293390E+03  0.12500432100E+03 0.  0.
         23    2    1    2    0    0 -0.16744243134E+03  0.43430715356E+03  0.14125214396E+03  0.49776706610E+03  0.10564190681E+03 0.  0.
        -11    1    4    4    0    0 -0.74302520673E+02  0.30341566249E+03  0.12439296532E+03  0.33623732489E+03  0.00000000000E+00 0.  1.
         11    1    4    4    0    0 -0.93139910667E+02  0.13089149107E+03  0.16859178636E+02  0.16152974122E+03  0.00000000000E+00 0. -1.
        -15    1    3    3    0    0  0.11085330242E+03 -0.19796201343E+03 -0.12583964885E+02  0.22724200167E+03  0.17770000000E+01 0.  1.
         15    1    3    3    0    0  0.56589128922E+02 -0.23634514013E+03 -0.12866817907E+03  0.27499093223E+03  0.17770000000E+01 0.  1.
</event>
<event>
 7    1  0.1270595E-008  0.5019599E+03  0.7546771E-02  0.9395435E-01
        -11   -1    0    0    0    0  0.00000000000E+00  0.00000000000E+00  0.50000000000E+03  0.50000000000E+03  0.00000000000E+00 0.  1.
         11   -1    0    0    0    0 -0.00000000000E+00 -0.00000000000E+00 -0.50000000000E+03  0.50000000000E+03  0.00000000000E+00 0. -1.
         25    2    1    2    0    0 -0.11455387681E+03  0.45583303816E+03 -0.10729421645E+03  0.49804014374E+03  0.12500234607E+03 0.  0.
        -11    1    1    2    0    0 -0.12305684844E+02 -0.15592853964E+03 -0.77446307728E+01  0.15660497648E+03  0.00000000000E+00 0.  1.
         11    1    1    2    0    0  0.12685956166E+03 -0.29990449852E+03  0.11503884722E+03  0.34535487978E+03  0.00000000000E+00 0. -1.
        -15    1    3    3    0    0 -0.13951803009E+03  0.34898995602E+03 -0.94613656735E+02  0.38757473072E+03  0.17770000000E+01 0.  1.
         15    1    3    3    0    0  0.24964153280E+02  0.10684308214E+03 -0.12680559714E+02  0.11046541302E+03  0.17770000000E+01 0.  1.
</event>
<event>
 7    1  0.1270595E-008  0.5077504E+03  0.7546771E-02  0.9382633E-01
        -11   -1    0    0    0    0  0.00000000000E+00  0.00000000000E+00  0.50000000000E+03  0.50000000000E+03  0.00000000000E+00 0.  1.
         11   -1    0    0    0    0 -0.00000000000E+00 -0.00000000000E+00 -0.50000000000E+03  0.50000000000E+03  0.00000000000E+00 0.  1.
         25    2    1    2    0    0  0.36487930147E+03  0.16739642362E+03 -0.25597902904E+03  0.49224959655E+03  0.12500373881E+03 0.  0.
        -11    1    1    2    0    0 -0.14474103610E+03 -0.11586449953E+03  0.20419173957E+03  0.27580575826E+03  0.00000000000E+00 0.  1.
         11    1    1    2    0    0 -0.22013826537E+03 -0.51531924093E+02  0.51787289469E+02  0.23194464519E+03  0.00000000000E+00 0.  1.
        -15    1    3    3    0    0  0.12451970429E+03  0.11626716250E+03 -0.70573389999E+02  0.18440979078E+03  0.17770000000E+01 0.  1.
         15    1    3    3    0    0  0.24035959718E+03  0.51129261123E+02 -0.18540563904E+03  0.30783980577E+03  0.17770000000E+01 0.  1.
</event>
<event>
 8    1  0.1270595E-008  0.5006805E+03  0.7546771E-02  0.9398288E-01
        -11   -1    0    0    0    0  0.00000000000E+00  0.00000000000E+00  0.50000000000E+03  0.50000000000E+03  0.00000000000E+00 0. -1.
         11   -1    0    0    0    0 -0.00000000000E+00 -0.00000000000E+00 -0.50000000000E+03  0.50000000000E+03  0.00000000000E+00 0.  1.
         25    2    1    2    0    0 -0.38467984187E+03  0.28991095300E+03 -0.55034072567E+02  0.50068054510E+03  0.12500127074E+03 0.  0.
         23    2    1    2    0    0  0.38467984187E+03 -0.28991095300E+03  0.55034072567E+02  0.49931945490E+03  0.11943294138E+03 0.  0.
        -11    1    4    4    0    0  0.13662449711E+03 -0.13378767417E+03 -0.31313594582E+02  0.19376773771E+03  0.00000000000E+00 0.  1.
         11    1    4    4    0    0  0.24805534476E+03 -0.15612327883E+03  0.86347667149E+02  0.30555171719E+03  0.00000000000E+00 0. -1.
        -15    1    3    3    0    0 -0.16813519877E+03  0.14872019485E+03  0.34473290818E+02  0.22710946024E+03  0.17770000000E+01 0. -1.
         15    1    3    3    0    0 -0.21654464310E+03  0.14119075815E+03 -0.89507363385E+02  0.27357108486E+03  0.17770000000E+01 0. -1.
</event>
<event>
 7    1  0.1270595E-008  0.5025641E+03  0.7546771E-02  0.9394090E-01
        -11   -1    0    0    0    0  0.00000000000E+00  0.00000000000E+00  0.50000000000E+03  0.50000000000E+03  0.00000000000E+00 0. -1.
         11   -1    0    0    0    0 -0.00000000000E+00 -0.00000000000E+00 -0.50000000000E+03  0.50000000000E+03  0.00000000000E+00 0.  1.
         25    2    1    2    0    0  0.18942066530E+02 -0.42794254894E+03 -0.21983092280E+03  0.49743585996E+03  0.12499269210E+03 0.  0.
        -11    1    1    2    0    0  0.59729606589E+02  0.19653907299E+03  0.76318716359E+02  0.21913415887E+03  0.00000000000E+00 0.  1.
         11    1    1    2    0    0 -0.78671673119E+02  0.23140347595E+03  0.14351220644E+03  0.28342998117E+03  0.00000000000E+00 0. -1.
        -15    1    3    3    0    0  0.68320663580E+02 -0.31004409923E+03 -0.14221315461E+03  0.34788330746E+03  0.17770000000E+01 0.  1.
         15    1    3    3    0    0 -0.49378597050E+02 -0.11789844971E+03 -0.77617768189E+02  0.14955255250E+03  0.17770000000E+01 0.  1.
</event>
<event>
 7    1  0.1270595E-008  0.5062297E+03  0.7546771E-02  0.9385977E-01
        -11   -1    0    0    0    0  0.00000000000E+00  0.00000000000E+00  0.50000000000E+03  0.50000000000E+03  0.00000000000E+00 0.  1.
         11   -1    0    0    0    0 -0.00000000000E+00 -0.00000000000E+00 -0.50000000000E+03  0.50000000000E+03  0.00000000000E+00 0. -1.
         25    2    1    2    0    0  0.46087756859E+03  0.87398068262E+02 -0.90204158219E+02  0.49377032023E+03  0.12500313362E+03 0.  0.
        -11    1    1    2    0    0 -0.37519022531E+03 -0.12495823142E+03  0.11028207783E+03  0.41054159529E+03  0.00000000000E+00 0.  1.
         11    1    1    2    0    0 -0.85687343281E+02  0.37560163157E+02 -0.20077919614E+02  0.95688084478E+02  0.00000000000E+00 0. -1.
        -15    1    3    3    0    0  0.85826893633E+02 -0.16813063127E+02 -0.54058969937E+02  0.10283221636E+03  0.17770000000E+01 0. -1.
         15    1    3    3    0    0  0.37505067496E+03  0.10421113139E+03 -0.36145188282E+02  0.39093810387E+03  0.17770000000E+01 0. -1.
</event>
<event>
 8    1  0.1270595E-008  0.5016822E+03  0.7546771E-02  0.9396053E-01
        -11   -1    0    0    0    0  0.00000000000E+00  0.00000000000E+00  0.50000000000E+03  0.50000000000E+03  0.00000000000E+00 0. -1.
         11   -1    0    0    0    0 -0.00000000000E+00 -0.00000000000E+00 -0.50000000000E+03  0.50000000000E+03  0.00000000000E+00 0.  1.
         25    2    1    2    0    0  0.39072742483E+03 -0.12468841806E+03  0.26046748072E+03  0.50168222066E+03  0.12500647940E+03 0.  0.
         23    2    1    2    0    0 -0.39072742483E+03  0.12468841806E+03 -0.26046748072E+03  0.49831777934E+03  0.11073472165E+03 0.  0.
        -11    1    4    4    0    0 -0.39949338122E+02  0.26973595491E+02 -0.76323351799E+02  0.90270584909E+02  0.00000000000E+00 0.  1.
         11    1    4    4    0    0 -0.35077808671E+03  0.97714822569E+02 -0.18414412893E+03  0.40804719443E+03  0.00000000000E+00 0. -1.
        -15    1    3    3    0    0  0.39808048697E+03 -0.11407247221E+03  0.25931019924E+03  0.48859547704E+03  0.17770000000E+01 0. -1.
         15    1    3    3    0    0 -0.73530621345E+01 -0.10615945855E+02  0.11572814808E+01  0.13086743620E+02  0.17770000000E+01 0. -1.
</event>
<event>
 7    1  0.1270595E-008  0.5108242E+03  0.7546771E-02  0.9375910E-01
        -11   -1    0    0    0    0  0.00000000000E+00  0.00000000000E+00  0.50000000000E+03  0.50000000000E+03  0.00000000000E+00 0.  1.
         11   -1    0    0    0    0 -0.00000000000E+00 -0.00000000000E+00 -0.50000000000E+03  0.50000000000E+03  0.00000000000E+00 0. -1.
         25    2    1    2    0    0  0.42751295815E+03 -0.98514259677E+02 -0.17662228422E+03  0.48917584751E+03  0.12500075901E+03 0.  0.
        -11    1    1    2    0    0 -0.11743840479E+03  0.34954961154E+02 -0.38130594896E+02  0.12832603203E+03  0.00000000000E+00 0. -1.
         11    1    1    2    0    0 -0.31007455336E+03  0.63559298522E+02  0.21475287912E+03  0.38249812046E+03  0.00000000000E+00 0.  1.
        -15    1    3    3    0    0  0.24037428913E+03  0.56489636635E+01 -0.11347583944E+03  0.26587898287E+03  0.17770000000E+01 0.  1.
         15    1    3    3    0    0  0.18713866902E+03 -0.10416322334E+03 -0.63146444778E+02  0.22329686463E+03  0.17770000000E+01 0.  1.
</event>
<event>
 7    1  0.1270595E-008  0.5046821E+03  0.7546771E-02  0.9389394E-01
        -11   -1    0    0    0    0  0.00000000000E+00  0.00000000000E+00  0.50000000000E+03  0.50000000000E+03  0.00000000000E+00 0.  1.
         11   -1    0    0    0    0 -0.00000000000E+00 -0.00000000000E+00 -0.50000000000E+03  0.50000000000E+03  0.00000000000E+00 0. -1.
         25    2    1    2    0    0  0.23985673300E+03  0.38998643027E+03 -0.14175406876E+03  0.49531789812E+03  0.12499974412E+03 0.  0.
        -11    1    1    2    0    0 -0.16836210623E+03 -0.26266332161E+03  0.16712600155E+02  0.31243740227E+03  0.00000000000E+00 0. -1.
         11    1    1    2    0    0 -0.71494626764E+02 -0.12732310866E+03  0.12504146861E+03  0.19224469961E+03  0.00000000000E+00 0.  1.
        -15    1    3    3    0    0  0.19114463237E+03  0.19743777970E+03 -0.99356331017E+02  0.29222044004E+03  0.17770000000E+01 0.  1.
         15    1    3    3    0    0  0.48712100628E+02  0.19254865057E+03 -0.42397737745E+02  0.20309745808E+03  0.17770000000E+01 0.  1.
</event>
<event>
 8    1  0.1270595E-008  0.5021090E+03  0.7546771E-02  0.9395103E-01
        -11   -1    0    0    0    0  0.00000000000E+00  0.00000000000E+00  0.50000000000E+03  0.50000000000E+03  0.00000000000E+00 0.  1.
         11   -1    0    0    0    0 -0.00000000000E+00 -0.00000000000E+00 -0.50000000000E+03  0.50000000000E+03  0.00000000000E+00 0. -1.
         25    2    1    2    0    0 -0.45978648708E+03  0.15411296266E+03  0.36563639558E+02  0.50210900519E+03  0.12498853705E+03 0.  0.
         23    2    1    2    0    0  0.45978648708E+03 -0.15411296266E+03 -0.36563639558E+02  0.49789099481E+03  0.10679009325E+03 0.  0.
        -11    1    4    4    0    0  0.13797832583E+03 -0.12493665435E+02  0.25482509773E+02  0.14086684627E+03  0.00000000000E+00 0.  1.
         11    1    4    4    0    0  0.32180816125E+03 -0.14161929722E+03 -0.62046149332E+02  0.35702414854E+03  0.00000000000E+00 0. -1.
        -15    1    3    3    0    0 -0.12866392024E+03  0.65291379021E+02  0.64676340067E+02  0.15812512526E+03  0.17770000000E+01 0.  1.
         15    1    3    3    0    0 -0.33112256684E+03  0.88821583637E+02 -0.28112700509E+02  0.34398387993E+03  0.17770000000E+01 0.  1.
</event>
<event>
 8    1  0.1270595E-008  0.5018183E+03  0.7546771E-02  0.9395750E-01
        -11   -1    0    0    0    0  0.00000000000E+00  0.00000000000E+00  0.50000000000E+03  0.50000000000E+03  0.00000000000E+00 0. -1.
         11   -1    0    0    0    0 -0.00000000000E+00 -0.00000000000E+00 -0.50000000000E+03  0.50000000000E+03  0.00000000000E+00 0.  1.
         25    2    1    2    0    0  0.43789028302E+03  0.38106264542E+02 -0.20735679394E+03  0.50181825352E+03  0.12499892884E+03 0.  0.
         23    2    1    2    0    0 -0.43789028302E+03 -0.38106264542E+02  0.20735679394E+03  0.49818174648E+03  0.10949075379E+03 0.  0.
        -11    1    4    4    0    0 -0.32585280426E+03  0.13166325824E+02  0.12154693554E+03  0.34803313020E+03  0.00000000000E+00 0.  1.
         11    1    4    4    0    0 -0.11203747877E+03 -0.51272590366E+02  0.85809858401E+02  0.15014861628E+03  0.00000000000E+00 0. -1.
        -15    1    3    3    0    0  0.86692105225E+02 -0.11896169315E+02 -0.96223088471E+02  0.13007336559E+03  0.17770000000E+01 0.  1.
         15    1    3    3    0    0  0.35119817780E+03  0.50002433858E+02 -0.11113370547E+03  0.37174488793E+03  0.17770000000E+01 0.  1.
</event>
<event>
 8    1  0.1270595E-008  0.5019635E+03  0.7546771E-02  0.9395427E-01
        -11   -1    0    0    0    0  0.00000000000E+00  0.00000000000E+00  0.50000000000E+03  0.50000000000E+03  0.00000000000E+00 0.  1.
         11   -1    0    0    0    0 -0.00000000000E+00 -0.00000000000E+00 -0.50000000000E+03  0.50000000000E+03  0.00000000000E+00 0. -1.
         25    2    1    2    0    0  0.43703140224E+03  0.21215748513E+03  0.18319332819E+02  0.50196350406E+03  0.12499806564E+03 0.  0.
         23    2    1    2    0    0 -0.43703140224E+03 -0.21215748513E+03 -0.18319332819E+02  0.49803649594E+03  0.10815501977E+03 0.  0.
        -11    1    4    4    0    0 -0.94022323012E+02 -0.64940897739E+02 -0.47244242112E+02  0.12365086266E+03  0.00000000000E+00 0. -1.
         11    1    4    4    0    0 -0.34300907922E+03 -0.14721658739E+03  0.28924909293E+02  0.37438563328E+03  0.00000000000E+00 0.  1.
        -15    1    3    3    0    0  0.11452102240E+03  0.12062252884E+03  0.31367940552E+01  0.16636663200E+03  0.17770000000E+01 0. -1.
         15    1    3    3    0    0  0.32251037984E+03  0.91534956287E+02  0.15182538764E+02  0.33559687206E+03  0.17770000000E+01 0. -1.
</event>
<event>
 8    1  0.1270595E-008  0.5021878E+03  0.7546771E-02  0.9394928E-01
        -11   -1    0    0    0    0  0.00000000000E+00  0.00000000000E+00  0.50000000000E+03  0.50000000000E+03  0.00000000000E+00 0.  1.
         11   -1    0    0    0    0 -0.00000000000E+00 -0.00000000000E+00 -0.50000000000E+03  0.50000000000E+03  0.00000000000E+00 0. -1.
         25    2    1    2    0    0  0.21062906171E+02 -0.48471606316E+03 -0.34272057102E+02  0.50218780350E+03  0.12499883273E+03 0.  0.
         23    2    1    2    0    0 -0.21062906171E+02  0.48471606316E+03  0.34272057102E+02  0.49781219650E+03  0.10606178007E+03 0.  0.
        -11    1    4    4    0    0 -0.33863230488E+02  0.34108288311E+03 -0.20946091202E+02  0.34339917045E+03  0.00000000000E+00 0.  1.
         11    1    4    4    0    0  0.12800324316E+02  0.14363318004E+03  0.55218148305E+02  0.15441302605E+03  0.00000000000E+00 0. -1.
        -15    1    3    3    0    0  0.42160953541E+00 -0.38131544403E+03  0.23316978042E+02  0.38203204683E+03  0.17770000000E+01 0.  1.
         15    1    3    3    0    0  0.20641296636E+02 -0.10340061913E+03 -0.57589035144E+02  0.12015575667E+03  0.17770000000E+01 0.  1.
</event>
<event>
 7    1  0.1270595E-008  0.5107945E+03  0.7546771E-02  0.9375975E-01
        -11   -1    0    0    0    0  0.00000000000E+00  0.00000000000E+00  0.50000000000E+03  0.50000000000E+03  0.00000000000E+00 0.  1.
         11   -1    0    0    0    0 -0.00000000000E+00 -0.00000000000E+00 -0.50000000000E+03  0.50000000000E+03  0.00000000000E+00 0. -1.
         25    2    1    2    0    0  0.30635224560E+03 -0.35179642391E+03 -0.78003375149E+02  0.48920554180E+03  0.12500045333E+03 0.  0.
        -11    1    1    2    0    0 -0.20709201522E+03  0.10404053316E+03  0.75955051100E+02  0.24388666445E+03  0.00000000000E+00 0.  1.
         11    1    1    2    0    0 -0.99260230375E+02  0.24775589075E+03  0.20483240484E+01  0.26690779375E+03  0.00000000000E+00 0. -1.
        -15    1    3    3    0    0  0.16214176506E+03 -0.25534638069E+03 -0.89156084184E+02  0.31534693781E+03  0.17770000000E+01 0. -1.
         15    1    3    3    0    0  0.14421048053E+03 -0.96450043217E+02  0.11152709035E+02  0.17385860399E+03  0.17770000000E+01 0. -1.
</event>
<event>
 8    1  0.1270595E-008  0.5023513E+03  0.7546771E-02  0.9394564E-01
        -11   -1    0    0    0    0  0.00000000000E+00  0.00000000000E+00  0.50000000000E+03  0.50000000000E+03  0.00000000000E+00 0. -1.
         11   -1    0    0    0    0 -0.00000000000E+00 -0.00000000000E+00 -0.50000000000E+03  0.50000000000E+03  0.00000000000E+00 0.  1.
         25    2    1    2    0    0 -0.36819099392E+03 -0.30232134963E+03  0.98841917569E+02  0.50235134243E+03  0.12499736048E+03 0.  0.
         23    2    1    2    0    0  0.36819099392E+03  0.30232134963E+03 -0.98841917569E+02  0.49764865757E+03  0.10450672351E+03 0.  0.
        -11    1    4    4    0    0  0.49438397993E+02  0.84605204048E+02  0.43382937763E+01  0.98086780664E+02  0.00000000000E+00 0. -1.
         11    1    4    4    0    0  0.31875259593E+03  0.21771614559E+03 -0.10318021135E+03  0.39956187690E+03  0.00000000000E+00 0.  1.
        -15    1    3    3    0    0 -0.36690588952E+03 -0.26602571301E+03  0.10565799847E+03  0.46535618844E+03  0.17770000000E+01 0. -1.
         15    1    3    3    0    0 -0.12851044011E+01 -0.36295636628E+02 -0.68160808988E+01  0.36995153999E+02  0.17770000000E+01 0. -1.
</event>
<event>
 8    1  0.1270595E-008  0.5010761E+03  0.7546771E-02  0.9397405E-01
        -11   -1    0    0    0    0  0.00000000000E+00  0.00000000000E+00  0.50000000000E+03  0.50000000000E+03  0.00000000000E+00 0.  1.
         11   -1    0    0    0    0 -0.00000000000E+00 -0.00000000000E+00 -0.50000000000E+03  0.50000000000E+03  0.00000000000E+00 0. -1.
         25    2    1    2    0    0  0.57099656765E+02 -0.36973109859E+03  0.30901472824E+03  0.50107606648E+03  0.12500266424E+03 0.  0.
         23    2    1    2    0    0 -0.57099656765E+02  0.36973109859E+03 -0.30901472824E+03  0.49892393352E+03  0.11607554910E+03 0.  0.
        -11    1    4    4    0    0 -0.19992567267E+02  0.34385752987E+03 -0.28829447616E+03  0.44916746162E+03  0.00000000000E+00 0. -1.
         11    1    4    4    0    0 -0.37107089498E+02  0.25873568719E+02 -0.20720252082E+02  0.49756471897E+02  0.00000000000E+00 0.  1.
        -15    1    3    3    0    0  0.73593093543E+02 -0.10179250193E+03  0.10875243237E+03  0.16615627025E+03  0.17770000000E+01 0. -1.
         15    1    3    3    0    0 -0.16493436778E+02 -0.26793859666E+03  0.20026229587E+03  0.33491979624E+03  0.17770000000E+01 0. -1.
</event>
<event>
 8    1  0.1270595E-008  0.5017193E+03  0.7546771E-02  0.9395971E-01
        -11   -1    0    0    0    0  0.00000000000E+00  0.00000000000E+00  0.50000000000E+03  0.50000000000E+03  0.00000000000E+00 0.  1.
         11   -1    0    0    0    0 -0.00000000000E+00 -0.00000000000E+00 -0.50000000000E+03  0.50000000000E+03  0.00000000000E+00 0. -1.
         25    2    1    2    0    0  0.21799302477E+03  0.25061730291E+03  0.35463661464E+03  0.50171930364E+03  0.12500055936E+03 0.  0.
         23    2    1    2    0    0 -0.21799302477E+03 -0.25061730291E+03 -0.35463661464E+03  0.49828069636E+03  0.11039262908E+03 0.  0.
        -11    1    4    4    0    0 -0.10824762270E+03 -0.16475593534E+03 -0.27316159562E+03  0.33686692235E+03  0.00000000000E+00 0.  1.
         11    1    4    4    0    0 -0.10974540207E+03 -0.85861367571E+02 -0.81475019016E+02  0.16141377401E+03  0.00000000000E+00 0. -1.
        -15    1    3    3    0    0  0.16096417054E+03  0.14537700471E+03  0.14692933436E+03  0.26198344360E+03  0.17770000000E+01 0. -1.
         15    1    3    3    0    0  0.57028854223E+02  0.10524029821E+03  0.20770728028E+03  0.23973586004E+03  0.17770000000E+01 0. -1.
</event>
<event>
 8    1  0.1270595E-008  0.5018673E+03  0.7546771E-02  0.9395641E-01
        -11   -1    0    0    0    0  0.00000000000E+00  0.00000000000E+00  0.50000000000E+03  0.50000000000E+03  0.00000000000E+00 0. -1.
         11   -1    0    0    0    0 -0.00000000000E+00 -0.00000000000E+00 -0.50000000000E+03  0.50000000000E+03  0.00000000000E+00 0.  1.
         25    2    1    2    0    0  0.26738557419E+03 -0.38241328111E+03  0.13605987454E+03  0.50186732423E+03  0.12499423513E+03 0.  0.
         23    2    1    2    0    0 -0.26738557419E+03  0.38241328111E+03 -0.13605987454E+03  0.49813267577E+03  0.10903628000E+03 0.  0.
        -11    1    4    4    0    0 -0.26046049985E+03  0.30956316082E+03 -0.12892814978E+03  0.42460745439E+03  0.00000000000E+00 0. -1.
         11    1    4    4    0    0 -0.69250743421E+01  0.72850120290E+02 -0.71317247573E+01  0.73525221380E+02  0.00000000000E+00 0.  1.
        -15    1    3    3    0    0  0.25258150020E+03 -0.36694762736E+03  0.15654452042E+03  0.47218356607E+03  0.17770000000E+01 0.  1.
         15    1    3    3    0    0  0.14804073993E+02 -0.15465653748E+02 -0.20484645877E+02  0.29683758157E+02  0.17770000000E+01 0.  1.
</event>
<event>
 7    1  0.1270595E-008  0.5032111E+03  0.7546771E-02  0.9392653E-01
        -11   -1    0    0    0    0  0.00000000000E+00  0.00000000000E+00  0.50000000000E+03  0.50000000000E+03  0.00000000000E+00 0. -1.
         11   -1    0    0    0    0 -0.00000000000E+00 -0.00000000000E+00 -0.50000000000E+03  0.50000000000E+03  0.00000000000E+00 0.  1.
         25    2    1    2    0    0  0.60387314163E+02  0.43732167390E+03 -0.19046796628E+03  0.49678888423E+03  0.12499710054E+03 0.  0.
        -11    1    1    2    0    0  0.15501773620E+00 -0.33953878976E+03  0.91932491774E+02  0.35176440529E+03  0.00000000000E+00 0.  1.
         11    1    1    2    0    0 -0.60542331899E+02 -0.97782884132E+02  0.98535474503E+02  0.15144671048E+03  0.00000000000E+00 0. -1.
        -15    1    3    3    0    0  0.69081424910E+02  0.11270672006E+03 -0.35022616534E+02  0.13676545401E+03  0.17770000000E+01 0. -1.
         15    1    3    3    0    0 -0.86941107473E+01  0.32461495384E+03 -0.15544534974E+03  0.36002343021E+03  0.17770000000E+01 0. -1.
</event>
<event>
 8    1  0.1270595E-008  0.5015109E+03  0.7546771E-02  0.9396435E-01
        -11   -1    0    0    0    0  0.00000000000E+00  0.00000000000E+00  0.50000000000E+03  0.50000000000E+03  0.00000000000E+00 0.  1.
         11   -1    0    0    0    0 -0.00000000000E+00 -0.00000000000E+00 -0.50000000000E+03  0.50000000000E+03  0.00000000000E+00 0. -1.
         25    2    1    2    0    0 -0.30674909748E+03 -0.33705041134E+03  0.16790546137E+03  0.50151090966E+03  0.12499183958E+03 0.  0.
         23    2    1    2    0    0  0.30674909748E+03  0.33705041134E+03 -0.16790546137E+03  0.49848909034E+03  0.11225480229E+03 0.  0.
        -11    1    4    4    0    0  0.25930448730E+03  0.33061723917E+03 -0.13903878499E+03  0.44258147239E+03  0.00000000000E+00 0. -1.
         11    1    4    4    0    0  0.47444610187E+02  0.64331721718E+01 -0.28866676376E+02  0.55907617951E+02  0.00000000000E+00 0.  1.
        -15    1    3    3    0    0  0.81459199895E+01 -0.18981577446E+02  0.23210134162E+02  0.31121123881E+02  0.17770000000E+01 0. -1.
         15    1    3    3    0    0 -0.31489501747E+03 -0.31806883390E+03  0.14469532720E+03  0.47038978578E+03  0.17770000000E+01 0. -1.
</event>
<event>
 8    1  0.1270595E-008  0.5023935E+03  0.7546771E-02  0.9394470E-01
        -11   -1    0    0    0    0  0.00000000000E+00  0.00000000000E+00  0.50000000000E+03  0.50000000000E+03  0.00000000000E+00 0.  1.
         11   -1    0    0    0    0 -0.00000000000E+00 -0.00000000000E+00 -0.50000000000E+03  0.50000000000E+03  0.00000000000E+00 0. -1.
         25    2    1    2    0    0  0.34539767508E+03  0.20477256936E+02  0.34213245788E+03  0.50239347909E+03  0.12500286835E+03 0.  0.
         23    2    1    2    0    0 -0.34539767508E+03 -0.20477256936E+02 -0.34213245788E+03  0.49760652091E+03  0.10410936033E+03 0.  0.
        -11    1    4    4    0    0 -0.17264475116E+03  0.40259972728E+02 -0.15045382305E+03  0.23251543686E+03  0.00000000000E+00 0. -1.
         11    1    4    4    0    0 -0.17275292392E+03 -0.60737229663E+02 -0.19167863484E+03  0.26509108405E+03  0.00000000000E+00 0.  1.
        -15    1    3    3    0    0  0.24154717344E+02  0.91644929758E+01 -0.79793129380E+01  0.27097333179E+02  0.17770000000E+01 0. -1.
         15    1    3    3    0    0  0.32124295773E+03  0.11312763960E+02  0.35011177082E+03  0.47529614591E+03  0.17770000000E+01 0. -1.
</event>
<event>
 8    1  0.1270595E-008  0.5022131E+03  0.7546771E-02  0.9394871E-01
        -11   -1    0    0    0    0  0.00000000000E+00  0.00000000000E+00  0.50000000000E+03  0.50000000000E+03  0.00000000000E+00 0.  1.
         11   -1    0    0    0    0 -0.00000000000E+00 -0.00000000000E+00 -0.50000000000E+03  0.50000000000E+03  0.00000000000E+00 0. -1.
         25    2    1    2    0    0  0.39982332860E+02  0.34102482475E+03 -0.34452184221E+03  0.50221314886E+03  0.12500491625E+03 0.  0.
         23    2    1    2    0    0 -0.39982332860E+02 -0.34102482475E+03  0.34452184221E+03  0.49778685114E+03  0.10582972818E+03 0.  0.
        -11    1    4    4    0    0 -0.53629229809E+02 -0.25635622433E+03  0.30872966336E+03  0.40485628695E+03  0.00000000000E+00 0. -1.
         11    1    4    4    0    0  0.13646896949E+02 -0.84668600419E+02  0.35792178851E+02  0.92930564187E+02  0.00000000000E+00 0.  1.
        -15    1    3    3    0    0  0.17511024938E+02  0.33622730217E+03 -0.34043851324E+03  0.47880786725E+03  0.17770000000E+01 0. -1.
         15    1    3    3    0    0  0.22471307922E+02  0.47975225866E+01 -0.40833289765E+01  0.23405281609E+02  0.17770000000E+01 0. -1.
</event>
<event>
 8    1  0.1270595E-008  0.5021416E+03  0.7546771E-02  0.9395030E-01
        -11   -1    0    0    0    0  0.00000000000E+00  0.00000000000E+00  0.50000000000E+03  0.50000000000E+03  0.00000000000E+00 0. -1.
         11   -1    0    0    0    0 -0.00000000000E+00 -0.00000000000E+00 -0.50000000000E+03  0.50000000000E+03  0.00000000000E+00 0.  1.
         25    2    1    2    0    0 -0.47507393164E+03  0.10276532042E+02  0.10353489105E+03  0.50214163436E+03  0.12500359857E+03 0.  0.
         23    2    1    2    0    0  0.47507393164E+03 -0.10276532042E+02 -0.10353489105E+03  0.49785836564E+03  0.10650178843E+03 0.  0.
        -11    1    4    4    0    0  0.30642467037E+03 -0.56465842656E+02 -0.55142608936E+02  0.31642562683E+03  0.00000000000E+00 0. -1.
         11    1    4    4    0    0  0.16864926128E+03  0.46189310614E+02 -0.48392282115E+02  0.18143273881E+03  0.00000000000E+00 0.  1.
        -15    1    3    3    0    0 -0.10047888334E+03  0.53993722781E+02  0.19195061550E+02  0.11568464122E+03  0.17770000000E+01 0.  1.
         15    1    3    3    0    0 -0.37459504830E+03 -0.43717190739E+02  0.84339829501E+02  0.38645699314E+03  0.17770000000E+01 0.  1.
</event>
<event>
 7    1  0.1270595E-008  0.5050925E+03  0.7546771E-02  0.9388486E-01
        -11   -1    0    0    0    0  0.00000000000E+00  0.00000000000E+00  0.50000000000E+03  0.50000000000E+03  0.00000000000E+00 0.  1.
         11   -1    0    0    0    0 -0.00000000000E+00 -0.00000000000E+00 -0.50000000000E+03  0.50000000000E+03  0.00000000000E+00 0.  1.
         25    2    1    2    0    0  0.18897243587E+03 -0.36648242720E+03  0.24349095226E+03  0.49490748624E+03  0.12500250055E+03 0.  0.
        -11    1    1    2    0    0 -0.14860544589E+03  0.34410371935E+03 -0.15563141137E+03  0.40584736591E+03  0.00000000000E+00 0.  1.
         11    1    1    2    0    0 -0.40366989982E+02  0.22378707852E+02 -0.87859540892E+02  0.99245147847E+02  0.00000000000E+00 0.  1.
        -15    1    3    3    0    0  0.10419019481E+03 -0.26133422009E+03  0.10193485395E+03  0.29924077840E+03  0.17770000000E+01 0. -1.
         15    1    3    3    0    0  0.84782241062E+02 -0.10514820711E+03  0.14155609831E+03  0.19566670784E+03  0.17770000000E+01 0. -1.
</event>
<event>
 8    1  0.1270595E-008  0.5020346E+03  0.7546771E-02  0.9395269E-01
        -11   -1    0    0    0    0  0.00000000000E+00  0.00000000000E+00  0.50000000000E+03  0.50000000000E+03  0.00000000000E+00 0. -1.
         11   -1    0    0    0    0 -0.00000000000E+00 -0.00000000000E+00 -0.50000000000E+03  0.50000000000E+03  0.00000000000E+00 0.  1.
         25    2    1    2    0    0 -0.43491476103E+03  0.21724369235E+03  0.82480380324E+01  0.50203457428E+03  0.12500004966E+03 0.  0.
         23    2    1    2    0    0  0.43491476103E+03 -0.21724369235E+03 -0.82480380324E+01  0.49796542572E+03  0.10749820397E+03 0.  0.
        -11    1    4    4    0    0  0.82760369084E+02 -0.14382216492E+02 -0.34281726862E+02  0.90726862828E+02  0.00000000000E+00 0.  1.
         11    1    4    4    0    0  0.35215439194E+03 -0.20286147586E+03  0.26033688829E+02  0.40723856289E+03  0.00000000000E+00 0. -1.
        -15    1    3    3    0    0 -0.38965804013E+03  0.17188413395E+03  0.44812170916E+02  0.42823922302E+03  0.17770000000E+01 0. -1.
         15    1    3    3    0    0 -0.45256720893E+02  0.45359558404E+02 -0.36564132884E+02  0.73795351257E+02  0.17770000000E+01 0. -1.
</event>
<event>
 8    1  0.1270595E-008  0.5021122E+03  0.7546771E-02  0.9395096E-01
        -11   -1    0    0    0    0  0.00000000000E+00  0.00000000000E+00  0.50000000000E+03  0.50000000000E+03  0.00000000000E+00 0.  1.
         11   -1    0    0    0    0 -0.00000000000E+00 -0.00000000000E+00 -0.50000000000E+03  0.50000000000E+03  0.00000000000E+00 0. -1.
         25    2    1    2    0    0  0.25868003281E+03  0.41070478197E+03  0.29987943714E+02  0.50211217315E+03  0.12499432129E+03 0.  0.
         23    2    1    2    0    0 -0.25868003281E+03 -0.41070478197E+03 -0.29987943714E+02  0.49788782685E+03  0.10676719556E+03 0.  0.
        -11    1    4    4    0    0 -0.22052605702E+03 -0.35205473884E+03  0.13260582828E+02  0.41563219801E+03  0.00000000000E+00 0.  1.
         11    1    4    4    0    0 -0.38153975793E+02 -0.58650043124E+02 -0.43248526543E+02  0.82255628837E+02  0.00000000000E+00 0. -1.
        -15    1    3    3    0    0  0.19504465626E+03  0.19495957876E+03  0.27601327320E+02  0.27715816114E+03  0.17770000000E+01 0.  1.
         15    1    3    3    0    0  0.63635376547E+02  0.21574520320E+03  0.23866163943E+01  0.22495401201E+03  0.17770000000E+01 0. -1.
</event>
<event>
 8    1  0.1270595E-008  0.5019479E+03  0.7546771E-02  0.9395462E-01
        -11   -1    0    0    0    0  0.00000000000E+00  0.00000000000E+00  0.50000000000E+03  0.50000000000E+03  0.00000000000E+00 0.  1.
         11   -1    0    0    0    0 -0.00000000000E+00 -0.00000000000E+00 -0.50000000000E+03  0.50000000000E+03  0.00000000000E+00 0. -1.
         25    2    1    2    0    0  0.12511754569E+03 -0.46592005594E+03 -0.59922205328E+02  0.50194794376E+03  0.12500067517E+03 0.  0.
         23    2    1    2    0    0 -0.12511754569E+03  0.46592005594E+03  0.59922205328E+02  0.49805205624E+03  0.10830180637E+03 0.  0.
        -11    1    4    4    0    0 -0.65217283386E+02  0.12022649774E+03 -0.19969029271E+02  0.13822614420E+03  0.00000000000E+00 0. -1.
         11    1    4    4    0    0 -0.59900262306E+02  0.34569355820E+03  0.79891234599E+02  0.35982591204E+03  0.00000000000E+00 0.  1.
        -15    1    3    3    0    0  0.23253550769E+02 -0.14155599012E+03 -0.74486926897E+02  0.16164864976E+03  0.17770000000E+01 0.  1.
         15    1    3    3    0    0  0.10186399492E+03 -0.32436406582E+03  0.14564721569E+02  0.34029929400E+03  0.17770000000E+01 0.  1.
</event>
<event>
 8    1  0.1270595E-008  0.5055406E+03  0.7546771E-02  0.9387497E-01
        -11   -1    0    0    0    0  0.00000000000E+00  0.00000000000E+00  0.50000000000E+03  0.50000000000E+03  0.00000000000E+00 0.  1.
         11   -1    0    0    0    0 -0.00000000000E+00 -0.00000000000E+00 -0.50000000000E+03  0.50000000000E+03  0.00000000000E+00 0. -1.
         25    2    1    2    0    0 -0.15480186585E+03  0.46466332585E+03 -0.83950731481E+01  0.50554055652E+03  0.12500061192E+03 0.  0.
         23    2    1    2    0    0  0.15480186585E+03 -0.46466332585E+03  0.83950731481E+01  0.49445944348E+03  0.67409494384E+02 0.  0.
        -11    1    4    4    0    0  0.17432913579E+02 -0.53758838085E+02  0.22851876278E+02  0.60960047552E+02  0.00000000000E+00 0.  1.
         11    1    4    4    0    0  0.13736895227E+03 -0.41090448776E+03 -0.14456803130E+02  0.43349939592E+03  0.00000000000E+00 0. -1.
        -15    1    3    3    0    0  0.15114509336E+02  0.81019830633E+01  0.57578472700E+01  0.18176937481E+02  0.17770000000E+01 0. -1.
         15    1    3    3    0    0 -0.16991637519E+03  0.45656134278E+03 -0.14152920418E+02  0.48736361904E+03  0.17770000000E+01 0. -1.
</event>
<event>
 8    1  0.1270595E-008  0.5048238E+03  0.7546771E-02  0.9389080E-01
        -11   -1    0    0    0    0  0.00000000000E+00  0.00000000000E+00  0.50000000000E+03  0.50000000000E+03  0.00000000000E+00 0. -1.
         11   -1    0    0    0    0 -0.00000000000E+00 -0.00000000000E+00 -0.50000000000E+03  0.50000000000E+03  0.00000000000E+00 0.  1.
         25    2    1    2    0    0  0.82687535193E+02 -0.40953368267E+03  0.25428737721E+03  0.50482384313E+03  0.12501990508E+03 0.  0.
         23    2    1    2    0    0 -0.82687535193E+02  0.40953368267E+03 -0.25428737721E+03  0.49517615687E+03  0.77345267524E+02 0.  0.
        -11    1    4    4    0    0 -0.77195626880E+02  0.29090565752E+03 -0.21578456594E+03  0.37033531466E+03  0.00000000000E+00 0. -1.
         11    1    4    4    0    0 -0.54919083128E+01  0.11862802515E+03 -0.38502811262E+02  0.12484084221E+03  0.00000000000E+00 0.  1.
        -15    1    3    3    0    0  0.43381988487E+02 -0.10061811994E+03  0.12871925820E+03  0.16904972093E+03  0.17770000000E+01 0. -1.
         15    1    3    3    0    0  0.39305546706E+02 -0.30891556273E+03  0.12556811901E+03  0.33577412220E+03  0.17770000000E+01 0. -1.
</event>
<event>
 7    1  0.1270595E-008  0.3902314E+03  0.7546771E-02  0.9685713E-01
        -11   -1    0    0    0    0  0.00000000000E+00  0.00000000000E+00  0.50000000000E+03  0.50000000000E+03  0.00000000000E+00 0.  1.
         11   -1    0    0    0    0 -0.00000000000E+00 -0.00000000000E+00 -0.50000000000E+03  0.50000000000E+03  0.00000000000E+00 0. -1.
         25    2    1    2    0    0 -0.43614139825E+03  0.59672039132E+02 -0.11148816862E+03  0.47099274914E+03  0.12499794592E+03 0.  0.
        -11    1    1    2    0    0  0.29781230298E+03  0.92025290315E+02  0.61587977908E+02  0.31773243600E+03  0.00000000000E+00 0.  1.
         11    1    1    2    0    0  0.13832909527E+03 -0.15169732945E+03  0.49900190713E+02  0.21127481486E+03  0.00000000000E+00 0. -1.
        -15    1    3    3    0    0 -0.32004506440E+03 -0.12507992501E+02 -0.67068450451E+02  0.32724093249E+03  0.17770000000E+01 0. -1.
         15    1    3    3    0    0 -0.11609633385E+03  0.72180031633E+02 -0.44419718170E+02  0.14375181665E+03  0.17770000000E+01 0. -1.
</event>
<event>
 8    1  0.1270595E-008  0.5048469E+03  0.7546771E-02  0.9389029E-01
        -11   -1    0    0    0    0  0.00000000000E+00  0.00000000000E+00  0.50000000000E+03  0.50000000000E+03  0.00000000000E+00 0.  1.
         11   -1    0    0    0    0 -0.00000000000E+00 -0.00000000000E+00 -0.50000000000E+03  0.50000000000E+03  0.00000000000E+00 0. -1.
         25    2    1    2    0    0 -0.78669102001E+02  0.35103260022E+03 -0.33141053808E+03  0.50484688674E+03  0.12499888108E+03 0.  0.
         23    2    1    2    0    0  0.78669102001E+02 -0.35103260022E+03  0.33141053808E+03  0.49515311326E+03  0.77012640503E+02 0.  0.
        -11    1    4    4    0    0  0.48540299594E+02 -0.30452053073E+03  0.30515650625E+03  0.43383108191E+03  0.00000000000E+00 0.  1.
         11    1    4    4    0    0  0.30128802408E+02 -0.46512069484E+02  0.26254031836E+02  0.61322031358E+02  0.00000000000E+00 0. -1.
        -15    1    3    3    0    0  0.57602526695E+01  0.18228804964E+03 -0.21978642043E+03  0.28560697100E+03  0.17770000000E+01 0.  1.
         15    1    3    3    0    0 -0.84429354671E+02  0.16874455058E+03 -0.11162411765E+03  0.21923991573E+03  0.17770000000E+01 0.  1.
</event>
<event>
 8    1  0.1270595E-008  0.5023991E+03  0.7546771E-02  0.9394457E-01
        -11   -1    0    0    0    0  0.00000000000E+00  0.00000000000E+00  0.50000000000E+03  0.50000000000E+03  0.00000000000E+00 0.  1.
         11   -1    0    0    0    0 -0.00000000000E+00 -0.00000000000E+00 -0.50000000000E+03  0.50000000000E+03  0.00000000000E+00 0. -1.
         25    2    1    2    0    0  0.26414427480E+03  0.35506346413E+03 -0.20232972126E+03  0.50239911516E+03  0.12500117336E+03 0.  0.
         23    2    1    2    0    0 -0.26414427480E+03 -0.35506346413E+03  0.20232972126E+03  0.49760088484E+03  0.10405317397E+03 0.  0.
        -11    1    4    4    0    0 -0.34285173945E+02 -0.11484294926E+03  0.76084607246E+02  0.14196212033E+03  0.00000000000E+00 0. -1.
         11    1    4    4    0    0 -0.22985910086E+03 -0.24022051487E+03  0.12624511402E+03  0.35563876451E+03  0.00000000000E+00 0.  1.
        -15    1    3    3    0    0  0.83051332164E+02  0.89539820929E+02 -0.11864666269E+03  0.17027945150E+03  0.17770000000E+01 0. -1.
         15    1    3    3    0    0  0.18109294264E+03  0.26552364320E+03 -0.83683058570E+02  0.33211966366E+03  0.17770000000E+01 0. -1.
</event>
<event>
 8    1  0.1270595E-008  0.5004958E+03  0.7546771E-02  0.9398701E-01
        -11   -1    0    0    0    0  0.00000000000E+00  0.00000000000E+00  0.50000000000E+03  0.50000000000E+03  0.00000000000E+00 0.  1.
         11   -1    0    0    0    0 -0.00000000000E+00 -0.00000000000E+00 -0.50000000000E+03  0.50000000000E+03  0.00000000000E+00 0. -1.
         25    2    1    2    0    0 -0.20633679991E+03 -0.42471093599E+03 -0.10916385659E+03  0.50049576645E+03  0.12500004201E+03 0.  0.
         23    2    1    2    0    0  0.20633679991E+03  0.42471093599E+03  0.10916385659E+03  0.49950423355E+03  0.12096891169E+03 0.  0.
        -11    1    4    4    0    0  0.93184980230E+02  0.14409166671E+03  0.96042033989E+02  0.19664669142E+03  0.00000000000E+00 0.  1.
         11    1    4    4    0    0  0.11315181968E+03  0.28061926929E+03  0.13121822599E+02  0.30285754212E+03  0.00000000000E+00 0. -1.
        -15    1    3    3    0    0 -0.11676828272E+02 -0.63207480176E+02 -0.58255456840E+02  0.86766294431E+02  0.17770000000E+01 0. -1.
         15    1    3    3    0    0 -0.19465997164E+03 -0.36150345582E+03 -0.50908399748E+02  0.41372947202E+03  0.17770000000E+01 0. -1.
</event>
<event>
 8    1  0.1270595E-008  0.5022714E+03  0.7546771E-02  0.9394742E-01
        -11   -1    0    0    0    0  0.00000000000E+00  0.00000000000E+00  0.50000000000E+03  0.50000000000E+03  0.00000000000E+00 0.  1.
         11   -1    0    0    0    0 -0.00000000000E+00 -0.00000000000E+00 -0.50000000000E+03  0.50000000000E+03  0.00000000000E+00 0. -1.
         25    2    1    2    0    0  0.24091281375E+03  0.34312048343E+03 -0.24674514772E+03  0.50227139914E+03  0.12499096163E+03 0.  0.
         23    2    1    2    0    0 -0.24091281375E+03 -0.34312048343E+03  0.24674514772E+03  0.49772860086E+03  0.10526130444E+03 0.  0.
        -11    1    4    4    0    0 -0.14782780441E+03 -0.12518980572E+03  0.13214795269E+03  0.23449654286E+03  0.00000000000E+00 0. -1.
         11    1    4    4    0    0 -0.93085009344E+02 -0.21793067771E+03  0.11459719503E+03  0.26323205800E+03  0.00000000000E+00 0.  1.
        -15    1    3    3    0    0  0.11315932125E+03  0.64828515472E+02 -0.59652374504E+02  0.14342012382E+03  0.17770000000E+01 0. -1.
         15    1    3    3    0    0  0.12775349250E+03  0.27829196796E+03 -0.18709277322E+03  0.35885127532E+03  0.17770000000E+01 0. -1.
</event>
<event>
 8    1  0.1270595E-008  0.5001497E+03  0.7546771E-02  0.9399475E-01
        -11   -1    0    0    0    0  0.00000000000E+00  0.00000000000E+00  0.50000000000E+03  0.50000000000E+03  0.00000000000E+00 0. -1.
         11   -1    0    0    0    0 -0.00000000000E+00 -0.00000000000E+00 -0.50000000000E+03  0.50000000000E+03  0.00000000000E+00 0.  1.
         25    2    1    2    0    0  0.10042261517E+03  0.37456447177E+03 -0.28955477801E+03  0.49985025671E+03  0.12500025807E+03 0.  0.
         23    2    1    2    0    0 -0.10042261517E+03 -0.37456447177E+03  0.28955477801E+03  0.50014974329E+03  0.12619251599E+03 0.  0.
        -11    1    4    4    0    0 -0.40179944896E+02 -0.14630630119E+02  0.33945961668E+02  0.54596809642E+02  0.00000000000E+00 0. -1.
         11    1    4    4    0    0 -0.60242670276E+02 -0.35993384165E+03  0.25560881634E+03  0.44555293365E+03  0.00000000000E+00 0.  1.
        -15    1    3    3    0    0 -0.19721168069E+02  0.66142901914E+02 -0.89695226988E+02  0.11319098647E+03  0.17770000000E+01 0. -1.
         15    1    3    3    0    0  0.12014378324E+03  0.30842156986E+03 -0.19985955102E+03  0.38665927025E+03  0.17770000000E+01 0. -1.
</event>
<event>
 8    1  0.1270595E-008  0.5023361E+03  0.7546771E-02  0.9394598E-01
        -11   -1    0    0    0    0  0.00000000000E+00  0.00000000000E+00  0.50000000000E+03  0.50000000000E+03  0.00000000000E+00 0.  1.
         11   -1    0    0    0    0 -0.00000000000E+00 -0.00000000000E+00 -0.50000000000E+03  0.50000000000E+03  0.00000000000E+00 0. -1.
         25    2    1    2    0    0 -0.15254683234E+03  0.43843072004E+03  0.14568477539E+03  0.50233612049E+03  0.12500196734E+03 0.  0.
         23    2    1    2    0    0  0.15254683234E+03 -0.43843072004E+03 -0.14568477539E+03  0.49766387951E+03  0.10465777969E+03 0.  0.
        -11    1    4    4    0    0  0.10802310607E+03 -0.32588192756E+03 -0.57951812040E+02  0.34817586745E+03  0.00000000000E+00 0.  1.
         11    1    4    4    0    0  0.44523726266E+02 -0.11254879249E+03 -0.87732963349E+02  0.14948801206E+03  0.00000000000E+00 0. -1.
        -15    1    3    3    0    0 -0.89687839070E+02  0.92855407694E+02  0.30270375801E+02  0.13261028842E+03  0.17770000000E+01 0.  1.
         15    1    3    3    0    0 -0.62858993268E+02  0.34557531235E+03  0.11541439959E+03  0.36972583207E+03  0.17770000000E+01 0.  1.
</event>
<event>
 8    1  0.1270595E-008  0.5000966E+03  0.7546771E-02  0.9399593E-01
        -11   -1    0    0    0    0  0.00000000000E+00  0.00000000000E+00  0.50000000000E+03  0.50000000000E+03  0.00000000000E+00 0.  1.
         11   -1    0    0    0    0 -0.00000000000E+00 -0.00000000000E+00 -0.50000000000E+03  0.50000000000E+03  0.00000000000E+00 0. -1.
         25    2    1    2    0    0  0.27653981206E+03  0.20609816698E+03  0.33959935926E+03  0.49990335871E+03  0.12499968463E+03 0.  0.
         23    2    1    2    0    0 -0.27653981206E+03 -0.20609816698E+03 -0.33959935926E+03  0.50009664129E+03  0.12577044061E+03 0.  0.
        -11    1    4    4    0    0 -0.15940986421E+03 -0.17839273276E+03 -0.27125936749E+03  0.36168648905E+03  0.00000000000E+00 0. -1.
         11    1    4    4    0    0 -0.11712994785E+03 -0.27705434225E+02 -0.68339991770E+02  0.13841015224E+03  0.00000000000E+00 0.  1.
        -15    1    3    3    0    0  0.14062368530E+03  0.12334852034E+03  0.26443109405E+03  0.32390869017E+03  0.17770000000E+01 0.  1.
         15    1    3    3    0    0  0.13591612676E+03  0.82749646640E+02  0.75168265212E+02  0.17599466855E+03  0.17770000000E+01 0.  1.
</event>
<event>
 8    1  0.1270595E-008  0.5021787E+03  0.7546771E-02  0.9394948E-01
        -11   -1    0    0    0    0  0.00000000000E+00  0.00000000000E+00  0.50000000000E+03  0.50000000000E+03  0.00000000000E+00 0. -1.
         11   -1    0    0    0    0 -0.00000000000E+00 -0.00000000000E+00 -0.50000000000E+03  0.50000000000E+03  0.00000000000E+00 0.  1.
         25    2    1    2    0    0  0.28705713123E+03  0.35138347940E+03 -0.17517982875E+03  0.50217872668E+03  0.12499341962E+03 0.  0.
         23    2    1    2    0    0 -0.28705713123E+03 -0.35138347940E+03  0.17517982875E+03  0.49782127332E+03  0.10614095148E+03 0.  0.
        -11    1    4    4    0    0 -0.16938414382E+03 -0.18297237990E+03  0.41654740557E+02  0.25279437770E+03  0.00000000000E+00 0.  1.
         11    1    4    4    0    0 -0.11767298741E+03 -0.16841109950E+03  0.13352508819E+03  0.24502689562E+03  0.00000000000E+00 0. -1.
        -15    1    3    3    0    0  0.20302317479E+00  0.48577528477E+02  0.27862777252E+01  0.48690230682E+02  0.17770000000E+01 0. -1.
         15    1    3    3    0    0  0.28685410805E+03  0.30280595093E+03 -0.17796610647E+03  0.45348849600E+03  0.17770000000E+01 0. -1.
</event>
<event>
 7    1  0.1270595E-008  0.5009868E+03  0.7546771E-02  0.9397604E-01
        -11   -1    0    0    0    0  0.00000000000E+00  0.00000000000E+00  0.50000000000E+03  0.50000000000E+03  0.00000000000E+00 0. -1.
         11   -1    0    0    0    0 -0.00000000000E+00 -0.00000000000E+00 -0.50000000000E+03  0.50000000000E+03  0.00000000000E+00 0.  1.
         25    2    1    2    0    0 -0.46308530127E+03  0.12800636340E+03 -0.50548035180E+02  0.49901315395E+03  0.12500159450E+03 0.  0.
        -11    1    1    2    0    0  0.17887874281E+03 -0.39414698041E+02  0.83823674331E+02  0.20143865425E+03  0.00000000000E+00 0. -1.
         11    1    1    2    0    0  0.28420655847E+03 -0.88591665355E+02 -0.33275639151E+02  0.29954819179E+03  0.00000000000E+00 0.  1.
        -15    1    3    3    0    0 -0.40065578532E+03  0.80054711018E+02 -0.77350557959E+02  0.41583660447E+03  0.17770000000E+01 0.  1.
         15    1    3    3    0    0 -0.62429515952E+02  0.47951652378E+02  0.26802522778E+02  0.83176549484E+02  0.17770000000E+01 0.  1.
</event>
<event>
 8    1  0.1270595E-008  0.5012077E+03  0.7546771E-02  0.9397111E-01
        -11   -1    0    0    0    0  0.00000000000E+00  0.00000000000E+00  0.50000000000E+03  0.50000000000E+03  0.00000000000E+00 0.  1.
         11   -1    0    0    0    0 -0.00000000000E+00 -0.00000000000E+00 -0.50000000000E+03  0.50000000000E+03  0.00000000000E+00 0. -1.
         25    2    1    2    0    0  0.47506278942E+03 -0.90142848875E+02  0.42130246835E+02  0.50120772838E+03  0.12499536868E+03 0.  0.
         23    2    1    2    0    0 -0.47506278942E+03  0.90142848875E+02 -0.42130246835E+02  0.49879227162E+03  0.11492774006E+03 0.  0.
        -11    1    4    4    0    0 -0.55985611842E+02 -0.23124601622E+02  0.10577417046E+02  0.61489980362E+02  0.00000000000E+00 0.  1.
         11    1    4    4    0    0 -0.41907717758E+03  0.11326745050E+03 -0.52707663881E+02  0.43730229126E+03  0.00000000000E+00 0. -1.
        -15    1    3    3    0    0  0.44144902260E+03 -0.74151750779E+02  0.72073778989E+02  0.45340214936E+03  0.17770000000E+01 0.  1.
         15    1    3    3    0    0  0.33613766819E+02 -0.15991098096E+02 -0.29943532154E+02  0.47805579015E+02  0.17770000000E+01 0.  1.
</event>
<event>
 8    1  0.1270595E-008  0.5021315E+03  0.7546771E-02  0.9395053E-01
        -11   -1    0    0    0    0  0.00000000000E+00  0.00000000000E+00  0.50000000000E+03  0.50000000000E+03  0.00000000000E+00 0. -1.
         11   -1    0    0    0    0 -0.00000000000E+00 -0.00000000000E+00 -0.50000000000E+03  0.50000000000E+03  0.00000000000E+00 0.  1.
         25    2    1    2    0    0  0.31591043054E+03  0.23552653397E+02  0.36899419970E+03  0.50213148254E+03  0.12500071495E+03 0.  0.
         23    2    1    2    0    0 -0.31591043054E+03 -0.23552653397E+02 -0.36899419970E+03  0.49786851746E+03  0.10659368491E+03 0.  0.
        -11    1    4    4    0    0 -0.27968006905E+02  0.14910527216E+02 -0.88696241488E+02  0.94188940361E+02  0.00000000000E+00 0.  1.
         11    1    4    4    0    0 -0.28794242363E+03 -0.38463180612E+02 -0.28029795822E+03  0.40367957710E+03  0.00000000000E+00 0. -1.
        -15    1    3    3    0    0  0.46342786557E+02 -0.28895053282E+01  0.13976326674E+03  0.14728520484E+03  0.17770000000E+01 0. -1.
         15    1    3    3    0    0  0.26956764398E+03  0.26442158725E+02  0.22923093297E+03  0.35484627770E+03  0.17770000000E+01 0. -1.
</event>
<event>
 8    1  0.1270595E-008  0.5017861E+03  0.7546771E-02  0.9395822E-01
        -11   -1    0    0    0    0  0.00000000000E+00  0.00000000000E+00  0.50000000000E+03  0.50000000000E+03  0.00000000000E+00 0. -1.
         11   -1    0    0    0    0 -0.00000000000E+00 -0.00000000000E+00 -0.50000000000E+03  0.50000000000E+03  0.00000000000E+00 0.  1.
         25    2    1    2    0    0  0.28664120850E+03  0.31479506996E+03  0.23431838491E+03  0.50178605707E+03  0.12500009234E+03 0.  0.
         23    2    1    2    0    0 -0.28664120850E+03 -0.31479506996E+03 -0.23431838491E+03  0.49821394293E+03  0.10978574104E+03 0.  0.
        -11    1    4    4    0    0 -0.96373548122E+02 -0.18236537040E+03 -0.89239985059E+02  0.22474154941E+03  0.00000000000E+00 0. -1.
         11    1    4    4    0    0 -0.19026766038E+03 -0.13242969957E+03 -0.14507839985E+03  0.27347239352E+03  0.00000000000E+00 0.  1.
        -15    1    3    3    0    0  0.48647283304E+01  0.87442581331E+01  0.42464370952E+02  0.43663579347E+02  0.17770000000E+01 0.  1.
         15    1    3    3    0    0  0.28177648017E+03  0.30605081183E+03  0.19185401395E+03  0.45812247773E+03  0.17770000000E+01 0.  1.
</event>
<event>
 8    1  0.1270595E-008  0.5022801E+03  0.7546771E-02  0.9394722E-01
        -11   -1    0    0    0    0  0.00000000000E+00  0.00000000000E+00  0.50000000000E+03  0.50000000000E+03  0.00000000000E+00 0.  1.
         11   -1    0    0    0    0 -0.00000000000E+00 -0.00000000000E+00 -0.50000000000E+03  0.50000000000E+03  0.00000000000E+00 0. -1.
         25    2    1    2    0    0  0.13090693693E+02  0.48008738673E+03 -0.77508217990E+02  0.50228010135E+03  0.12499004439E+03 0.  0.
         23    2    1    2    0    0 -0.13090693693E+02 -0.48008738673E+03  0.77508217990E+02  0.49771989865E+03  0.10517750945E+03 0.  0.
        -11    1    4    4    0    0 -0.10338014110E+02 -0.37159539083E+03  0.10398704608E+03  0.38600947498E+03  0.00000000000E+00 0.  1.
         11    1    4    4    0    0 -0.27526795828E+01 -0.10849199590E+03 -0.26478828086E+02  0.11171042367E+03  0.00000000000E+00 0. -1.
        -15    1    3    3    0    0 -0.10803134431E+02  0.27181943992E+03 -0.10343714526E+03  0.29104109053E+03  0.17770000000E+01 0.  1.
         15    1    3    3    0    0  0.23893828124E+02  0.20826794682E+03  0.25928927270E+02  0.21123901082E+03  0.17770000000E+01 0.  1.
</event>
<event>
 8    1  0.1270595E-008  0.5047118E+03  0.7546771E-02  0.9389328E-01
        -11   -1    0    0    0    0  0.00000000000E+00  0.00000000000E+00  0.50000000000E+03  0.50000000000E+03  0.00000000000E+00 0.  1.
         11   -1    0    0    0    0 -0.00000000000E+00 -0.00000000000E+00 -0.50000000000E+03  0.50000000000E+03  0.00000000000E+00 0. -1.
         25    2    1    2    0    0 -0.40664304895E+03 -0.12618826619E+02 -0.27127680075E+03  0.50471179758E+03  0.12500036781E+03 0.  0.
         23    2    1    2    0    0  0.40664304895E+03  0.12618826619E+02  0.27127680075E+03  0.49528820242E+03  0.78749582791E+02 0.  0.
        -11    1    4    4    0    0  0.31537897499E+03  0.23995410722E+02  0.24365760031E+03  0.39926019559E+03  0.00000000000E+00 0.  1.
         11    1    4    4    0    0  0.91264073959E+02 -0.11376584103E+02  0.27619200442E+02  0.96028006824E+02  0.00000000000E+00 0. -1.
        -15    1    3    3    0    0 -0.35966683529E+03  0.50327330574E+01 -0.18403660073E+03  0.40405221067E+03  0.17770000000E+01 0.  1.
         15    1    3    3    0    0 -0.46976213654E+02 -0.17651559677E+02 -0.87240200024E+02  0.10065958691E+03  0.17770000000E+01 0.  1.
</event>
<event>
 8    1  0.1270595E-008  0.5052172E+03  0.7546771E-02  0.9388211E-01
        -11   -1    0    0    0    0  0.00000000000E+00  0.00000000000E+00  0.50000000000E+03  0.50000000000E+03  0.00000000000E+00 0. -1.
         11   -1    0    0    0    0 -0.00000000000E+00 -0.00000000000E+00 -0.50000000000E+03  0.50000000000E+03  0.00000000000E+00 0. -1.
         25    2    1    2    0    0  0.12535172661E+03  0.15601337695E+01  0.47318149847E+03  0.50521717158E+03  0.12501268167E+03 0.  0.
         23    2    1    2    0    0 -0.12535172661E+03 -0.15601337695E+01 -0.47318149847E+03  0.49478282842E+03  0.72068213702E+02 0.  0.
        -11    1    4    4    0    0 -0.22385790361E+02 -0.87013739286E+01 -0.24217250503E+02  0.34107370761E+02  0.00000000000E+00 0. -1.
         11    1    4    4    0    0 -0.10296593625E+03  0.71412401590E+01 -0.44896424797E+03  0.46067545766E+03  0.00000000000E+00 0. -1.
        -15    1    3    3    0    0  0.79312584290E+02 -0.55843168486E+02  0.33355259387E+03  0.34737506546E+03  0.17770000000E+01 0.  1.
         15    1    3    3    0    0  0.46039142316E+02  0.57403302256E+02  0.13962890460E+03  0.15784210612E+03  0.17770000000E+01 0.  1.
</event>
<event>
 8    1  0.1270595E-008  0.5019643E+03  0.7546771E-02  0.9395425E-01
        -11   -1    0    0    0    0  0.00000000000E+00  0.00000000000E+00  0.50000000000E+03  0.50000000000E+03  0.00000000000E+00 0.  1.
         11   -1    0    0    0    0 -0.00000000000E+00 -0.00000000000E+00 -0.50000000000E+03  0.50000000000E+03  0.00000000000E+00 0. -1.
         25    2    1    2    0    0 -0.14301124924E+03 -0.39616742313E+03  0.24278261658E+03  0.50196425886E+03  0.12499549475E+03 0.  0.
         23    2    1    2    0    0  0.14301124924E+03  0.39616742313E+03 -0.24278261658E+03  0.49803574114E+03  0.10814506914E+03 0.  0.
        -11    1    4    4    0    0  0.10965182195E+03  0.16042587626E+03 -0.13546319451E+03  0.23687604543E+03  0.00000000000E+00 0. -1.
         11    1    4    4    0    0  0.33359427286E+02  0.23574154686E+03 -0.10731942206E+03  0.26115969570E+03  0.00000000000E+00 0.  1.
        -15    1    3    3    0    0 -0.10579321031E+03 -0.14801336595E+03  0.60237735924E+02  0.19165568712E+03  0.17770000000E+01 0. -1.
         15    1    3    3    0    0 -0.37218038930E+02 -0.24815405717E+03  0.18254488065E+03  0.31030857174E+03  0.17770000000E+01 0. -1.
</event>
<event>
 8    1  0.1270595E-008  0.5002615E+03  0.7546771E-02  0.9399225E-01
        -11   -1    0    0    0    0  0.00000000000E+00  0.00000000000E+00  0.50000000000E+03  0.50000000000E+03  0.00000000000E+00 0.  1.
         11   -1    0    0    0    0 -0.00000000000E+00 -0.00000000000E+00 -0.50000000000E+03  0.50000000000E+03  0.00000000000E+00 0. -1.
         25    2    1    2    0    0  0.11307421409E+03  0.46504468307E+03  0.71154328568E+02  0.49973850336E+03  0.12499319230E+03 0.  0.
         23    2    1    2    0    0 -0.11307421409E+03 -0.46504468307E+03 -0.71154328568E+02  0.50026149664E+03  0.12706805817E+03 0.  0.
        -11    1    4    4    0    0 -0.77372377601E+02 -0.38904962977E+03 -0.10726124336E+02  0.39681374596E+03  0.00000000000E+00 0.  1.
         11    1    4    4    0    0 -0.35701836494E+02 -0.75995053298E+02 -0.60428204232E+02  0.10344775068E+03  0.00000000000E+00 0. -1.
        -15    1    3    3    0    0  0.69697509194E+02  0.41739416095E+03  0.89871099826E+02  0.43261484105E+03  0.17770000000E+01 0. -1.
         15    1    3    3    0    0  0.43376704900E+02  0.47650522115E+02 -0.18716771258E+02  0.67123662304E+02  0.17770000000E+01 0. -1.
</event>
<event>
 8    1  0.1270595E-008  0.5022461E+03  0.7546771E-02  0.9394798E-01
        -11   -1    0    0    0    0  0.00000000000E+00  0.00000000000E+00  0.50000000000E+03  0.50000000000E+03  0.00000000000E+00 0.  1.
         11   -1    0    0    0    0 -0.00000000000E+00 -0.00000000000E+00 -0.50000000000E+03  0.50000000000E+03  0.00000000000E+00 0. -1.
         25    2    1    2    0    0  0.25940222167E+03  0.32116011311E+03  0.25727946389E+03  0.50224614380E+03  0.12500054223E+03 0.  0.
         23    2    1    2    0    0 -0.25940222167E+03 -0.32116011311E+03 -0.25727946389E+03  0.49775385620E+03  0.10551231190E+03 0.  0.
        -11    1    4    4    0    0 -0.54408583885E+02 -0.19658195310E+02 -0.59441205312E+02  0.82945738481E+02  0.00000000000E+00 0. -1.
         11    1    4    4    0    0 -0.20499363779E+03 -0.30150191780E+03 -0.19783825858E+03  0.41480811772E+03  0.00000000000E+00 0.  1.
        -15    1    3    3    0    0  0.21654673104E+03  0.30018229312E+03  0.18044259204E+03  0.41178220284E+03  0.17770000000E+01 0.  1.
         15    1    3    3    0    0  0.42855490632E+02  0.20977819994E+02  0.76836871849E+02  0.90463940957E+02  0.17770000000E+01 0.  1.
</event>
<event>
 8    1  0.1270595E-008  0.5016737E+03  0.7546771E-02  0.9396072E-01
        -11   -1    0    0    0    0  0.00000000000E+00  0.00000000000E+00  0.50000000000E+03  0.50000000000E+03  0.00000000000E+00 0.  1.
         11   -1    0    0    0    0 -0.00000000000E+00 -0.00000000000E+00 -0.50000000000E+03  0.50000000000E+03  0.00000000000E+00 0. -1.
         25    2    1    2    0    0  0.11197257377E+03  0.45661289406E+03  0.12255069775E+03  0.50167373611E+03  0.12499868673E+03 0.  0.
         23    2    1    2    0    0 -0.11197257377E+03 -0.45661289406E+03 -0.12255069775E+03  0.49832626389E+03  0.11080252464E+03 0.  0.
        -11    1    4    4    0    0 -0.58707314934E+02 -0.17363044554E+03  0.50786099253E+01  0.18335722708E+03  0.00000000000E+00 0.  1.
         11    1    4    4    0    0 -0.53265258838E+02 -0.28298244852E+03 -0.12762930768E+03  0.31496903681E+03  0.00000000000E+00 0. -1.
        -15    1    3    3    0    0 -0.23747923033E+02  0.47101180657E+02 -0.14103666550E+01  0.52798029611E+02  0.17770000000E+01 0.  1.
         15    1    3    3    0    0  0.13572049681E+03  0.40951171340E+03  0.12396106441E+03  0.44887570650E+03  0.17770000000E+01 0.  1.
</event>
<event>
 8    1  0.1270595E-008  0.5021159E+03  0.7546771E-02  0.9395088E-01
        -11   -1    0    0    0    0  0.00000000000E+00  0.00000000000E+00  0.50000000000E+03  0.50000000000E+03  0.00000000000E+00 0.  1.
         11   -1    0    0    0    0 -0.00000000000E+00 -0.00000000000E+00 -0.50000000000E+03  0.50000000000E+03  0.00000000000E+00 0. -1.
         25    2    1    2    0    0  0.42883634651E+03 -0.21940608840E+03 -0.66760108236E+02  0.50211593633E+03  0.12499543092E+03 0.  0.
         23    2    1    2    0    0 -0.42883634651E+03  0.21940608840E+03  0.66760108236E+02  0.49788406367E+03  0.10673324265E+03 0.  0.
        -11    1    4    4    0    0 -0.27987362006E+03  0.93483621141E+02  0.12127328892E+02  0.29532270948E+03  0.00000000000E+00 0.  1.
         11    1    4    4    0    0 -0.14896272645E+03  0.12592246726E+03  0.54632779344E+02  0.20256135419E+03  0.00000000000E+00 0. -1.
        -15    1    3    3    0    0  0.25982817284E+03 -0.84703378196E+02  0.80370194937E+01  0.27341011885E+03  0.17770000000E+01 0.  1.
         15    1    3    3    0    0  0.16900817367E+03 -0.13470271021E+03 -0.74797127730E+02  0.22870581748E+03  0.17770000000E+01 0.  1.
</event>
<event>
 8    1  0.1270595E-008  0.5013882E+03  0.7546771E-02  0.9396709E-01
        -11   -1    0    0    0    0  0.00000000000E+00  0.00000000000E+00  0.50000000000E+03  0.50000000000E+03  0.00000000000E+00 0. -1.
         11   -1    0    0    0    0 -0.00000000000E+00 -0.00000000000E+00 -0.50000000000E+03  0.50000000000E+03  0.00000000000E+00 0.  1.
         25    2    1    2    0    0  0.43968244559E+03  0.18113819748E+03  0.98150190582E+02  0.50138816773E+03  0.12499974111E+03 0.  0.
         23    2    1    2    0    0 -0.43968244559E+03 -0.18113819748E+03 -0.98150190582E+02  0.49861183227E+03  0.11335166441E+03 0.  0.
        -11    1    4    4    0    0 -0.11757960176E+03 -0.15949389365E+02 -0.64515510986E+02  0.13506145612E+03  0.00000000000E+00 0.  1.
         11    1    4    4    0    0 -0.32210284383E+03 -0.16518880812E+03 -0.33634679596E+02  0.36355037615E+03  0.00000000000E+00 0. -1.
        -15    1    3    3    0    0  0.80279008272E+02 -0.12344317612E+01  0.52117033497E+02  0.95737066491E+02  0.17770000000E+01 0.  1.
         15    1    3    3    0    0  0.35940343732E+03  0.18237262924E+03  0.46033157085E+02  0.40565110124E+03  0.17770000000E+01 0.  1.
</event>
<event>
 7    1  0.1270595E-008  0.3573313E+03  0.7546771E-02  0.9791619E-01
        -11   -1    0    0    0    0  0.00000000000E+00  0.00000000000E+00  0.50000000000E+03  0.50000000000E+03  0.00000000000E+00 0. -1.
         11   -1    0    0    0    0 -0.00000000000E+00 -0.00000000000E+00 -0.50000000000E+03  0.50000000000E+03  0.00000000000E+00 0.  1.
         25    2    1    2    0    0 -0.38231409965E+03  0.10901822179E+03 -0.47095521572E+02  0.41939538345E+03  0.12500182414E+03 0.  0.
        -11    1    1    2    0    0  0.13294257860E+03 -0.13556213373E+02  0.22362337609E+03  0.26050895275E+03  0.00000000000E+00 0. -1.
         11    1    1    2    0    0  0.24937152104E+03 -0.95462008420E+02 -0.17652785452E+03  0.32009566380E+03  0.00000000000E+00 0.  1.
        -15    1    3    3    0    0 -0.14872594220E+03 -0.14511197289E+02 -0.41466938381E+02  0.15508915319E+03  0.17770000000E+01 0.  1.
         15    1    3    3    0    0 -0.23358815745E+03  0.12352941908E+03 -0.56285831902E+01  0.26430623027E+03  0.17770000000E+01 0.  1.
</event>
<event>
 8    1  0.1270595E-008  0.5014699E+03  0.7546771E-02  0.9396527E-01
        -11   -1    0    0    0    0  0.00000000000E+00  0.00000000000E+00  0.50000000000E+03  0.50000000000E+03  0.00000000000E+00 0.  1.
         11   -1    0    0    0    0 -0.00000000000E+00 -0.00000000000E+00 -0.50000000000E+03  0.50000000000E+03  0.00000000000E+00 0. -1.
         25    2    1    2    0    0  0.23537664243E+03 -0.40720356767E+03  0.12096389975E+03  0.50146991263E+03  0.12499159535E+03 0.  0.
         23    2    1    2    0    0 -0.23537664243E+03  0.40720356767E+03 -0.12096389975E+03  0.49853008737E+03  0.11261915308E+03 0.  0.
        -11    1    4    4    0    0 -0.76170994671E+02  0.22865383981E+03 -0.31181396654E+02  0.24301621013E+03  0.00000000000E+00 0.  1.
         11    1    4    4    0    0 -0.15920564776E+03  0.17854972786E+03 -0.89782503095E+02  0.25551387724E+03  0.00000000000E+00 0. -1.
        -15    1    3    3    0    0 -0.12588073244E+01 -0.30978078423E+01  0.22651330703E+02  0.22965659602E+02  0.17770000000E+01 0.  1.
         15    1    3    3    0    0  0.23663544976E+03 -0.40410575983E+03  0.98312569045E+02  0.47850425303E+03  0.17770000000E+01 0.  1.
</event>
<event>
 8    1  0.1270595E-008  0.5052789E+03  0.7546771E-02  0.9388075E-01
        -11   -1    0    0    0    0  0.00000000000E+00  0.00000000000E+00  0.50000000000E+03  0.50000000000E+03  0.00000000000E+00 0.  1.
         11   -1    0    0    0    0 -0.00000000000E+00 -0.00000000000E+00 -0.50000000000E+03  0.50000000000E+03  0.00000000000E+00 0. -1.
         25    2    1    2    0    0  0.20857795090E+03 -0.27556886816E+03  0.34675269732E+03  0.50527892486E+03  0.12500558427E+03 0.  0.
         23    2    1    2    0    0 -0.20857795090E+03  0.27556886816E+03 -0.34675269732E+03  0.49472107514E+03  0.71193724352E+02 0.  0.
        -11    1    4    4    0    0 -0.26992097828E+02  0.82652961999E+02 -0.10206846923E+03  0.13408228027E+03  0.00000000000E+00 0.  1.
         11    1    4    4    0    0 -0.18158585307E+03  0.19291590616E+03 -0.24468422809E+03  0.36063879487E+03  0.00000000000E+00 0. -1.
        -15    1    3    3    0    0  0.12693903508E+03 -0.16332994897E+03  0.28790750873E+03  0.35451950887E+03  0.17770000000E+01 0. -1.
         15    1    3    3    0    0  0.81638915819E+02 -0.11223891920E+03  0.58845188590E+02  0.15075941598E+03  0.17770000000E+01 0. -1.
</event>
<event>
 7    1  0.1270595E-008  0.5067353E+03  0.7546771E-02  0.9384864E-01
        -11   -1    0    0    0    0  0.00000000000E+00  0.00000000000E+00  0.50000000000E+03  0.50000000000E+03  0.00000000000E+00 0.  1.
         11   -1    0    0    0    0 -0.00000000000E+00 -0.00000000000E+00 -0.50000000000E+03  0.50000000000E+03  0.00000000000E+00 0. -1.
         25    2    1    2    0    0 -0.11798256103E+02  0.41412484897E+03  0.23674209161E+03  0.49326466779E+03  0.12499850064E+03 0.  0.
        -11    1    1    2    0    0  0.19188537498E+02 -0.20418599443E+03 -0.21887978366E+02  0.20625034276E+03  0.00000000000E+00 0.  1.
         11    1    1    2    0    0 -0.73902813951E+01 -0.20993885454E+03 -0.21485411325E+03  0.30048498945E+03  0.00000000000E+00 0. -1.
        -15    1    3    3    0    0  0.42958635099E+02  0.22564523791E+03  0.84097677467E+02  0.24461560621E+03  0.17770000000E+01 0.  1.
         15    1    3    3    0    0 -0.54756891202E+02  0.18847961107E+03  0.15264441415E+03  0.24864906157E+03  0.17770000000E+01 0.  1.
</event>
<event>
 8    1  0.1270595E-008  0.5016276E+03  0.7546771E-02  0.9396175E-01
        -11   -1    0    0    0    0  0.00000000000E+00  0.00000000000E+00  0.50000000000E+03  0.50000000000E+03  0.00000000000E+00 0. -1.
         11   -1    0    0    0    0 -0.00000000000E+00 -0.00000000000E+00 -0.50000000000E+03  0.50000000000E+03  0.00000000000E+00 0.  1.
         25    2    1    2    0    0 -0.46885670903E+03  0.22748077675E+02  0.12514045509E+03  0.50162764754E+03  0.12500429849E+03 0.  0.
         23    2    1    2    0    0  0.46885670903E+03 -0.22748077675E+02 -0.12514045509E+03  0.49837235246E+03  0.11122400619E+03 0.  0.
        -11    1    4    4    0    0  0.24770332118E+03  0.35126330808E+02 -0.95800700967E+02  0.26789656352E+03  0.00000000000E+00 0.  1.
         11    1    4    4    0    0  0.22115338785E+03 -0.57874408482E+02 -0.29339754120E+02  0.23047578894E+03  0.00000000000E+00 0. -1.
        -15    1    3    3    0    0 -0.27682684676E+03  0.67568702555E+01  0.13622086879E+03  0.30860661239E+03  0.17770000000E+01 0.  1.
         15    1    3    3    0    0 -0.19202986227E+03  0.15991207419E+02 -0.11080413706E+02  0.19302103516E+03  0.17770000000E+01 0.  1.
</event>
<event>
 8    1  0.1270595E-008  0.5020146E+03  0.7546771E-02  0.9395313E-01
        -11   -1    0    0    0    0  0.00000000000E+00  0.00000000000E+00  0.50000000000E+03  0.50000000000E+03  0.00000000000E+00 0. -1.
         11   -1    0    0    0    0 -0.00000000000E+00 -0.00000000000E+00 -0.50000000000E+03  0.50000000000E+03  0.00000000000E+00 0.  1.
         25    2    1    2    0    0  0.41655454044E+02 -0.36022489511E+03 -0.32387699072E+03  0.50201461191E+03  0.12500085419E+03 0.  0.
         23    2    1    2    0    0 -0.41655454044E+02  0.36022489511E+03  0.32387699072E+03  0.49798538809E+03  0.10768467730E+03 0.  0.
        -11    1    4    4    0    0 -0.22484559381E+02  0.25588799982E+03  0.15954981155E+03  0.30239108160E+03  0.00000000000E+00 0.  1.
         11    1    4    4    0    0 -0.19170894663E+02  0.10433689529E+03  0.16432717916E+03  0.19559430649E+03  0.00000000000E+00 0. -1.
        -15    1    3    3    0    0  0.68722686366E+02 -0.25400286734E+03 -0.17074178111E+03  0.31368165038E+03  0.17770000000E+01 0.  1.
         15    1    3    3    0    0 -0.27067232322E+02 -0.10622202777E+03 -0.15313520961E+03  0.18833296153E+03  0.17770000000E+01 0.  1.
</event>
<event>
 7    1  0.1270595E-008  0.5004127E+03  0.7546771E-02  0.9398887E-01
        -11   -1    0    0    0    0  0.00000000000E+00  0.00000000000E+00  0.50000000000E+03  0.50000000000E+03  0.00000000000E+00 0. -1.
         11   -1    0    0    0    0 -0.00000000000E+00 -0.00000000000E+00 -0.50000000000E+03  0.50000000000E+03  0.00000000000E+00 0.  1.
         25    2    1    2    0    0  0.89546687400E+02 -0.39069919899E+03 -0.27073644590E+03  0.49958730647E+03  0.12499912133E+03 0.  0.
        -11    1    1    2    0    0 -0.72076022248E+02  0.30142746250E+03  0.26748102911E+03  0.40938926349E+03  0.00000000000E+00 0. -1.
         11    1    1    2    0    0 -0.17470665152E+02  0.89271736488E+02  0.32554167976E+01  0.91023430033E+02  0.00000000000E+00 0.  1.
        -15    1    3    3    0    0  0.11093086313E+03 -0.20917616218E+03 -0.14333833587E+03  0.27678395813E+03  0.17770000000E+01 0.  1.
         15    1    3    3    0    0 -0.21384175727E+02 -0.18152303681E+03 -0.12739811003E+03  0.22280334834E+03  0.17770000000E+01 0.  1.
</event>
<event>
 8    1  0.1270595E-008  0.5018549E+03  0.7546771E-02  0.9395669E-01
        -11   -1    0    0    0    0  0.00000000000E+00  0.00000000000E+00  0.50000000000E+03  0.50000000000E+03  0.00000000000E+00 0.  1.
         11   -1    0    0    0    0 -0.00000000000E+00 -0.00000000000E+00 -0.50000000000E+03  0.50000000000E+03  0.00000000000E+00 0. -1.
         25    2    1    2    0    0  0.38449089495E+03  0.18725351826E+03 -0.23094678507E+03  0.50185485900E+03  0.12499901428E+03 0.  0.
         23    2    1    2    0    0 -0.38449089495E+03 -0.18725351826E+03  0.23094678507E+03  0.49814514100E+03  0.10915601484E+03 0.  0.
        -11    1    4    4    0    0 -0.19942817007E+03 -0.15164263917E+03  0.10603105162E+03  0.27204718146E+03  0.00000000000E+00 0.  1.
         11    1    4    4    0    0 -0.18506272487E+03 -0.35610879088E+02  0.12491573345E+03  0.22609795954E+03  0.00000000000E+00 0. -1.
        -15    1    3    3    0    0  0.33427659413E+03  0.12498667518E+03 -0.14725338465E+03  0.38606894122E+03  0.17770000000E+01 0. -1.
         15    1    3    3    0    0  0.50214300815E+02  0.62266843073E+02 -0.83693400417E+02  0.11578591778E+03  0.17770000000E+01 0. -1.
</event>
<event>
 8    1  0.1592207E-008  0.5023876E+03  0.7546771E-02  0.9394483E-01
        -11   -1    0    0    0    0  0.00000000000E+00  0.00000000000E+00  0.50000000000E+03  0.50000000000E+03  0.00000000000E+00 0.  1.
         11   -1    0    0    0    0 -0.00000000000E+00 -0.00000000000E+00 -0.50000000000E+03  0.50000000000E+03  0.00000000000E+00 0. -1.
         25    2    1    2    0    0 -0.44290693486E+03  0.11454634542E+03  0.16577456876E+03  0.50238759235E+03  0.12499866840E+03 0.  0.
         23    2    1    2    0    0  0.44290693486E+03 -0.11454634542E+03 -0.16577456876E+03  0.49761240765E+03  0.10416084871E+03 0.  0.
        -11    1    4    4    0    0  0.22717368352E+03 -0.37543177716E+02 -0.13385429961E+03  0.26633502624E+03  0.00000000000E+00 0. -1.
         11    1    4    4    0    0  0.21573325134E+03 -0.77003167709E+02 -0.31920269151E+02  0.23127738141E+03  0.00000000000E+00 0.  1.
        -15    1    3    3    0    0 -0.20932937308E+03  0.17394778073E+02  0.21496760177E+02  0.21115547155E+03  0.17770000000E+01 0. -1.
         15    1    3    3    0    0 -0.23357756178E+03  0.97151567351E+02  0.14427780859E+03  0.29123212080E+03  0.17770000000E+01 0. -1.
</event>
<event>
 7    1  0.1270595E-008  0.5024048E+03  0.7546771E-02  0.9394445E-01
        -11   -1    0    0    0    0  0.00000000000E+00  0.00000000000E+00  0.50000000000E+03  0.50000000000E+03  0.00000000000E+00 0.  1.
         11   -1    0    0    0    0 -0.00000000000E+00 -0.00000000000E+00 -0.50000000000E+03  0.50000000000E+03  0.00000000000E+00 0.  1.
         25    2    1    2    0    0  0.27970443475E+03 -0.11202302616E+03 -0.37575564670E+03  0.49759520199E+03  0.12499979921E+03 0.  0.
        -11    1    1    2    0    0  0.92343014220E+01  0.11195254095E+02  0.63708319776E+02  0.65340309501E+02  0.00000000000E+00 0.  1.
         11    1    1    2    0    0 -0.28893873617E+03  0.10082777207E+03  0.31204732692E+03  0.43706448851E+03  0.00000000000E+00 0.  1.
        -15    1    3    3    0    0  0.26124276411E+03 -0.58406448518E+02 -0.32847343391E+03  0.42374172504E+03  0.17770000000E+01 0.  1.
         15    1    3    3    0    0  0.18461670634E+02 -0.53616577646E+02 -0.47282212794E+02  0.73853476944E+02  0.17770000000E+01 0.  1.
</event>
<event>
 8    1  0.1270595E-008  0.5023307E+03  0.7546771E-02  0.9394610E-01
        -11   -1    0    0    0    0  0.00000000000E+00  0.00000000000E+00  0.50000000000E+03  0.50000000000E+03  0.00000000000E+00 0.  1.
         11   -1    0    0    0    0 -0.00000000000E+00 -0.00000000000E+00 -0.50000000000E+03  0.50000000000E+03  0.00000000000E+00 0. -1.
         25    2    1    2    0    0 -0.38269357600E+03 -0.29813880442E+03 -0.36999435801E+02  0.50233067012E+03  0.12500409626E+03 0.  0.
         23    2    1    2    0    0  0.38269357600E+03  0.29813880442E+03  0.36999435801E+02  0.49766932988E+03  0.10471238626E+03 0.  0.
        -11    1    4    4    0    0  0.16839718843E+03  0.18397831964E+03  0.50558450496E+02  0.25448338273E+03  0.00000000000E+00 0.  1.
         11    1    4    4    0    0  0.21429638757E+03  0.11416048478E+03 -0.13559014696E+02  0.24318594715E+03  0.00000000000E+00 0. -1.
        -15    1    3    3    0    0 -0.47576055062E+01  0.77163518616E+01  0.10304910672E+02  0.13839284994E+02  0.17770000000E+01 0.  1.
         15    1    3    3    0    0 -0.37793597049E+03 -0.30585515629E+03 -0.47304346473E+02  0.48849138513E+03  0.17770000000E+01 0.  1.
</event>
<event>
 8    1  0.1270595E-008  0.5021660E+03  0.7546771E-02  0.9394976E-01
        -11   -1    0    0    0    0  0.00000000000E+00  0.00000000000E+00  0.50000000000E+03  0.50000000000E+03  0.00000000000E+00 0. -1.
         11   -1    0    0    0    0 -0.00000000000E+00 -0.00000000000E+00 -0.50000000000E+03  0.50000000000E+03  0.00000000000E+00 0.  1.
         25    2    1    2    0    0  0.46029427863E+03  0.54604090114E+02  0.14728681842E+03  0.50216602451E+03  0.12499951876E+03 0.  0.
         23    2    1    2    0    0 -0.46029427863E+03 -0.54604090114E+02 -0.14728681842E+03  0.49783397549E+03  0.10626773109E+03 0.  0.
        -11    1    4    4    0    0 -0.44860446995E+03 -0.50785827772E+02 -0.16108868852E+03  0.47934824119E+03  0.00000000000E+00 0.  1.
         11    1    4    4    0    0 -0.11689808682E+02 -0.38182623413E+01  0.13801870099E+02  0.18485734298E+02  0.00000000000E+00 0. -1.
        -15    1    3    3    0    0  0.13649414088E+03  0.71591846007E+02  0.27957176374E+02  0.15665504891E+03  0.17770000000E+01 0.  1.
         15    1    3    3    0    0  0.32380013776E+03 -0.16987755893E+02  0.11932964205E+03  0.34551097560E+03  0.17770000000E+01 0.  1.
</event>
<event>
 8    1  0.1270595E-008  0.5013764E+03  0.7546771E-02  0.9396735E-01
        -11   -1    0    0    0    0  0.00000000000E+00  0.00000000000E+00  0.50000000000E+03  0.50000000000E+03  0.00000000000E+00 0.  1.
         11   -1    0    0    0    0 -0.00000000000E+00 -0.00000000000E+00 -0.50000000000E+03  0.50000000000E+03  0.00000000000E+00 0. -1.
         25    2    1    2    0    0 -0.40423819911E+03  0.26759481089E+03 -0.27178625318E+02  0.50137640514E+03  0.12499647005E+03 0.  0.
         23    2    1    2    0    0  0.40423819911E+03 -0.26759481089E+03  0.27178625318E+02  0.49862359486E+03  0.11345178375E+03 0.  0.
        -11    1    4    4    0    0  0.40467323205E+02 -0.12889267301E+02 -0.28387205122E+02  0.51083959063E+02  0.00000000000E+00 0. -1.
         11    1    4    4    0    0  0.36377087590E+03 -0.25470554359E+03  0.55565830441E+02  0.44753963579E+03  0.00000000000E+00 0.  1.
        -15    1    3    3    0    0 -0.11284689547E+03  0.13120668509E+02 -0.10800597866E+01  0.11362613264E+03  0.17770000000E+01 0. -1.
         15    1    3    3    0    0 -0.29139130363E+03  0.25447414238E+03 -0.26098565531E+02  0.38775027250E+03  0.17770000000E+01 0. -1.
</event>
<event>
 7    1  0.1270595E-008  0.5026079E+03  0.7546771E-02  0.9393993E-01
        -11   -1    0    0    0    0  0.00000000000E+00  0.00000000000E+00  0.50000000000E+03  0.50000000000E+03  0.00000000000E+00 0.  1.
         11   -1    0    0    0    0 -0.00000000000E+00 -0.00000000000E+00 -0.50000000000E+03  0.50000000000E+03  0.00000000000E+00 0.  1.
         25    2    1    2    0    0  0.35077511727E+02  0.13135891418E+03  0.46183078007E+03  0.49739214755E+03  0.12500273140E+03 0.  0.
        -11    1    1    2    0    0 -0.43699271316E+02  0.37601224347E+00 -0.24409566172E+03  0.24797673232E+03  0.00000000000E+00 0.  1.
         11    1    1    2    0    0  0.86217595891E+01 -0.13173492642E+03 -0.21773511835E+03  0.25463112013E+03  0.00000000000E+00 0.  1.
        -15    1    3    3    0    0 -0.35982878758E+02  0.58411179786E+02  0.28667547143E+03  0.29477553687E+03  0.17770000000E+01 0.  1.
         15    1    3    3    0    0  0.71060390485E+02  0.72947734389E+02  0.17515530865E+03  0.20261661068E+03  0.17770000000E+01 0.  1.
</event>
<event>
 7    1  0.1270595E-008  0.5026754E+03  0.7546771E-02  0.9393843E-01
        -11   -1    0    0    0    0  0.00000000000E+00  0.00000000000E+00  0.50000000000E+03  0.50000000000E+03  0.00000000000E+00 0. -1.
         11   -1    0    0    0    0 -0.00000000000E+00 -0.00000000000E+00 -0.50000000000E+03  0.50000000000E+03  0.00000000000E+00 0.  1.
         25    2    1    2    0    0  0.29200126979E+03  0.38264788636E+03 -0.49556297366E+01  0.49732462951E+03  0.12499232920E+03 0.  0.
        -11    1    1    2    0    0 -0.30171197011E+02 -0.14496930482E+03  0.15611094571E+02  0.14889629526E+03  0.00000000000E+00 0.  1.
         11    1    1    2    0    0 -0.26183007278E+03 -0.23767858154E+03 -0.10655464834E+02  0.35377907522E+03  0.00000000000E+00 0. -1.
        -15    1    3    3    0    0  0.14484434419E+03  0.17713130992E+03  0.59563324081E+02  0.23644519936E+03  0.17770000000E+01 0. -1.
         15    1    3    3    0    0  0.14715692560E+03  0.20551657644E+03 -0.64518953818E+02  0.26087943015E+03  0.17770000000E+01 0. -1.
</event>
<event>
 7    1  0.1270595E-008  0.5062263E+03  0.7546771E-02  0.9385985E-01
        -11   -1    0    0    0    0  0.00000000000E+00  0.00000000000E+00  0.50000000000E+03  0.50000000000E+03  0.00000000000E+00 0. -1.
         11   -1    0    0    0    0 -0.00000000000E+00 -0.00000000000E+00 -0.50000000000E+03  0.50000000000E+03  0.00000000000E+00 0.  1.
         25    2    1    2    0    0 -0.69334156501E+02  0.43976395718E+03 -0.17315328902E+03  0.49377369590E+03  0.12502334970E+03 0.  0.
        -11    1    1    2    0    0  0.58820211959E+02 -0.17807705752E+03  0.15569652985E+03  0.24374713364E+03  0.00000000000E+00 0. -1.
         11    1    1    2    0    0  0.10513944542E+02 -0.26168689966E+03  0.17456759168E+02  0.26247917046E+03  0.00000000000E+00 0.  1.
        -15    1    3    3    0    0 -0.92686421396E+02  0.38871385054E+03 -0.12204852986E+03  0.41783756615E+03  0.17770000000E+01 0.  1.
         15    1    3    3    0    0  0.23352264895E+02  0.51050106637E+02 -0.51104759162E+02  0.75936129750E+02  0.17770000000E+01 0.  1.
</event>
<event>
 8    1  0.1270595E-008  0.5013853E+03  0.7546771E-02  0.9396715E-01
        -11   -1    0    0    0    0  0.00000000000E+00  0.00000000000E+00  0.50000000000E+03  0.50000000000E+03  0.00000000000E+00 0. -1.
         11   -1    0    0    0    0 -0.00000000000E+00 -0.00000000000E+00 -0.50000000000E+03  0.50000000000E+03  0.00000000000E+00 0.  1.
         25    2    1    2    0    0 -0.17298601157E+02  0.44605978446E+03 -0.19103545912E+03  0.50138528724E+03  0.12499634676E+03 0.  0.
         23    2    1    2    0    0  0.17298601157E+02 -0.44605978446E+03  0.19103545912E+03  0.49861471276E+03  0.11337333121E+03 0.  0.
        -11    1    4    4    0    0  0.50257829338E+02 -0.26898918483E+03  0.72801404582E+02  0.28316263078E+03  0.00000000000E+00 0. -1.
         11    1    4    4    0    0 -0.32959228181E+02 -0.17707059963E+03  0.11823405454E+03  0.21545208198E+03  0.00000000000E+00 0.  1.
        -15    1    3    3    0    0  0.31622209928E+02  0.62523654253E+02  0.69079823497E-01  0.70088044650E+02  0.17770000000E+01 0. -1.
         15    1    3    3    0    0 -0.48920811084E+02  0.38353613021E+03 -0.19110453894E+03  0.43129724259E+03  0.17770000000E+01 0. -1.
</event>
<event>
 7    1  0.1270595E-008  0.5086883E+03  0.7546771E-02  0.9380576E-01
        -11   -1    0    0    0    0  0.00000000000E+00  0.00000000000E+00  0.50000000000E+03  0.50000000000E+03  0.00000000000E+00 0. -1.
         11   -1    0    0    0    0 -0.00000000000E+00 -0.00000000000E+00 -0.50000000000E+03  0.50000000000E+03  0.00000000000E+00 0.  1.
         25    2    1    2    0    0 -0.31510608805E+02  0.40063475988E+03 -0.25349734524E+03  0.49131168053E+03  0.12500053637E+03 0.  0.
        -11    1    1    2    0    0  0.19944436069E+02 -0.22726525117E+03  0.37050799936E+02  0.23112774973E+03  0.00000000000E+00 0.  1.
         11    1    1    2    0    0  0.11566172736E+02 -0.17336950871E+03  0.21644654530E+03  0.27756056974E+03  0.00000000000E+00 0. -1.
        -15    1    3    3    0    0 -0.28309319934E+02  0.33159455713E+03 -0.25935100983E+03  0.42192709316E+03  0.17770000000E+01 0. -1.
         15    1    3    3    0    0 -0.32012888705E+01  0.69040202749E+02  0.58536645961E+01  0.69384587368E+02  0.17770000000E+01 0. -1.
</event>
<event>
 7    1  0.1270595E-008  0.4064145E+03  0.7546771E-02  0.9637636E-01
        -11   -1    0    0    0    0  0.00000000000E+00  0.00000000000E+00  0.50000000000E+03  0.50000000000E+03  0.00000000000E+00 0.  1.
         11   -1    0    0    0    0 -0.00000000000E+00 -0.00000000000E+00 -0.50000000000E+03  0.50000000000E+03  0.00000000000E+00 0.  1.
         25    2    1    2    0    0 -0.21511554646E+03  0.24190352647E+03 -0.26626955606E+03  0.43739781984E+03  0.12500144748E+03 0.  0.
        -11    1    1    2    0    0 -0.25772132399E+02  0.35228142993E+02  0.18026475175E+03  0.18547400247E+03  0.00000000000E+00 0.  1.
         11    1    1    2    0    0  0.24088767886E+03 -0.27713166946E+03  0.86004804305E+02  0.37712817769E+03  0.00000000000E+00 0.  1.
        -15    1    3    3    0    0 -0.41141995962E+02  0.28605056332E+01 -0.73965554871E+02  0.84704824895E+02  0.17770000000E+01 0. -1.
         15    1    3    3    0    0 -0.17397355050E+03  0.23904302083E+03 -0.19230400119E+03  0.35269299495E+03  0.17770000000E+01 0. -1.
</event>
<event>
 8    1  0.1270595E-008  0.5047835E+03  0.7546771E-02  0.9389169E-01
        -11   -1    0    0    0    0  0.00000000000E+00  0.00000000000E+00  0.50000000000E+03  0.50000000000E+03  0.00000000000E+00 0. -1.
         11   -1    0    0    0    0 -0.00000000000E+00 -0.00000000000E+00 -0.50000000000E+03  0.50000000000E+03  0.00000000000E+00 0.  1.
         25    2    1    2    0    0  0.10021004871E+03  0.34983472771E+03 -0.32673298786E+03  0.50478347590E+03  0.12500208639E+03 0.  0.
         23    2    1    2    0    0 -0.10021004871E+03 -0.34983472771E+03  0.32673298786E+03  0.49521652410E+03  0.77836815273E+02 0.  0.
        -11    1    4    4    0    0 -0.63043539941E+01 -0.16158143858E+03  0.14627873017E+03  0.21804993252E+03  0.00000000000E+00 0. -1.
         11    1    4    4    0    0 -0.93905694720E+02 -0.18825328913E+03  0.18045425769E+03  0.27716659158E+03  0.00000000000E+00 0.  1.
        -15    1    3    3    0    0  0.12328014784E+03  0.32385904124E+03 -0.31431731568E+03  0.46784741755E+03  0.17770000000E+01 0.  1.
         15    1    3    3    0    0 -0.23070099125E+02  0.25975686471E+02 -0.12415672186E+02  0.36936058346E+02  0.17770000000E+01 0.  1.
</event>
<event>
 8    1  0.1270595E-008  0.5020021E+03  0.7546771E-02  0.9395341E-01
        -11   -1    0    0    0    0  0.00000000000E+00  0.00000000000E+00  0.50000000000E+03  0.50000000000E+03  0.00000000000E+00 0.  1.
         11   -1    0    0    0    0 -0.00000000000E+00 -0.00000000000E+00 -0.50000000000E+03  0.50000000000E+03  0.00000000000E+00 0. -1.
         25    2    1    2    0    0 -0.47359304568E+03  0.10311683100E+03  0.38189757761E+02  0.50200211002E+03  0.12499682841E+03 0.  0.
         23    2    1    2    0    0  0.47359304568E+03 -0.10311683100E+03 -0.38189757761E+02  0.49799788998E+03  0.10779604389E+03 0.  0.
        -11    1    4    4    0    0  0.18008442608E+03 -0.26265741306E+02  0.36322518187E+02  0.18557913409E+03  0.00000000000E+00 0.  1.
         11    1    4    4    0    0  0.29350861960E+03 -0.76851089690E+02 -0.74512275948E+02  0.31241875589E+03  0.00000000000E+00 0. -1.
        -15    1    3    3    0    0 -0.30169676286E+03  0.77213633217E+01  0.45789874530E+02  0.30525469122E+03  0.17770000000E+01 0. -1.
         15    1    3    3    0    0 -0.17189628282E+03  0.95395467674E+02 -0.76001167691E+01  0.19674741880E+03  0.17770000000E+01 0. -1.
</event>
<event>
 8    1  0.1270595E-008  0.5002194E+03  0.7546771E-02  0.9399319E-01
        -11   -1    0    0    0    0  0.00000000000E+00  0.00000000000E+00  0.50000000000E+03  0.50000000000E+03  0.00000000000E+00 0.  1.
         11   -1    0    0    0    0 -0.00000000000E+00 -0.00000000000E+00 -0.50000000000E+03  0.50000000000E+03  0.00000000000E+00 0. -1.
         25    2    1    2    0    0 -0.11096833739E+02  0.42431496407E+03  0.23329615949E+03  0.50021935895E+03  0.12500392229E+03 0.  0.
         23    2    1    2    0    0  0.11096833739E+02 -0.42431496407E+03 -0.23329615949E+03  0.49978064105E+03  0.12323661258E+03 0.  0.
        -11    1    4    4    0    0 -0.16606485601E+02 -0.24147748884E+03 -0.67170650690E+02  0.25119524138E+03  0.00000000000E+00 0.  1.
         11    1    4    4    0    0  0.27703319340E+02 -0.18283747523E+03 -0.16612550880E+03  0.24858539966E+03  0.00000000000E+00 0. -1.
        -15    1    3    3    0    0 -0.19473063943E+02  0.50150027334E+02  0.78557464786E+02  0.95229504165E+02  0.17770000000E+01 0.  1.
         15    1    3    3    0    0  0.83762302037E+01  0.37416493673E+03  0.15473869470E+03  0.40498985479E+03  0.17770000000E+01 0.  1.
</event>
<event>
 8    1  0.1270595E-008  0.5023915E+03  0.7546771E-02  0.9394474E-01
        -11   -1    0    0    0    0  0.00000000000E+00  0.00000000000E+00  0.50000000000E+03  0.50000000000E+03  0.00000000000E+00 0.  1.
         11   -1    0    0    0    0 -0.00000000000E+00 -0.00000000000E+00 -0.50000000000E+03  0.50000000000E+03  0.00000000000E+00 0. -1.
         25    2    1    2    0    0 -0.19851923121E+03 -0.42082070357E+03  0.14238016356E+03  0.50239151138E+03  0.12500068009E+03 0.  0.
         23    2    1    2    0    0  0.19851923121E+03  0.42082070357E+03 -0.14238016356E+03  0.49760848862E+03  0.10412563208E+03 0.  0.
        -11    1    4    4    0    0  0.80038761905E+02  0.23188884095E+03 -0.12113095647E+03  0.27358974136E+03  0.00000000000E+00 0. -1.
         11    1    4    4    0    0  0.11848046931E+03  0.18893186262E+03 -0.21249207093E+02  0.22401874726E+03  0.00000000000E+00 0.  1.
        -15    1    3    3    0    0 -0.56991506866E+02 -0.13989837808E+03 -0.12837540163E+02  0.15161645099E+03  0.17770000000E+01 0.  1.
         15    1    3    3    0    0 -0.14152772435E+03 -0.28092232549E+03  0.15521770372E+03  0.35077506040E+03  0.17770000000E+01 0.  1.
</event>
<event>
 8    1  0.1270595E-008  0.5024483E+03  0.7546771E-02  0.9394348E-01
        -11   -1    0    0    0    0  0.00000000000E+00  0.00000000000E+00  0.50000000000E+03  0.50000000000E+03  0.00000000000E+00 0. -1.
         11   -1    0    0    0    0 -0.00000000000E+00 -0.00000000000E+00 -0.50000000000E+03  0.50000000000E+03  0.00000000000E+00 0.  1.
         25    2    1    2    0    0 -0.27385711391E+03 -0.17891159519E+03 -0.36030971654E+03  0.50244829402E+03  0.12499647433E+03 0.  0.
         23    2    1    2    0    0  0.27385711391E+03  0.17891159519E+03  0.36030971654E+03  0.49755170598E+03  0.10357379284E+03 0.  0.
        -11    1    4    4    0    0  0.13133323079E+03  0.10247769521E+03  0.25490098060E+03  0.30450715170E+03  0.00000000000E+00 0. -1.
         11    1    4    4    0    0  0.14252388313E+03  0.76433899973E+02  0.10540873594E+03  0.19304455428E+03  0.00000000000E+00 0.  1.
        -15    1    3    3    0    0 -0.61074386452E+02 -0.76438117980E+01 -0.17292189347E+02  0.63958471532E+02  0.17770000000E+01 0. -1.
         15    1    3    3    0    0 -0.21278272746E+03 -0.17126778339E+03 -0.34301752719E+03  0.43848982248E+03  0.17770000000E+01 0. -1.
</event>
<event>
 8    1  0.1270595E-008  0.5000387E+03  0.7546771E-02  0.9399723E-01
        -11   -1    0    0    0    0  0.00000000000E+00  0.00000000000E+00  0.50000000000E+03  0.50000000000E+03  0.00000000000E+00 0. -1.
         11   -1    0    0    0    0 -0.00000000000E+00 -0.00000000000E+00 -0.50000000000E+03  0.50000000000E+03  0.00000000000E+00 0.  1.
         25    2    1    2    0    0  0.32952669335E+03 -0.16659384711E+03  0.31316574989E+03  0.50003869281E+03  0.12499822353E+03 0.  0.
         23    2    1    2    0    0 -0.32952669335E+03  0.16659384711E+03 -0.31316574989E+03  0.49996130719E+03  0.12468829238E+03 0.  0.
        -11    1    4    4    0    0 -0.20519282048E+03  0.15750588533E+03 -0.16721048873E+03  0.30801224818E+03  0.00000000000E+00 0. -1.
         11    1    4    4    0    0 -0.12433387287E+03  0.90879617744E+01 -0.14595526116E+03  0.19194905900E+03  0.00000000000E+00 0.  1.
        -15    1    3    3    0    0  0.26051863181E+03 -0.16795243417E+03  0.20469594351E+03  0.37145869849E+03  0.17770000000E+01 0. -1.
         15    1    3    3    0    0  0.69008061534E+02  0.13585870653E+01  0.10846980638E+03  0.12857999432E+03  0.17770000000E+01 0. -1.
</event>
<event>
 8    1  0.1270595E-008  0.5014466E+03  0.7546771E-02  0.9396579E-01
        -11   -1    0    0    0    0  0.00000000000E+00  0.00000000000E+00  0.50000000000E+03  0.50000000000E+03  0.00000000000E+00 0. -1.
         11   -1    0    0    0    0 -0.00000000000E+00 -0.00000000000E+00 -0.50000000000E+03  0.50000000000E+03  0.00000000000E+00 0.  1.
         25    2    1    2    0    0  0.75535499822E+02  0.47959888441E+03  0.10149440862E+02  0.50144663364E+03  0.12500005432E+03 0.  0.
         23    2    1    2    0    0 -0.75535499822E+02 -0.47959888441E+03 -0.10149440862E+02  0.49855336636E+03  0.11283504024E+03 0.  0.
        -11    1    4    4    0    0 -0.99806386703E+02 -0.28649183333E+03 -0.16453620202E+02  0.30382496113E+03  0.00000000000E+00 0. -1.
         11    1    4    4    0    0  0.24270886881E+02 -0.19310705108E+03  0.63041793393E+01  0.19472840523E+03  0.00000000000E+00 0.  1.
        -15    1    3    3    0    0  0.78818149686E+02  0.33190288319E+03 -0.44273125678E+02  0.34399868019E+03  0.17770000000E+01 0.  1.
         15    1    3    3    0    0 -0.32826498644E+01  0.14769600122E+03  0.54422566540E+02  0.15744795344E+03  0.17770000000E+01 0.  1.
</event>
<event>
 7    1  0.1270595E-008  0.5017919E+03  0.7546771E-02  0.9395809E-01
        -11   -1    0    0    0    0  0.00000000000E+00  0.00000000000E+00  0.50000000000E+03  0.50000000000E+03  0.00000000000E+00 0.  1.
         11   -1    0    0    0    0 -0.00000000000E+00 -0.00000000000E+00 -0.50000000000E+03  0.50000000000E+03  0.00000000000E+00 0.  1.
         25    2    1    2    0    0 -0.44322937255E+03  0.13830535388E+01 -0.19008768791E+03  0.49820814246E+03  0.12499533827E+03 0.  0.
        -11    1    1    2    0    0  0.38926687376E+03  0.17310356527E+02  0.20832008873E+03  0.44184341890E+03  0.00000000000E+00 0.  1.
         11    1    1    2    0    0  0.53962498791E+02 -0.18693410066E+02 -0.18232400822E+02  0.59948438641E+02  0.00000000000E+00 0.  1.
        -15    1    3    3    0    0 -0.22949258502E+03  0.61962538169E+02 -0.11136230963E+03  0.26250890356E+03  0.17770000000E+01 0. -1.
         15    1    3    3    0    0 -0.21373678753E+03 -0.60579484630E+02 -0.78725378286E+02  0.23569923890E+03  0.17770000000E+01 0. -1.
</event>
<event>
 8    1  0.1270595E-008  0.5006194E+03  0.7546771E-02  0.9398425E-01
        -11   -1    0    0    0    0  0.00000000000E+00  0.00000000000E+00  0.50000000000E+03  0.50000000000E+03  0.00000000000E+00 0. -1.
         11   -1    0    0    0    0 -0.00000000000E+00 -0.00000000000E+00 -0.50000000000E+03  0.50000000000E+03  0.00000000000E+00 0.  1.
         25    2    1    2    0    0  0.32632809481E+03 -0.35137284941E+03 -0.71016712788E+02  0.50061936920E+03  0.12499389811E+03 0.  0.
         23    2    1    2    0    0 -0.32632809481E+03  0.35137284941E+03  0.71016712788E+02  0.49938063080E+03  0.11993638378E+03 0.  0.
        -11    1    4    4    0    0 -0.67262024917E+02  0.15516646293E+03  0.17456637858E+02  0.17001630927E+03  0.00000000000E+00 0.  1.
         11    1    4    4    0    0 -0.25906606989E+03  0.19620638648E+03  0.53560074930E+02  0.32936432152E+03  0.00000000000E+00 0. -1.
        -15    1    3    3    0    0  0.24120099253E+03 -0.17689050752E+03 -0.19504588190E+02  0.29975282673E+03  0.17770000000E+01 0.  1.
         15    1    3    3    0    0  0.85127102285E+02 -0.17448234189E+03 -0.51512124598E+02  0.20086654247E+03  0.17770000000E+01 0.  1.
</event>
<event>
 8    1  0.1270595E-008  0.5002657E+03  0.7546771E-02  0.9399215E-01
        -11   -1    0    0    0    0  0.00000000000E+00  0.00000000000E+00  0.50000000000E+03  0.50000000000E+03  0.00000000000E+00 0.  1.
         11   -1    0    0    0    0 -0.00000000000E+00 -0.00000000000E+00 -0.50000000000E+03  0.50000000000E+03  0.00000000000E+00 0. -1.
         25    2    1    2    0    0  0.22045006260E+02 -0.47729310275E+03  0.76260212807E+02  0.49973432615E+03  0.12499635371E+03 0.  0.
         23    2    1    2    0    0 -0.22045006260E+02  0.47729310275E+03 -0.76260212807E+02  0.50026567385E+03  0.12710403665E+03 0.  0.
        -11    1    4    4    0    0  0.41819935165E+00  0.15905919281E+03  0.34131415194E+02  0.16268053114E+03  0.00000000000E+00 0.  1.
         11    1    4    4    0    0 -0.22463205612E+02  0.31823390995E+03 -0.11039162800E+03  0.33758514271E+03  0.00000000000E+00 0. -1.
        -15    1    3    3    0    0  0.39953800008E+02 -0.38339772720E+03  0.14172890626E+02  0.38573845014E+03  0.17770000000E+01 0.  1.
         15    1    3    3    0    0 -0.17908793748E+02 -0.93895375553E+02  0.62087322181E+02  0.11399587602E+03  0.17770000000E+01 0.  1.
</event>
<event>
 8    1  0.1270595E-008  0.5020074E+03  0.7546771E-02  0.9395329E-01
        -11   -1    0    0    0    0  0.00000000000E+00  0.00000000000E+00  0.50000000000E+03  0.50000000000E+03  0.00000000000E+00 0.  1.
         11   -1    0    0    0    0 -0.00000000000E+00 -0.00000000000E+00 -0.50000000000E+03  0.50000000000E+03  0.00000000000E+00 0. -1.
         25    2    1    2    0    0  0.22410020624E+03  0.48941859805E+02 -0.42868477347E+03  0.50200742874E+03  0.12499846170E+03 0.  0.
         23    2    1    2    0    0 -0.22410020624E+03 -0.48941859805E+02  0.42868477347E+03  0.49799257126E+03  0.10774858676E+03 0.  0.
        -11    1    4    4    0    0 -0.57140912503E+02 -0.61258835862E+02  0.11302125575E+03  0.14068238378E+03  0.00000000000E+00 0. -1.
         11    1    4    4    0    0 -0.16695929374E+03  0.12316976057E+02  0.31566351772E+03  0.35731018749E+03  0.00000000000E+00 0.  1.
        -15    1    3    3    0    0  0.21828767102E+03  0.43956428302E+02 -0.43706276568E+03  0.49051880064E+03  0.17770000000E+01 0. -1.
         15    1    3    3    0    0  0.58125352251E+01  0.49854315031E+01  0.83779922148E+01  0.11488628098E+02  0.17770000000E+01 0. -1.
</event>
<event>
 8    1  0.1270595E-008  0.5001012E+03  0.7546771E-02  0.9399583E-01
        -11   -1    0    0    0    0  0.00000000000E+00  0.00000000000E+00  0.50000000000E+03  0.50000000000E+03  0.00000000000E+00 0.  1.
         11   -1    0    0    0    0 -0.00000000000E+00 -0.00000000000E+00 -0.50000000000E+03  0.50000000000E+03  0.00000000000E+00 0. -1.
         25    2    1    2    0    0  0.28961651825E+03 -0.26355641961E+03 -0.28448725238E+03  0.49989879738E+03  0.12500438750E+03 0.  0.
         23    2    1    2    0    0 -0.28961651825E+03  0.26355641961E+03  0.28448725238E+03  0.50010120262E+03  0.12581137525E+03 0.  0.
        -11    1    4    4    0    0 -0.66514644701E+02  0.13256575693E+03  0.69842847339E+02  0.16393871170E+03  0.00000000000E+00 0. -1.
         11    1    4    4    0    0 -0.22310187355E+03  0.13099066268E+03  0.21464440504E+03  0.33616249092E+03  0.00000000000E+00 0.  1.
        -15    1    3    3    0    0  0.26097164026E+03 -0.24277948460E+03 -0.20101155881E+03  0.40921495533E+03  0.17770000000E+01 0. -1.
         15    1    3    3    0    0  0.28644877992E+02 -0.20776935008E+02 -0.83475693561E+02  0.90683842045E+02  0.17770000000E+01 0. -1.
</event>
<event>
 8    1  0.1270595E-008  0.5015240E+03  0.7546771E-02  0.9396406E-01
        -11   -1    0    0    0    0  0.00000000000E+00  0.00000000000E+00  0.50000000000E+03  0.50000000000E+03  0.00000000000E+00 0. -1.
         11   -1    0    0    0    0 -0.00000000000E+00 -0.00000000000E+00 -0.50000000000E+03  0.50000000000E+03  0.00000000000E+00 0.  1.
         25    2    1    2    0    0  0.35013954725E+03 -0.31449948891E+03 -0.11998070830E+03  0.50152398376E+03  0.12499321924E+03 0.  0.
         23    2    1    2    0    0 -0.35013954725E+03  0.31449948891E+03  0.11998070830E+03  0.49847601624E+03  0.11213981152E+03 0.  0.
        -11    1    4    4    0    0 -0.30313533228E+03  0.21658778726E+03  0.11437495300E+03  0.38972160466E+03  0.00000000000E+00 0.  1.
         11    1    4    4    0    0 -0.47004214971E+02  0.97911701648E+02  0.56057552985E+01  0.10875441158E+03  0.00000000000E+00 0. -1.
        -15    1    3    3    0    0  0.28424089541E+03 -0.17941432884E+03 -0.72196816324E+02  0.34379925252E+03  0.17770000000E+01 0. -1.
         15    1    3    3    0    0  0.65898651839E+02 -0.13508516007E+03 -0.47783891979E+02  0.15772473125E+03  0.17770000000E+01 0. -1.
</event>
<event>
 8    1  0.1270595E-008  0.5024101E+03  0.7546771E-02  0.9394433E-01
        -11   -1    0    0    0    0  0.00000000000E+00  0.00000000000E+00  0.50000000000E+03  0.50000000000E+03  0.00000000000E+00 0. -1.
         11   -1    0    0    0    0 -0.00000000000E+00 -0.00000000000E+00 -0.50000000000E+03  0.50000000000E+03  0.00000000000E+00 0.  1.
         25    2    1    2    0    0  0.28433445959E+02 -0.48439513038E+03  0.36660952324E+02  0.50241006629E+03  0.12499898437E+03 0.  0.
         23    2    1    2    0    0 -0.28433445959E+02  0.48439513038E+03 -0.36660952324E+02  0.49758993371E+03  0.10394524289E+03 0.  0.
        -11    1    4    4    0    0  0.31802619856E+02  0.11969630840E+03 -0.32017990984E+02  0.12792093113E+03  0.00000000000E+00 0.  1.
         11    1    4    4    0    0 -0.60236065815E+02  0.36469882198E+03 -0.46429613395E+01  0.36966900258E+03  0.00000000000E+00 0. -1.
        -15    1    3    3    0    0 -0.11923412823E+02 -0.39703917729E+03 -0.56834733357E+01  0.39726280429E+03  0.17770000000E+01 0.  1.
         15    1    3    3    0    0  0.40356858782E+02 -0.87355953094E+02  0.42344425659E+02  0.10514726200E+03  0.17770000000E+01 0.  1.
</event>
<event>
 8    1  0.1270595E-008  0.5054501E+03  0.7546771E-02  0.9387697E-01
        -11   -1    0    0    0    0  0.00000000000E+00  0.00000000000E+00  0.50000000000E+03  0.50000000000E+03  0.00000000000E+00 0. -1.
         11   -1    0    0    0    0 -0.00000000000E+00 -0.00000000000E+00 -0.50000000000E+03  0.50000000000E+03  0.00000000000E+00 0.  1.
         25    2    1    2    0    0  0.13364676178E+03  0.47069638447E+03  0.20929369574E+02  0.50545007673E+03  0.12500079307E+03 0.  0.
         23    2    1    2    0    0 -0.13364676178E+03 -0.47069638447E+03 -0.20929369574E+02  0.49454992327E+03  0.68738961415E+02 0.  0.
        -11    1    4    4    0    0 -0.36270231403E+02 -0.54258165981E+02 -0.14370473817E+02  0.66828053835E+02  0.00000000000E+00 0.  1.
         11    1    4    4    0    0 -0.97376530376E+02 -0.41643821849E+03 -0.65588957571E+01  0.42772186944E+03  0.00000000000E+00 0. -1.
        -15    1    3    3    0    0  0.11443768771E+03  0.42130226684E+03  0.58483385993E+02  0.44047139360E+03  0.17770000000E+01 0. -1.
         15    1    3    3    0    0  0.19209074067E+02  0.49394117625E+02 -0.37554016418E+02  0.64978683124E+02  0.17770000000E+01 0. -1.
</event>
<event>
 7    1  0.1270595E-008  0.5067735E+03  0.7546771E-02  0.9384780E-01
        -11   -1    0    0    0    0  0.00000000000E+00  0.00000000000E+00  0.50000000000E+03  0.50000000000E+03  0.00000000000E+00 0.  1.
         11   -1    0    0    0    0 -0.00000000000E+00 -0.00000000000E+00 -0.50000000000E+03  0.50000000000E+03  0.00000000000E+00 0. -1.
         25    2    1    2    0    0 -0.13841720996E+03  0.44486966303E+03  0.10285543018E+03  0.49322645190E+03  0.12499900892E+03 0.  0.
        -11    1    1    2    0    0  0.30934239161E+02 -0.96605964489E+02  0.48115460130E+02  0.11227082003E+03  0.00000000000E+00 0.  1.
         11    1    1    2    0    0  0.10748297080E+03 -0.34826369854E+03 -0.15097089031E+03  0.39450272807E+03  0.00000000000E+00 0. -1.
        -15    1    3    3    0    0 -0.45336757429E+01  0.16516659106E+03  0.76264113040E+02  0.18198881747E+03  0.17770000000E+01 0.  1.
         15    1    3    3    0    0 -0.13388353421E+03  0.27970307198E+03  0.26591317139E+02  0.31123763442E+03  0.17770000000E+01 0.  1.
</event>
<event>
 8    1  0.1270595E-008  0.5024528E+03  0.7546771E-02  0.9394338E-01
        -11   -1    0    0    0    0  0.00000000000E+00  0.00000000000E+00  0.50000000000E+03  0.50000000000E+03  0.00000000000E+00 0.  1.
         11   -1    0    0    0    0 -0.00000000000E+00 -0.00000000000E+00 -0.50000000000E+03  0.50000000000E+03  0.00000000000E+00 0. -1.
         25    2    1    2    0    0 -0.36507993940E+03  0.15762528677E+03  0.28054265682E+03  0.50245284456E+03  0.12500234209E+03 0.  0.
         23    2    1    2    0    0  0.36507993940E+03 -0.15762528677E+03 -0.28054265682E+03  0.49754715544E+03  0.10353693261E+03 0.  0.
        -11    1    4    4    0    0  0.31040748073E+03 -0.90912800618E+02 -0.20541058141E+03  0.38315982091E+03  0.00000000000E+00 0.  1.
         11    1    4    4    0    0  0.54672458669E+02 -0.66712486147E+02 -0.75132075415E+02  0.11438733453E+03  0.00000000000E+00 0. -1.
        -15    1    3    3    0    0 -0.34279102905E+01  0.16990418753E+02 -0.77224482691E+01  0.19058300938E+02  0.17770000000E+01 0.  1.
         15    1    3    3    0    0 -0.36165202911E+03  0.14063486801E+03  0.28826510509E+03  0.48339454362E+03  0.17770000000E+01 0.  1.
</event>
<event>
 8    1  0.1270595E-008  0.5021972E+03  0.7546771E-02  0.9394907E-01
        -11   -1    0    0    0    0  0.00000000000E+00  0.00000000000E+00  0.50000000000E+03  0.50000000000E+03  0.00000000000E+00 0.  1.
         11   -1    0    0    0    0 -0.00000000000E+00 -0.00000000000E+00 -0.50000000000E+03  0.50000000000E+03  0.00000000000E+00 0. -1.
         25    2    1    2    0    0 -0.35687950874E+03 -0.25000206061E+03  0.21613205134E+03  0.50219722149E+03  0.12499988633E+03 0.  0.
         23    2    1    2    0    0  0.35687950874E+03  0.25000206061E+03 -0.21613205134E+03  0.49780277851E+03  0.10597418842E+03 0.  0.
        -11    1    4    4    0    0  0.28063494510E+03  0.15977330891E+03 -0.11660902897E+03  0.34333824181E+03  0.00000000000E+00 0. -1.
         11    1    4    4    0    0  0.76244563640E+02  0.90228751700E+02 -0.99523022364E+02  0.15446453670E+03  0.00000000000E+00 0.  1.
        -15    1    3    3    0    0 -0.36400646028E+03 -0.23878904742E+03  0.22062874325E+03  0.48805851327E+03  0.17770000000E+01 0. -1.
         15    1    3    3    0    0  0.71269515405E+01 -0.11213013188E+02 -0.44966919073E+01  0.14138708220E+02  0.17770000000E+01 0. -1.
</event>
<event>
 8    1  0.1456714E-008  0.5023475E+03  0.7546771E-02  0.9394572E-01
        -11   -1    0    0    0    0  0.00000000000E+00  0.00000000000E+00  0.50000000000E+03  0.50000000000E+03  0.00000000000E+00 0. -1.
         11   -1    0    0    0    0 -0.00000000000E+00 -0.00000000000E+00 -0.50000000000E+03  0.50000000000E+03  0.00000000000E+00 0.  1.
         25    2    1    2    0    0 -0.20461155262E+02 -0.47254209672E+03 -0.11407086884E+03  0.50234751726E+03  0.12500469165E+03 0.  0.
         23    2    1    2    0    0  0.20461155262E+02  0.47254209672E+03  0.11407086884E+03  0.49765248274E+03  0.10455208471E+03 0.  0.
        -11    1    4    4    0    0 -0.38532976319E+01  0.17989461565E+03 -0.68704379650E+01  0.18006699743E+03  0.00000000000E+00 0. -1.
         11    1    4    4    0    0  0.24314452894E+02  0.29264748106E+03  0.12094130680E+03  0.31758548532E+03  0.00000000000E+00 0.  1.
        -15    1    3    3    0    0 -0.43418865650E+02 -0.29778182947E+03 -0.17707510445E+02  0.30145634761E+03  0.17770000000E+01 0. -1.
         15    1    3    3    0    0  0.22957710388E+02 -0.17476026724E+03 -0.96363358394E+02  0.20089116965E+03  0.17770000000E+01 0. -1.
</event>
<event>
 8    1  0.1270595E-008  0.5048600E+03  0.7546771E-02  0.9389000E-01
        -11   -1    0    0    0    0  0.00000000000E+00  0.00000000000E+00  0.50000000000E+03  0.50000000000E+03  0.00000000000E+00 0.  1.
         11   -1    0    0    0    0 -0.00000000000E+00 -0.00000000000E+00 -0.50000000000E+03  0.50000000000E+03  0.00000000000E+00 0. -1.
         25    2    1    2    0    0  0.45067331340E+03 -0.17728960832E+03  0.68710779736E+02  0.50485995851E+03  0.12499746330E+03 0.  0.
         23    2    1    2    0    0 -0.45067331340E+03  0.17728960832E+03 -0.68710779736E+02  0.49514004149E+03  0.76840411305E+02 0.  0.
        -11    1    4    4    0    0 -0.40870244543E+03  0.18041413347E+03 -0.51653048744E+02  0.44972767972E+03  0.00000000000E+00 0.  1.
         11    1    4    4    0    0 -0.41970867964E+02 -0.31245251570E+01 -0.17057730992E+02  0.45412361772E+02  0.00000000000E+00 0. -1.
        -15    1    3    3    0    0  0.37795119651E+03 -0.98398346269E+02  0.33800730462E+02  0.39201401582E+03  0.17770000000E+01 0. -1.
         15    1    3    3    0    0  0.72722116884E+02 -0.78891262047E+02  0.34910049274E+02  0.11284594269E+03  0.17770000000E+01 0. -1.
</event>
<event>
 8    1  0.1270595E-008  0.5000879E+03  0.7546771E-02  0.9399613E-01
        -11   -1    0    0    0    0  0.00000000000E+00  0.00000000000E+00  0.50000000000E+03  0.50000000000E+03  0.00000000000E+00 0.  1.
         11   -1    0    0    0    0 -0.00000000000E+00 -0.00000000000E+00 -0.50000000000E+03  0.50000000000E+03  0.00000000000E+00 0. -1.
         25    2    1    2    0    0 -0.29561697523E+03  0.64052506605E+02  0.37811361906E+03  0.50008787149E+03  0.12500340252E+03 0.  0.
         23    2    1    2    0    0  0.29561697523E+03 -0.64052506605E+02 -0.37811361906E+03  0.49991212851E+03  0.12429846203E+03 0.  0.
        -11    1    4    4    0    0  0.23515478670E+03 -0.46612353851E+00 -0.30851670306E+03  0.38791822211E+03  0.00000000000E+00 0. -1.
         11    1    4    4    0    0  0.60462188533E+02 -0.63586383066E+02 -0.69596916007E+02  0.11199390640E+03  0.00000000000E+00 0.  1.
        -15    1    3    3    0    0 -0.18285395138E+03  0.15517726541E+02  0.30847036182E+03  0.35893382290E+03  0.17770000000E+01 0. -1.
         15    1    3    3    0    0 -0.11276302385E+03  0.48534780064E+02  0.69643257242E+02  0.14115404859E+03  0.17770000000E+01 0. -1.
</event>
<event>
 8    1  0.1270595E-008  0.5020332E+03  0.7546771E-02  0.9395272E-01
        -11   -1    0    0    0    0  0.00000000000E+00  0.00000000000E+00  0.50000000000E+03  0.50000000000E+03  0.00000000000E+00 0.  1.
         11   -1    0    0    0    0 -0.00000000000E+00 -0.00000000000E+00 -0.50000000000E+03  0.50000000000E+03  0.00000000000E+00 0. -1.
         25    2    1    2    0    0  0.11100252040E+03 -0.47167279230E+03  0.40179143705E+02  0.50203317416E+03  0.12500464726E+03 0.  0.
         23    2    1    2    0    0 -0.11100252040E+03  0.47167279230E+03 -0.40179143705E+02  0.49796682584E+03  0.10751657321E+03 0.  0.
        -11    1    4    4    0    0 -0.11715104486E+03  0.33891534244E+03  0.17951375874E+01  0.35859615053E+03  0.00000000000E+00 0.  1.
         11    1    4    4    0    0  0.61485244642E+01  0.13275744986E+03 -0.41974281292E+02  0.13937067531E+03  0.00000000000E+00 0. -1.
        -15    1    3    3    0    0  0.13159630619E+03 -0.44169574724E+03  0.51855888981E+02  0.46379404037E+03  0.17770000000E+01 0.  1.
         15    1    3    3    0    0 -0.20593785789E+02 -0.29977045065E+02 -0.11676745276E+02  0.38239133793E+02  0.17770000000E+01 0.  1.
</event>
<event>
 8    1  0.1319132E-008  0.5048026E+03  0.7546771E-02  0.9389127E-01
        -11   -1    0    0    0    0  0.00000000000E+00  0.00000000000E+00  0.50000000000E+03  0.50000000000E+03  0.00000000000E+00 0. -1.
         11   -1    0    0    0    0 -0.00000000000E+00 -0.00000000000E+00 -0.50000000000E+03  0.50000000000E+03  0.00000000000E+00 0.  1.
         25    2    1    2    0    0 -0.20145086730E+03  0.13906089060E+03 -0.42341474767E+03  0.50480263746E+03  0.12500108406E+03 0.  0.
         23    2    1    2    0    0  0.20145086730E+03 -0.13906089060E+03  0.42341474767E+03  0.49519736254E+03  0.77588633770E+02 0.  0.
        -11    1    4    4    0    0  0.87283302872E+02 -0.18099040759E+02  0.12450353721E+03  0.15312439719E+03  0.00000000000E+00 0.  1.
         11    1    4    4    0    0  0.11416756442E+03 -0.12096184984E+03  0.29891121046E+03  0.34207296535E+03  0.00000000000E+00 0. -1.
        -15    1    3    3    0    0 -0.16829964878E+02 -0.21170469897E+02 -0.70118653971E+02  0.75174595956E+02  0.17770000000E+01 0.  1.
         15    1    3    3    0    0 -0.18462090242E+03  0.16023136049E+03 -0.35329609370E+03  0.42962804151E+03  0.17770000000E+01 0.  1.
</event>
<event>
 7    1  0.1270595E-008  0.3434555E+03  0.7546771E-02  0.9840016E-01
        -11   -1    0    0    0    0  0.00000000000E+00  0.00000000000E+00  0.50000000000E+03  0.50000000000E+03  0.00000000000E+00 0. -1.
         11   -1    0    0    0    0 -0.00000000000E+00 -0.00000000000E+00 -0.50000000000E+03  0.50000000000E+03  0.00000000000E+00 0. -1.
         25    2    1    2    0    0  0.89545504116E+02 -0.21858815921E+02  0.39547806388E+03  0.42488114607E+03  0.12499953652E+03 0.  0.
        -11    1    1    2    0    0  0.29997627853E+02 -0.17473710535E+03 -0.23595485129E+03  0.29513997613E+03  0.00000000000E+00 0. -1.
         11    1    1    2    0    0 -0.11954313197E+03  0.19659592127E+03 -0.15952321259E+03  0.27997887780E+03  0.00000000000E+00 0. -1.
        -15    1    3    3    0    0 -0.27100252060E+02 -0.10138869478E+02  0.33060871552E+02  0.43970436577E+02  0.17770000000E+01 0.  1.
         15    1    3    3    0    0  0.11664575618E+03 -0.11719946443E+02  0.36241719233E+03  0.38091070949E+03  0.17770000000E+01 0.  1.
</event>
<event>
 8    1  0.1270595E-008  0.5021571E+03  0.7546771E-02  0.9394996E-01
        -11   -1    0    0    0    0  0.00000000000E+00  0.00000000000E+00  0.50000000000E+03  0.50000000000E+03  0.00000000000E+00 0. -1.
         11   -1    0    0    0    0 -0.00000000000E+00 -0.00000000000E+00 -0.50000000000E+03  0.50000000000E+03  0.00000000000E+00 0.  1.
         25    2    1    2    0    0 -0.37887209065E+03 -0.65137300614E+02  0.29790897910E+03  0.50215708600E+03  0.12500020075E+03 0.  0.
         23    2    1    2    0    0  0.37887209065E+03  0.65137300614E+02 -0.29790897910E+03  0.49784291400E+03  0.10635261251E+03 0.  0.
        -11    1    4    4    0    0  0.68164105196E+02  0.41723119718E+01 -0.83984301291E+01  0.68806155633E+02  0.00000000000E+00 0. -1.
         11    1    4    4    0    0  0.31070798545E+03  0.60964988642E+02 -0.28951054897E+03  0.42903675837E+03  0.00000000000E+00 0.  1.
        -15    1    3    3    0    0 -0.17056677468E+03 -0.88319608757E+02  0.11436218247E+03  0.22355143575E+03  0.17770000000E+01 0.  1.
         15    1    3    3    0    0 -0.20830531596E+03  0.23182308143E+02  0.18354679663E+03  0.27860565025E+03  0.17770000000E+01 0.  1.
</event>
<event>
 8    1  0.1270595E-008  0.5057664E+03  0.7546771E-02  0.9386999E-01
        -11   -1    0    0    0    0  0.00000000000E+00  0.00000000000E+00  0.50000000000E+03  0.50000000000E+03  0.00000000000E+00 0.  1.
         11   -1    0    0    0    0 -0.00000000000E+00 -0.00000000000E+00 -0.50000000000E+03  0.50000000000E+03  0.00000000000E+00 0. -1.
         25    2    1    2    0    0 -0.23479065466E+03 -0.21669073785E+03  0.37160907333E+03  0.50576638672E+03  0.12499922865E+03 0.  0.
         23    2    1    2    0    0  0.23479065466E+03  0.21669073785E+03 -0.37160907333E+03  0.49423361328E+03  0.63969006029E+02 0.  0.
        -11    1    4    4    0    0  0.17394111452E+03  0.12935763648E+03 -0.21871221302E+03  0.30793496320E+03  0.00000000000E+00 0.  1.
         11    1    4    4    0    0  0.60849540133E+02  0.87333101378E+02 -0.15289686031E+03  0.18629865008E+03  0.00000000000E+00 0. -1.
        -15    1    3    3    0    0 -0.20340116831E+03 -0.11683580884E+03  0.22053309617E+03  0.32196373357E+03  0.17770000000E+01 0.  1.
         15    1    3    3    0    0 -0.31389486351E+02 -0.99854929010E+02  0.15107597716E+03  0.18380265315E+03  0.17770000000E+01 0.  1.
</event>
<event>
 8    1  0.1270595E-008  0.5019428E+03  0.7546771E-02  0.9395473E-01
        -11   -1    0    0    0    0  0.00000000000E+00  0.00000000000E+00  0.50000000000E+03  0.50000000000E+03  0.00000000000E+00 0. -1.
         11   -1    0    0    0    0 -0.00000000000E+00 -0.00000000000E+00 -0.50000000000E+03  0.50000000000E+03  0.00000000000E+00 0.  1.
         25    2    1    2    0    0 -0.16619674832E+03  0.36079418827E+03 -0.28022555675E+03  0.50194276465E+03  0.12500548343E+03 0.  0.
         23    2    1    2    0    0  0.16619674832E+03 -0.36079418827E+03  0.28022555675E+03  0.49805723535E+03  0.10835516410E+03 0.  0.
        -11    1    4    4    0    0  0.14850019517E+03 -0.22728143442E+03  0.14753202236E+03  0.30899005812E+03  0.00000000000E+00 0. -1.
         11    1    4    4    0    0  0.17696553142E+02 -0.13351275385E+03  0.13269353440E+03  0.18906717723E+03  0.00000000000E+00 0.  1.
        -15    1    3    3    0    0 -0.10618791839E+03  0.14546252524E+03 -0.18732450433E+03  0.25986313304E+03  0.17770000000E+01 0.  1.
         15    1    3    3    0    0 -0.60008829927E+02  0.21533166303E+03 -0.92901052427E+02  0.24207963162E+03  0.17770000000E+01 0.  1.
</event>
<event>
 8    1  0.1270595E-008  0.5019151E+03  0.7546771E-02  0.9395535E-01
        -11   -1    0    0    0    0  0.00000000000E+00  0.00000000000E+00  0.50000000000E+03  0.50000000000E+03  0.00000000000E+00 0. -1.
         11   -1    0    0    0    0 -0.00000000000E+00 -0.00000000000E+00 -0.50000000000E+03  0.50000000000E+03  0.00000000000E+00 0.  1.
         25    2    1    2    0    0  0.18605182248E+03  0.44226301498E+03 -0.77991246260E+02  0.50191513724E+03  0.12499726169E+03 0.  0.
         23    2    1    2    0    0 -0.18605182248E+03 -0.44226301498E+03  0.77991246260E+02  0.49808486276E+03  0.10860037269E+03 0.  0.
        -11    1    4    4    0    0 -0.41219303192E+02 -0.22313880035E+03  0.60496110126E+02  0.23483980607E+03  0.00000000000E+00 0. -1.
         11    1    4    4    0    0 -0.14483251928E+03 -0.21912421464E+03  0.17495136134E+02  0.26324505669E+03  0.00000000000E+00 0.  1.
        -15    1    3    3    0    0  0.46838378747E+02  0.69680480862E+02 -0.61022610277E+02  0.10380809135E+03  0.17770000000E+01 0. -1.
         15    1    3    3    0    0  0.13921344373E+03  0.37258253412E+03 -0.16968635984E+02  0.39810704588E+03  0.17770000000E+01 0. -1.
</event>
<event>
 8    1  0.1270595E-008  0.5023312E+03  0.7546771E-02  0.9394608E-01
        -11   -1    0    0    0    0  0.00000000000E+00  0.00000000000E+00  0.50000000000E+03  0.50000000000E+03  0.00000000000E+00 0.  1.
         11   -1    0    0    0    0 -0.00000000000E+00 -0.00000000000E+00 -0.50000000000E+03  0.50000000000E+03  0.00000000000E+00 0. -1.
         25    2    1    2    0    0 -0.48439102251E+03 -0.37651193706E+02  0.25710358574E+02  0.50233124190E+03  0.12499351573E+03 0.  0.
         23    2    1    2    0    0  0.48439102251E+03  0.37651193706E+02 -0.25710358574E+02  0.49766875810E+03  0.10469429394E+03 0.  0.
        -11    1    4    4    0    0  0.29048812777E+03  0.17057044809E+02 -0.66416298724E+02  0.29847180753E+03  0.00000000000E+00 0. -1.
         11    1    4    4    0    0  0.19390289474E+03  0.20594148897E+02  0.40705940150E+02  0.19919695058E+03  0.00000000000E+00 0.  1.
        -15    1    3    3    0    0 -0.13712605002E+03  0.42241097298E+02 -0.12020304055E+02  0.14399829629E+03  0.17770000000E+01 0. -1.
         15    1    3    3    0    0 -0.34726497248E+03 -0.79892291004E+02  0.37730662630E+02  0.35833294560E+03  0.17770000000E+01 0. -1.
</event>
<event>
 8    1  0.1270595E-008  0.5020784E+03  0.7546771E-02  0.9395171E-01
        -11   -1    0    0    0    0  0.00000000000E+00  0.00000000000E+00  0.50000000000E+03  0.50000000000E+03  0.00000000000E+00 0.  1.
         11   -1    0    0    0    0 -0.00000000000E+00 -0.00000000000E+00 -0.50000000000E+03  0.50000000000E+03  0.00000000000E+00 0. -1.
         25    2    1    2    0    0 -0.43883480406E+03  0.20933631371E+03  0.77487050322E+01  0.50207835701E+03  0.12499982664E+03 0.  0.
         23    2    1    2    0    0  0.43883480406E+03 -0.20933631371E+03 -0.77487050322E+01  0.49792164299E+03  0.10708988111E+03 0.  0.
        -11    1    4    4    0    0  0.63094472953E+02 -0.15597768646E+02 -0.35878596507E+02  0.74239319711E+02  0.00000000000E+00 0.  1.
         11    1    4    4    0    0  0.37574033111E+03 -0.19373854506E+03  0.28129891475E+02  0.42368232328E+03  0.00000000000E+00 0. -1.
        -15    1    3    3    0    0 -0.17126403484E+03  0.14936133308E+03 -0.81959243634E+01  0.22739944669E+03  0.17770000000E+01 0.  1.
         15    1    3    3    0    0 -0.26757076922E+03  0.59974980630E+02  0.15944629396E+02  0.27467891033E+03  0.17770000000E+01 0.  1.
</event>
<event>
 8    1  0.1270595E-008  0.5002592E+03  0.7546771E-02  0.9399230E-01
        -11   -1    0    0    0    0  0.00000000000E+00  0.00000000000E+00  0.50000000000E+03  0.50000000000E+03  0.00000000000E+00 0. -1.
         11   -1    0    0    0    0 -0.00000000000E+00 -0.00000000000E+00 -0.50000000000E+03  0.50000000000E+03  0.00000000000E+00 0.  1.
         25    2    1    2    0    0  0.18854142876E+03  0.32097934082E+03 -0.30993199471E+03  0.50025920048E+03  0.12500327488E+03 0.  0.
         23    2    1    2    0    0 -0.18854142876E+03 -0.32097934082E+03  0.30993199471E+03  0.49974079952E+03  0.12291223604E+03 0.  0.
        -11    1    4    4    0    0 -0.64531673278E+02 -0.22561981345E+03  0.20260396281E+03  0.31002742270E+03  0.00000000000E+00 0.  1.
         11    1    4    4    0    0 -0.12400975548E+03 -0.95359527370E+02  0.10732803190E+03  0.18971337682E+03  0.00000000000E+00 0. -1.
        -15    1    3    3    0    0  0.11464581503E+03  0.78073532358E+02 -0.10517114626E+03  0.17407833608E+03  0.17770000000E+01 0. -1.
         15    1    3    3    0    0  0.73895613727E+02  0.24290580847E+03 -0.20476084845E+03  0.32618086440E+03  0.17770000000E+01 0. -1.
</event>
<event>
 7    1  0.1270595E-008  0.5011321E+03  0.7546771E-02  0.9397280E-01
        -11   -1    0    0    0    0  0.00000000000E+00  0.00000000000E+00  0.50000000000E+03  0.50000000000E+03  0.00000000000E+00 0.  1.
         11   -1    0    0    0    0 -0.00000000000E+00 -0.00000000000E+00 -0.50000000000E+03  0.50000000000E+03  0.00000000000E+00 0. -1.
         25    2    1    2    0    0  0.29495538965E+03 -0.24471413963E+03 -0.29386779717E+03  0.49886790635E+03  0.12500885470E+03 0.  0.
        -11    1    1    2    0    0 -0.14627936820E+03  0.18911058969E+03  0.22428410885E+03  0.32781676311E+03  0.00000000000E+00 0.  1.
         11    1    1    2    0    0 -0.14867602145E+03  0.55603549944E+02  0.69583688324E+02  0.17331533054E+03  0.00000000000E+00 0. -1.
        -15    1    3    3    0    0  0.84405575056E+01  0.26935747228E+01 -0.44850871397E+02  0.45752122900E+02  0.17770000000E+01 0. -1.
         15    1    3    3    0    0  0.28651483214E+03 -0.24740771436E+03 -0.24901692577E+03  0.45311578345E+03  0.17770000000E+01 0. -1.
</event>
<event>
 8    1  0.1270595E-008  0.5008513E+03  0.7546771E-02  0.9397907E-01
        -11   -1    0    0    0    0  0.00000000000E+00  0.00000000000E+00  0.50000000000E+03  0.50000000000E+03  0.00000000000E+00 0.  1.
         11   -1    0    0    0    0 -0.00000000000E+00 -0.00000000000E+00 -0.50000000000E+03  0.50000000000E+03  0.00000000000E+00 0. -1.
         25    2    1    2    0    0 -0.28762153708E+03  0.31874799234E+03 -0.22560828974E+03  0.50085132288E+03  0.12500606392E+03 0.  0.
         23    2    1    2    0    0  0.28762153708E+03 -0.31874799234E+03  0.22560828974E+03  0.49914867712E+03  0.11799945023E+03 0.  0.
        -11    1    4    4    0    0  0.11301108355E+03 -0.21137076192E+03  0.10885474280E+03  0.26324600478E+03  0.00000000000E+00 0. -1.
         11    1    4    4    0    0  0.17461045353E+03 -0.10737723042E+03  0.11675354694E+03  0.23590267234E+03  0.00000000000E+00 0.  1.
        -15    1    3    3    0    0 -0.10177274916E+03  0.12208680090E+03 -0.18352399391E+02  0.16000889887E+03  0.17770000000E+01 0.  1.
         15    1    3    3    0    0 -0.18584878793E+03  0.19666119144E+03 -0.20725589035E+03  0.34084242401E+03  0.17770000000E+01 0.  1.
</event>
<event>
 8    1  0.1270595E-008  0.5020878E+03  0.7546771E-02  0.9395150E-01
        -11   -1    0    0    0    0  0.00000000000E+00  0.00000000000E+00  0.50000000000E+03  0.50000000000E+03  0.00000000000E+00 0.  1.
         11   -1    0    0    0    0 -0.00000000000E+00 -0.00000000000E+00 -0.50000000000E+03  0.50000000000E+03  0.00000000000E+00 0. -1.
         25    2    1    2    0    0 -0.23636736993E+03 -0.32592753033E+03  0.27270977410E+03  0.50208775206E+03  0.12499280494E+03 0.  0.
         23    2    1    2    0    0  0.23636736993E+03  0.32592753033E+03 -0.27270977410E+03  0.49791224794E+03  0.10699391179E+03 0.  0.
        -11    1    4    4    0    0  0.17450935661E+03  0.25377152997E+03 -0.14962719665E+03  0.34240590378E+03  0.00000000000E+00 0.  1.
         11    1    4    4    0    0  0.61858013318E+02  0.72156000362E+02 -0.12308257745E+03  0.15550634416E+03  0.00000000000E+00 0. -1.
        -15    1    3    3    0    0 -0.74409361660E+02 -0.16336905516E+03  0.60263163813E+02  0.18937002912E+03  0.17770000000E+01 0.  1.
         15    1    3    3    0    0 -0.16195800827E+03 -0.16255847517E+03  0.21244661029E+03  0.31271772295E+03  0.17770000000E+01 0.  1.
</event>
<event>
 8    1  0.1270595E-008  0.5024474E+03  0.7546771E-02  0.9394350E-01
        -11   -1    0    0    0    0  0.00000000000E+00  0.00000000000E+00  0.50000000000E+03  0.50000000000E+03  0.00000000000E+00 0. -1.
         11   -1    0    0    0    0 -0.00000000000E+00 -0.00000000000E+00 -0.50000000000E+03  0.50000000000E+03  0.00000000000E+00 0.  1.
         25    2    1    2    0    0  0.15329201032E+03 -0.27006647139E+03 -0.37469139593E+03  0.50244736123E+03  0.12500147690E+03 0.  0.
         23    2    1    2    0    0 -0.15329201032E+03  0.27006647139E+03  0.37469139593E+03  0.49755263877E+03  0.10358883511E+03 0.  0.
        -11    1    4    4    0    0 -0.77526520356E+02  0.18390526734E+03  0.16680743235E+03  0.26010810868E+03  0.00000000000E+00 0. -1.
         11    1    4    4    0    0 -0.75765489966E+02  0.86161204048E+02  0.20788396358E+03  0.23744453008E+03  0.00000000000E+00 0.  1.
        -15    1    3    3    0    0 -0.81637193328E+00 -0.83938742179E+02 -0.15292961475E+03  0.17446204085E+03  0.17770000000E+01 0.  1.
         15    1    3    3    0    0  0.15410838225E+03 -0.18612772921E+03 -0.22176178118E+03  0.32798532038E+03  0.17770000000E+01 0.  1.
</event>
<event>
 8    1  0.1270595E-008  0.5001806E+03  0.7546771E-02  0.9399406E-01
        -11   -1    0    0    0    0  0.00000000000E+00  0.00000000000E+00  0.50000000000E+03  0.50000000000E+03  0.00000000000E+00 0. -1.
         11   -1    0    0    0    0 -0.00000000000E+00 -0.00000000000E+00 -0.50000000000E+03  0.50000000000E+03  0.00000000000E+00 0.  1.
         25    2    1    2    0    0  0.13202192167E+03 -0.40617436518E+03  0.22835456242E+03  0.50018056390E+03  0.12500954999E+03 0.  0.
         23    2    1    2    0    0 -0.13202192167E+03  0.40617436518E+03 -0.22835456242E+03  0.49981943610E+03  0.12355670678E+03 0.  0.
        -11    1    4    4    0    0 -0.10488962300E+03  0.26921856796E+03 -0.88445026999E+02  0.30216385149E+03  0.00000000000E+00 0. -1.
         11    1    4    4    0    0 -0.27132298667E+02  0.13695579722E+03 -0.13990953542E+03  0.19765558461E+03  0.00000000000E+00 0.  1.
        -15    1    3    3    0    0  0.14267254360E+03 -0.40195421731E+03  0.20314659316E+03  0.47243448599E+03  0.17770000000E+01 0. -1.
         15    1    3    3    0    0 -0.10650621932E+02 -0.42201478700E+01  0.25207969268E+02  0.27746077906E+02  0.17770000000E+01 0. -1.
</event>
<event>
 8    1  0.1270595E-008  0.5017329E+03  0.7546771E-02  0.9395940E-01
        -11   -1    0    0    0    0  0.00000000000E+00  0.00000000000E+00  0.50000000000E+03  0.50000000000E+03  0.00000000000E+00 0.  1.
         11   -1    0    0    0    0 -0.00000000000E+00 -0.00000000000E+00 -0.50000000000E+03  0.50000000000E+03  0.00000000000E+00 0. -1.
         25    2    1    2    0    0  0.34542374544E+03  0.28546827573E+03 -0.18788185569E+03  0.50173294138E+03  0.12500660945E+03 0.  0.
         23    2    1    2    0    0 -0.34542374544E+03 -0.28546827573E+03  0.18788185569E+03  0.49826705862E+03  0.11027587972E+03 0.  0.
        -11    1    4    4    0    0 -0.11014150117E+03 -0.30392202521E+02  0.40070825680E+02  0.12108058195E+03  0.00000000000E+00 0. -1.
         11    1    4    4    0    0 -0.23528224427E+03 -0.25507607321E+03  0.14781103001E+03  0.37718647667E+03  0.00000000000E+00 0.  1.
        -15    1    3    3    0    0  0.32060446931E+03  0.25128964671E+03 -0.12526182542E+03  0.42617765652E+03  0.17770000000E+01 0. -1.
         15    1    3    3    0    0  0.24819276137E+02  0.34178629014E+02 -0.62620030273E+02  0.75555284855E+02  0.17770000000E+01 0. -1.
</event>
<event>
 7    1  0.1270595E-008  0.5008412E+03  0.7546771E-02  0.9397929E-01
        -11   -1    0    0    0    0  0.00000000000E+00  0.00000000000E+00  0.50000000000E+03  0.50000000000E+03  0.00000000000E+00 0.  1.
         11   -1    0    0    0    0 -0.00000000000E+00 -0.00000000000E+00 -0.50000000000E+03  0.50000000000E+03  0.00000000000E+00 0. -1.
         25    2    1    2    0    0 -0.20878364702E+03 -0.39195121811E+03 -0.19057620288E+03  0.49915880966E+03  0.12499543796E+03 0.  0.
        -11    1    1    2    0    0  0.43068557362E+02  0.17264795918E+03  0.24304518275E+02  0.17959100214E+03  0.00000000000E+00 0. -1.
         11    1    1    2    0    0  0.16571508966E+03  0.21930325893E+03  0.16627168461E+03  0.32125018821E+03  0.00000000000E+00 0.  1.
        -15    1    3    3    0    0 -0.69945187254E+02 -0.22332516677E+03 -0.49738037013E+02  0.23925611672E+03  0.17770000000E+01 0. -1.
         15    1    3    3    0    0 -0.13883845977E+03 -0.16862605134E+03 -0.14083816587E+03  0.25990269294E+03  0.17770000000E+01 0. -1.
</event>
<event>
 7    1  0.1270595E-008  0.4156066E+03  0.7546771E-02  0.9611380E-01
        -11   -1    0    0    0    0  0.00000000000E+00  0.00000000000E+00  0.50000000000E+03  0.50000000000E+03  0.00000000000E+00 0.  1.
         11   -1    0    0    0    0 -0.00000000000E+00 -0.00000000000E+00 -0.50000000000E+03  0.50000000000E+03  0.00000000000E+00 0. -1.
         25    2    1    2    0    0  0.36322457544E+03  0.28238017246E+03 -0.21294218287E+02  0.47723055612E+03  0.12499962386E+03 0.  0.
        -11    1    1    2    0    0 -0.15365487931E+03 -0.14858778372E+02 -0.72036823071E+02  0.17035230879E+03  0.00000000000E+00 0. -1.
         11    1    1    2    0    0 -0.20956969612E+03 -0.26752139408E+03  0.93331041358E+02  0.35241713509E+03  0.00000000000E+00 0.  1.
        -15    1    3    3    0    0  0.16915719781E+03  0.67947540553E+02  0.26081463364E+02  0.18415869868E+03  0.17770000000E+01 0. -1.
         15    1    3    3    0    0  0.19406737763E+03  0.21443263190E+03 -0.47375681651E+02  0.29307185744E+03  0.17770000000E+01 0. -1.
</event>
<event>
 8    1  0.1270595E-008  0.5009368E+03  0.7546771E-02  0.9397716E-01
        -11   -1    0    0    0    0  0.00000000000E+00  0.00000000000E+00  0.50000000000E+03  0.50000000000E+03  0.00000000000E+00 0.  1.
         11   -1    0    0    0    0 -0.00000000000E+00 -0.00000000000E+00 -0.50000000000E+03  0.50000000000E+03  0.00000000000E+00 0. -1.
         25    2    1    2    0    0  0.47194583431E+03  0.86075280066E+02 -0.71907973132E+02  0.50093676624E+03  0.12500025122E+03 0.  0.
         23    2    1    2    0    0 -0.47194583431E+03 -0.86075280066E+02  0.71907973132E+02  0.49906323376E+03  0.11726691915E+03 0.  0.
        -11    1    4    4    0    0 -0.34665463571E+03 -0.51295453574E+02 -0.95749957843E-01  0.35042926417E+03  0.00000000000E+00 0.  1.
         11    1    4    4    0    0 -0.12529119860E+03 -0.34779826492E+02  0.72003723090E+02  0.14863396959E+03  0.00000000000E+00 0. -1.
        -15    1    3    3    0    0  0.39023356621E+03  0.37655529145E+02 -0.19714752827E+02  0.39254554421E+03  0.17770000000E+01 0. -1.
         15    1    3    3    0    0  0.81712268102E+02  0.48419750920E+02 -0.52193220306E+02  0.10839122203E+03  0.17770000000E+01 0. -1.
</event>
<event>
 7    1  0.1270595E-008  0.5026378E+03  0.7546771E-02  0.9393927E-01
        -11   -1    0    0    0    0  0.00000000000E+00  0.00000000000E+00  0.50000000000E+03  0.50000000000E+03  0.00000000000E+00 0.  1.
         11   -1    0    0    0    0 -0.00000000000E+00 -0.00000000000E+00 -0.50000000000E+03  0.50000000000E+03  0.00000000000E+00 0. -1.
         25    2    1    2    0    0  0.35344548249E+03  0.15098943488E+03  0.28986190332E+03  0.49736221419E+03  0.12501092181E+03 0.  0.
        -11    1    1    2    0    0 -0.30019005478E+03 -0.15849712215E+03 -0.18950203824E+03  0.38877555121E+03  0.00000000000E+00 0.  1.
         11    1    1    2    0    0 -0.53255427716E+02  0.75076872785E+01 -0.10035986508E+03  0.11386223460E+03  0.00000000000E+00 0. -1.
        -15    1    3    3    0    0  0.51502785962E+02  0.71027367908E+02  0.94412823724E+02  0.12889671433E+03  0.17770000000E+01 0.  1.
         15    1    3    3    0    0  0.30194269653E+03  0.79962066968E+02  0.19544907960E+03  0.36846549986E+03  0.17770000000E+01 0.  1.
</event>
<event>
 7    1  0.1270595E-008  0.5012991E+03  0.7546771E-02  0.9396907E-01
        -11   -1    0    0    0    0  0.00000000000E+00  0.00000000000E+00  0.50000000000E+03  0.50000000000E+03  0.00000000000E+00 0.  1.
         11   -1    0    0    0    0 -0.00000000000E+00 -0.00000000000E+00 -0.50000000000E+03  0.50000000000E+03  0.00000000000E+00 0. -1.
         25    2    1    2    0    0 -0.40501673079E+03 -0.23200548357E+03  0.12333934382E+03  0.49870086031E+03  0.12499943085E+03 0.  0.
        -11    1    1    2    0    0  0.20841183885E+02  0.32645784757E+02  0.22224889151E+02  0.44654763530E+02  0.00000000000E+00 0.  1.
         11    1    1    2    0    0  0.38417554691E+03  0.19935969881E+03 -0.14556423298E+03  0.45664437616E+03  0.00000000000E+00 0. -1.
        -15    1    3    3    0    0 -0.89485177417E+02  0.26596406471E+01  0.31165505125E+02  0.94810954559E+02  0.17770000000E+01 0. -1.
         15    1    3    3    0    0 -0.31553155338E+03 -0.23466512422E+03  0.92173838699E+02  0.40388990575E+03  0.17770000000E+01 0. -1.
</event>
<event>
 8    1  0.1270595E-008  0.5014249E+03  0.7546771E-02  0.9396627E-01
        -11   -1    0    0    0    0  0.00000000000E+00  0.00000000000E+00  0.50000000000E+03  0.50000000000E+03  0.00000000000E+00 0.  1.
         11   -1    0    0    0    0 -0.00000000000E+00 -0.00000000000E+00 -0.50000000000E+03  0.50000000000E+03  0.00000000000E+00 0. -1.
         25    2    1    2    0    0 -0.41111771306E+03 -0.63517119418E+02  0.25049789467E+03  0.50142488792E+03  0.12500209815E+03 0.  0.
         23    2    1    2    0    0  0.41111771306E+03  0.63517119418E+02 -0.25049789467E+03  0.49857511208E+03  0.11302985756E+03 0.  0.
        -11    1    4    4    0    0  0.36383751074E+03  0.91141142660E+02 -0.23069347248E+03  0.44034522860E+03  0.00000000000E+00 0.  1.
         11    1    4    4    0    0  0.47280202321E+02 -0.27624023242E+02 -0.19804422188E+02  0.58229883478E+02  0.00000000000E+00 0. -1.
        -15    1    3    3    0    0 -0.16807994657E+03 -0.79200134450E+02  0.71171788415E+02  0.19897766440E+03  0.17770000000E+01 0.  1.
         15    1    3    3    0    0 -0.24303776649E+03  0.15683015032E+02  0.17932610625E+03  0.30244722352E+03  0.17770000000E+01 0.  1.
</event>
<event>
 8    1  0.1270595E-008  0.5006256E+03  0.7546771E-02  0.9398411E-01
        -11   -1    0    0    0    0  0.00000000000E+00  0.00000000000E+00  0.50000000000E+03  0.50000000000E+03  0.00000000000E+00 0.  1.
         11   -1    0    0    0    0 -0.00000000000E+00 -0.00000000000E+00 -0.50000000000E+03  0.50000000000E+03  0.00000000000E+00 0. -1.
         25    2    1    2    0    0 -0.31009957078E+03  0.36447428996E+03 -0.77442986966E+02  0.50062563065E+03  0.12500141597E+03 0.  0.
         23    2    1    2    0    0  0.31009957078E+03 -0.36447428996E+03  0.77442986966E+02  0.49937436935E+03  0.11989200431E+03 0.  0.
        -11    1    4    4    0    0  0.12655674931E+03 -0.18370996837E+03 -0.19936621159E+02  0.22397194498E+03  0.00000000000E+00 0.  1.
         11    1    4    4    0    0  0.18354282146E+03 -0.18076432159E+03  0.97379608125E+02  0.27540242437E+03  0.00000000000E+00 0. -1.
        -15    1    3    3    0    0 -0.33133608709E+02  0.48429870265E+02  0.31327608912E+02  0.66542205923E+02  0.17770000000E+01 0.  1.
         15    1    3    3    0    0 -0.27696596207E+03  0.31604441969E+03 -0.10877059588E+03  0.43408342473E+03  0.17770000000E+01 0.  1.
</event>
<event>
 8    1  0.1270595E-008  0.5055351E+03  0.7546771E-02  0.9387509E-01
        -11   -1    0    0    0    0  0.00000000000E+00  0.00000000000E+00  0.50000000000E+03  0.50000000000E+03  0.00000000000E+00 0. -1.
         11   -1    0    0    0    0 -0.00000000000E+00 -0.00000000000E+00 -0.50000000000E+03  0.50000000000E+03  0.00000000000E+00 0.  1.
         25    2    1    2    0    0  0.44026192770E+03  0.98346028889E+02  0.19088809657E+03  0.50553508253E+03  0.12499979152E+03 0.  0.
         23    2    1    2    0    0 -0.44026192770E+03 -0.98346028889E+02 -0.19088809657E+03  0.49446491747E+03  0.67489131130E+02 0.  0.
        -11    1    4    4    0    0 -0.39928826224E+03 -0.80839164272E+02 -0.19092140381E+03  0.44990784531E+03  0.00000000000E+00 0. -1.
         11    1    4    4    0    0 -0.40973665459E+02 -0.17506864616E+02  0.33307244456E-01  0.44557072157E+02  0.00000000000E+00 0.  1.
        -15    1    3    3    0    0  0.31826601633E+03  0.27434061181E+02  0.17299630346E+03  0.36328606304E+03  0.17770000000E+01 0. -1.
         15    1    3    3    0    0  0.12199591137E+03  0.70911967708E+02  0.17891793105E+02  0.14224901949E+03  0.17770000000E+01 0. -1.
</event>
<event>
 8    1  0.1270595E-008  0.5010488E+03  0.7546771E-02  0.9397466E-01
        -11   -1    0    0    0    0  0.00000000000E+00  0.00000000000E+00  0.50000000000E+03  0.50000000000E+03  0.00000000000E+00 0.  1.
         11   -1    0    0    0    0 -0.00000000000E+00 -0.00000000000E+00 -0.50000000000E+03  0.50000000000E+03  0.00000000000E+00 0. -1.
         25    2    1    2    0    0 -0.33641041874E+03  0.29394175850E+03 -0.18934583663E+03  0.50104876852E+03  0.12499718141E+03 0.  0.
         23    2    1    2    0    0  0.33641041874E+03 -0.29394175850E+03  0.18934583663E+03  0.49895123148E+03  0.11630459284E+03 0.  0.
        -11    1    4    4    0    0  0.24166702044E+03 -0.25543974951E+03  0.10673202135E+03  0.36748352178E+03  0.00000000000E+00 0. -1.
         11    1    4    4    0    0  0.94743398307E+02 -0.38502008990E+02  0.82613815278E+02  0.13146770970E+03  0.00000000000E+00 0.  1.
        -15    1    3    3    0    0 -0.32886560011E+03  0.24917894876E+03 -0.14440937272E+03  0.43714980968E+03  0.17770000000E+01 0.  1.
         15    1    3    3    0    0 -0.75448186327E+01  0.44762809737E+02 -0.44936463908E+02  0.63898958844E+02  0.17770000000E+01 0.  1.
</event>
<event>
 7    1  0.1270595E-008  0.3490945E+03  0.7546771E-02  0.9820058E-01
        -11   -1    0    0    0    0  0.00000000000E+00  0.00000000000E+00  0.50000000000E+03  0.50000000000E+03  0.00000000000E+00 0.  1.
         11   -1    0    0    0    0 -0.00000000000E+00 -0.00000000000E+00 -0.50000000000E+03  0.50000000000E+03  0.00000000000E+00 0.  1.
         25    2    1    2    0    0  0.21723819070E+03  0.39292366183E+02  0.17226174654E+03  0.30665071828E+03  0.12499692861E+03 0.  0.
        -11    1    1    2    0    0 -0.84710329904E+02 -0.47627438822E+02 -0.40982643718E+03  0.42119107485E+03  0.00000000000E+00 0.  1.
         11    1    1    2    0    0 -0.13252786080E+03  0.83350726386E+01  0.23756469065E+03  0.27215820687E+03  0.00000000000E+00 0.  1.
        -15    1    3    3    0    0  0.96535129858E+02  0.51181438461E+02  0.14629336429E+03  0.18260196358E+03  0.17770000000E+01 0. -1.
         15    1    3    3    0    0  0.12070306084E+03 -0.11889072278E+02  0.25968382250E+02  0.12404875470E+03  0.17770000000E+01 0. -1.
</event>
<event>
 8    1  0.1270595E-008  0.5014206E+03  0.7546771E-02  0.9396637E-01
        -11   -1    0    0    0    0  0.00000000000E+00  0.00000000000E+00  0.50000000000E+03  0.50000000000E+03  0.00000000000E+00 0.  1.
         11   -1    0    0    0    0 -0.00000000000E+00 -0.00000000000E+00 -0.50000000000E+03  0.50000000000E+03  0.00000000000E+00 0. -1.
         25    2    1    2    0    0  0.38643303324E+02 -0.48042586843E+03 -0.59129946790E+02  0.50142057046E+03  0.12499567161E+03 0.  0.
         23    2    1    2    0    0 -0.38643303324E+02  0.48042586843E+03  0.59129946790E+02  0.49857942954E+03  0.11306094379E+03 0.  0.
        -11    1    4    4    0    0  0.48394069150E+01  0.34731343310E+03  0.81471359774E+02  0.35677391039E+03  0.00000000000E+00 0. -1.
         11    1    4    4    0    0 -0.43482710239E+02  0.13311243533E+03 -0.22341412984E+02  0.14180551915E+03  0.00000000000E+00 0.  1.
        -15    1    3    3    0    0  0.20394758020E+02 -0.34729473515E+02  0.25064989629E+02  0.47470979761E+02  0.17770000000E+01 0.  1.
         15    1    3    3    0    0  0.18248545303E+02 -0.44569639491E+03 -0.84194936419E+02  0.45394959070E+03  0.17770000000E+01 0.  1.
</event>
<event>
 8    1  0.1270595E-008  0.5022710E+03  0.7546771E-02  0.9394742E-01
        -11   -1    0    0    0    0  0.00000000000E+00  0.00000000000E+00  0.50000000000E+03  0.50000000000E+03  0.00000000000E+00 0.  1.
         11   -1    0    0    0    0 -0.00000000000E+00 -0.00000000000E+00 -0.50000000000E+03  0.50000000000E+03  0.00000000000E+00 0. -1.
         25    2    1    2    0    0 -0.91617497240E+02  0.47731763585E+03  0.20628181939E+02  0.50227101586E+03  0.12499904077E+03 0.  0.
         23    2    1    2    0    0  0.91617497240E+02 -0.47731763585E+03 -0.20628181939E+02  0.49772898414E+03  0.10527453858E+03 0.  0.
        -11    1    4    4    0    0  0.30428506871E+02 -0.33906685108E+03  0.20506057934E+02  0.34104650994E+03  0.00000000000E+00 0.  1.
         11    1    4    4    0    0  0.61188990369E+02 -0.13825078477E+03 -0.41134239873E+02  0.15668247420E+03  0.00000000000E+00 0. -1.
        -15    1    3    3    0    0 -0.65367898194E+02  0.45621987846E+03 -0.33444837518E+01  0.46089465490E+03  0.17770000000E+01 0.  1.
         15    1    3    3    0    0 -0.26249599046E+02  0.21097757382E+02  0.23972665691E+02  0.41376360956E+02  0.17770000000E+01 0.  1.
</event>
<event>
 7    1  0.1270595E-008  0.5009992E+03  0.7546771E-02  0.9397577E-01
        -11   -1    0    0    0    0  0.00000000000E+00  0.00000000000E+00  0.50000000000E+03  0.50000000000E+03  0.00000000000E+00 0. -1.
         11   -1    0    0    0    0 -0.00000000000E+00 -0.00000000000E+00 -0.50000000000E+03  0.50000000000E+03  0.00000000000E+00 0.  1.
         25    2    1    2    0    0 -0.21517894581E+03  0.38374697305E+03 -0.19953453605E+03  0.49900078619E+03  0.12499614191E+03 0.  0.
        -11    1    1    2    0    0  0.26017010795E+02 -0.27613648935E+02  0.66151755240E+02  0.76259118665E+02  0.00000000000E+00 0. -1.
         11    1    1    2    0    0  0.18916193502E+03 -0.35613332412E+03  0.13338278081E+03  0.42474009514E+03  0.00000000000E+00 0.  1.
        -15    1    3    3    0    0 -0.22850860526E+03  0.32645333518E+03 -0.17181584463E+03  0.43394908102E+03  0.17770000000E+01 0.  1.
         15    1    3    3    0    0  0.13329659447E+02  0.57293637873E+02 -0.27718691425E+02  0.65051705166E+02  0.17770000000E+01 0.  1.
</event>
<event>
 8    1  0.1270595E-008  0.5021158E+03  0.7546771E-02  0.9395088E-01
        -11   -1    0    0    0    0  0.00000000000E+00  0.00000000000E+00  0.50000000000E+03  0.50000000000E+03  0.00000000000E+00 0.  1.
         11   -1    0    0    0    0 -0.00000000000E+00 -0.00000000000E+00 -0.50000000000E+03  0.50000000000E+03  0.00000000000E+00 0. -1.
         25    2    1    2    0    0  0.35428041131E+03 -0.29008718342E+02  0.33187354197E+03  0.50211582298E+03  0.12499654498E+03 0.  0.
         23    2    1    2    0    0 -0.35428041131E+03  0.29008718342E+02 -0.33187354197E+03  0.49788417702E+03  0.10673560929E+03 0.  0.
        -11    1    4    4    0    0 -0.31762347882E+03 -0.47932822201E+01 -0.26047592058E+03  0.41079843605E+03  0.00000000000E+00 0. -1.
         11    1    4    4    0    0 -0.36656932482E+02  0.33802000562E+02 -0.71397621384E+02  0.87085740970E+02  0.00000000000E+00 0.  1.
        -15    1    3    3    0    0  0.29046252781E+03 -0.14254977609E+02  0.19435365389E+03  0.34978305413E+03  0.17770000000E+01 0. -1.
         15    1    3    3    0    0  0.63817883492E+02 -0.14753740733E+02  0.13751988808E+03  0.15233276885E+03  0.17770000000E+01 0. -1.
</event>
<event>
 8    1  0.1270595E-008  0.5013584E+03  0.7546771E-02  0.9396775E-01
        -11   -1    0    0    0    0  0.00000000000E+00  0.00000000000E+00  0.50000000000E+03  0.50000000000E+03  0.00000000000E+00 0.  1.
         11   -1    0    0    0    0 -0.00000000000E+00 -0.00000000000E+00 -0.50000000000E+03  0.50000000000E+03  0.00000000000E+00 0. -1.
         25    2    1    2    0    0  0.27044010169E+03  0.30313904230E+03  0.26590249348E+03  0.50135842414E+03  0.12500002340E+03 0.  0.
         23    2    1    2    0    0 -0.27044010169E+03 -0.30313904230E+03 -0.26590249348E+03  0.49864157586E+03  0.11361407290E+03 0.  0.
        -11    1    4    4    0    0 -0.10579752154E+03 -0.12537147560E+03 -0.43424147183E+02  0.16969613731E+03  0.00000000000E+00 0.  1.
         11    1    4    4    0    0 -0.16464258015E+03 -0.17776756670E+03 -0.22247834630E+03  0.32894543855E+03  0.00000000000E+00 0. -1.
        -15    1    3    3    0    0  0.10561101745E+03  0.11944898058E+03  0.34720172059E+02  0.16318821662E+03  0.17770000000E+01 0.  1.
         15    1    3    3    0    0  0.16482908424E+03  0.18369006173E+03  0.23118232142E+03  0.33817020752E+03  0.17770000000E+01 0.  1.
</event>
<event>
 8    1  0.1270595E-008  0.5012222E+03  0.7546771E-02  0.9397079E-01
        -11   -1    0    0    0    0  0.00000000000E+00  0.00000000000E+00  0.50000000000E+03  0.50000000000E+03  0.00000000000E+00 0. -1.
         11   -1    0    0    0    0 -0.00000000000E+00 -0.00000000000E+00 -0.50000000000E+03  0.50000000000E+03  0.00000000000E+00 0.  1.
         25    2    1    2    0    0 -0.47289029174E+03 -0.88221606527E+02  0.64736760173E+02  0.50122218709E+03  0.12499821129E+03 0.  0.
         23    2    1    2    0    0  0.47289029174E+03  0.88221606527E+02 -0.64736760173E+02  0.49877781291E+03  0.11480495918E+03 0.  0.
        -11    1    4    4    0    0  0.25700100998E+03 -0.21655513720E+01 -0.42681197997E+01  0.25704557104E+03  0.00000000000E+00 0. -1.
         11    1    4    4    0    0  0.21588928177E+03  0.90387157899E+02 -0.60468640373E+02  0.24173224188E+03  0.00000000000E+00 0.  1.
        -15    1    3    3    0    0 -0.44683161660E+03 -0.68369647527E+02  0.88622539276E+02  0.46064087367E+03  0.17770000000E+01 0.  1.
         15    1    3    3    0    0 -0.26058675145E+02 -0.19851959000E+02 -0.23885779103E+02  0.40581313419E+02  0.17770000000E+01 0.  1.
</event>
<event>
 8    1  0.1270595E-008  0.5051588E+03  0.7546771E-02  0.9388340E-01
        -11   -1    0    0    0    0  0.00000000000E+00  0.00000000000E+00  0.50000000000E+03  0.50000000000E+03  0.00000000000E+00 0.  1.
         11   -1    0    0    0    0 -0.00000000000E+00 -0.00000000000E+00 -0.50000000000E+03  0.50000000000E+03  0.00000000000E+00 0. -1.
         25    2    1    2    0    0 -0.14342594949E+03  0.70852441015E+02 -0.46256781311E+03  0.50515881649E+03  0.12500150705E+03 0.  0.
         23    2    1    2    0    0  0.14342594949E+03 -0.70852441015E+02  0.46256781311E+03  0.49484118351E+03  0.72854264061E+02 0.  0.
        -11    1    4    4    0    0  0.96655054236E+02 -0.14519595018E+02  0.20566601103E+03  0.22770930205E+03  0.00000000000E+00 0.  1.
         11    1    4    4    0    0  0.46770895257E+02 -0.56332845997E+02  0.25690180208E+03  0.26713188146E+03  0.00000000000E+00 0. -1.
        -15    1    3    3    0    0 -0.10210285340E+03  0.10682675707E+03 -0.32258679456E+03  0.35482720647E+03  0.17770000000E+01 0. -1.
         15    1    3    3    0    0 -0.41323096094E+02 -0.35974316057E+02 -0.13998101855E+03  0.15033161002E+03  0.17770000000E+01 0. -1.
</event>
<event>
 8    1  0.1270595E-008  0.5018663E+03  0.7546771E-02  0.9395643E-01
        -11   -1    0    0    0    0  0.00000000000E+00  0.00000000000E+00  0.50000000000E+03  0.50000000000E+03  0.00000000000E+00 0.  1.
         11   -1    0    0    0    0 -0.00000000000E+00 -0.00000000000E+00 -0.50000000000E+03  0.50000000000E+03  0.00000000000E+00 0. -1.
         25    2    1    2    0    0  0.29782435448E+03  0.94669396524E+02  0.37226848513E+03  0.50186630427E+03  0.12499728629E+03 0.  0.
         23    2    1    2    0    0 -0.29782435448E+03 -0.94669396524E+02 -0.37226848513E+03  0.49813369573E+03  0.10904913128E+03 0.  0.
        -11    1    4    4    0    0 -0.29262937505E+03 -0.11105077402E+03 -0.35989261548E+03  0.47695588919E+03  0.00000000000E+00 0.  1.
         11    1    4    4    0    0 -0.51949794331E+01  0.16381377500E+02 -0.12375869651E+02  0.21177806537E+02  0.00000000000E+00 0. -1.
        -15    1    3    3    0    0  0.26098829740E+02  0.52596559983E+01 -0.62554245529E+01  0.27406221198E+02  0.17770000000E+01 0.  1.
         15    1    3    3    0    0  0.27172552474E+03  0.89409740526E+02  0.37852390969E+03  0.47446008307E+03  0.17770000000E+01 0.  1.
</event>
<event>
 7    1  0.1270595E-008  0.3847549E+03  0.7546771E-02  0.9702550E-01
        -11   -1    0    0    0    0  0.00000000000E+00  0.00000000000E+00  0.50000000000E+03  0.50000000000E+03  0.00000000000E+00 0. -1.
         11   -1    0    0    0    0 -0.00000000000E+00 -0.00000000000E+00 -0.50000000000E+03  0.50000000000E+03  0.00000000000E+00 0. -1.
         25    2    1    2    0    0  0.39057002161E+03 -0.16584094616E+03  0.16050518244E+03  0.47056813182E+03  0.12499716751E+03 0.  0.
        -11    1    1    2    0    0 -0.30181266260E+03  0.67652297392E+02  0.14936354749E+02  0.30966241513E+03  0.00000000000E+00 0. -1.
         11    1    1    2    0    0 -0.88757359010E+02  0.98188648767E+02 -0.17544153719E+03  0.21976945305E+03  0.00000000000E+00 0. -1.
        -15    1    3    3    0    0  0.38097106112E+03 -0.15014650232E+03  0.12107179918E+03  0.42701810249E+03  0.17770000000E+01 0.  1.
         15    1    3    3    0    0  0.95989604933E+01 -0.15694443838E+02  0.39433383260E+02  0.43550029326E+02  0.17770000000E+01 0.  1.
</event>
<event>
 8    1  0.1270595E-008  0.5009337E+03  0.7546771E-02  0.9397723E-01
        -11   -1    0    0    0    0  0.00000000000E+00  0.00000000000E+00  0.50000000000E+03  0.50000000000E+03  0.00000000000E+00 0.  1.
         11   -1    0    0    0    0 -0.00000000000E+00 -0.00000000000E+00 -0.50000000000E+03  0.50000000000E+03  0.00000000000E+00 0. -1.
         25    2    1    2    0    0 -0.38963608385E+02 -0.47118298481E+03  0.10852534659E+03  0.50093374256E+03  0.12500118252E+03 0.  0.
         23    2    1    2    0    0  0.38963608385E+02  0.47118298481E+03 -0.10852534659E+03  0.49906625744E+03  0.11729369342E+03 0.  0.
        -11    1    4    4    0    0 -0.24520814784E+02  0.30267243833E+03 -0.96348246748E+02  0.31858257945E+03  0.00000000000E+00 0. -1.
         11    1    4    4    0    0  0.63484423169E+02  0.16851054648E+03 -0.12177099844E+02  0.18048367799E+03  0.00000000000E+00 0.  1.
        -15    1    3    3    0    0  0.25031327665E+01 -0.23728317500E+03 -0.56413579189E+01  0.23737007701E+03  0.17770000000E+01 0. -1.
         15    1    3    3    0    0 -0.41466741151E+02 -0.23389980980E+03  0.11416670451E+03  0.26356366554E+03  0.17770000000E+01 0. -1.
</event>
<event>
 7    1  0.1270595E-008  0.5010082E+03  0.7546771E-02  0.9397557E-01
        -11   -1    0    0    0    0  0.00000000000E+00  0.00000000000E+00  0.50000000000E+03  0.50000000000E+03  0.00000000000E+00 0. -1.
         11   -1    0    0    0    0 -0.00000000000E+00 -0.00000000000E+00 -0.50000000000E+03  0.50000000000E+03  0.00000000000E+00 0.  1.
         25    2    1    2    0    0 -0.32262279550E+03  0.20527028934E+03 -0.29520729281E+03  0.49899179499E+03  0.12499642347E+03 0.  0.
        -11    1    1    2    0    0  0.21459861316E+03 -0.19420533450E+03  0.17158685880E+03  0.33646742313E+03  0.00000000000E+00 0.  1.
         11    1    1    2    0    0  0.10802418234E+03 -0.11064954838E+02  0.12362043400E+03  0.16454078187E+03  0.00000000000E+00 0. -1.
        -15    1    3    3    0    0 -0.74349415161E+02  0.10190801276E+02 -0.10924196412E+03  0.13254679332E+03  0.17770000000E+01 0.  1.
         15    1    3    3    0    0 -0.24827338034E+03  0.19507948806E+03 -0.18596532869E+03  0.36644500167E+03  0.17770000000E+01 0.  1.
</event>
<event>
 8    1  0.1270595E-008  0.5047456E+03  0.7546771E-02  0.9389253E-01
        -11   -1    0    0    0    0  0.00000000000E+00  0.00000000000E+00  0.50000000000E+03  0.50000000000E+03  0.00000000000E+00 0.  1.
         11   -1    0    0    0    0 -0.00000000000E+00 -0.00000000000E+00 -0.50000000000E+03  0.50000000000E+03  0.00000000000E+00 0. -1.
         25    2    1    2    0    0 -0.28945456370E+03 -0.18748794533E+03 -0.34670892231E+03  0.50474557303E+03  0.12500137037E+03 0.  0.
         23    2    1    2    0    0  0.28945456370E+03  0.18748794533E+03  0.34670892231E+03  0.49525442697E+03  0.78321111714E+02 0.  0.
        -11    1    4    4    0    0  0.15607445995E+03  0.10846874468E+03  0.24398997405E+03  0.30928273967E+03  0.00000000000E+00 0.  1.
         11    1    4    4    0    0  0.13338010375E+03  0.79019200649E+02  0.10271894826E+03  0.18597168731E+03  0.00000000000E+00 0. -1.
        -15    1    3    3    0    0 -0.94399070496E+02 -0.12898507436E+03 -0.11916034093E+03  0.19937572193E+03  0.17770000000E+01 0.  1.
         15    1    3    3    0    0 -0.19505549320E+03 -0.58502870968E+02 -0.22754858138E+03  0.30536985110E+03  0.17770000000E+01 0.  1.
</event>
<event>
 8    1  0.1270595E-008  0.5022156E+03  0.7546771E-02  0.9394866E-01
        -11   -1    0    0    0    0  0.00000000000E+00  0.00000000000E+00  0.50000000000E+03  0.50000000000E+03  0.00000000000E+00 0.  1.
         11   -1    0    0    0    0 -0.00000000000E+00 -0.00000000000E+00 -0.50000000000E+03  0.50000000000E+03  0.00000000000E+00 0. -1.
         25    2    1    2    0    0  0.20091799982E+03  0.43646194680E+03  0.75685203991E+02  0.50221555661E+03  0.12500056614E+03 0.  0.
         23    2    1    2    0    0 -0.20091799982E+03 -0.43646194680E+03 -0.75685203991E+02  0.49778444339E+03  0.10580183516E+03 0.  0.
        -11    1    4    4    0    0 -0.65451415936E+01 -0.88596695329E+02 -0.40846188888E+02  0.97778445725E+02  0.00000000000E+00 0. -1.
         11    1    4    4    0    0 -0.19437285823E+03 -0.34786525147E+03 -0.34839015103E+02  0.40000599767E+03  0.00000000000E+00 0.  1.
        -15    1    3    3    0    0  0.90350598048E+02  0.12903545519E+03  0.77357595962E+02  0.17550138076E+03  0.17770000000E+01 0.  1.
         15    1    3    3    0    0  0.11056740177E+03  0.30742649161E+03 -0.16723919712E+01  0.32671417585E+03  0.17770000000E+01 0.  1.
</event>
<event>
 8    1  0.1270595E-008  0.5052561E+03  0.7546771E-02  0.9388125E-01
        -11   -1    0    0    0    0  0.00000000000E+00  0.00000000000E+00  0.50000000000E+03  0.50000000000E+03  0.00000000000E+00 0.  1.
         11   -1    0    0    0    0 -0.00000000000E+00 -0.00000000000E+00 -0.50000000000E+03  0.50000000000E+03  0.00000000000E+00 0. -1.
         25    2    1    2    0    0  0.84099142339E+01 -0.26157601214E+03 -0.41372747599E+03  0.50525610378E+03  0.12498227571E+03 0.  0.
         23    2    1    2    0    0 -0.84099142339E+01  0.26157601214E+03  0.41372747599E+03  0.49474389622E+03  0.71472803728E+02 0.  0.
        -11    1    4    4    0    0  0.86017425964E+01  0.15826263933E+03  0.30544099295E+03  0.34411517426E+03  0.00000000000E+00 0. -1.
         11    1    4    4    0    0 -0.17011656830E+02  0.10331337280E+03  0.10828648304E+03  0.15062872195E+03  0.00000000000E+00 0.  1.
        -15    1    3    3    0    0  0.11955703803E+02 -0.23253594404E+03 -0.26112625232E+03  0.34986566208E+03  0.17770000000E+01 0. -1.
         15    1    3    3    0    0 -0.35457895690E+01 -0.29040068096E+02 -0.15260122367E+03  0.15539044170E+03  0.17770000000E+01 0. -1.
</event>
<event>
 8    1  0.1270595E-008  0.5047682E+03  0.7546771E-02  0.9389203E-01
        -11   -1    0    0    0    0  0.00000000000E+00  0.00000000000E+00  0.50000000000E+03  0.50000000000E+03  0.00000000000E+00 0. -1.
         11   -1    0    0    0    0 -0.00000000000E+00 -0.00000000000E+00 -0.50000000000E+03  0.50000000000E+03  0.00000000000E+00 0.  1.
         25    2    1    2    0    0  0.35005534156E+03  0.34131845458E+03  0.11354875283E+02  0.50476818758E+03  0.12499984165E+03 0.  0.
         23    2    1    2    0    0 -0.35005534156E+03 -0.34131845458E+03 -0.11354875283E+02  0.49523181242E+03  0.78029387099E+02 0.  0.
        -11    1    4    4    0    0 -0.53934133027E+02 -0.18457994909E+02 -0.84425094247E+00  0.57011411499E+02  0.00000000000E+00 0.  1.
         11    1    4    4    0    0 -0.29612120853E+03 -0.32286045967E+03 -0.10510624341E+02  0.43822040092E+03  0.00000000000E+00 0. -1.
        -15    1    3    3    0    0  0.29344567421E+03  0.25432984756E+03 -0.37330084142E+02  0.39011630058E+03  0.17770000000E+01 0. -1.
         15    1    3    3    0    0  0.56609667351E+02  0.86988607020E+02  0.48684959425E+02  0.11465188700E+03  0.17770000000E+01 0. -1.
</event>
<event>
 7    1  0.1270595E-008  0.5082302E+03  0.7546771E-02  0.9381580E-01
        -11   -1    0    0    0    0  0.00000000000E+00  0.00000000000E+00  0.50000000000E+03  0.50000000000E+03  0.00000000000E+00 0.  1.
         11   -1    0    0    0    0 -0.00000000000E+00 -0.00000000000E+00 -0.50000000000E+03  0.50000000000E+03  0.00000000000E+00 0.  1.
         25    2    1    2    0    0  0.23781832495E+03  0.30801424369E+03  0.27346599582E+03  0.49176977713E+03  0.12499413119E+03 0.  0.
        -11    1    1    2    0    0 -0.23576835817E+03 -0.18689003041E+03 -0.15355316619E+03  0.33777681541E+03  0.00000000000E+00 0.  1.
         11    1    1    2    0    0 -0.20499667769E+01 -0.12112421328E+03 -0.11991282963E+03  0.17045340746E+03  0.00000000000E+00 0.  1.
        -15    1    3    3    0    0  0.19191476040E+03  0.30100165382E+03  0.26486391527E+03  0.44451020483E+03  0.17770000000E+01 0.  1.
         15    1    3    3    0    0  0.45903564545E+02  0.70125898684E+01  0.86020805536E+01  0.47259572294E+02  0.17770000000E+01 0.  1.
</event>
<event>
 7    1  0.1270595E-008  0.3891372E+03  0.7546771E-02  0.9689053E-01
        -11   -1    0    0    0    0  0.00000000000E+00  0.00000000000E+00  0.50000000000E+03  0.50000000000E+03  0.00000000000E+00 0. -1.
         11   -1    0    0    0    0 -0.00000000000E+00 -0.00000000000E+00 -0.50000000000E+03  0.50000000000E+03  0.00000000000E+00 0. -1.
         25    2    1    2    0    0  0.84581738606E+02 -0.12953622906E+03  0.34197667842E+03  0.39560457663E+03  0.12498490840E+03 0.  0.
        -11    1    1    2    0    0  0.12014893864E+03 -0.12378603133E+03 -0.12490381351E+03  0.21297819522E+03  0.00000000000E+00 0. -1.
         11    1    1    2    0    0 -0.20473067725E+03  0.25332226039E+03 -0.21707286491E+03  0.39141722815E+03  0.00000000000E+00 0. -1.
        -15    1    3    3    0    0  0.16111638125E+02  0.24908460680E+02  0.57977803022E+02  0.65150592236E+02  0.17770000000E+01 0. -1.
         15    1    3    3    0    0  0.68470100481E+02 -0.15444468974E+03  0.28399887539E+03  0.33045398439E+03  0.17770000000E+01 0. -1.
</event>
<event>
 8    1  0.1270595E-008  0.5015893E+03  0.7546771E-02  0.9396261E-01
        -11   -1    0    0    0    0  0.00000000000E+00  0.00000000000E+00  0.50000000000E+03  0.50000000000E+03  0.00000000000E+00 0.  1.
         11   -1    0    0    0    0 -0.00000000000E+00 -0.00000000000E+00 -0.50000000000E+03  0.50000000000E+03  0.00000000000E+00 0. -1.
         25    2    1    2    0    0 -0.41198677887E+03 -0.35678380937E+02  0.25487403480E+03  0.50158928058E+03  0.12499991978E+03 0.  0.
         23    2    1    2    0    0  0.41198677887E+03  0.35678380937E+02 -0.25487403480E+03  0.49841071942E+03  0.11156351905E+03 0.  0.
        -11    1    4    4    0    0  0.12918829860E+03  0.23598136368E+02 -0.24807466947E+02  0.13364841545E+03  0.00000000000E+00 0.  1.
         11    1    4    4    0    0  0.28279848027E+03  0.12080244569E+02 -0.23006656785E+03  0.36476230397E+03  0.00000000000E+00 0. -1.
        -15    1    3    3    0    0 -0.58647597891E+02  0.32631600321E+01 -0.82202554196E+01  0.59337334621E+02  0.17770000000E+01 0.  1.
         15    1    3    3    0    0 -0.35333918098E+03 -0.38941540969E+02  0.26309429022E+03  0.44225194596E+03  0.17770000000E+01 0.  1.
</event>
<event>
 8    1  0.1270595E-008  0.5022619E+03  0.7546771E-02  0.9394763E-01
        -11   -1    0    0    0    0  0.00000000000E+00  0.00000000000E+00  0.50000000000E+03  0.50000000000E+03  0.00000000000E+00 0.  1.
         11   -1    0    0    0    0 -0.00000000000E+00 -0.00000000000E+00 -0.50000000000E+03  0.50000000000E+03  0.00000000000E+00 0. -1.
         25    2    1    2    0    0 -0.36691801969E+03 -0.29175317041E+03 -0.12997177721E+03  0.50226194436E+03  0.12500260906E+03 0.  0.
         23    2    1    2    0    0  0.36691801969E+03  0.29175317041E+03  0.12997177721E+03  0.49773805564E+03  0.10536490662E+03 0.  0.
        -11    1    4    4    0    0  0.10016648864E+03  0.91600393332E+02  0.87639126823E+02  0.16156909994E+03  0.00000000000E+00 0. -1.
         11    1    4    4    0    0  0.26675153104E+03  0.20015277708E+03  0.42332650383E+02  0.33616895570E+03  0.00000000000E+00 0.  1.
        -15    1    3    3    0    0 -0.34801400431E+03 -0.22672924480E+03 -0.95242622826E+02  0.42613872457E+03  0.17770000000E+01 0. -1.
         15    1    3    3    0    0 -0.18904015372E+02 -0.65023925612E+02 -0.34729154381E+02  0.76123219797E+02  0.17770000000E+01 0. -1.
</event>
<event>
 8    1  0.1270595E-008  0.5019484E+03  0.7546771E-02  0.9395461E-01
        -11   -1    0    0    0    0  0.00000000000E+00  0.00000000000E+00  0.50000000000E+03  0.50000000000E+03  0.00000000000E+00 0.  1.
         11   -1    0    0    0    0 -0.00000000000E+00 -0.00000000000E+00 -0.50000000000E+03  0.50000000000E+03  0.00000000000E+00 0. -1.
         25    2    1    2    0    0  0.40377221110E+02  0.45050786170E+03 -0.17815643724E+03  0.50194838873E+03  0.12499926148E+03 0.  0.
         23    2    1    2    0    0 -0.40377221110E+02 -0.45050786170E+03  0.17815643724E+03  0.49805161127E+03  0.10829606604E+03 0.  0.
        -11    1    4    4    0    0 -0.48315328646E+02 -0.28146736208E+03  0.60442353365E+02  0.29191013168E+03  0.00000000000E+00 0. -1.
         11    1    4    4    0    0  0.79381075365E+01 -0.16904049962E+03  0.11771408388E+03  0.20614147959E+03  0.00000000000E+00 0.  1.
        -15    1    3    3    0    0 -0.41852289906E+02  0.22193357876E+03 -0.74339059418E+02  0.23777211997E+03  0.17770000000E+01 0.  1.
         15    1    3    3    0    0  0.82229511016E+02  0.22857428294E+03 -0.10381737783E+03  0.26417626875E+03  0.17770000000E+01 0.  1.
</event>
<event>
 8    1  0.1270595E-008  0.5011164E+03  0.7546771E-02  0.9397315E-01
        -11   -1    0    0    0    0  0.00000000000E+00  0.00000000000E+00  0.50000000000E+03  0.50000000000E+03  0.00000000000E+00 0.  1.
         11   -1    0    0    0    0 -0.00000000000E+00 -0.00000000000E+00 -0.50000000000E+03  0.50000000000E+03  0.00000000000E+00 0. -1.
         25    2    1    2    0    0  0.46441537509E+03 -0.53582684976E+02 -0.13015381263E+03  0.50111641642E+03  0.12499961247E+03 0.  0.
         23    2    1    2    0    0 -0.46441537509E+03  0.53582684976E+02  0.13015381263E+03  0.49888358358E+03  0.11572411278E+03 0.  0.
        -11    1    4    4    0    0 -0.13636630542E+03 -0.36273604156E+02  0.29357712532E+02  0.14412986816E+03  0.00000000000E+00 0.  1.
         11    1    4    4    0    0 -0.32804906967E+03  0.89856289132E+02  0.10079610010E+03  0.35475371542E+03  0.00000000000E+00 0. -1.
        -15    1    3    3    0    0  0.42308901689E+03 -0.10152747388E+02 -0.10477393849E+03  0.43599097515E+03  0.17770000000E+01 0.  1.
         15    1    3    3    0    0  0.41326358191E+02 -0.43429937588E+02 -0.25379874137E+02  0.65125441269E+02  0.17770000000E+01 0.  1.
</event>
<event>
 7    1  0.1270595E-008  0.5004239E+03  0.7546771E-02  0.9398862E-01
        -11   -1    0    0    0    0  0.00000000000E+00  0.00000000000E+00  0.50000000000E+03  0.50000000000E+03  0.00000000000E+00 0. -1.
         11   -1    0    0    0    0 -0.00000000000E+00 -0.00000000000E+00 -0.50000000000E+03  0.50000000000E+03  0.00000000000E+00 0.  1.
         25    2    1    2    0    0 -0.37595421774E+03 -0.29106583875E+03 -0.88826953609E+02  0.49957613134E+03  0.12500074795E+03 0.  0.
        -11    1    1    2    0    0  0.11587122834E+03  0.13881675642E+03 -0.15558906610E+02  0.18148915393E+03  0.00000000000E+00 0. -1.
         11    1    1    2    0    0  0.26008298940E+03  0.15224908233E+03  0.10438586022E+03  0.31893471473E+03  0.00000000000E+00 0.  1.
        -15    1    3    3    0    0 -0.17722044536E+03 -0.14143331827E+03  0.20843199530E+02  0.22770170501E+03  0.17770000000E+01 0.  1.
         15    1    3    3    0    0 -0.19873377238E+03 -0.14963252049E+03 -0.10967015314E+03  0.27187442633E+03  0.17770000000E+01 0.  1.
</event>
<event>
 8    1  0.1270595E-008  0.5001474E+03  0.7546771E-02  0.9399480E-01
        -11   -1    0    0    0    0  0.00000000000E+00  0.00000000000E+00  0.50000000000E+03  0.50000000000E+03  0.00000000000E+00 0.  1.
         11   -1    0    0    0    0 -0.00000000000E+00 -0.00000000000E+00 -0.50000000000E+03  0.50000000000E+03  0.00000000000E+00 0. -1.
         25    2    1    2    0    0 -0.44561960571E+03 -0.13253056456E+03 -0.13557647877E+03  0.50014743397E+03  0.12500116228E+03 0.  0.
         23    2    1    2    0    0  0.44561960571E+03  0.13253056456E+03  0.13557647877E+03  0.49985256603E+03  0.12381608391E+03 0.  0.
        -11    1    4    4    0    0  0.87746443915E+01  0.22990464316E+02 -0.99669387923E+01  0.26549871988E+02  0.00000000000E+00 0. -1.
         11    1    4    4    0    0  0.43684496132E+03  0.10954010025E+03  0.14554341756E+03  0.47330269404E+03  0.00000000000E+00 0.  1.
        -15    1    3    3    0    0 -0.33693282648E+03 -0.14884336941E+03 -0.79829493098E+02  0.37690049599E+03  0.17770000000E+01 0. -1.
         15    1    3    3    0    0 -0.10868677923E+03  0.16312804849E+02 -0.55746985668E+02  0.12324693798E+03  0.17770000000E+01 0. -1.
</event>
<event>
 7    1  0.1270595E-008  0.5046107E+03  0.7546771E-02  0.9389552E-01
        -11   -1    0    0    0    0  0.00000000000E+00  0.00000000000E+00  0.50000000000E+03  0.50000000000E+03  0.00000000000E+00 0.  1.
         11   -1    0    0    0    0 -0.00000000000E+00 -0.00000000000E+00 -0.50000000000E+03  0.50000000000E+03  0.00000000000E+00 0. -1.
         25    2    1    2    0    0  0.31616499589E+03  0.25735958221E+03  0.25217019618E+03  0.49538925278E+03  0.12500577886E+03 0.  0.
        -11    1    1    2    0    0 -0.12626872851E+03 -0.10814047348E+03 -0.19533559447E+03  0.25650370031E+03  0.00000000000E+00 0. -1.
         11    1    1    2    0    0 -0.18989626738E+03 -0.14921910873E+03 -0.56834601711E+02  0.24810704691E+03  0.00000000000E+00 0.  1.
        -15    1    3    3    0    0  0.19359660790E+03  0.17747765835E+03  0.91602875392E+02  0.27815860640E+03  0.17770000000E+01 0.  1.
         15    1    3    3    0    0  0.12256838799E+03  0.79881923861E+02  0.16056732079E+03  0.21723064638E+03  0.17770000000E+01 0.  1.
</event>
<event>
 8    1  0.1270595E-008  0.5020840E+03  0.7546771E-02  0.9395159E-01
        -11   -1    0    0    0    0  0.00000000000E+00  0.00000000000E+00  0.50000000000E+03  0.50000000000E+03  0.00000000000E+00 0.  1.
         11   -1    0    0    0    0 -0.00000000000E+00 -0.00000000000E+00 -0.50000000000E+03  0.50000000000E+03  0.00000000000E+00 0. -1.
         25    2    1    2    0    0 -0.56229613804E+02  0.27795669616E+03  0.39502092207E+03  0.50208397414E+03  0.12500037521E+03 0.  0.
         23    2    1    2    0    0  0.56229613804E+02 -0.27795669616E+03 -0.39502092207E+03  0.49791602586E+03  0.10703805647E+03 0.  0.
        -11    1    4    4    0    0 -0.70197248789E+01 -0.20807667439E+03 -0.28688573047E+03  0.35446946456E+03  0.00000000000E+00 0. -1.
         11    1    4    4    0    0  0.63249338683E+02 -0.69880021765E+02 -0.10813519160E+03  0.14344656130E+03  0.00000000000E+00 0.  1.
        -15    1    3    3    0    0 -0.72983621108E+02  0.10846764442E+03  0.23205826753E+03  0.26635697118E+03  0.17770000000E+01 0.  1.
         15    1    3    3    0    0  0.16754007304E+02  0.16948905174E+03  0.16296265454E+03  0.23572700296E+03  0.17770000000E+01 0.  1.
</event>
<event>
 8    1  0.1270595E-008  0.5022791E+03  0.7546771E-02  0.9394724E-01
        -11   -1    0    0    0    0  0.00000000000E+00  0.00000000000E+00  0.50000000000E+03  0.50000000000E+03  0.00000000000E+00 0.  1.
         11   -1    0    0    0    0 -0.00000000000E+00 -0.00000000000E+00 -0.50000000000E+03  0.50000000000E+03  0.00000000000E+00 0. -1.
         25    2    1    2    0    0  0.44566069470E+03  0.18915044607E+03  0.47623909571E+02  0.50227913282E+03  0.12499977783E+03 0.  0.
         23    2    1    2    0    0 -0.44566069470E+03 -0.18915044607E+03 -0.47623909571E+02  0.49772086718E+03  0.10519828332E+03 0.  0.
        -11    1    4    4    0    0 -0.22930102807E+03 -0.13236386078E+03  0.15745458458E+02  0.26523022561E+03  0.00000000000E+00 0.  1.
         11    1    4    4    0    0 -0.21635966663E+03 -0.56786585287E+02 -0.63369368029E+02  0.23249064157E+03  0.00000000000E+00 0. -1.
        -15    1    3    3    0    0  0.68841593548E+02  0.80649322912E+02  0.27858976503E+02  0.10964834057E+03  0.17770000000E+01 0.  1.
         15    1    3    3    0    0  0.37681910115E+03  0.10850112315E+03  0.19764933068E+02  0.39263079225E+03  0.17770000000E+01 0.  1.
</event>
<event>
 8    1  0.1270595E-008  0.5023858E+03  0.7546771E-02  0.9394487E-01
        -11   -1    0    0    0    0  0.00000000000E+00  0.00000000000E+00  0.50000000000E+03  0.50000000000E+03  0.00000000000E+00 0.  1.
         11   -1    0    0    0    0 -0.00000000000E+00 -0.00000000000E+00 -0.50000000000E+03  0.50000000000E+03  0.00000000000E+00 0. -1.
         25    2    1    2    0    0  0.40346028479E+03 -0.19254335516E+02 -0.27132073755E+03  0.50238580839E+03  0.12500250800E+03 0.  0.
         23    2    1    2    0    0 -0.40346028479E+03  0.19254335516E+02  0.27132073755E+03  0.49761419161E+03  0.10418258125E+03 0.  0.
        -11    1    4    4    0    0 -0.26289692095E+03  0.23629210477E+02  0.23242675126E+03  0.35170346222E+03  0.00000000000E+00 0.  1.
         11    1    4    4    0    0 -0.14056336384E+03 -0.43748749614E+01  0.38893986286E+02  0.14591072940E+03  0.00000000000E+00 0. -1.
        -15    1    3    3    0    0  0.25621140490E+03 -0.43781022334E+02 -0.23101342867E+03  0.34775195739E+03  0.17770000000E+01 0.  1.
         15    1    3    3    0    0  0.14724887989E+03  0.24526686818E+02 -0.40307308881E+02  0.15463385099E+03  0.17770000000E+01 0.  1.
</event>
<event>
 7    1  0.1270595E-008  0.5082533E+03  0.7546771E-02  0.9381529E-01
        -11   -1    0    0    0    0  0.00000000000E+00  0.00000000000E+00  0.50000000000E+03  0.50000000000E+03  0.00000000000E+00 0.  1.
         11   -1    0    0    0    0 -0.00000000000E+00 -0.00000000000E+00 -0.50000000000E+03  0.50000000000E+03  0.00000000000E+00 0.  1.
         25    2    1    2    0    0 -0.88848838277E+02 -0.37720333585E+03  0.27570540019E+03  0.49174671165E+03  0.12499955235E+03 0.  0.
        -11    1    1    2    0    0  0.33354392898E+02  0.67645713150E+02  0.18437271902E+02  0.77642713943E+02  0.00000000000E+00 0.  1.
         11    1    1    2    0    0  0.55494445379E+02  0.30955762270E+03 -0.29414267210E+03  0.43061057440E+03  0.00000000000E+00 0.  1.
        -15    1    3    3    0    0 -0.40326285976E+02 -0.18182791875E+02  0.38868089067E+02  0.58912726449E+02  0.17770000000E+01 0.  1.
         15    1    3    3    0    0 -0.48522552301E+02 -0.35902054398E+03  0.23683731113E+03  0.43283398521E+03  0.17770000000E+01 0.  1.
</event>
<event>
 8    1  0.1270595E-008  0.5002733E+03  0.7546771E-02  0.9399198E-01
        -11   -1    0    0    0    0  0.00000000000E+00  0.00000000000E+00  0.50000000000E+03  0.50000000000E+03  0.00000000000E+00 0. -1.
         11   -1    0    0    0    0 -0.00000000000E+00 -0.00000000000E+00 -0.50000000000E+03  0.50000000000E+03  0.00000000000E+00 0.  1.
         25    2    1    2    0    0 -0.10172989111E+03 -0.47309437345E+03  0.21926544283E+02  0.50027334255E+03  0.12500154793E+03 0.  0.
         23    2    1    2    0    0  0.10172989111E+03  0.47309437345E+03 -0.21926544283E+02  0.49972665745E+03  0.12279536591E+03 0.  0.
        -11    1    4    4    0    0  0.11088627912E+03  0.26333305188E+03  0.16813523677E+02  0.28622151856E+03  0.00000000000E+00 0.  1.
         11    1    4    4    0    0 -0.91563880040E+01  0.20976132157E+03 -0.38740067960E+02  0.21350513889E+03  0.00000000000E+00 0. -1.
        -15    1    3    3    0    0 -0.74806856341E+02 -0.44902588204E+03  0.44913390953E+02  0.45742833200E+03  0.17770000000E+01 0. -1.
         15    1    3    3    0    0 -0.26923034774E+02 -0.24068491404E+02 -0.22986846670E+02  0.42845010547E+02  0.17770000000E+01 0. -1.
</event>
<event>
 8    1  0.1270595E-008  0.5018977E+03  0.7546771E-02  0.9395573E-01
        -11   -1    0    0    0    0  0.00000000000E+00  0.00000000000E+00  0.50000000000E+03  0.50000000000E+03  0.00000000000E+00 0. -1.
         11   -1    0    0    0    0 -0.00000000000E+00 -0.00000000000E+00 -0.50000000000E+03  0.50000000000E+03  0.00000000000E+00 0.  1.
         25    2    1    2    0    0 -0.29223143008E+02 -0.43597370524E+03 -0.21295588326E+03  0.50189772766E+03  0.12499622818E+03 0.  0.
         23    2    1    2    0    0  0.29223143008E+02  0.43597370524E+03  0.21295588326E+03  0.49810227234E+03  0.10875937545E+03 0.  0.
        -11    1    4    4    0    0 -0.37221667872E+02  0.19930821795E+03  0.11794392816E+03  0.23456339973E+03  0.00000000000E+00 0. -1.
         11    1    4    4    0    0  0.66444810880E+02  0.23666548729E+03  0.95011955095E+02  0.26353887261E+03  0.00000000000E+00 0.  1.
        -15    1    3    3    0    0 -0.45659730463E+02 -0.37204149074E+03 -0.22137633290E+03  0.43532783085E+03  0.17770000000E+01 0. -1.
         15    1    3    3    0    0  0.16436587455E+02 -0.63932214509E+02  0.84204496465E+01  0.66569896804E+02  0.17770000000E+01 0. -1.
</event>
<event>
 7    1  0.1270595E-008  0.5101708E+03  0.7546771E-02  0.9377335E-01
        -11   -1    0    0    0    0  0.00000000000E+00  0.00000000000E+00  0.50000000000E+03  0.50000000000E+03  0.00000000000E+00 0.  1.
         11   -1    0    0    0    0 -0.00000000000E+00 -0.00000000000E+00 -0.50000000000E+03  0.50000000000E+03  0.00000000000E+00 0. -1.
         25    2    1    2    0    0  0.39720502876E+02  0.46047087677E+03  0.10343486583E+03  0.48982922865E+03  0.12499101994E+03 0.  0.
        -11    1    1    2    0    0 -0.66990455621E+01 -0.33888270728E+03  0.12184757576E+02  0.33916785641E+03  0.00000000000E+00 0.  1.
         11    1    1    2    0    0 -0.33021457313E+02 -0.12158816949E+03 -0.11561962341E+03  0.17100291494E+03  0.00000000000E+00 0. -1.
        -15    1    3    3    0    0  0.13519899318E+02  0.39443789994E+02  0.49192470633E+02  0.64510907161E+02  0.17770000000E+01 0. -1.
         15    1    3    3    0    0  0.26200603558E+02  0.42102708677E+03  0.54242395197E+02  0.42531832148E+03  0.17770000000E+01 0. -1.
</event>
<event>
 8    1  0.1270595E-008  0.5048986E+03  0.7546771E-02  0.9388915E-01
        -11   -1    0    0    0    0  0.00000000000E+00  0.00000000000E+00  0.50000000000E+03  0.50000000000E+03  0.00000000000E+00 0. -1.
         11   -1    0    0    0    0 -0.00000000000E+00 -0.00000000000E+00 -0.50000000000E+03  0.50000000000E+03  0.00000000000E+00 0.  1.
         25    2    1    2    0    0  0.40346772770E+03  0.27129330603E+03 -0.53952035133E+02  0.50489857570E+03  0.12500193784E+03 0.  0.
         23    2    1    2    0    0 -0.40346772770E+03 -0.27129330603E+03  0.53952035133E+02  0.49510142430E+03  0.76343520084E+02 0.  0.
        -11    1    4    4    0    0 -0.69408204950E+02 -0.49105646836E+02  0.39210315957E+02  0.93628587211E+02  0.00000000000E+00 0. -1.
         11    1    4    4    0    0 -0.33405952275E+03 -0.22218765919E+03  0.14741719175E+02  0.40147283709E+03  0.00000000000E+00 0.  1.
        -15    1    3    3    0    0  0.57585214023E+02 -0.31354417117E+01  0.10633627842E+02  0.58669580183E+02  0.17770000000E+01 0.  1.
         15    1    3    3    0    0  0.34588251367E+03  0.27442874774E+03 -0.64585662974E+02  0.44622899552E+03  0.17770000000E+01 0.  1.
</event>
<event>
 8    1  0.1270595E-008  0.5023912E+03  0.7546771E-02  0.9394475E-01
        -11   -1    0    0    0    0  0.00000000000E+00  0.00000000000E+00  0.50000000000E+03  0.50000000000E+03  0.00000000000E+00 0. -1.
         11   -1    0    0    0    0 -0.00000000000E+00 -0.00000000000E+00 -0.50000000000E+03  0.50000000000E+03  0.00000000000E+00 0.  1.
         25    2    1    2    0    0  0.34587405596E+03 -0.83245031748E+02  0.33198331004E+03  0.50239119501E+03  0.12500158714E+03 0.  0.
         23    2    1    2    0    0 -0.34587405596E+03  0.83245031748E+02 -0.33198331004E+03  0.49760880499E+03  0.10412975925E+03 0.  0.
        -11    1    4    4    0    0 -0.15022685026E+03  0.15493993921E+02 -0.78159176289E+02  0.17005007270E+03  0.00000000000E+00 0. -1.
         11    1    4    4    0    0 -0.19564720569E+03  0.67751037827E+02 -0.25382413375E+03  0.32755873228E+03  0.00000000000E+00 0.  1.
        -15    1    3    3    0    0  0.15605628362E+03 -0.10086163426E+03  0.14960120188E+03  0.23855881928E+03  0.17770000000E+01 0.  1.
         15    1    3    3    0    0  0.18981777234E+03  0.17616602514E+02  0.18238210816E+03  0.26383237574E+03  0.17770000000E+01 0.  1.
</event>
<event>
 8    1  0.1270595E-008  0.5015192E+03  0.7546771E-02  0.9396417E-01
        -11   -1    0    0    0    0  0.00000000000E+00  0.00000000000E+00  0.50000000000E+03  0.50000000000E+03  0.00000000000E+00 0. -1.
         11   -1    0    0    0    0 -0.00000000000E+00 -0.00000000000E+00 -0.50000000000E+03  0.50000000000E+03  0.00000000000E+00 0.  1.
         25    2    1    2    0    0 -0.10019811442E+03 -0.47266235606E+03  0.49467731296E+02  0.50151922711E+03  0.12500045498E+03 0.  0.
         23    2    1    2    0    0  0.10019811442E+03  0.47266235606E+03 -0.49467731296E+02  0.49848077289E+03  0.11219028270E+03 0.  0.
        -11    1    4    4    0    0  0.10850291439E+02  0.86766819931E+02 -0.53208757889E+02  0.10235908255E+03  0.00000000000E+00 0.  1.
         11    1    4    4    0    0  0.89347822983E+02  0.38589553613E+03  0.37410265925E+01  0.39612169034E+03  0.00000000000E+00 0. -1.
        -15    1    3    3    0    0 -0.12415152402E+03 -0.42074227534E+03  0.25278352702E+02  0.43940848424E+03  0.17770000000E+01 0. -1.
         15    1    3    3    0    0  0.23953409601E+02 -0.51920080719E+02  0.24189378594E+02  0.62110742864E+02  0.17770000000E+01 0. -1.
</event>
<event>
 8    1  0.1270595E-008  0.5017200E+03  0.7546771E-02  0.9395969E-01
        -11   -1    0    0    0    0  0.00000000000E+00  0.00000000000E+00  0.50000000000E+03  0.50000000000E+03  0.00000000000E+00 0. -1.
         11   -1    0    0    0    0 -0.00000000000E+00 -0.00000000000E+00 -0.50000000000E+03  0.50000000000E+03  0.00000000000E+00 0.  1.
         25    2    1    2    0    0  0.38884357892E+03  0.98437857038E+02  0.27424007194E+03  0.50172004584E+03  0.12500418703E+03 0.  0.
         23    2    1    2    0    0 -0.38884357892E+03 -0.98437857038E+02 -0.27424007194E+03  0.49827995416E+03  0.11039001353E+03 0.  0.
        -11    1    4    4    0    0 -0.88708522381E+02  0.23164805234E+02 -0.50500416889E+02  0.10467140130E+03  0.00000000000E+00 0.  1.
         11    1    4    4    0    0 -0.30013505654E+03 -0.12160266227E+03 -0.22373965505E+03  0.39360855285E+03  0.00000000000E+00 0. -1.
        -15    1    3    3    0    0  0.19076125715E+03  0.90697797345E+02  0.19738555361E+03  0.28910233859E+03  0.17770000000E+01 0.  1.
         15    1    3    3    0    0  0.19808232177E+03  0.77400596924E+01  0.76854518329E+02  0.21261770726E+03  0.17770000000E+01 0.  1.
</event>
<event>
 8    1  0.1273711E-008  0.5021823E+03  0.7546771E-02  0.9394940E-01
        -11   -1    0    0    0    0  0.00000000000E+00  0.00000000000E+00  0.50000000000E+03  0.50000000000E+03  0.00000000000E+00 0.  1.
         11   -1    0    0    0    0 -0.00000000000E+00 -0.00000000000E+00 -0.50000000000E+03  0.50000000000E+03  0.00000000000E+00 0. -1.
         25    2    1    2    0    0  0.26652392943E+03 -0.36281005580E+03  0.18410814041E+03  0.50218232341E+03  0.12500054813E+03 0.  0.
         23    2    1    2    0    0 -0.26652392943E+03  0.36281005580E+03 -0.18410814041E+03  0.49781767659E+03  0.10611545698E+03 0.  0.
        -11    1    4    4    0    0 -0.13959827438E+03  0.11159364651E+03 -0.96101179595E+02  0.20291933587E+03  0.00000000000E+00 0.  1.
         11    1    4    4    0    0 -0.12692565505E+03  0.25121640929E+03 -0.88006960816E+02  0.29489834072E+03  0.00000000000E+00 0. -1.
        -15    1    3    3    0    0  0.14438294624E+03 -0.12894700425E+03  0.12903520651E+03  0.23265211651E+03  0.17770000000E+01 0.  1.
         15    1    3    3    0    0  0.12214098319E+03 -0.23386305155E+03  0.55072933904E+02  0.26953020690E+03  0.17770000000E+01 0.  1.
</event>
<event>
 7    1  0.1270595E-008  0.5008921E+03  0.7546771E-02  0.9397816E-01
        -11   -1    0    0    0    0  0.00000000000E+00  0.00000000000E+00  0.50000000000E+03  0.50000000000E+03  0.00000000000E+00 0.  1.
         11   -1    0    0    0    0 -0.00000000000E+00 -0.00000000000E+00 -0.50000000000E+03  0.50000000000E+03  0.00000000000E+00 0. -1.
         25    2    1    2    0    0 -0.15842036434E+03 -0.29781771603E+03 -0.34596641047E+03  0.49910793593E+03  0.12499428274E+03 0.  0.
        -11    1    1    2    0    0  0.85604043987E+02  0.24554643839E+03  0.19389971409E+03  0.32437355761E+03  0.00000000000E+00 0. -1.
         11    1    1    2    0    0  0.72816320356E+02  0.52271277636E+02  0.15206669638E+03  0.17651850646E+03  0.00000000000E+00 0.  1.
        -15    1    3    3    0    0 -0.15382647638E+01 -0.11053701338E+02  0.10522789171E+02  0.15441418092E+02  0.17770000000E+01 0. -1.
         15    1    3    3    0    0 -0.15688209958E+03 -0.28676401469E+03 -0.35648919964E+03  0.48366651784E+03  0.17770000000E+01 0. -1.
</event>
<event>
 8    1  0.1270595E-008  0.5048684E+03  0.7546771E-02  0.9388982E-01
        -11   -1    0    0    0    0  0.00000000000E+00  0.00000000000E+00  0.50000000000E+03  0.50000000000E+03  0.00000000000E+00 0.  1.
         11   -1    0    0    0    0 -0.00000000000E+00 -0.00000000000E+00 -0.50000000000E+03  0.50000000000E+03  0.00000000000E+00 0. -1.
         25    2    1    2    0    0 -0.43509247349E+03 -0.96473148857E+02  0.20163019593E+03  0.50486839835E+03  0.12499933919E+03 0.  0.
         23    2    1    2    0    0  0.43509247349E+03  0.96473148857E+02 -0.20163019593E+03  0.49513160165E+03  0.76733552679E+02 0.  0.
        -11    1    4    4    0    0  0.35573008524E+03  0.69312438206E+02 -0.13065453044E+03  0.38525149443E+03  0.00000000000E+00 0.  1.
         11    1    4    4    0    0  0.79362388246E+02  0.27160710651E+02 -0.70975665489E+02  0.10988010722E+03  0.00000000000E+00 0. -1.
        -15    1    3    3    0    0 -0.43221455361E+03 -0.10138031540E+03  0.21271832096E+03  0.49228003261E+03  0.17770000000E+01 0. -1.
         15    1    3    3    0    0 -0.28779198830E+01  0.49071665412E+01 -0.11088125031E+02  0.12588365740E+02  0.17770000000E+01 0. -1.
</event>
<event>
 7    1  0.1270595E-008  0.5026939E+03  0.7546771E-02  0.9393802E-01
        -11   -1    0    0    0    0  0.00000000000E+00  0.00000000000E+00  0.50000000000E+03  0.50000000000E+03  0.00000000000E+00 0. -1.
         11   -1    0    0    0    0 -0.00000000000E+00 -0.00000000000E+00 -0.50000000000E+03  0.50000000000E+03  0.00000000000E+00 0.  1.
         25    2    1    2    0    0  0.26082165238E+03 -0.34163584973E+02  0.40310444906E+03  0.49730607082E+03  0.12500018536E+03 0.  0.
        -11    1    1    2    0    0 -0.17458165811E+03 -0.32852466933E+02 -0.17290586077E+03  0.24790013437E+03  0.00000000000E+00 0. -1.
         11    1    1    2    0    0 -0.86239994274E+02  0.67016051906E+02 -0.23019858828E+03  0.25479379481E+03  0.00000000000E+00 0.  1.
        -15    1    3    3    0    0 -0.13641679092E+02 -0.62415124123E+00  0.29010897822E+02  0.32113469054E+02  0.17770000000E+01 0. -1.
         15    1    3    3    0    0  0.27446333147E+03 -0.33539433732E+02  0.37409355123E+03  0.46519260177E+03  0.17770000000E+01 0. -1.
</event>
<event>
 8    1  0.1270595E-008  0.5019284E+03  0.7546771E-02  0.9395505E-01
        -11   -1    0    0    0    0  0.00000000000E+00  0.00000000000E+00  0.50000000000E+03  0.50000000000E+03  0.00000000000E+00 0.  1.
         11   -1    0    0    0    0 -0.00000000000E+00 -0.00000000000E+00 -0.50000000000E+03  0.50000000000E+03  0.00000000000E+00 0. -1.
         25    2    1    2    0    0  0.41460452761E+03  0.13821412213E+03 -0.21285525564E+03  0.50192840797E+03  0.12499883599E+03 0.  0.
         23    2    1    2    0    0 -0.41460452761E+03 -0.13821412213E+03  0.21285525564E+03  0.49807159203E+03  0.10847992011E+03 0.  0.
        -11    1    4    4    0    0 -0.18903692265E+03 -0.17567633648E+02  0.55722626553E+02  0.19786002877E+03  0.00000000000E+00 0. -1.
         11    1    4    4    0    0 -0.22556760496E+03 -0.12064648849E+03  0.15713262909E+03  0.30021156326E+03  0.00000000000E+00 0.  1.
        -15    1    3    3    0    0  0.88783167740E+02 -0.16960570288E+02 -0.67678336651E+02  0.11293195650E+03  0.17770000000E+01 0. -1.
         15    1    3    3    0    0  0.32582135987E+03  0.15517469242E+03 -0.14517691899E+03  0.38899645146E+03  0.17770000000E+01 0. -1.
</event>
<event>
 7    1  0.1270595E-008  0.5012115E+03  0.7546771E-02  0.9397103E-01
        -11   -1    0    0    0    0  0.00000000000E+00  0.00000000000E+00  0.50000000000E+03  0.50000000000E+03  0.00000000000E+00 0.  1.
         11   -1    0    0    0    0 -0.00000000000E+00 -0.00000000000E+00 -0.50000000000E+03  0.50000000000E+03  0.00000000000E+00 0. -1.
         25    2    1    2    0    0  0.18432547417E+03 -0.22926140863E+03  0.38291618359E+03  0.49878851633E+03  0.12501402504E+03 0.  0.
        -11    1    1    2    0    0 -0.11095693030E+03  0.16048438534E+03 -0.33972354403E+03  0.39176365922E+03  0.00000000000E+00 0. -1.
         11    1    1    2    0    0 -0.73368543874E+02  0.68777023292E+02 -0.43192639555E+02  0.10944782444E+03  0.00000000000E+00 0.  1.
        -15    1    3    3    0    0  0.53856363314E+00 -0.85361823125E+02  0.87143740520E+02  0.12200049237E+03  0.17770000000E+01 0. -1.
         15    1    3    3    0    0  0.18378691054E+03 -0.14389958551E+03  0.29577244307E+03  0.37678802396E+03  0.17770000000E+01 0. -1.
</event>
<event>
 8    1  0.1270595E-008  0.5009464E+03  0.7546771E-02  0.9397695E-01
        -11   -1    0    0    0    0  0.00000000000E+00  0.00000000000E+00  0.50000000000E+03  0.50000000000E+03  0.00000000000E+00 0.  1.
         11   -1    0    0    0    0 -0.00000000000E+00 -0.00000000000E+00 -0.50000000000E+03  0.50000000000E+03  0.00000000000E+00 0. -1.
         25    2    1    2    0    0  0.19313737330E+03 -0.26279679562E+02  0.44421986541E+03  0.50094637952E+03  0.12499327905E+03 0.  0.
         23    2    1    2    0    0 -0.19313737330E+03  0.26279679562E+02 -0.44421986541E+03  0.49905362048E+03  0.11717747553E+03 0.  0.
        -11    1    4    4    0    0 -0.60568070087E+02 -0.46321518913E+02 -0.15275043720E+03  0.17072454508E+03  0.00000000000E+00 0.  1.
         11    1    4    4    0    0 -0.13256930321E+03  0.72601198475E+02 -0.29146942821E+03  0.32832907540E+03  0.00000000000E+00 0. -1.
        -15    1    3    3    0    0  0.18579344192E+03 -0.59491571328E+02  0.34914868243E+03  0.39995801066E+03  0.17770000000E+01 0. -1.
         15    1    3    3    0    0  0.73439313754E+01  0.33211891766E+02  0.95071182975E+02  0.10098836885E+03  0.17770000000E+01 0. -1.
</event>
<event>
 8    1  0.1270595E-008  0.5018179E+03  0.7546771E-02  0.9395751E-01
        -11   -1    0    0    0    0  0.00000000000E+00  0.00000000000E+00  0.50000000000E+03  0.50000000000E+03  0.00000000000E+00 0. -1.
         11   -1    0    0    0    0 -0.00000000000E+00 -0.00000000000E+00 -0.50000000000E+03  0.50000000000E+03  0.00000000000E+00 0.  1.
         25    2    1    2    0    0  0.33304762131E+03  0.32387761683E+03  0.14275636461E+03  0.50181789295E+03  0.12499755719E+03 0.  0.
         23    2    1    2    0    0 -0.33304762131E+03 -0.32387761683E+03 -0.14275636461E+03  0.49818210705E+03  0.10949248102E+03 0.  0.
        -11    1    4    4    0    0 -0.31246208628E+03 -0.28833399313E+03 -0.15911813172E+03  0.45396875090E+03  0.00000000000E+00 0. -1.
         11    1    4    4    0    0 -0.20585535033E+02 -0.35543623707E+02  0.16361767110E+02  0.44213356147E+02  0.00000000000E+00 0.  1.
        -15    1    3    3    0    0  0.28160891833E+03  0.19573161239E+03  0.10446199826E+03  0.35851068852E+03  0.17770000000E+01 0. -1.
         15    1    3    3    0    0  0.51438702978E+02  0.12814600444E+03  0.38294366342E+02  0.14330720443E+03  0.17770000000E+01 0. -1.
</event>
<event>
 8    1  0.1270595E-008  0.5023824E+03  0.7546771E-02  0.9394495E-01
        -11   -1    0    0    0    0  0.00000000000E+00  0.00000000000E+00  0.50000000000E+03  0.50000000000E+03  0.00000000000E+00 0. -1.
         11   -1    0    0    0    0 -0.00000000000E+00 -0.00000000000E+00 -0.50000000000E+03  0.50000000000E+03  0.00000000000E+00 0.  1.
         25    2    1    2    0    0 -0.47261093298E+03  0.20504213819E+02 -0.11395083304E+03  0.50238240998E+03  0.12498710632E+03 0.  0.
         23    2    1    2    0    0  0.47261093298E+03 -0.20504213819E+02  0.11395083304E+03  0.49761759002E+03  0.10419672158E+03 0.  0.
        -11    1    4    4    0    0  0.22816215666E+03 -0.61025927267E+02  0.45158820776E+02  0.24046091704E+03  0.00000000000E+00 0.  1.
         11    1    4    4    0    0  0.24444877633E+03  0.40521713448E+02  0.68792012264E+02  0.25715667298E+03  0.00000000000E+00 0. -1.
        -15    1    3    3    0    0 -0.22218777790E+03  0.20619089193E+02 -0.11694254349E+03  0.25193505451E+03  0.17770000000E+01 0. -1.
         15    1    3    3    0    0 -0.25042315509E+03 -0.11487537347E+00  0.29917104452E+01  0.25044735547E+03  0.17770000000E+01 0. -1.
</event>
<event>
 8    1  0.1270595E-008  0.5019375E+03  0.7546771E-02  0.9395485E-01
        -11   -1    0    0    0    0  0.00000000000E+00  0.00000000000E+00  0.50000000000E+03  0.50000000000E+03  0.00000000000E+00 0.  1.
         11   -1    0    0    0    0 -0.00000000000E+00 -0.00000000000E+00 -0.50000000000E+03  0.50000000000E+03  0.00000000000E+00 0. -1.
         25    2    1    2    0    0 -0.37746460214E+03 -0.22958803986E+03 -0.20279712319E+03  0.50193751488E+03  0.12499760699E+03 0.  0.
         23    2    1    2    0    0  0.37746460214E+03  0.22958803986E+03  0.20279712319E+03  0.49806248512E+03  0.10839452010E+03 0.  0.
        -11    1    4    4    0    0  0.15327767662E+03  0.33419034103E+02  0.75667572976E+02  0.17417364780E+03  0.00000000000E+00 0. -1.
         11    1    4    4    0    0  0.22418692553E+03  0.19616900576E+03  0.12712955021E+03  0.32388883731E+03  0.00000000000E+00 0.  1.
        -15    1    3    3    0    0 -0.10123277252E+03 -0.25079691603E+02 -0.96691513916E+02  0.14223034752E+03  0.17770000000E+01 0. -1.
         15    1    3    3    0    0 -0.27623182963E+03 -0.20450834826E+03 -0.10610560927E+03  0.35970716737E+03  0.17770000000E+01 0. -1.
</event>
<event>
 7    1  0.1270595E-008  0.5044115E+03  0.7546771E-02  0.9389992E-01
        -11   -1    0    0    0    0  0.00000000000E+00  0.00000000000E+00  0.50000000000E+03  0.50000000000E+03  0.00000000000E+00 0.  1.
         11   -1    0    0    0    0 -0.00000000000E+00 -0.00000000000E+00 -0.50000000000E+03  0.50000000000E+03  0.00000000000E+00 0. -1.
         25    2    1    2    0    0 -0.46858029648E+03  0.10057129631E+03 -0.17342274852E+02  0.49558846636E+03  0.12500037438E+03 0.  0.
        -11    1    1    2    0    0  0.19813855266E+03 -0.66639378847E+02  0.81550858018E+02  0.22438858105E+03  0.00000000000E+00 0.  1.
         11    1    1    2    0    0  0.27044174382E+03 -0.33931917464E+02 -0.64208583166E+02  0.28002295259E+03  0.00000000000E+00 0. -1.
        -15    1    3    3    0    0 -0.44287086968E+03  0.11643751852E+03  0.50312241336E+01  0.45795280747E+03  0.17770000000E+01 0. -1.
         15    1    3    3    0    0 -0.25709426807E+02 -0.15866222206E+02 -0.22373498985E+02  0.37635658885E+02  0.17770000000E+01 0. -1.
</event>
<event>
 8    1  0.1270595E-008  0.5022723E+03  0.7546771E-02  0.9394740E-01
        -11   -1    0    0    0    0  0.00000000000E+00  0.00000000000E+00  0.50000000000E+03  0.50000000000E+03  0.00000000000E+00 0. -1.
         11   -1    0    0    0    0 -0.00000000000E+00 -0.00000000000E+00 -0.50000000000E+03  0.50000000000E+03  0.00000000000E+00 0.  1.
         25    2    1    2    0    0  0.41974678800E+03 -0.22002752449E+03 -0.10979583980E+03  0.50227226184E+03  0.12499128373E+03 0.  0.
         23    2    1    2    0    0 -0.41974678800E+03  0.22002752449E+03  0.10979583980E+03  0.49772773816E+03  0.10525349082E+03 0.  0.
        -11    1    4    4    0    0 -0.37736132485E+03  0.17578735514E+03  0.63891089262E+02  0.42117079078E+03  0.00000000000E+00 0.  1.
         11    1    4    4    0    0 -0.42385463149E+02  0.44240169348E+02  0.45904750536E+02  0.76556947379E+02  0.00000000000E+00 0. -1.
        -15    1    3    3    0    0  0.27817009988E+03 -0.18202968894E+03 -0.12438949109E+03  0.35494973637E+03  0.17770000000E+01 0. -1.
         15    1    3    3    0    0  0.14157668812E+03 -0.37997835544E+02  0.14593651290E+02  0.14732252547E+03  0.17770000000E+01 0. -1.
</event>
<event>
 8    1  0.1270595E-008  0.5019700E+03  0.7546771E-02  0.9395412E-01
        -11   -1    0    0    0    0  0.00000000000E+00  0.00000000000E+00  0.50000000000E+03  0.50000000000E+03  0.00000000000E+00 0.  1.
         11   -1    0    0    0    0 -0.00000000000E+00 -0.00000000000E+00 -0.50000000000E+03  0.50000000000E+03  0.00000000000E+00 0. -1.
         25    2    1    2    0    0 -0.28157352220E+03  0.39132151056E+03 -0.62708686188E+02  0.50197002250E+03  0.12500140454E+03 0.  0.
         23    2    1    2    0    0  0.28157352220E+03 -0.39132151056E+03  0.62708686188E+02  0.49802997750E+03  0.10809859451E+03 0.  0.
        -11    1    4    4    0    0  0.65715895773E+02 -0.16525054753E+03  0.51951315056E+02  0.18527077901E+03  0.00000000000E+00 0.  1.
         11    1    4    4    0    0  0.21585762642E+03 -0.22607096303E+03  0.10757371133E+02  0.31275919849E+03  0.00000000000E+00 0. -1.
        -15    1    3    3    0    0 -0.14609403800E+03  0.14409928084E+03  0.24994725905E+02  0.20672678765E+03  0.17770000000E+01 0.  1.
         15    1    3    3    0    0 -0.13547948419E+03  0.24722222972E+03 -0.87703412094E+02  0.29524323485E+03  0.17770000000E+01 0.  1.
</event>
<event>
 7    1  0.1270595E-008  0.5060889E+03  0.7546771E-02  0.9386288E-01
        -11   -1    0    0    0    0  0.00000000000E+00  0.00000000000E+00  0.50000000000E+03  0.50000000000E+03  0.00000000000E+00 0.  1.
         11   -1    0    0    0    0 -0.00000000000E+00 -0.00000000000E+00 -0.50000000000E+03  0.50000000000E+03  0.00000000000E+00 0. -1.
         25    2    1    2    0    0 -0.40850977472E+03  0.45290882320E+02  0.24370481228E+03  0.49391114507E+03  0.12499873451E+03 0.  0.
        -11    1    1    2    0    0  0.70369836340E+02  0.44350949903E+02 -0.94176833533E+02  0.12565109072E+03  0.00000000000E+00 0.  1.
         11    1    1    2    0    0  0.33813993839E+03 -0.89641832223E+02 -0.14952797874E+03  0.38043776422E+03  0.00000000000E+00 0. -1.
        -15    1    3    3    0    0 -0.39435936597E+03  0.70510417669E+02  0.22641513265E+03  0.46017170551E+03  0.17770000000E+01 0. -1.
         15    1    3    3    0    0 -0.14150408752E+02 -0.25219535349E+02  0.17289679624E+02  0.33739439556E+02  0.17770000000E+01 0. -1.
</event>
<event>
 8    1  0.1270595E-008  0.5012026E+03  0.7546771E-02  0.9397123E-01
        -11   -1    0    0    0    0  0.00000000000E+00  0.00000000000E+00  0.50000000000E+03  0.50000000000E+03  0.00000000000E+00 0.  1.
         11   -1    0    0    0    0 -0.00000000000E+00 -0.00000000000E+00 -0.50000000000E+03  0.50000000000E+03  0.00000000000E+00 0. -1.
         25    2    1    2    0    0  0.13248393312E+03  0.46625068052E+03  0.25231105397E+02  0.50120260750E+03  0.12500302183E+03 0.  0.
         23    2    1    2    0    0 -0.13248393312E+03 -0.46625068052E+03 -0.25231105397E+02  0.49879739250E+03  0.11498060911E+03 0.  0.
        -11    1    4    4    0    0 -0.68028750404E+02 -0.22060614968E+03  0.45225045175E+02  0.23524516758E+03  0.00000000000E+00 0. -1.
         11    1    4    4    0    0 -0.64455182716E+02 -0.24564453083E+03 -0.70456150572E+02  0.26355222492E+03  0.00000000000E+00 0.  1.
        -15    1    3    3    0    0  0.12480331258E+03  0.45779794306E+03  0.11703749158E+01  0.47450959001E+03  0.17770000000E+01 0.  1.
         15    1    3    3    0    0  0.76806205400E+01  0.84527374515E+01  0.24060730481E+02  0.26693017487E+02  0.17770000000E+01 0.  1.
</event>
<event>
 8    1  0.1270595E-008  0.5024650E+03  0.7546771E-02  0.9394311E-01
        -11   -1    0    0    0    0  0.00000000000E+00  0.00000000000E+00  0.50000000000E+03  0.50000000000E+03  0.00000000000E+00 0. -1.
         11   -1    0    0    0    0 -0.00000000000E+00 -0.00000000000E+00 -0.50000000000E+03  0.50000000000E+03  0.00000000000E+00 0.  1.
         25    2    1    2    0    0  0.47401553786E+03 -0.10911771658E+03 -0.15810390116E+02  0.50246496804E+03  0.12499467776E+03 0.  0.
         23    2    1    2    0    0 -0.47401553786E+03  0.10911771658E+03  0.15810390116E+02  0.49753503196E+03  0.10341050910E+03 0.  0.
        -11    1    4    4    0    0 -0.19426470110E+03  0.12372411154E+02 -0.33286835465E+02  0.19748383242E+03  0.00000000000E+00 0.  1.
         11    1    4    4    0    0 -0.27975083676E+03  0.96745305426E+02  0.49097225581E+02  0.30005119954E+03  0.00000000000E+00 0. -1.
        -15    1    3    3    0    0  0.34642697397E+03 -0.92014383466E+02  0.42837504136E+02  0.36099377356E+03  0.17770000000E+01 0.  1.
         15    1    3    3    0    0  0.12758856388E+03 -0.17103333114E+02 -0.58647894253E+02  0.14147119448E+03  0.17770000000E+01 0.  1.
</event>
<event>
 8    1  0.1270595E-008  0.5001993E+03  0.7546771E-02  0.9399364E-01
        -11   -1    0    0    0    0  0.00000000000E+00  0.00000000000E+00  0.50000000000E+03  0.50000000000E+03  0.00000000000E+00 0.  1.
         11   -1    0    0    0    0 -0.00000000000E+00 -0.00000000000E+00 -0.50000000000E+03  0.50000000000E+03  0.00000000000E+00 0. -1.
         25    2    1    2    0    0  0.28608834135E+03 -0.34426255951E+03 -0.18496348448E+03  0.50019933323E+03  0.12499853373E+03 0.  0.
         23    2    1    2    0    0 -0.28608834135E+03  0.34426255951E+03  0.18496348448E+03  0.49980066677E+03  0.12339354513E+03 0.  0.
        -11    1    4    4    0    0 -0.19465029317E+02  0.10087853938E+03  0.51415976038E+02  0.11488676889E+03  0.00000000000E+00 0.  1.
         11    1    4    4    0    0 -0.26662331204E+03  0.24338402012E+03  0.13354750844E+03  0.38491389788E+03  0.00000000000E+00 0. -1.
        -15    1    3    3    0    0  0.13585252535E+03 -0.15714167471E+03 -0.15323675480E+03  0.25813576917E+03  0.17770000000E+01 0.  1.
         15    1    3    3    0    0  0.15023581601E+03 -0.18712088480E+03 -0.31726729675E+02  0.24206356406E+03  0.17770000000E+01 0.  1.
</event>
<event>
 8    1  0.1270595E-008  0.5005721E+03  0.7546771E-02  0.9398531E-01
        -11   -1    0    0    0    0  0.00000000000E+00  0.00000000000E+00  0.50000000000E+03  0.50000000000E+03  0.00000000000E+00 0.  1.
         11   -1    0    0    0    0 -0.00000000000E+00 -0.00000000000E+00 -0.50000000000E+03  0.50000000000E+03  0.00000000000E+00 0. -1.
         25    2    1    2    0    0  0.37984059095E+02 -0.47032590545E+03 -0.11089809012E+03  0.50057208788E+03  0.12499913077E+03 0.  0.
         23    2    1    2    0    0 -0.37984059095E+02  0.47032590545E+03  0.11089809012E+03  0.49942791212E+03  0.12033539349E+03 0.  0.
        -11    1    4    4    0    0 -0.26958704922E+02  0.24538476772E+02  0.27759147422E+02  0.45820070700E+02  0.00000000000E+00 0.  1.
         11    1    4    4    0    0 -0.11025354173E+02  0.44578742868E+03  0.83138942695E+02  0.45360784142E+03  0.00000000000E+00 0. -1.
        -15    1    3    3    0    0 -0.12459770748E+02 -0.19201085270E+03 -0.10152081602E+03  0.21756159416E+03  0.17770000000E+01 0.  1.
         15    1    3    3    0    0  0.50443829843E+02 -0.27831505275E+03 -0.93772740999E+01  0.28301049372E+03  0.17770000000E+01 0.  1.
</event>
<event>
 8    1  0.1270595E-008  0.5023048E+03  0.7546771E-02  0.9394667E-01
        -11   -1    0    0    0    0  0.00000000000E+00  0.00000000000E+00  0.50000000000E+03  0.50000000000E+03  0.00000000000E+00 0.  1.
         11   -1    0    0    0    0 -0.00000000000E+00 -0.00000000000E+00 -0.50000000000E+03  0.50000000000E+03  0.00000000000E+00 0. -1.
         25    2    1    2    0    0  0.19687992732E+03  0.31339284041E+03 -0.31576902813E+03  0.50230484337E+03  0.12499319321E+03 0.  0.
         23    2    1    2    0    0 -0.19687992732E+03 -0.31339284041E+03  0.31576902813E+03  0.49769515663E+03  0.10494575554E+03 0.  0.
        -11    1    4    4    0    0 -0.17435861283E+02  0.58360578987E+01  0.17619527145E+02  0.25465988441E+02  0.00000000000E+00 0. -1.
         11    1    4    4    0    0 -0.17944406604E+03 -0.31922889830E+03  0.29814950098E+03  0.47222916819E+03  0.00000000000E+00 0.  1.
        -15    1    3    3    0    0  0.77850495017E+02  0.93911601088E+02 -0.35737170768E+02  0.12712352849E+03  0.17770000000E+01 0. -1.
         15    1    3    3    0    0  0.11902943231E+03  0.21948123932E+03 -0.28003185736E+03  0.37518131488E+03  0.17770000000E+01 0. -1.
</event>
<event>
 8    1  0.1270595E-008  0.5047821E+03  0.7546771E-02  0.9389172E-01
        -11   -1    0    0    0    0  0.00000000000E+00  0.00000000000E+00  0.50000000000E+03  0.50000000000E+03  0.00000000000E+00 0.  1.
         11   -1    0    0    0    0 -0.00000000000E+00 -0.00000000000E+00 -0.50000000000E+03  0.50000000000E+03  0.00000000000E+00 0. -1.
         25    2    1    2    0    0  0.20881643771E+03  0.37804097709E+03  0.22947904433E+03  0.50478214592E+03  0.12500039215E+03 0.  0.
         23    2    1    2    0    0 -0.20881643771E+03 -0.37804097709E+03 -0.22947904433E+03  0.49521785408E+03  0.77851179810E+02 0.  0.
        -11    1    4    4    0    0 -0.38525860360E+02 -0.92660381841E+02 -0.90039218712E+02  0.13482302914E+03  0.00000000000E+00 0. -1.
         11    1    4    4    0    0 -0.17029057735E+03 -0.28538059525E+03 -0.13943982562E+03  0.36039482494E+03  0.00000000000E+00 0.  1.
        -15    1    3    3    0    0  0.80738582871E+02  0.44298861105E+02  0.45295498062E+02  0.10264476476E+03  0.17770000000E+01 0. -1.
         15    1    3    3    0    0  0.12807785484E+03  0.33374211598E+03  0.18418354627E+03  0.40213738116E+03  0.17770000000E+01 0. -1.
</event>
<event>
 8    1  0.1270595E-008  0.5055100E+03  0.7546771E-02  0.9387564E-01
        -11   -1    0    0    0    0  0.00000000000E+00  0.00000000000E+00  0.50000000000E+03  0.50000000000E+03  0.00000000000E+00 0. -1.
         11   -1    0    0    0    0 -0.00000000000E+00 -0.00000000000E+00 -0.50000000000E+03  0.50000000000E+03  0.00000000000E+00 0.  1.
         25    2    1    2    0    0  0.30427502348E+03 -0.97350377459E+02  0.37128737942E+03  0.50551003969E+03  0.12500278478E+03 0.  0.
         23    2    1    2    0    0 -0.30427502348E+03  0.97350377459E+02 -0.37128737942E+03  0.49448996031E+03  0.67864695001E+02 0.  0.
        -11    1    4    4    0    0 -0.13973719493E+03  0.33918659150E+02 -0.21620342632E+03  0.25965531121E+03  0.00000000000E+00 0.  1.
         11    1    4    4    0    0 -0.16453782855E+03  0.63431718309E+02 -0.15508395310E+03  0.23483464910E+03  0.00000000000E+00 0. -1.
        -15    1    3    3    0    0  0.11286384996E+02 -0.21759372570E+02  0.86711728988E+02  0.90127323571E+02  0.17770000000E+01 0.  1.
         15    1    3    3    0    0  0.29298863848E+03 -0.75591004889E+02  0.28457565043E+03  0.41538271612E+03  0.17770000000E+01 0.  1.
</event>
<event>
 8    1  0.1270595E-008  0.5054455E+03  0.7546771E-02  0.9387707E-01
        -11   -1    0    0    0    0  0.00000000000E+00  0.00000000000E+00  0.50000000000E+03  0.50000000000E+03  0.00000000000E+00 0. -1.
         11   -1    0    0    0    0 -0.00000000000E+00 -0.00000000000E+00 -0.50000000000E+03  0.50000000000E+03  0.00000000000E+00 0.  1.
         25    2    1    2    0    0  0.20598878693E+03  0.79944131470E+02  0.43706848948E+03  0.50544547454E+03  0.12499527488E+03 0.  0.
         23    2    1    2    0    0 -0.20598878693E+03 -0.79944131470E+02 -0.43706848948E+03  0.49455452546E+03  0.68795855022E+02 0.  0.
        -11    1    4    4    0    0 -0.79247401010E+02 -0.46933250956E+02 -0.24803645913E+03  0.26458451517E+03  0.00000000000E+00 0.  1.
         11    1    4    4    0    0 -0.12674138592E+03 -0.33010880514E+02 -0.18903203035E+03  0.22997001029E+03  0.00000000000E+00 0. -1.
        -15    1    3    3    0    0 -0.15750520303E+01 -0.95268383300E+01 -0.33801809499E+01  0.10383871615E+02  0.17770000000E+01 0.  1.
         15    1    3    3    0    0  0.20756383896E+03  0.89470969800E+02  0.44044867043E+03  0.49506160292E+03  0.17770000000E+01 0.  1.
</event>
<event>
 7    1  0.1270595E-008  0.5017928E+03  0.7546771E-02  0.9395807E-01
        -11   -1    0    0    0    0  0.00000000000E+00  0.00000000000E+00  0.50000000000E+03  0.50000000000E+03  0.00000000000E+00 0.  1.
         11   -1    0    0    0    0 -0.00000000000E+00 -0.00000000000E+00 -0.50000000000E+03  0.50000000000E+03  0.00000000000E+00 0. -1.
         25    2    1    2    0    0 -0.32774148860E+03 -0.35212820552E+03  0.34349826682E+02  0.49820719495E+03  0.12498696746E+03 0.  0.
        -11    1    1    2    0    0  0.27810498090E+03  0.28314343865E+03  0.25734517325E+02  0.39771202224E+03  0.00000000000E+00 0.  1.
         11    1    1    2    0    0  0.49636507700E+02  0.68984766865E+02 -0.60084344006E+02  0.10408078281E+03  0.00000000000E+00 0. -1.
        -15    1    3    3    0    0 -0.17687881466E+03 -0.10056162558E+03  0.21138767378E+02  0.20456969675E+03  0.17770000000E+01 0.  1.
         15    1    3    3    0    0 -0.15086267394E+03 -0.25156657994E+03  0.13211059303E+02  0.29363749820E+03  0.17770000000E+01 0.  1.
</event>
<event>
 8    1  0.1270595E-008  0.5024148E+03  0.7546771E-02  0.9394423E-01
        -11   -1    0    0    0    0  0.00000000000E+00  0.00000000000E+00  0.50000000000E+03  0.50000000000E+03  0.00000000000E+00 0. -1.
         11   -1    0    0    0    0 -0.00000000000E+00 -0.00000000000E+00 -0.50000000000E+03  0.50000000000E+03  0.00000000000E+00 0.  1.
         25    2    1    2    0    0 -0.11768333396E+03 -0.31450343962E+03  0.35219488048E+03  0.50241480712E+03  0.12497049233E+03 0.  0.
         23    2    1    2    0    0  0.11768333396E+03  0.31450343962E+03 -0.35219488048E+03  0.49758519288E+03  0.10386534412E+03 0.  0.
        -11    1    4    4    0    0  0.65595873486E+02  0.28103021479E+03 -0.30364383753E+03  0.41890378408E+03  0.00000000000E+00 0. -1.
         11    1    4    4    0    0  0.52087460473E+02  0.33473224828E+02 -0.48551042948E+02  0.78681408797E+02  0.00000000000E+00 0.  1.
        -15    1    3    3    0    0 -0.10918373385E+03 -0.32249592280E+03  0.35317612401E+03  0.49057235986E+03  0.17770000000E+01 0. -1.
         15    1    3    3    0    0 -0.84996001098E+01  0.79924831785E+01 -0.98124352273E+00  0.11842447266E+02  0.17770000000E+01 0. -1.
</event>
<event>
 7    1  0.1270595E-008  0.4830135E+03  0.7546771E-02  0.9438642E-01
        -11   -1    0    0    0    0  0.00000000000E+00  0.00000000000E+00  0.50000000000E+03  0.50000000000E+03  0.00000000000E+00 0.  1.
         11   -1    0    0    0    0 -0.00000000000E+00 -0.00000000000E+00 -0.50000000000E+03  0.50000000000E+03  0.00000000000E+00 0. -1.
         25    2    1    2    0    0  0.18150192522E+02  0.43996832089E+03  0.10365206446E+03  0.46933071756E+03  0.12500407634E+03 0.  0.
        -11    1    1    2    0    0 -0.51313353733E+02 -0.45958317213E+03 -0.13417913622E+03  0.48151198633E+03  0.00000000000E+00 0.  1.
         11    1    1    2    0    0  0.33163161211E+02  0.19614851240E+02  0.30527071761E+02  0.49157296111E+02  0.00000000000E+00 0. -1.
        -15    1    3    3    0    0  0.53916799350E+02  0.13805558102E+03  0.32059349792E+00  0.14822154099E+03  0.17770000000E+01 0. -1.
         15    1    3    3    0    0 -0.35766606828E+02  0.30191273987E+03  0.10333147096E+03  0.32110917658E+03  0.17770000000E+01 0. -1.
</event>
<event>
 8    1  0.1270595E-008  0.5014311E+03  0.7546771E-02  0.9396613E-01
        -11   -1    0    0    0    0  0.00000000000E+00  0.00000000000E+00  0.50000000000E+03  0.50000000000E+03  0.00000000000E+00 0.  1.
         11   -1    0    0    0    0 -0.00000000000E+00 -0.00000000000E+00 -0.50000000000E+03  0.50000000000E+03  0.00000000000E+00 0. -1.
         25    2    1    2    0    0 -0.37836379484E+03 -0.12252269357E+03 -0.27863501988E+03  0.50143113885E+03  0.12499896409E+03 0.  0.
         23    2    1    2    0    0  0.37836379484E+03  0.12252269357E+03  0.27863501988E+03  0.49856886115E+03  0.11297107294E+03 0.  0.
        -11    1    4    4    0    0  0.75483779899E+02  0.63012496016E+02  0.10728014419E+03  0.14552458562E+03  0.00000000000E+00 0.  1.
         11    1    4    4    0    0  0.30288001494E+03  0.59510197551E+02  0.17135487569E+03  0.35304427553E+03  0.00000000000E+00 0. -1.
        -15    1    3    3    0    0 -0.15981039841E+03 -0.25311943080E+02 -0.47109097161E+02  0.16853036126E+03  0.17770000000E+01 0. -1.
         15    1    3    3    0    0 -0.21855339643E+03 -0.97210750487E+02 -0.23152592272E+03  0.33290077759E+03  0.17770000000E+01 0. -1.
</event>
<event>
 8    1  0.1270595E-008  0.5005465E+03  0.7546771E-02  0.9398588E-01
        -11   -1    0    0    0    0  0.00000000000E+00  0.00000000000E+00  0.50000000000E+03  0.50000000000E+03  0.00000000000E+00 0.  1.
         11   -1    0    0    0    0 -0.00000000000E+00 -0.00000000000E+00 -0.50000000000E+03  0.50000000000E+03  0.00000000000E+00 0. -1.
         25    2    1    2    0    0 -0.13939998149E+03  0.35093674173E+03  0.30386332123E+03  0.50054645869E+03  0.12499955113E+03 0.  0.
         23    2    1    2    0    0  0.13939998149E+03 -0.35093674173E+03 -0.30386332123E+03  0.49945354131E+03  0.12054862254E+03 0.  0.
        -11    1    4    4    0    0  0.98455952305E+02 -0.96913100662E+02 -0.90049974693E+02  0.16490822165E+03  0.00000000000E+00 0.  1.
         11    1    4    4    0    0  0.40944029182E+02 -0.25402364107E+03 -0.21381334654E+03  0.33454531966E+03  0.00000000000E+00 0. -1.
        -15    1    3    3    0    0 -0.82245092909E+02  0.16101373567E+03  0.22112142754E+03  0.28563529513E+03  0.17770000000E+01 0. -1.
         15    1    3    3    0    0 -0.57154888578E+02  0.18992300607E+03  0.82741893694E+02  0.21491116356E+03  0.17770000000E+01 0. -1.
</event>
<event>
 7    1  0.1270595E-008  0.5004041E+03  0.7546771E-02  0.9398906E-01
        -11   -1    0    0    0    0  0.00000000000E+00  0.00000000000E+00  0.50000000000E+03  0.50000000000E+03  0.00000000000E+00 0.  1.
         11   -1    0    0    0    0 -0.00000000000E+00 -0.00000000000E+00 -0.50000000000E+03  0.50000000000E+03  0.00000000000E+00 0. -1.
         25    2    1    2    0    0 -0.35598087140E+03 -0.32193823746E+03 -0.60035258475E+02  0.49959594514E+03  0.12500106639E+03 0.  0.
        -11    1    1    2    0    0  0.23164890841E+03  0.13783572849E+03  0.68383090911E+02  0.27809378264E+03  0.00000000000E+00 0.  1.
         11    1    1    2    0    0  0.12433196298E+03  0.18410250897E+03 -0.83478324350E+01  0.22231027222E+03  0.00000000000E+00 0. -1.
        -15    1    3    3    0    0 -0.30931908605E+03 -0.32432485305E+03 -0.63739786573E+02  0.45269285992E+03  0.17770000000E+01 0. -1.
         15    1    3    3    0    0 -0.46661785344E+02  0.23866155889E+01  0.37045280972E+01  0.46903085217E+02  0.17770000000E+01 0. -1.
</event>
<event>
 7    1  0.1270595E-008  0.5004730E+03  0.7546771E-02  0.9398752E-01
        -11   -1    0    0    0    0  0.00000000000E+00  0.00000000000E+00  0.50000000000E+03  0.50000000000E+03  0.00000000000E+00 0.  1.
         11   -1    0    0    0    0 -0.00000000000E+00 -0.00000000000E+00 -0.50000000000E+03  0.50000000000E+03  0.00000000000E+00 0. -1.
         25    2    1    2    0    0 -0.27382407552E+03 -0.37504389444E+03 -0.13514784626E+03  0.49952702767E+03  0.12499905573E+03 0.  0.
        -11    1    1    2    0    0  0.41393488930E+02  0.11901012302E+03  0.82700068771E+02  0.15071871709E+03  0.00000000000E+00 0.  1.
         11    1    1    2    0    0  0.23243058659E+03  0.25603377143E+03  0.52447777491E+02  0.34975425524E+03  0.00000000000E+00 0. -1.
        -15    1    3    3    0    0 -0.22338722844E+03 -0.36531265377E+03 -0.10899307963E+03  0.44185725973E+03  0.17770000000E+01 0.  1.
         15    1    3    3    0    0 -0.50436847077E+02 -0.97312406686E+01 -0.26154766636E+02  0.57669767945E+02  0.17770000000E+01 0.  1.
</event>
<event>
 7    1  0.1270595E-008  0.5029909E+03  0.7546771E-02  0.9393142E-01
        -11   -1    0    0    0    0  0.00000000000E+00  0.00000000000E+00  0.50000000000E+03  0.50000000000E+03  0.00000000000E+00 0.  1.
         11   -1    0    0    0    0 -0.00000000000E+00 -0.00000000000E+00 -0.50000000000E+03  0.50000000000E+03  0.00000000000E+00 0.  1.
         25    2    1    2    0    0  0.46002357956E+03  0.14058814762E+03  0.26002893153E+01  0.49700908670E+03  0.12499819904E+03 0.  0.
        -11    1    1    2    0    0 -0.28758142384E+02 -0.17875433201E+02  0.40209606540E+02  0.52567806913E+02  0.00000000000E+00 0.  1.
         11    1    1    2    0    0 -0.43126543717E+03 -0.12271271442E+03 -0.42809895855E+02  0.45042310638E+03  0.00000000000E+00 0.  1.
        -15    1    3    3    0    0  0.19117669678E+03  0.26210072187E+02 -0.51826399659E+02  0.19981148793E+03  0.17770000000E+01 0. -1.
         15    1    3    3    0    0  0.26884688277E+03  0.11437807544E+03  0.54426688975E+02  0.29719759878E+03  0.17770000000E+01 0. -1.
</event>
<event>
 7    1  0.1270595E-008  0.5028831E+03  0.7546771E-02  0.9393382E-01
        -11   -1    0    0    0    0  0.00000000000E+00  0.00000000000E+00  0.50000000000E+03  0.50000000000E+03  0.00000000000E+00 0.  1.
         11   -1    0    0    0    0 -0.00000000000E+00 -0.00000000000E+00 -0.50000000000E+03  0.50000000000E+03  0.00000000000E+00 0. -1.
         25    2    1    2    0    0  0.26836684990E+03  0.35010670184E+03 -0.19210555976E+03  0.49711693420E+03  0.12500092552E+03 0.  0.
        -11    1    1    2    0    0 -0.32364059878E+02 -0.72000855833E+02  0.98664569555E+02  0.12635763886E+03  0.00000000000E+00 0.  1.
         11    1    1    2    0    0 -0.23600279002E+03 -0.27810584601E+03  0.93440990202E+02  0.37652542694E+03  0.00000000000E+00 0. -1.
        -15    1    3    3    0    0 -0.12193096010E+02  0.32246325115E+02 -0.15134352251E+02  0.37692219632E+02  0.17770000000E+01 0. -1.
         15    1    3    3    0    0  0.28055994591E+03  0.31786037672E+03 -0.17697120751E+03  0.45942471457E+03  0.17770000000E+01 0. -1.
</event>
<event>
 8    1  0.1270595E-008  0.5005620E+03  0.7546771E-02  0.9398553E-01
        -11   -1    0    0    0    0  0.00000000000E+00  0.00000000000E+00  0.50000000000E+03  0.50000000000E+03  0.00000000000E+00 0.  1.
         11   -1    0    0    0    0 -0.00000000000E+00 -0.00000000000E+00 -0.50000000000E+03  0.50000000000E+03  0.00000000000E+00 0. -1.
         25    2    1    2    0    0 -0.42619221669E+02  0.41629406800E+03 -0.24458375983E+03  0.50056203456E+03  0.12499594296E+03 0.  0.
         23    2    1    2    0    0  0.42619221669E+02 -0.41629406800E+03  0.24458375983E+03  0.49943796544E+03  0.12041559967E+03 0.  0.
        -11    1    4    4    0    0  0.61764363415E+02 -0.27543161722E+03  0.21350343883E+03  0.35392249257E+03  0.00000000000E+00 0.  1.
         11    1    4    4    0    0 -0.19145141746E+02 -0.14086245078E+03  0.31080321001E+02  0.14551547287E+03  0.00000000000E+00 0. -1.
        -15    1    3    3    0    0 -0.13838435456E+02  0.27809741947E+03 -0.93353834034E+02  0.29367971171E+03  0.17770000000E+01 0. -1.
         15    1    3    3    0    0 -0.28780786213E+02  0.13819664853E+03 -0.15122992580E+03  0.20688232285E+03  0.17770000000E+01 0. -1.
</event>
<event>
 8    1  0.1270595E-008  0.5004198E+03  0.7546771E-02  0.9398871E-01
        -11   -1    0    0    0    0  0.00000000000E+00  0.00000000000E+00  0.50000000000E+03  0.50000000000E+03  0.00000000000E+00 0. -1.
         11   -1    0    0    0    0 -0.00000000000E+00 -0.00000000000E+00 -0.50000000000E+03  0.50000000000E+03  0.00000000000E+00 0.  1.
         25    2    1    2    0    0  0.47432386946E+03  0.77710382428E+01 -0.98749051873E+02  0.50041984162E+03  0.12500048183E+03 0.  0.
         23    2    1    2    0    0 -0.47432386946E+03 -0.77710382428E+01  0.98749051873E+02  0.49958015838E+03  0.12159538325E+03 0.  0.
        -11    1    4    4    0    0 -0.16606419722E+03 -0.54198881076E+02  0.63451027218E+02  0.18585173973E+03  0.00000000000E+00 0. -1.
         11    1    4    4    0    0 -0.30825967225E+03  0.46427842833E+02  0.35298024655E+02  0.31372841865E+03  0.00000000000E+00 0.  1.
        -15    1    3    3    0    0  0.29792556481E+03 -0.54988034720E+02 -0.51461171286E+02  0.30730235275E+03  0.17770000000E+01 0.  1.
         15    1    3    3    0    0  0.17639830466E+03  0.62759072963E+02 -0.47287880587E+02  0.19311748886E+03  0.17770000000E+01 0.  1.
</event>
<event>
 7    1  0.1270595E-008  0.5154827E+03  0.7546771E-02  0.9365817E-01
        -11   -1    0    0    0    0  0.00000000000E+00  0.00000000000E+00  0.50000000000E+03  0.50000000000E+03  0.00000000000E+00 0.  1.
         11   -1    0    0    0    0 -0.00000000000E+00 -0.00000000000E+00 -0.50000000000E+03  0.50000000000E+03  0.00000000000E+00 0. -1.
         25    2    1    2    0    0  0.14438451307E+03  0.22661147246E+03 -0.38331813506E+03  0.48451730100E+03  0.12499830095E+03 0.  0.
        -11    1    1    2    0    0  0.53992128249E+02 -0.85533223017E+02  0.11772995945E+03  0.15521412792E+03  0.00000000000E+00 0.  1.
         11    1    1    2    0    0 -0.19837664132E+03 -0.14107824945E+03  0.26558817560E+03  0.36026857108E+03  0.00000000000E+00 0. -1.
        -15    1    3    3    0    0  0.97392026242E+02  0.76168314068E+02 -0.95022917329E+02  0.15594656582E+03  0.17770000000E+01 0.  1.
         15    1    3    3    0    0  0.46992486828E+02  0.15044315840E+03 -0.28829521773E+03  0.32857073518E+03  0.17770000000E+01 0.  1.
</event>
<event>
 8    1  0.1270595E-008  0.5022021E+03  0.7546771E-02  0.9394896E-01
        -11   -1    0    0    0    0  0.00000000000E+00  0.00000000000E+00  0.50000000000E+03  0.50000000000E+03  0.00000000000E+00 0.  1.
         11   -1    0    0    0    0 -0.00000000000E+00 -0.00000000000E+00 -0.50000000000E+03  0.50000000000E+03  0.00000000000E+00 0. -1.
         25    2    1    2    0    0  0.26606750448E+03 -0.39976716014E+03  0.77307013632E+02  0.50220213269E+03  0.12499963381E+03 0.  0.
         23    2    1    2    0    0 -0.26606750448E+03  0.39976716014E+03 -0.77307013632E+02  0.49779786731E+03  0.10592753689E+03 0.  0.
        -11    1    4    4    0    0 -0.19135405634E+03  0.26757987830E+03 -0.35240626715E+01  0.32897991605E+03  0.00000000000E+00 0.  1.
         11    1    4    4    0    0 -0.74713448145E+02  0.13218728184E+03 -0.73782950960E+02  0.16881795126E+03  0.00000000000E+00 0. -1.
        -15    1    3    3    0    0  0.17370787924E+03 -0.29866037979E+03  0.11724880951E+01  0.34550974258E+03  0.17770000000E+01 0.  1.
         15    1    3    3    0    0  0.92359625245E+02 -0.10110678036E+03  0.76134525536E+02  0.15669239011E+03  0.17770000000E+01 0.  1.
</event>
<event>
 8    1  0.1270595E-008  0.5048905E+03  0.7546771E-02  0.9388933E-01
        -11   -1    0    0    0    0  0.00000000000E+00  0.00000000000E+00  0.50000000000E+03  0.50000000000E+03  0.00000000000E+00 0.  1.
         11   -1    0    0    0    0 -0.00000000000E+00 -0.00000000000E+00 -0.50000000000E+03  0.50000000000E+03  0.00000000000E+00 0. -1.
         25    2    1    2    0    0 -0.10729017995E+03 -0.46376824309E+03 -0.11268271653E+03  0.50489052544E+03  0.12499952828E+03 0.  0.
         23    2    1    2    0    0  0.10729017995E+03  0.46376824309E+03  0.11268271653E+03  0.49510947456E+03  0.76444955240E+02 0.  0.
        -11    1    4    4    0    0  0.71142893725E+02  0.40074881788E+03  0.77256361403E+02  0.41428187474E+03  0.00000000000E+00 0.  1.
         11    1    4    4    0    0  0.36147286220E+02  0.63019425204E+02  0.35426355127E+02  0.80827599814E+02  0.00000000000E+00 0. -1.
        -15    1    3    3    0    0  0.42680293868E+01 -0.25806639790E+03 -0.56064664528E+02  0.26412664791E+03  0.17770000000E+01 0. -1.
         15    1    3    3    0    0 -0.11155820933E+03 -0.20570184519E+03 -0.56618052002E+02  0.24076387753E+03  0.17770000000E+01 0. -1.
</event>
<event>
 8    1  0.1270595E-008  0.5023658E+03  0.7546771E-02  0.9394532E-01
        -11   -1    0    0    0    0  0.00000000000E+00  0.00000000000E+00  0.50000000000E+03  0.50000000000E+03  0.00000000000E+00 0.  1.
         11   -1    0    0    0    0 -0.00000000000E+00 -0.00000000000E+00 -0.50000000000E+03  0.50000000000E+03  0.00000000000E+00 0. -1.
         25    2    1    2    0    0 -0.42105631488E+03 -0.23739097318E+03  0.55708211057E+02  0.50236578712E+03  0.12500033933E+03 0.  0.
         23    2    1    2    0    0  0.42105631488E+03  0.23739097318E+03 -0.55708211057E+02  0.49763421288E+03  0.10437198187E+03 0.  0.
        -11    1    4    4    0    0  0.23151564126E+03  0.11752801490E+03 -0.80930669358E+02  0.27195973907E+03  0.00000000000E+00 0. -1.
         11    1    4    4    0    0  0.18954067362E+03  0.11986295829E+03  0.25222458301E+02  0.22567447381E+03  0.00000000000E+00 0.  1.
        -15    1    3    3    0    0 -0.36806941923E+02 -0.11552551622E+02  0.41134393017E+02  0.56421701858E+02  0.17770000000E+01 0.  1.
         15    1    3    3    0    0 -0.38424937296E+03 -0.22583842156E+03  0.14573818040E+02  0.44594408526E+03  0.17770000000E+01 0.  1.
</event>
<event>
 8    1  0.1270595E-008  0.5016136E+03  0.7546771E-02  0.9396206E-01
        -11   -1    0    0    0    0  0.00000000000E+00  0.00000000000E+00  0.50000000000E+03  0.50000000000E+03  0.00000000000E+00 0. -1.
         11   -1    0    0    0    0 -0.00000000000E+00 -0.00000000000E+00 -0.50000000000E+03  0.50000000000E+03  0.00000000000E+00 0.  1.
         25    2    1    2    0    0 -0.44784273405E+03  0.46198591010E+02 -0.18246748936E+03  0.50161358835E+03  0.12499753234E+03 0.  0.
         23    2    1    2    0    0  0.44784273405E+03 -0.46198591010E+02  0.18246748936E+03  0.49838641165E+03  0.11134274291E+03 0.  0.
        -11    1    4    4    0    0  0.13308635160E+03 -0.18661831029E+02  0.17568288951E+01  0.13439987860E+03  0.00000000000E+00 0.  1.
         11    1    4    4    0    0  0.31475638245E+03 -0.27536759981E+02  0.18071066046E+03  0.36398653305E+03  0.00000000000E+00 0. -1.
        -15    1    3    3    0    0 -0.39936679544E+03  0.11191548841E+02 -0.12490903767E+03  0.41859827220E+03  0.17770000000E+01 0. -1.
         15    1    3    3    0    0 -0.48475938603E+02  0.35007042169E+02 -0.57558451690E+02  0.83015316146E+02  0.17770000000E+01 0. -1.
</event>
<event>
 8    1  0.1270595E-008  0.5060371E+03  0.7546771E-02  0.9386402E-01
        -11   -1    0    0    0    0  0.00000000000E+00  0.00000000000E+00  0.50000000000E+03  0.50000000000E+03  0.00000000000E+00 0.  1.
         11   -1    0    0    0    0 -0.00000000000E+00 -0.00000000000E+00 -0.50000000000E+03  0.50000000000E+03  0.00000000000E+00 0. -1.
         25    2    1    2    0    0  0.14245855143E+03 -0.33484120851E+03 -0.32868640486E+03  0.50603712949E+03  0.12500299953E+03 0.  0.
         23    2    1    2    0    0 -0.14245855143E+03  0.33484120851E+03  0.32868640486E+03  0.49396287051E+03  0.59594386574E+02 0.  0.
        -11    1    4    4    0    0 -0.99165013261E+02  0.28618724021E+03  0.25826202012E+03  0.39804033382E+03  0.00000000000E+00 0.  1.
         11    1    4    4    0    0 -0.43293538166E+02  0.48653968303E+02  0.70424384743E+02  0.95922536690E+02  0.00000000000E+00 0. -1.
        -15    1    3    3    0    0 -0.21270780508E+02 -0.48559967219E+02 -0.64235553637E+02  0.83305945765E+02  0.17770000000E+01 0. -1.
         15    1    3    3    0    0  0.16372933194E+03 -0.28628124129E+03 -0.26445085122E+03  0.42273118372E+03  0.17770000000E+01 0. -1.
</event>
<event>
 8    1  0.1270595E-008  0.5023420E+03  0.7546771E-02  0.9394585E-01
        -11   -1    0    0    0    0  0.00000000000E+00  0.00000000000E+00  0.50000000000E+03  0.50000000000E+03  0.00000000000E+00 0.  1.
         11   -1    0    0    0    0 -0.00000000000E+00 -0.00000000000E+00 -0.50000000000E+03  0.50000000000E+03  0.00000000000E+00 0. -1.
         25    2    1    2    0    0  0.35223729955E+03  0.33293629112E+03  0.42480393317E+02  0.50234197122E+03  0.12500073238E+03 0.  0.
         23    2    1    2    0    0 -0.35223729955E+03 -0.33293629112E+03 -0.42480393317E+02  0.49765802878E+03  0.10460038558E+03 0.  0.
        -11    1    4    4    0    0 -0.34934674889E+03 -0.29542419175E+03 -0.32147202119E+02  0.45864152302E+03  0.00000000000E+00 0.  1.
         11    1    4    4    0    0 -0.28905506564E+01 -0.37512099365E+02 -0.10333191198E+02  0.39016505766E+02  0.00000000000E+00 0. -1.
        -15    1    3    3    0    0  0.14369791942E+03  0.11106613549E+03  0.74199742874E+02  0.19619770149E+03  0.17770000000E+01 0. -1.
         15    1    3    3    0    0  0.20853938013E+03  0.22187015563E+03 -0.31719349556E+02  0.30614426973E+03  0.17770000000E+01 0. -1.
</event>
<event>
 8    1  0.1270595E-008  0.5000328E+03  0.7546771E-02  0.9399736E-01
        -11   -1    0    0    0    0  0.00000000000E+00  0.00000000000E+00  0.50000000000E+03  0.50000000000E+03  0.00000000000E+00 0.  1.
         11   -1    0    0    0    0 -0.00000000000E+00 -0.00000000000E+00 -0.50000000000E+03  0.50000000000E+03  0.00000000000E+00 0. -1.
         25    2    1    2    0    0  0.81121439443E+02 -0.64446478614E+02  0.47294084306E+03  0.50003275908E+03  0.12500273027E+03 0.  0.
         23    2    1    2    0    0 -0.81121439443E+02  0.64446478614E+02 -0.47294084306E+03  0.49996724092E+03  0.12474038807E+03 0.  0.
        -11    1    4    4    0    0 -0.53903611659E+01  0.82031383971E+02 -0.28391909483E+03  0.29558121787E+03  0.00000000000E+00 0. -1.
         11    1    4    4    0    0 -0.75731078277E+02 -0.17584905357E+02 -0.18902174824E+03  0.20438602305E+03  0.00000000000E+00 0.  1.
        -15    1    3    3    0    0  0.11359730631E+03 -0.61853362609E+02  0.39061281834E+03  0.41147505154E+03  0.17770000000E+01 0. -1.
         15    1    3    3    0    0 -0.32475866868E+02 -0.25931160055E+01  0.82328024726E+02  0.88557707534E+02  0.17770000000E+01 0. -1.
</event>
<event>
 7    1  0.1270595E-008  0.5011872E+03  0.7546771E-02  0.9397157E-01
        -11   -1    0    0    0    0  0.00000000000E+00  0.00000000000E+00  0.50000000000E+03  0.50000000000E+03  0.00000000000E+00 0. -1.
         11   -1    0    0    0    0 -0.00000000000E+00 -0.00000000000E+00 -0.50000000000E+03  0.50000000000E+03  0.00000000000E+00 0.  1.
         25    2    1    2    0    0  0.30701040703E+03  0.12438732410E+03  0.35137308545E+03  0.49881282870E+03  0.12499438578E+03 0.  0.
        -11    1    1    2    0    0 -0.12005691527E+03 -0.16227820447E+02 -0.21188513274E+03  0.24407440369E+03  0.00000000000E+00 0.  1.
         11    1    1    2    0    0 -0.18695349177E+03 -0.10815950366E+03 -0.13948795271E+03  0.25711276761E+03  0.00000000000E+00 0. -1.
        -15    1    3    3    0    0  0.30280133483E+03  0.92149319109E+02  0.33949096265E+03  0.46415236382E+03  0.17770000000E+01 0.  1.
         15    1    3    3    0    0  0.42090722066E+01  0.32238004996E+02  0.11882122795E+02  0.34660464886E+02  0.17770000000E+01 0.  1.
</event>
<event>
 7    1  0.1270595E-008  0.3779945E+03  0.7546771E-02  0.9723752E-01
        -11   -1    0    0    0    0  0.00000000000E+00  0.00000000000E+00  0.50000000000E+03  0.50000000000E+03  0.00000000000E+00 0.  1.
         11   -1    0    0    0    0 -0.00000000000E+00 -0.00000000000E+00 -0.50000000000E+03  0.50000000000E+03  0.00000000000E+00 0.  1.
         25    2    1    2    0    0 -0.40620125281E+03 -0.19401645381E+02  0.19946533584E+03  0.46988017713E+03  0.12500031611E+03 0.  0.
        -11    1    1    2    0    0  0.28996122609E+03 -0.73283621122E+02 -0.23852605066E+02  0.30002824622E+03  0.00000000000E+00 0.  1.
         11    1    1    2    0    0  0.11624002672E+03  0.92685266503E+02 -0.17561273077E+03  0.23009157665E+03  0.00000000000E+00 0.  1.
        -15    1    3    3    0    0 -0.21062009990E+03  0.47509618302E+02  0.74948050917E+02  0.22855712279E+03  0.17770000000E+01 0. -1.
         15    1    3    3    0    0 -0.19558115291E+03 -0.66911263683E+02  0.12451728492E+03  0.24132305434E+03  0.17770000000E+01 0. -1.
</event>
<event>
 7    1  0.1270595E-008  0.5015938E+03  0.7546771E-02  0.9396251E-01
        -11   -1    0    0    0    0  0.00000000000E+00  0.00000000000E+00  0.50000000000E+03  0.50000000000E+03  0.00000000000E+00 0.  1.
         11   -1    0    0    0    0 -0.00000000000E+00 -0.00000000000E+00 -0.50000000000E+03  0.50000000000E+03  0.00000000000E+00 0. -1.
         25    2    1    2    0    0  0.44398212954E+03  0.18294628165E+03 -0.46829678960E+02  0.49840622123E+03  0.12500507675E+03 0.  0.
        -11    1    1    2    0    0 -0.34608466164E+03 -0.96382274683E+02  0.77142940841E+02  0.36744410352E+03  0.00000000000E+00 0. -1.
         11    1    1    2    0    0 -0.97897467900E+02 -0.86564006965E+02 -0.30313261881E+02  0.13414967525E+03  0.00000000000E+00 0.  1.
        -15    1    3    3    0    0  0.29924971374E+03  0.18210378261E+03 -0.17672534534E+02  0.35075298291E+03  0.17770000000E+01 0.  1.
         15    1    3    3    0    0  0.14473241579E+03  0.84249903939E+00 -0.29157144426E+02  0.14765323832E+03  0.17770000000E+01 0.  1.
</event>
<event>
 8    1  0.1270595E-008  0.5002168E+03  0.7546771E-02  0.9399325E-01
        -11   -1    0    0    0    0  0.00000000000E+00  0.00000000000E+00  0.50000000000E+03  0.50000000000E+03  0.00000000000E+00 0.  1.
         11   -1    0    0    0    0 -0.00000000000E+00 -0.00000000000E+00 -0.50000000000E+03  0.50000000000E+03  0.00000000000E+00 0. -1.
         25    2    1    2    0    0  0.37665760482E+03  0.71468332003E+02 -0.29526328700E+03  0.49978316465E+03  0.12499651704E+03 0.  0.
         23    2    1    2    0    0 -0.37665760482E+03 -0.71468332003E+02  0.29526328700E+03  0.50021683535E+03  0.12671937486E+03 0.  0.
        -11    1    4    4    0    0 -0.19986239860E+02 -0.20351288433E+02 -0.76031289031E+01  0.29520032075E+02  0.00000000000E+00 0. -1.
         11    1    4    4    0    0 -0.35667136496E+03 -0.51117043570E+02  0.30286641591E+03  0.47069680327E+03  0.00000000000E+00 0.  1.
        -15    1    3    3    0    0  0.15552473368E+02  0.37377362064E+02 -0.29159533657E+02  0.49923769437E+02  0.17770000000E+01 0. -1.
         15    1    3    3    0    0  0.36110513145E+03  0.34090969939E+02 -0.26610375335E+03  0.44985939522E+03  0.17770000000E+01 0. -1.
</event>
<event>
 8    1  0.1270595E-008  0.5009995E+03  0.7546771E-02  0.9397576E-01
        -11   -1    0    0    0    0  0.00000000000E+00  0.00000000000E+00  0.50000000000E+03  0.50000000000E+03  0.00000000000E+00 0. -1.
         11   -1    0    0    0    0 -0.00000000000E+00 -0.00000000000E+00 -0.50000000000E+03  0.50000000000E+03  0.00000000000E+00 0.  1.
         25    2    1    2    0    0  0.28594576637E+03  0.21696039691E+03  0.32640358781E+03  0.50099948000E+03  0.12499752674E+03 0.  0.
         23    2    1    2    0    0 -0.28594576637E+03 -0.21696039691E+03 -0.32640358781E+03  0.49900052000E+03  0.11672798165E+03 0.  0.
        -11    1    4    4    0    0 -0.19221152456E+03 -0.89267852818E+02 -0.13819972377E+03  0.25300826740E+03  0.00000000000E+00 0. -1.
         11    1    4    4    0    0 -0.93734241804E+02 -0.12769254409E+03 -0.18820386404E+03  0.24599225260E+03  0.00000000000E+00 0.  1.
        -15    1    3    3    0    0  0.19835277444E+03  0.11572317861E+03  0.27328393662E+03  0.35696350645E+03  0.17770000000E+01 0. -1.
         15    1    3    3    0    0  0.87592991930E+02  0.10123721830E+03  0.53119651196E+02  0.14403597355E+03  0.17770000000E+01 0. -1.
</event>
<event>
 7    1  0.1270595E-008  0.5204157E+03  0.7546771E-02  0.9355252E-01
        -11   -1    0    0    0    0  0.00000000000E+00  0.00000000000E+00  0.50000000000E+03  0.50000000000E+03  0.00000000000E+00 0. -1.
         11   -1    0    0    0    0 -0.00000000000E+00 -0.00000000000E+00 -0.50000000000E+03  0.50000000000E+03  0.00000000000E+00 0.  1.
         25    2    1    2    0    0 -0.16967399348E+03 -0.40910946555E+03 -0.13496637299E+03  0.47958432174E+03  0.12500152381E+03 0.  0.
        -11    1    1    2    0    0  0.52291776991E+02  0.18393733595E+03 -0.59837488106E+02  0.20036940505E+03  0.00000000000E+00 0.  1.
         11    1    1    2    0    0  0.11738221649E+03  0.22517212961E+03  0.19480386109E+03  0.32004627321E+03  0.00000000000E+00 0. -1.
        -15    1    3    3    0    0 -0.25266393503E+02 -0.18364655072E+03 -0.96773635804E+02  0.20912374458E+03  0.17770000000E+01 0. -1.
         15    1    3    3    0    0 -0.14440759997E+03 -0.22546291484E+03 -0.38192737181E+02  0.27046057716E+03  0.17770000000E+01 0. -1.
</event>
<event>
 8    1  0.1270595E-008  0.5013566E+03  0.7546771E-02  0.9396779E-01
        -11   -1    0    0    0    0  0.00000000000E+00  0.00000000000E+00  0.50000000000E+03  0.50000000000E+03  0.00000000000E+00 0.  1.
         11   -1    0    0    0    0 -0.00000000000E+00 -0.00000000000E+00 -0.50000000000E+03  0.50000000000E+03  0.00000000000E+00 0. -1.
         25    2    1    2    0    0 -0.17290823012E+03  0.39027780244E+03 -0.23134247460E+03  0.50135664320E+03  0.12500049601E+03 0.  0.
         23    2    1    2    0    0  0.17290823012E+03 -0.39027780244E+03  0.23134247460E+03  0.49864335680E+03  0.11363026714E+03 0.  0.
        -11    1    4    4    0    0  0.80834231239E+02 -0.15796210708E+03  0.15958244987E+03  0.23864777083E+03  0.00000000000E+00 0.  1.
         11    1    4    4    0    0  0.92073998885E+02 -0.23231569535E+03  0.71760024734E+02  0.25999558598E+03  0.00000000000E+00 0. -1.
        -15    1    3    3    0    0  0.80465202711E+01  0.96295908608E+02 -0.27639103617E+02  0.10052226759E+03  0.17770000000E+01 0.  1.
         15    1    3    3    0    0 -0.18095475039E+03  0.29398189383E+03 -0.20370337099E+03  0.40083437561E+03  0.17770000000E+01 0.  1.
</event>
<event>
 7    1  0.1270595E-008  0.5028532E+03  0.7546771E-02  0.9393448E-01
        -11   -1    0    0    0    0  0.00000000000E+00  0.00000000000E+00  0.50000000000E+03  0.50000000000E+03  0.00000000000E+00 0.  1.
         11   -1    0    0    0    0 -0.00000000000E+00 -0.00000000000E+00 -0.50000000000E+03  0.50000000000E+03  0.00000000000E+00 0. -1.
         25    2    1    2    0    0  0.55512728171E+02  0.47333393928E+03 -0.66323391212E+02  0.49714675742E+03  0.12501769927E+03 0.  0.
        -11    1    1    2    0    0 -0.56818450198E+02 -0.89337033909E+02 -0.23583477151E+02  0.10846945333E+03  0.00000000000E+00 0. -1.
         11    1    1    2    0    0  0.13057220265E+01 -0.38399690537E+03  0.89906868364E+02  0.39438378925E+03  0.00000000000E+00 0.  1.
        -15    1    3    3    0    0  0.42196610705E+02  0.37587454493E+03  0.45965761520E+00  0.37824013073E+03  0.17770000000E+01 0.  1.
         15    1    3    3    0    0  0.13316117466E+02  0.97459394347E+02 -0.66783048827E+02  0.11890662669E+03  0.17770000000E+01 0.  1.
</event>
<event>
 8    1  0.1270595E-008  0.5023242E+03  0.7546771E-02  0.9394624E-01
        -11   -1    0    0    0    0  0.00000000000E+00  0.00000000000E+00  0.50000000000E+03  0.50000000000E+03  0.00000000000E+00 0.  1.
         11   -1    0    0    0    0 -0.00000000000E+00 -0.00000000000E+00 -0.50000000000E+03  0.50000000000E+03  0.00000000000E+00 0. -1.
         25    2    1    2    0    0  0.22798067902E+03 -0.41711995575E+03  0.10363939647E+03  0.50232418636E+03  0.12499686481E+03 0.  0.
         23    2    1    2    0    0 -0.22798067902E+03  0.41711995575E+03 -0.10363939647E+03  0.49767581364E+03  0.10476565990E+03 0.  0.
        -11    1    4    4    0    0 -0.12662192218E+01  0.81005728130E+02 -0.24041150531E+02  0.84507444760E+02  0.00000000000E+00 0. -1.
         11    1    4    4    0    0 -0.22671445979E+03  0.33611422762E+03 -0.79598245936E+02  0.41316836888E+03  0.00000000000E+00 0.  1.
        -15    1    3    3    0    0  0.10345013613E+03 -0.15985505352E+03  0.10301767420E+03  0.21649796241E+03  0.17770000000E+01 0. -1.
         15    1    3    3    0    0  0.12453054289E+03 -0.25726490223E+03  0.62172227159E+00  0.28582622395E+03  0.17770000000E+01 0. -1.
</event>
<event>
 8    1  0.1270595E-008  0.5004756E+03  0.7546771E-02  0.9398746E-01
        -11   -1    0    0    0    0  0.00000000000E+00  0.00000000000E+00  0.50000000000E+03  0.50000000000E+03  0.00000000000E+00 0.  1.
         11   -1    0    0    0    0 -0.00000000000E+00 -0.00000000000E+00 -0.50000000000E+03  0.50000000000E+03  0.00000000000E+00 0. -1.
         25    2    1    2    0    0 -0.53288771582E+02 -0.48140480013E+03 -0.16128551083E+02  0.50047556678E+03  0.12500155204E+03 0.  0.
         23    2    1    2    0    0  0.53288771582E+02  0.48140480013E+03  0.16128551083E+02  0.49952443322E+03  0.12113733717E+03 0.  0.
        -11    1    4    4    0    0  0.14608306928E+02  0.16879853372E+03  0.63607773355E+02  0.18097595544E+03  0.00000000000E+00 0.  1.
         11    1    4    4    0    0  0.38680464654E+02  0.31260626642E+03 -0.47479222272E+02  0.31854847778E+03  0.00000000000E+00 0. -1.
        -15    1    3    3    0    0 -0.60496009984E+02 -0.47766822848E+03 -0.32011217771E+02  0.48255007980E+03  0.17770000000E+01 0. -1.
         15    1    3    3    0    0  0.72072384018E+01 -0.37365716506E+01  0.15882666688E+02  0.17925486973E+02  0.17770000000E+01 0. -1.
</event>
<event>
 8    1  0.1270595E-008  0.5048904E+03  0.7546771E-02  0.9388933E-01
        -11   -1    0    0    0    0  0.00000000000E+00  0.00000000000E+00  0.50000000000E+03  0.50000000000E+03  0.00000000000E+00 0. -1.
         11   -1    0    0    0    0 -0.00000000000E+00 -0.00000000000E+00 -0.50000000000E+03  0.50000000000E+03  0.00000000000E+00 0.  1.
         25    2    1    2    0    0  0.63895700714E+02  0.67834708834E+02 -0.48021609111E+03  0.50489043792E+03  0.12499060706E+03 0.  0.
         23    2    1    2    0    0 -0.63895700714E+02 -0.67834708834E+02  0.48021609111E+03  0.49510956208E+03  0.76431511852E+02 0.  0.
        -11    1    4    4    0    0 -0.12031666866E+02 -0.58498653089E+02  0.16407734610E+03  0.17460878822E+03  0.00000000000E+00 0.  1.
         11    1    4    4    0    0 -0.51864033848E+02 -0.93360557446E+01  0.31613874501E+03  0.32050077385E+03  0.00000000000E+00 0. -1.
        -15    1    3    3    0    0  0.84454806197E+02  0.29535089897E+02 -0.42639814341E+03  0.43568735380E+03  0.17770000000E+01 0. -1.
         15    1    3    3    0    0 -0.20559105483E+02  0.38299618937E+02 -0.53817947698E+02  0.69203084125E+02  0.17770000000E+01 0. -1.
</event>
<event>
 8    1  0.1270595E-008  0.5001775E+03  0.7546771E-02  0.9399413E-01
        -11   -1    0    0    0    0  0.00000000000E+00  0.00000000000E+00  0.50000000000E+03  0.50000000000E+03  0.00000000000E+00 0.  1.
         11   -1    0    0    0    0 -0.00000000000E+00 -0.00000000000E+00 -0.50000000000E+03  0.50000000000E+03  0.00000000000E+00 0. -1.
         25    2    1    2    0    0 -0.36130231675E+03 -0.22565888532E+02 -0.32172216458E+03  0.50017754505E+03  0.12499536779E+03 0.  0.
         23    2    1    2    0    0  0.36130231675E+03  0.22565888532E+02  0.32172216458E+03  0.49982245495E+03  0.12356679116E+03 0.  0.
        -11    1    4    4    0    0  0.10968044334E+03 -0.29759749478E+02  0.15969934174E+03  0.19600847454E+03  0.00000000000E+00 0.  1.
         11    1    4    4    0    0  0.25162187341E+03  0.52325638010E+02  0.16202282284E+03  0.30381398041E+03  0.00000000000E+00 0. -1.
        -15    1    3    3    0    0 -0.18084484156E+02  0.24129801993E+02 -0.55939135985E+02  0.63573898537E+02  0.17770000000E+01 0.  1.
         15    1    3    3    0    0 -0.34321783260E+03 -0.46695690525E+02 -0.26578302860E+03  0.43660364651E+03  0.17770000000E+01 0.  1.
</event>
<event>
 7    1  0.1270595E-008  0.5082997E+03  0.7546771E-02  0.9381428E-01
        -11   -1    0    0    0    0  0.00000000000E+00  0.00000000000E+00  0.50000000000E+03  0.50000000000E+03  0.00000000000E+00 0. -1.
         11   -1    0    0    0    0 -0.00000000000E+00 -0.00000000000E+00 -0.50000000000E+03  0.50000000000E+03  0.00000000000E+00 0.  1.
         25    2    1    2    0    0  0.22492750375E+03 -0.41845918761E+03  0.21070423324E+02  0.49170029716E+03  0.12499898343E+03 0.  0.
        -11    1    1    2    0    0 -0.36093870634E+02  0.23396844239E+03  0.32394269008E+02  0.23894222773E+03  0.00000000000E+00 0. -1.
         11    1    1    2    0    0 -0.18883363312E+03  0.18449074522E+03 -0.53464692332E+02  0.26935747510E+03  0.00000000000E+00 0.  1.
        -15    1    3    3    0    0  0.19167543744E+03 -0.29349184907E+03  0.62140616715E+02  0.35600779874E+03  0.17770000000E+01 0. -1.
         15    1    3    3    0    0  0.33252066305E+02 -0.12496733853E+03 -0.41070193391E+02  0.13569249842E+03  0.17770000000E+01 0. -1.
</event>
<event>
 8    1  0.1270595E-008  0.5050738E+03  0.7546771E-02  0.9388528E-01
        -11   -1    0    0    0    0  0.00000000000E+00  0.00000000000E+00  0.50000000000E+03  0.50000000000E+03  0.00000000000E+00 0.  1.
         11   -1    0    0    0    0 -0.00000000000E+00 -0.00000000000E+00 -0.50000000000E+03  0.50000000000E+03  0.00000000000E+00 0. -1.
         25    2    1    2    0    0 -0.73146861458E+02  0.39954277165E+03  0.27292586893E+03  0.50507380528E+03  0.12500451645E+03 0.  0.
         23    2    1    2    0    0  0.73146861458E+02 -0.39954277165E+03 -0.27292586893E+03  0.49492619472E+03  0.74017015398E+02 0.  0.
        -11    1    4    4    0    0  0.75001640633E+02 -0.38015938384E+03 -0.27527468893E+03  0.47531311531E+03  0.00000000000E+00 0. -1.
         11    1    4    4    0    0 -0.18547791742E+01 -0.19383387807E+02  0.23488199919E+01  0.19613079412E+02  0.00000000000E+00 0.  1.
        -15    1    3    3    0    0  0.11527945383E+02  0.17758947832E+03  0.65322192342E+02  0.18958128303E+03  0.17770000000E+01 0.  1.
         15    1    3    3    0    0 -0.84674806842E+02  0.22195329333E+03  0.20760367659E+03  0.31549252225E+03  0.17770000000E+01 0.  1.
</event>
<event>
 8    1  0.1270595E-008  0.5022092E+03  0.7546771E-02  0.9394880E-01
        -11   -1    0    0    0    0  0.00000000000E+00  0.00000000000E+00  0.50000000000E+03  0.50000000000E+03  0.00000000000E+00 0.  1.
         11   -1    0    0    0    0 -0.00000000000E+00 -0.00000000000E+00 -0.50000000000E+03  0.50000000000E+03  0.00000000000E+00 0. -1.
         25    2    1    2    0    0 -0.14893652327E+03  0.44150607595E+03  0.13956601922E+03  0.50220923639E+03  0.12500296126E+03 0.  0.
         23    2    1    2    0    0  0.14893652327E+03 -0.44150607595E+03 -0.13956601922E+03  0.49779076361E+03  0.10586438282E+03 0.  0.
        -11    1    4    4    0    0  0.98371019767E+02 -0.17878191655E+03 -0.20954994366E+02  0.20513152611E+03  0.00000000000E+00 0. -1.
         11    1    4    4    0    0  0.50565503507E+02 -0.26272415940E+03 -0.11861102485E+03  0.29265923750E+03  0.00000000000E+00 0.  1.
        -15    1    3    3    0    0 -0.33090169591E+02  0.15566696033E+03  0.10763254086E+03  0.19213298375E+03  0.17770000000E+01 0. -1.
         15    1    3    3    0    0 -0.11584635368E+03  0.28583911562E+03  0.31933478357E+02  0.31007625264E+03  0.17770000000E+01 0. -1.
</event>
<event>
 8    1  0.1270595E-008  0.5023642E+03  0.7546771E-02  0.9394535E-01
        -11   -1    0    0    0    0  0.00000000000E+00  0.00000000000E+00  0.50000000000E+03  0.50000000000E+03  0.00000000000E+00 0.  1.
         11   -1    0    0    0    0 -0.00000000000E+00 -0.00000000000E+00 -0.50000000000E+03  0.50000000000E+03  0.00000000000E+00 0. -1.
         25    2    1    2    0    0  0.49877013696E+02 -0.38769982061E+03 -0.28973556448E+03  0.50236421339E+03  0.12499695267E+03 0.  0.
         23    2    1    2    0    0 -0.49877013696E+02  0.38769982061E+03  0.28973556448E+03  0.49763578661E+03  0.10438300338E+03 0.  0.
        -11    1    4    4    0    0 -0.47941717709E+02  0.34063771588E+03  0.29092078856E+03  0.45051899738E+03  0.00000000000E+00 0.  1.
         11    1    4    4    0    0 -0.19352959869E+01  0.47062104723E+02 -0.11852240797E+01  0.47116789233E+02  0.00000000000E+00 0. -1.
        -15    1    3    3    0    0  0.23293632677E+02 -0.41444435232E+02  0.36930183907E+01  0.47718242306E+02  0.17770000000E+01 0. -1.
         15    1    3    3    0    0  0.26583381019E+02 -0.34625538537E+03 -0.29342858287E+03  0.45464597108E+03  0.17770000000E+01 0. -1.
</event>
<event>
 8    1  0.1270595E-008  0.5016198E+03  0.7546771E-02  0.9396193E-01
        -11   -1    0    0    0    0  0.00000000000E+00  0.00000000000E+00  0.50000000000E+03  0.50000000000E+03  0.00000000000E+00 0.  1.
         11   -1    0    0    0    0 -0.00000000000E+00 -0.00000000000E+00 -0.50000000000E+03  0.50000000000E+03  0.00000000000E+00 0. -1.
         25    2    1    2    0    0 -0.43437919233E+03 -0.13872178280E+02  0.21707423381E+03  0.50161976075E+03  0.12499376520E+03 0.  0.
         23    2    1    2    0    0  0.43437919233E+03  0.13872178280E+02 -0.21707423381E+03  0.49838023925E+03  0.11128306173E+03 0.  0.
        -11    1    4    4    0    0  0.41954889746E+03  0.27121097245E+02 -0.22515006432E+03  0.47691653644E+03  0.00000000000E+00 0.  1.
         11    1    4    4    0    0  0.14830294871E+02 -0.13248918965E+02  0.80758305009E+01  0.21463702802E+02  0.00000000000E+00 0. -1.
        -15    1    3    3    0    0  0.23221723528E+01 -0.10242805556E+02 -0.48999046208E+01  0.11724945390E+02  0.17770000000E+01 0.  1.
         15    1    3    3    0    0 -0.43670136468E+03 -0.36293727234E+01  0.22197413844E+03  0.48989481537E+03  0.17770000000E+01 0.  1.
</event>
<event>
 8    1  0.1270595E-008  0.5023091E+03  0.7546771E-02  0.9394658E-01
        -11   -1    0    0    0    0  0.00000000000E+00  0.00000000000E+00  0.50000000000E+03  0.50000000000E+03  0.00000000000E+00 0. -1.
         11   -1    0    0    0    0 -0.00000000000E+00 -0.00000000000E+00 -0.50000000000E+03  0.50000000000E+03  0.00000000000E+00 0.  1.
         25    2    1    2    0    0 -0.31725171877E+03 -0.33790638039E+03  0.14785294342E+03  0.50230909537E+03  0.12499823772E+03 0.  0.
         23    2    1    2    0    0  0.31725171877E+03  0.33790638039E+03 -0.14785294342E+03  0.49769090463E+03  0.10491124202E+03 0.  0.
        -11    1    4    4    0    0  0.28861725252E+03  0.24791735875E+03 -0.11122286228E+03  0.39640063108E+03  0.00000000000E+00 0. -1.
         11    1    4    4    0    0  0.28634466256E+02  0.89989021640E+02 -0.36630081137E+02  0.10129027356E+03  0.00000000000E+00 0.  1.
        -15    1    3    3    0    0 -0.21584803686E+03 -0.30427894115E+03  0.10986260683E+03  0.38890744291E+03  0.17770000000E+01 0. -1.
         15    1    3    3    0    0 -0.10140368191E+03 -0.33627439240E+02  0.37990336589E+02  0.11340165245E+03  0.17770000000E+01 0. -1.
</event>
<event>
 8    1  0.1270595E-008  0.5000295E+03  0.7546771E-02  0.9399744E-01
        -11   -1    0    0    0    0  0.00000000000E+00  0.00000000000E+00  0.50000000000E+03  0.50000000000E+03  0.00000000000E+00 0.  1.
         11   -1    0    0    0    0 -0.00000000000E+00 -0.00000000000E+00 -0.50000000000E+03  0.50000000000E+03  0.00000000000E+00 0. -1.
         25    2    1    2    0    0  0.37175268538E+03  0.41400557429E+02  0.30739327188E+03  0.50002954261E+03  0.12499941856E+03 0.  0.
         23    2    1    2    0    0 -0.37175268538E+03 -0.41400557429E+02 -0.30739327188E+03  0.49997045739E+03  0.12476285276E+03 0.  0.
        -11    1    4    4    0    0 -0.10181349399E+03 -0.68237467359E+02 -0.10714874208E+03  0.16279801117E+03  0.00000000000E+00 0.  1.
         11    1    4    4    0    0 -0.26993919138E+03  0.26836909930E+02 -0.20024452980E+03  0.33717244622E+03  0.00000000000E+00 0. -1.
        -15    1    3    3    0    0  0.71199228519E+02  0.25466578789E+02  0.89436290023E+01  0.76164447124E+02  0.17770000000E+01 0. -1.
         15    1    3    3    0    0  0.30055345686E+03  0.15933978640E+02  0.29844964288E+03  0.42386509548E+03  0.17770000000E+01 0. -1.
</event>
<event>
 8    1  0.1270595E-008  0.5020067E+03  0.7546771E-02  0.9395331E-01
        -11   -1    0    0    0    0  0.00000000000E+00  0.00000000000E+00  0.50000000000E+03  0.50000000000E+03  0.00000000000E+00 0. -1.
         11   -1    0    0    0    0 -0.00000000000E+00 -0.00000000000E+00 -0.50000000000E+03  0.50000000000E+03  0.00000000000E+00 0.  1.
         25    2    1    2    0    0 -0.32117715392E+03  0.33670521433E+03  0.14092612199E+03  0.50200671018E+03  0.12500159859E+03 0.  0.
         23    2    1    2    0    0  0.32117715392E+03 -0.33670521433E+03 -0.14092612199E+03  0.49799328982E+03  0.10775889428E+03 0.  0.
        -11    1    4    4    0    0  0.25194002050E+03 -0.19849555596E+03 -0.11781053200E+03  0.34169223157E+03  0.00000000000E+00 0.  1.
         11    1    4    4    0    0  0.69237133410E+02 -0.13820965837E+03 -0.23115589993E+02  0.15630105825E+03  0.00000000000E+00 0. -1.
        -15    1    3    3    0    0 -0.67797399726E+02  0.25620231731E+02 -0.10311200841E+02  0.73228152205E+02  0.17770000000E+01 0.  1.
         15    1    3    3    0    0 -0.25337975419E+03  0.31108498260E+03  0.15123732283E+03  0.42877855797E+03  0.17770000000E+01 0.  1.
</event>
<event>
 8    1  0.1270595E-008  0.5024383E+03  0.7546771E-02  0.9394370E-01
        -11   -1    0    0    0    0  0.00000000000E+00  0.00000000000E+00  0.50000000000E+03  0.50000000000E+03  0.00000000000E+00 0. -1.
         11   -1    0    0    0    0 -0.00000000000E+00 -0.00000000000E+00 -0.50000000000E+03  0.50000000000E+03  0.00000000000E+00 0.  1.
         25    2    1    2    0    0 -0.29953685195E+03 -0.20467347678E+03 -0.32434450206E+03  0.50243832656E+03  0.12502543023E+03 0.  0.
         23    2    1    2    0    0  0.29953685195E+03  0.20467347678E+03  0.32434450206E+03  0.49756167344E+03  0.10370489425E+03 0.  0.
        -11    1    4    4    0    0  0.29573290192E+03  0.17749560106E+03  0.27508580067E+03  0.44117438209E+03  0.00000000000E+00 0.  1.
         11    1    4    4    0    0  0.38039500242E+01  0.27177875721E+02  0.49258701386E+02  0.56387291358E+02  0.00000000000E+00 0. -1.
        -15    1    3    3    0    0  0.63972098584E+01 -0.57364003998E+01 -0.36808581839E+02  0.37839926130E+02  0.17770000000E+01 0. -1.
         15    1    3    3    0    0 -0.30593406181E+03 -0.19893707638E+03 -0.28753592022E+03  0.46459840043E+03  0.17770000000E+01 0. -1.
</event>
<event>
 8    1  0.1270595E-008  0.5008106E+03  0.7546771E-02  0.9397998E-01
        -11   -1    0    0    0    0  0.00000000000E+00  0.00000000000E+00  0.50000000000E+03  0.50000000000E+03  0.00000000000E+00 0. -1.
         11   -1    0    0    0    0 -0.00000000000E+00 -0.00000000000E+00 -0.50000000000E+03  0.50000000000E+03  0.00000000000E+00 0.  1.
         25    2    1    2    0    0 -0.18568616644E+03 -0.43604944358E+03  0.10281059311E+03  0.50081059573E+03  0.12499106003E+03 0.  0.
         23    2    1    2    0    0  0.18568616644E+03  0.43604944358E+03 -0.10281059311E+03  0.49918940427E+03  0.11832824529E+03 0.  0.
        -11    1    4    4    0    0  0.15541089126E+03  0.22391159918E+03 -0.37226417108E+02  0.27509044967E+03  0.00000000000E+00 0.  1.
         11    1    4    4    0    0  0.30275275182E+02  0.21213784439E+03 -0.65584176001E+02  0.22409895460E+03  0.00000000000E+00 0. -1.
        -15    1    3    3    0    0 -0.19472058636E+03 -0.42982216070E+03  0.84487220765E+02  0.47937922857E+03  0.17770000000E+01 0.  1.
         15    1    3    3    0    0  0.90344199188E+01 -0.62272828739E+01  0.18323372344E+02  0.21431367159E+02  0.17770000000E+01 0.  1.
</event>
<event>
 8    1  0.1378601E-008  0.5024665E+03  0.7546771E-02  0.9394308E-01
        -11   -1    0    0    0    0  0.00000000000E+00  0.00000000000E+00  0.50000000000E+03  0.50000000000E+03  0.00000000000E+00 0.  1.
         11   -1    0    0    0    0 -0.00000000000E+00 -0.00000000000E+00 -0.50000000000E+03  0.50000000000E+03  0.00000000000E+00 0. -1.
         25    2    1    2    0    0 -0.21683295801E+03  0.42787210813E+03 -0.82196650929E+02  0.50246646155E+03  0.12500073187E+03 0.  0.
         23    2    1    2    0    0  0.21683295801E+03 -0.42787210813E+03  0.82196650929E+02  0.49753353845E+03  0.10340338419E+03 0.  0.
        -11    1    4    4    0    0  0.11855315094E+03 -0.27759057643E+03  0.44998809119E+01  0.30188015279E+03  0.00000000000E+00 0.  1.
         11    1    4    4    0    0  0.98279807071E+02 -0.15028153170E+03  0.77696770018E+02  0.19565338566E+03  0.00000000000E+00 0. -1.
        -15    1    3    3    0    0 -0.14965425248E+03  0.26245521414E+03 -0.11047577085E+03  0.32169424675E+03  0.17770000000E+01 0. -1.
         15    1    3    3    0    0 -0.67178705527E+02  0.16541689399E+03  0.28279119923E+02  0.18077221481E+03  0.17770000000E+01 0. -1.
</event>
<event>
 8    1  0.1270595E-008  0.5023916E+03  0.7546771E-02  0.9394474E-01
        -11   -1    0    0    0    0  0.00000000000E+00  0.00000000000E+00  0.50000000000E+03  0.50000000000E+03  0.00000000000E+00 0.  1.
         11   -1    0    0    0    0 -0.00000000000E+00 -0.00000000000E+00 -0.50000000000E+03  0.50000000000E+03  0.00000000000E+00 0. -1.
         25    2    1    2    0    0  0.33632622696E+03  0.21728342266E+03 -0.27648629836E+03  0.50239160002E+03  0.12500091953E+03 0.  0.
         23    2    1    2    0    0 -0.33632622696E+03 -0.21728342266E+03  0.27648629836E+03  0.49760839998E+03  0.10412506829E+03 0.  0.
        -11    1    4    4    0    0 -0.17928875765E+03 -0.17565192262E+03  0.17658534885E+03  0.30688832165E+03  0.00000000000E+00 0.  1.
         11    1    4    4    0    0 -0.15703746932E+03 -0.41631500043E+02  0.99900949506E+02  0.19072007833E+03  0.00000000000E+00 0. -1.
        -15    1    3    3    0    0  0.31769824397E+03  0.23343541223E+03 -0.26571067656E+03  0.47542569059E+03  0.17770000000E+01 0. -1.
         15    1    3    3    0    0  0.18627982991E+02 -0.16151989566E+02 -0.10775621798E+02  0.26965909430E+02  0.17770000000E+01 0. -1.
</event>
<event>
 8    1  0.1270595E-008  0.5012248E+03  0.7546771E-02  0.9397073E-01
        -11   -1    0    0    0    0  0.00000000000E+00  0.00000000000E+00  0.50000000000E+03  0.50000000000E+03  0.00000000000E+00 0.  1.
         11   -1    0    0    0    0 -0.00000000000E+00 -0.00000000000E+00 -0.50000000000E+03  0.50000000000E+03  0.00000000000E+00 0. -1.
         25    2    1    2    0    0 -0.10762272013E+03  0.38500204812E+03 -0.27529775307E+03  0.50122482296E+03  0.12501297277E+03 0.  0.
         23    2    1    2    0    0  0.10762272013E+03 -0.38500204812E+03  0.27529775307E+03  0.49877517704E+03  0.11479807248E+03 0.  0.
        -11    1    4    4    0    0  0.80383218050E+02 -0.23677636375E+03  0.23411692682E+03  0.34254232380E+03  0.00000000000E+00 0.  1.
         11    1    4    4    0    0  0.27239502080E+02 -0.14822568437E+03  0.41180826252E+02  0.15623285324E+03  0.00000000000E+00 0. -1.
        -15    1    3    3    0    0  0.79474426698E+01  0.18840516255E+03 -0.99122033478E+02  0.21304460183E+03  0.17770000000E+01 0.  1.
         15    1    3    3    0    0 -0.11557016280E+03  0.19659688557E+03 -0.17617571959E+03  0.28818022112E+03  0.17770000000E+01 0.  1.
</event>
<event>
 7    1  0.1270595E-008  0.5013033E+03  0.7546771E-02  0.9396898E-01
        -11   -1    0    0    0    0  0.00000000000E+00  0.00000000000E+00  0.50000000000E+03  0.50000000000E+03  0.00000000000E+00 0.  1.
         11   -1    0    0    0    0 -0.00000000000E+00 -0.00000000000E+00 -0.50000000000E+03  0.50000000000E+03  0.00000000000E+00 0. -1.
         25    2    1    2    0    0 -0.26546924028E+03 -0.40320164097E+03 -0.51778363750E+01  0.49869669123E+03  0.12500439607E+03 0.  0.
        -11    1    1    2    0    0  0.11852759710E+03  0.23431638944E+03 -0.57545401100E+02  0.26882045090E+03  0.00000000000E+00 0. -1.
         11    1    1    2    0    0  0.14694164318E+03  0.16888525153E+03  0.62723237475E+02  0.23248285787E+03  0.00000000000E+00 0.  1.
        -15    1    3    3    0    0 -0.78400650213E+02 -0.39720004973E+02 -0.17854537071E+02  0.89701075645E+02  0.17770000000E+01 0.  1.
         15    1    3    3    0    0 -0.18706859007E+03 -0.36348163600E+03  0.12676700696E+02  0.40899561558E+03  0.17770000000E+01 0.  1.
</event>
<event>
 8    1  0.1292758E-008  0.5023548E+03  0.7546771E-02  0.9394556E-01
        -11   -1    0    0    0    0  0.00000000000E+00  0.00000000000E+00  0.50000000000E+03  0.50000000000E+03  0.00000000000E+00 0. -1.
         11   -1    0    0    0    0 -0.00000000000E+00 -0.00000000000E+00 -0.50000000000E+03  0.50000000000E+03  0.00000000000E+00 0.  1.
         25    2    1    2    0    0 -0.35031952206E+03 -0.33428216624E+03  0.47619193232E+02  0.50235477021E+03  0.12499757352E+03 0.  0.
         23    2    1    2    0    0  0.35031952206E+03  0.33428216624E+03 -0.47619193232E+02  0.49764522979E+03  0.10447417372E+03 0.  0.
        -11    1    4    4    0    0  0.17564326712E+03  0.14962523318E+03 -0.73470549032E+02  0.24214910543E+03  0.00000000000E+00 0. -1.
         11    1    4    4    0    0  0.17467625494E+03  0.18465693306E+03  0.25851355801E+02  0.25549612436E+03  0.00000000000E+00 0.  1.
        -15    1    3    3    0    0 -0.32565359453E+03 -0.24851694544E+03  0.52280329506E+02  0.41297375992E+03  0.17770000000E+01 0. -1.
         15    1    3    3    0    0 -0.24665927529E+02 -0.85765220800E+02 -0.46611362747E+01  0.89381010288E+02  0.17770000000E+01 0. -1.
</event>
<event>
 8    1  0.1270595E-008  0.5022885E+03  0.7546771E-02  0.9394704E-01
        -11   -1    0    0    0    0  0.00000000000E+00  0.00000000000E+00  0.50000000000E+03  0.50000000000E+03  0.00000000000E+00 0.  1.
         11   -1    0    0    0    0 -0.00000000000E+00 -0.00000000000E+00 -0.50000000000E+03  0.50000000000E+03  0.00000000000E+00 0. -1.
         25    2    1    2    0    0 -0.14104191297E+03  0.41289552878E+03 -0.21515664780E+03  0.50228849378E+03  0.12500323594E+03 0.  0.
         23    2    1    2    0    0  0.14104191297E+03 -0.41289552878E+03  0.21515664780E+03  0.49771150622E+03  0.10511337415E+03 0.  0.
        -11    1    4    4    0    0  0.14578816117E+03 -0.30510598463E+03  0.13877047857E+03  0.36551483625E+03  0.00000000000E+00 0. -1.
         11    1    4    4    0    0 -0.47462482076E+01 -0.10778954415E+03  0.76386169235E+02  0.13219666997E+03  0.00000000000E+00 0.  1.
        -15    1    3    3    0    0 -0.61154039104E+01  0.20750967824E+03 -0.86582246631E+02  0.22493845356E+03  0.17770000000E+01 0.  1.
         15    1    3    3    0    0 -0.13492650905E+03  0.20538585054E+03 -0.12857440117E+03  0.27735004023E+03  0.17770000000E+01 0.  1.
</event>
<event>
 8    1  0.1333091E-008  0.5022568E+03  0.7546771E-02  0.9394774E-01
        -11   -1    0    0    0    0  0.00000000000E+00  0.00000000000E+00  0.50000000000E+03  0.50000000000E+03  0.00000000000E+00 0.  1.
         11   -1    0    0    0    0 -0.00000000000E+00 -0.00000000000E+00 -0.50000000000E+03  0.50000000000E+03  0.00000000000E+00 0. -1.
         25    2    1    2    0    0 -0.20676933972E+03  0.37052919870E+03 -0.23789038732E+03  0.50225684363E+03  0.12499861459E+03 0.  0.
         23    2    1    2    0    0  0.20676933972E+03 -0.37052919870E+03  0.23789038732E+03  0.49774315637E+03  0.10540856888E+03 0.  0.
        -11    1    4    4    0    0  0.12249613974E+03 -0.20860970475E+03  0.75491784644E+02  0.25342123572E+03  0.00000000000E+00 0.  1.
         11    1    4    4    0    0  0.84273199984E+02 -0.16191949395E+03  0.16239860268E+03  0.24432192065E+03  0.00000000000E+00 0. -1.
        -15    1    3    3    0    0 -0.53273775126E+02  0.11597753868E+03 -0.13963838999E+03  0.18918488915E+03  0.17770000000E+01 0.  1.
         15    1    3    3    0    0 -0.15349556460E+03  0.25455166003E+03 -0.98251997330E+02  0.31307195448E+03  0.17770000000E+01 0.  1.
</event>
<event>
 8    1  0.1270595E-008  0.5008544E+03  0.7546771E-02  0.9397900E-01
        -11   -1    0    0    0    0  0.00000000000E+00  0.00000000000E+00  0.50000000000E+03  0.50000000000E+03  0.00000000000E+00 0. -1.
         11   -1    0    0    0    0 -0.00000000000E+00 -0.00000000000E+00 -0.50000000000E+03  0.50000000000E+03  0.00000000000E+00 0.  1.
         25    2    1    2    0    0 -0.44984940636E+03 -0.11925268529E+02 -0.18089964092E+03  0.50085444909E+03  0.12499519453E+03 0.  0.
         23    2    1    2    0    0  0.44984940636E+03  0.11925268529E+02  0.18089964092E+03  0.49914555091E+03  0.11796143637E+03 0.  0.
        -11    1    4    4    0    0  0.18846097712E+02 -0.26112977365E+00 -0.16389778013E+02  0.24977357968E+02  0.00000000000E+00 0.  1.
         11    1    4    4    0    0  0.43100330865E+03  0.12186398303E+02  0.19728941893E+03  0.47416819294E+03  0.00000000000E+00 0. -1.
        -15    1    3    3    0    0 -0.60959298365E+01 -0.22258495310E+02 -0.79507164303E+01  0.24473916621E+02  0.17770000000E+01 0.  1.
         15    1    3    3    0    0 -0.44375347653E+03  0.10333226781E+02 -0.17294892449E+03  0.47638053247E+03  0.17770000000E+01 0.  1.
</event>
<event>
 7    1  0.1270595E-008  0.3389642E+03  0.7546771E-02  0.9856209E-01
        -11   -1    0    0    0    0  0.00000000000E+00  0.00000000000E+00  0.50000000000E+03  0.50000000000E+03  0.00000000000E+00 0.  1.
         11   -1    0    0    0    0 -0.00000000000E+00 -0.00000000000E+00 -0.50000000000E+03  0.50000000000E+03  0.00000000000E+00 0. -1.
         25    2    1    2    0    0  0.30546663671E+03  0.19070706151E+03 -0.10423223465E+03  0.39518119569E+03  0.12499907691E+03 0.  0.
        -11    1    1    2    0    0  0.24986550999E+01 -0.22251754432E+03  0.17984002439E+03  0.28611664611E+03  0.00000000000E+00 0.  1.
         11    1    1    2    0    0 -0.30796529181E+03  0.31810482802E+02 -0.75607789739E+02  0.31870215821E+03  0.00000000000E+00 0. -1.
        -15    1    3    3    0    0  0.55729994055E+02  0.96140116846E+02 -0.53547006310E+02  0.12336609712E+03  0.17770000000E+01 0.  1.
         15    1    3    3    0    0  0.24973664265E+03  0.94566944668E+02 -0.50685228344E+02  0.27181509857E+03  0.17770000000E+01 0.  1.
</event>
<event>
 7    1  0.1270595E-008  0.5059741E+03  0.7546771E-02  0.9386540E-01
        -11   -1    0    0    0    0  0.00000000000E+00  0.00000000000E+00  0.50000000000E+03  0.50000000000E+03  0.00000000000E+00 0. -1.
         11   -1    0    0    0    0 -0.00000000000E+00 -0.00000000000E+00 -0.50000000000E+03  0.50000000000E+03  0.00000000000E+00 0. -1.
         25    2    1    2    0    0 -0.20642101247E+03  0.33552105264E+03  0.27065291680E+03  0.49402585424E+03  0.12499812852E+03 0.  0.
        -11    1    1    2    0    0 -0.15639414023E+02 -0.74860956182E+02 -0.92361418834E+02  0.11991407641E+03  0.00000000000E+00 0. -1.
         11    1    1    2    0    0  0.22206042650E+03 -0.26066009646E+03 -0.17829149797E+03  0.38606006935E+03  0.00000000000E+00 0. -1.
        -15    1    3    3    0    0 -0.93543628772E+02  0.90831512827E+02  0.32483416137E+02  0.13438416670E+03  0.17770000000E+01 0. -1.
         15    1    3    3    0    0 -0.11287738370E+03  0.24468953981E+03  0.23816950066E+03  0.35964168754E+03  0.17770000000E+01 0. -1.
</event>
<event>
 8    1  0.1270595E-008  0.5020902E+03  0.7546771E-02  0.9395145E-01
        -11   -1    0    0    0    0  0.00000000000E+00  0.00000000000E+00  0.50000000000E+03  0.50000000000E+03  0.00000000000E+00 0. -1.
         11   -1    0    0    0    0 -0.00000000000E+00 -0.00000000000E+00 -0.50000000000E+03  0.50000000000E+03  0.00000000000E+00 0.  1.
         25    2    1    2    0    0 -0.34984348342E+03  0.97413452724E+02  0.32340335401E+03  0.50209021268E+03  0.12500003450E+03 0.  0.
         23    2    1    2    0    0  0.34984348342E+03 -0.97413452724E+02 -0.32340335401E+03  0.49790978732E+03  0.10697935903E+03 0.  0.
        -11    1    4    4    0    0  0.23219118595E+03 -0.11011651392E+03 -0.19004179958E+03  0.31961583043E+03  0.00000000000E+00 0. -1.
         11    1    4    4    0    0  0.11765229747E+03  0.12703061198E+02 -0.13336155443E+03  0.17829395689E+03  0.00000000000E+00 0.  1.
        -15    1    3    3    0    0 -0.35166632367E+03  0.11005182241E+03  0.32156362334E+03  0.48906740681E+03  0.17770000000E+01 0.  1.
         15    1    3    3    0    0  0.18228402505E+01 -0.12638369686E+02  0.18397306737E+01  0.13022805875E+02  0.17770000000E+01 0.  1.
</event>
<event>
 8    1  0.1270595E-008  0.5012643E+03  0.7546771E-02  0.9396985E-01
        -11   -1    0    0    0    0  0.00000000000E+00  0.00000000000E+00  0.50000000000E+03  0.50000000000E+03  0.00000000000E+00 0.  1.
         11   -1    0    0    0    0 -0.00000000000E+00 -0.00000000000E+00 -0.50000000000E+03  0.50000000000E+03  0.00000000000E+00 0. -1.
         25    2    1    2    0    0 -0.14334333703E+02 -0.48190330285E+03  0.56610656685E+02  0.50126425603E+03  0.12499928603E+03 0.  0.
         23    2    1    2    0    0  0.14334333703E+02  0.48190330285E+03 -0.56610656685E+02  0.49873574397E+03  0.11443910802E+03 0.  0.
        -11    1    4    4    0    0 -0.28915273935E+02  0.23790759603E+03  0.16926376577E+02  0.24025532156E+03  0.00000000000E+00 0.  1.
         11    1    4    4    0    0  0.43249607639E+02  0.24399570682E+03 -0.73537033262E+02  0.25848042241E+03  0.00000000000E+00 0. -1.
        -15    1    3    3    0    0  0.30336891762E+02 -0.57985704800E+02  0.35503224450E+02  0.74473523069E+02  0.17770000000E+01 0. -1.
         15    1    3    3    0    0 -0.44671225465E+02 -0.42391759805E+03  0.21107432235E+02  0.42679073296E+03  0.17770000000E+01 0. -1.
</event>
<event>
 8    1  0.1270595E-008  0.5002250E+03  0.7546771E-02  0.9399306E-01
        -11   -1    0    0    0    0  0.00000000000E+00  0.00000000000E+00  0.50000000000E+03  0.50000000000E+03  0.00000000000E+00 0.  1.
         11   -1    0    0    0    0 -0.00000000000E+00 -0.00000000000E+00 -0.50000000000E+03  0.50000000000E+03  0.00000000000E+00 0. -1.
         25    2    1    2    0    0  0.11172706675E+03 -0.25598033926E+03  0.39571164187E+03  0.50022499879E+03  0.12501389669E+03 0.  0.
         23    2    1    2    0    0 -0.11172706675E+03  0.25598033926E+03 -0.39571164187E+03  0.49977500121E+03  0.12320096101E+03 0.  0.
        -11    1    4    4    0    0 -0.99370882921E+02  0.78250178751E+02 -0.18018178900E+03  0.22014345308E+03  0.00000000000E+00 0.  1.
         11    1    4    4    0    0 -0.12356183829E+02  0.17773016051E+03 -0.21552985287E+03  0.27963154813E+03  0.00000000000E+00 0. -1.
        -15    1    3    3    0    0  0.85717789352E+02 -0.26455729120E+03  0.36750417395E+03  0.46086936906E+03  0.17770000000E+01 0. -1.
         15    1    3    3    0    0  0.26009277398E+02  0.85769519435E+01  0.28207467918E+02  0.39355629722E+02  0.17770000000E+01 0. -1.
</event>
<event>
 7    1  0.1270595E-008  0.5003925E+03  0.7546771E-02  0.9398932E-01
        -11   -1    0    0    0    0  0.00000000000E+00  0.00000000000E+00  0.50000000000E+03  0.50000000000E+03  0.00000000000E+00 0.  1.
         11   -1    0    0    0    0 -0.00000000000E+00 -0.00000000000E+00 -0.50000000000E+03  0.50000000000E+03  0.00000000000E+00 0. -1.
         25    2    1    2    0    0 -0.45445951483E+03  0.92373047768E+02 -0.13753624826E+03  0.49960752478E+03  0.12500091464E+03 0.  0.
        -11    1    1    2    0    0  0.47813277155E+02 -0.52905800436E+02  0.78208628752E+01  0.71737710364E+02  0.00000000000E+00 0.  1.
         11    1    1    2    0    0  0.40664623768E+03 -0.39467247332E+02  0.12971538538E+03  0.42865476485E+03  0.00000000000E+00 0. -1.
        -15    1    3    3    0    0 -0.12237808634E+03 -0.30480972200E+02 -0.40431853637E+02  0.13245141826E+03  0.17770000000E+01 0.  1.
         15    1    3    3    0    0 -0.33208142850E+03  0.12285401997E+03 -0.97104394620E+02  0.36715610652E+03  0.17770000000E+01 0.  1.
</event>
<event>
 8    1  0.1270595E-008  0.5021478E+03  0.7546771E-02  0.9395017E-01
        -11   -1    0    0    0    0  0.00000000000E+00  0.00000000000E+00  0.50000000000E+03  0.50000000000E+03  0.00000000000E+00 0.  1.
         11   -1    0    0    0    0 -0.00000000000E+00 -0.00000000000E+00 -0.50000000000E+03  0.50000000000E+03  0.00000000000E+00 0. -1.
         25    2    1    2    0    0  0.60255706247E+01 -0.42016244785E+03 -0.24485872408E+03  0.50214779735E+03  0.12499530208E+03 0.  0.
         23    2    1    2    0    0 -0.60255706247E+01  0.42016244785E+03  0.24485872408E+03  0.49785220265E+03  0.10643416200E+03 0.  0.
        -11    1    4    4    0    0 -0.38379643748E+01  0.10796412884E+03  0.12673644838E+02  0.10877317850E+03  0.00000000000E+00 0.  1.
         11    1    4    4    0    0 -0.21876062499E+01  0.31219831901E+03  0.23218507924E+03  0.38907902415E+03  0.00000000000E+00 0. -1.
        -15    1    3    3    0    0 -0.17297354164E+02 -0.65978743080E+02 -0.94741392005E+02  0.11675393821E+03  0.17770000000E+01 0. -1.
         15    1    3    3    0    0  0.23322924788E+02 -0.35418370477E+03 -0.15011733207E+03  0.38539385914E+03  0.17770000000E+01 0. -1.
</event>
<event>
 7    1  0.1270595E-008  0.5192773E+03  0.7546771E-02  0.9357679E-01
        -11   -1    0    0    0    0  0.00000000000E+00  0.00000000000E+00  0.50000000000E+03  0.50000000000E+03  0.00000000000E+00 0.  1.
         11   -1    0    0    0    0 -0.00000000000E+00 -0.00000000000E+00 -0.50000000000E+03  0.50000000000E+03  0.00000000000E+00 0. -1.
         25    2    1    2    0    0  0.43886090900E+03  0.13646236312E+03 -0.65169411100E+02  0.48072271928E+03  0.12500562666E+03 0.  0.
        -11    1    1    2    0    0 -0.25769482688E+03 -0.17333094921E+02 -0.65064981338E+02  0.26634660084E+03  0.00000000000E+00 0.  1.
         11    1    1    2    0    0 -0.18116608211E+03 -0.11912926820E+03  0.13023439244E+03  0.25293067988E+03  0.00000000000E+00 0. -1.
        -15    1    3    3    0    0  0.33720676404E+02  0.26386905748E+01 -0.41257155011E+02  0.53379371237E+02  0.17770000000E+01 0.  1.
         15    1    3    3    0    0  0.40514023259E+03  0.13382367255E+03 -0.23912256089E+02  0.42734334805E+03  0.17770000000E+01 0.  1.
</event>
<event>
 7    1  0.1270595E-008  0.5010426E+03  0.7546771E-02  0.9397480E-01
        -11   -1    0    0    0    0  0.00000000000E+00  0.00000000000E+00  0.50000000000E+03  0.50000000000E+03  0.00000000000E+00 0.  1.
         11   -1    0    0    0    0 -0.00000000000E+00 -0.00000000000E+00 -0.50000000000E+03  0.50000000000E+03  0.00000000000E+00 0. -1.
         25    2    1    2    0    0 -0.20509595870E+03 -0.34850031109E+03 -0.26422936692E+03  0.49895737328E+03  0.12499793158E+03 0.  0.
        -11    1    1    2    0    0  0.13599247447E+03  0.31149641328E+03  0.24862897846E+03  0.42111796154E+03  0.00000000000E+00 0.  1.
         11    1    1    2    0    0  0.69103484223E+02  0.37003897817E+02  0.15600388451E+02  0.79924665187E+02  0.00000000000E+00 0. -1.
        -15    1    3    3    0    0 -0.16900199861E+03 -0.18569783999E+03 -0.19699860065E+03  0.31915038728E+03  0.17770000000E+01 0. -1.
         15    1    3    3    0    0 -0.36093960086E+02 -0.16280247110E+03 -0.67230766260E+02  0.17980698600E+03  0.17770000000E+01 0. -1.
</event>
<event>
 7    1  0.1270595E-008  0.5144605E+03  0.7546771E-02  0.9368022E-01
        -11   -1    0    0    0    0  0.00000000000E+00  0.00000000000E+00  0.50000000000E+03  0.50000000000E+03  0.00000000000E+00 0. -1.
         11   -1    0    0    0    0 -0.00000000000E+00 -0.00000000000E+00 -0.50000000000E+03  0.50000000000E+03  0.00000000000E+00 0.  1.
         25    2    1    2    0    0  0.23605895939E+03 -0.32293301118E+03 -0.24517904205E+03  0.48553945279E+03  0.12500494207E+03 0.  0.
        -11    1    1    2    0    0 -0.14274568288E+03  0.33535533104E+02  0.10019196305E+03  0.17759333158E+03  0.00000000000E+00 0. -1.
         11    1    1    2    0    0 -0.93313276502E+02  0.28939747807E+03  0.14498707900E+03  0.33686721563E+03  0.00000000000E+00 0.  1.
        -15    1    3    3    0    0  0.29319616731E+02  0.12036107878E+01  0.28949050836E+00  0.29399492137E+02  0.17770000000E+01 0.  1.
         15    1    3    3    0    0  0.20673934266E+03 -0.32413662197E+03 -0.24546853256E+03  0.45613996065E+03  0.17770000000E+01 0.  1.
</event>
<event>
 8    1  0.1270595E-008  0.5018535E+03  0.7546771E-02  0.9395672E-01
        -11   -1    0    0    0    0  0.00000000000E+00  0.00000000000E+00  0.50000000000E+03  0.50000000000E+03  0.00000000000E+00 0.  1.
         11   -1    0    0    0    0 -0.00000000000E+00 -0.00000000000E+00 -0.50000000000E+03  0.50000000000E+03  0.00000000000E+00 0. -1.
         25    2    1    2    0    0  0.25446896182E+03 -0.18307311914E+03  0.37143237215E+03  0.50185346603E+03  0.12499869922E+03 0.  0.
         23    2    1    2    0    0 -0.25446896182E+03  0.18307311914E+03 -0.37143237215E+03  0.49814653397E+03  0.10916841462E+03 0.  0.
        -11    1    4    4    0    0 -0.13402631766E+03  0.49174962128E+02 -0.10789290138E+03  0.17894722377E+03  0.00000000000E+00 0.  1.
         11    1    4    4    0    0 -0.12044264415E+03  0.13389815701E+03 -0.26353947077E+03  0.31919931020E+03  0.00000000000E+00 0. -1.
        -15    1    3    3    0    0  0.20626911098E+03 -0.12198416171E+03  0.34416597911E+03  0.41938104482E+03  0.17770000000E+01 0.  1.
         15    1    3    3    0    0  0.48199850834E+02 -0.61088957435E+02  0.27266393038E+02  0.82472421204E+02  0.17770000000E+01 0.  1.
</event>
<event>
 8    1  0.1270595E-008  0.5011781E+03  0.7546771E-02  0.9397177E-01
        -11   -1    0    0    0    0  0.00000000000E+00  0.00000000000E+00  0.50000000000E+03  0.50000000000E+03  0.00000000000E+00 0. -1.
         11   -1    0    0    0    0 -0.00000000000E+00 -0.00000000000E+00 -0.50000000000E+03  0.50000000000E+03  0.00000000000E+00 0.  1.
         25    2    1    2    0    0  0.12031079474E+03  0.47005836873E+03 -0.11152283762E+02  0.50117809412E+03  0.12500220496E+03 0.  0.
         23    2    1    2    0    0 -0.12031079474E+03 -0.47005836873E+03  0.11152283762E+02  0.49882190588E+03  0.11519272117E+03 0.  0.
        -11    1    4    4    0    0 -0.76056828143E+02 -0.10043256208E+03  0.12037464049E+02  0.12655528900E+03  0.00000000000E+00 0.  1.
         11    1    4    4    0    0 -0.44253966601E+02 -0.36962580665E+03 -0.88518028638E+00  0.37226661689E+03  0.00000000000E+00 0. -1.
        -15    1    3    3    0    0 -0.22183763495E+02  0.99923413527E+02 -0.20696573049E+02  0.10444287337E+03  0.17770000000E+01 0. -1.
         15    1    3    3    0    0  0.14249455824E+03  0.37013495520E+03  0.95442892868E+01  0.39673522074E+03  0.17770000000E+01 0. -1.
</event>
<event>
 8    1  0.1270595E-008  0.5015025E+03  0.7546771E-02  0.9396454E-01
        -11   -1    0    0    0    0  0.00000000000E+00  0.00000000000E+00  0.50000000000E+03  0.50000000000E+03  0.00000000000E+00 0.  1.
         11   -1    0    0    0    0 -0.00000000000E+00 -0.00000000000E+00 -0.50000000000E+03  0.50000000000E+03  0.00000000000E+00 0. -1.
         25    2    1    2    0    0  0.10007946023E+03  0.14576080901E+03  0.45234719455E+03  0.50150245169E+03  0.12499845131E+03 0.  0.
         23    2    1    2    0    0 -0.10007946023E+03 -0.14576080901E+03 -0.45234719455E+03  0.49849754831E+03  0.11233748013E+03 0.  0.
        -11    1    4    4    0    0 -0.75506181382E+02 -0.11870780059E+03 -0.43659067231E+03  0.45869831098E+03  0.00000000000E+00 0. -1.
         11    1    4    4    0    0 -0.24573278851E+02 -0.27053008428E+02 -0.15756522242E+02  0.39799237325E+02  0.00000000000E+00 0.  1.
        -15    1    3    3    0    0  0.39814779299E+02 -0.15620185942E+02  0.68610681776E+02  0.80868969588E+02  0.17770000000E+01 0.  1.
         15    1    3    3    0    0  0.60264680933E+02  0.16138099495E+03  0.38373651278E+03  0.42063348211E+03  0.17770000000E+01 0.  1.
</event>
<event>
 8    1  0.1270595E-008  0.5017104E+03  0.7546771E-02  0.9395991E-01
        -11   -1    0    0    0    0  0.00000000000E+00  0.00000000000E+00  0.50000000000E+03  0.50000000000E+03  0.00000000000E+00 0. -1.
         11   -1    0    0    0    0 -0.00000000000E+00 -0.00000000000E+00 -0.50000000000E+03  0.50000000000E+03  0.00000000000E+00 0.  1.
         25    2    1    2    0    0  0.38443360200E+03  0.24544682282E+03  0.16750125324E+03  0.50171039507E+03  0.12499325383E+03 0.  0.
         23    2    1    2    0    0 -0.38443360200E+03 -0.24544682282E+03 -0.16750125324E+03  0.49828960493E+03  0.11046503231E+03 0.  0.
        -11    1    4    4    0    0 -0.60696877751E+02 -0.48323360917E+02  0.12679690032E+02  0.78613184125E+02  0.00000000000E+00 0.  1.
         11    1    4    4    0    0 -0.32373672425E+03 -0.19712346190E+03 -0.18018094327E+03  0.41967642081E+03  0.00000000000E+00 0. -1.
        -15    1    3    3    0    0  0.27232752399E+03  0.22998768171E+03  0.10120929523E+03  0.37054432020E+03  0.17770000000E+01 0. -1.
         15    1    3    3    0    0  0.11210607802E+03  0.15459141108E+02  0.66291958004E+02  0.13116607487E+03  0.17770000000E+01 0. -1.
</event>
<event>
 7    1  0.1270595E-008  0.5148700E+03  0.7546771E-02  0.9367138E-01
        -11   -1    0    0    0    0  0.00000000000E+00  0.00000000000E+00  0.50000000000E+03  0.50000000000E+03  0.00000000000E+00 0.  1.
         11   -1    0    0    0    0 -0.00000000000E+00 -0.00000000000E+00 -0.50000000000E+03  0.50000000000E+03  0.00000000000E+00 0. -1.
         25    2    1    2    0    0  0.35486925805E+03 -0.10690450267E+03  0.28699398010E+03  0.48513002980E+03  0.12499935279E+03 0.  0.
        -11    1    1    2    0    0 -0.26771518194E+03  0.94588242723E+02 -0.87967250481E+02  0.29724836662E+03  0.00000000000E+00 0.  1.
         11    1    1    2    0    0 -0.87154076118E+02  0.12316259946E+02 -0.19902672962E+03  0.21762160358E+03  0.00000000000E+00 0. -1.
        -15    1    3    3    0    0  0.10340766726E+03 -0.93315329258E+02  0.10182940223E+03  0.17254935877E+03  0.17770000000E+01 0.  1.
         15    1    3    3    0    0  0.25146159079E+03 -0.13589173412E+02  0.18516457787E+03  0.31258067103E+03  0.17770000000E+01 0.  1.
</event>
<event>
 7    1  0.1270595E-008  0.5065289E+03  0.7546771E-02  0.9385318E-01
        -11   -1    0    0    0    0  0.00000000000E+00  0.00000000000E+00  0.50000000000E+03  0.50000000000E+03  0.00000000000E+00 0. -1.
         11   -1    0    0    0    0 -0.00000000000E+00 -0.00000000000E+00 -0.50000000000E+03  0.50000000000E+03  0.00000000000E+00 0.  1.
         25    2    1    2    0    0 -0.21838264437E+02  0.42276167689E+03 -0.24847929408E+03  0.50652891254E+03  0.12500093766E+03 0.  0.
        -11    1    1    2    0    0  0.90910896725E+01 -0.38782944332E+03  0.21552810235E+03  0.44378675952E+03  0.00000000000E+00 0.  1.
         11    1    1    2    0    0  0.12747174764E+02 -0.34932233567E+02  0.32951191729E+02  0.49684327940E+02  0.00000000000E+00 0. -1.
        -15    1    3    3    0    0 -0.23316709396E+02  0.17094829490E+02  0.31739148393E+01  0.29139896993E+02  0.17770000000E+01 0. -1.
         15    1    3    3    0    0  0.14784449595E+01  0.40566684740E+03 -0.25165320892E+03  0.47738901555E+03  0.17770000000E+01 0. -1.
</event>
<event>
 7    1  0.1270595E-008  0.5006618E+03  0.7546771E-02  0.9398330E-01
        -11   -1    0    0    0    0  0.00000000000E+00  0.00000000000E+00  0.50000000000E+03  0.50000000000E+03  0.00000000000E+00 0.  1.
         11   -1    0    0    0    0 -0.00000000000E+00 -0.00000000000E+00 -0.50000000000E+03  0.50000000000E+03  0.00000000000E+00 0. -1.
         25    2    1    2    0    0 -0.45418693084E+03 -0.84319963605E+02 -0.14254395606E+03  0.49933822154E+03  0.12499702265E+03 0.  0.
        -11    1    1    2    0    0  0.23688407643E+03  0.75073357634E+02  0.13552369082E+03  0.28304901601E+03  0.00000000000E+00 0.  1.
         11    1    1    2    0    0  0.21730285441E+03  0.92466059709E+01  0.70202652362E+01  0.21761276245E+03  0.00000000000E+00 0. -1.
        -15    1    3    3    0    0 -0.13294277267E+03 -0.14127676469E+02  0.15322714611E+02  0.13457828710E+03  0.17770000000E+01 0.  1.
         15    1    3    3    0    0 -0.32124415817E+03 -0.70192287136E+02 -0.15786667067E+03  0.36475993444E+03  0.17770000000E+01 0.  1.
</event>
<event>
 7    1  0.1270595E-008  0.5135697E+03  0.7546771E-02  0.9369948E-01
        -11   -1    0    0    0    0  0.00000000000E+00  0.00000000000E+00  0.50000000000E+03  0.50000000000E+03  0.00000000000E+00 0.  1.
         11   -1    0    0    0    0 -0.00000000000E+00 -0.00000000000E+00 -0.50000000000E+03  0.50000000000E+03  0.00000000000E+00 0. -1.
         25    2    1    2    0    0  0.27145639393E+03 -0.37002767116E+03  0.10189116660E+03  0.48643031930E+03  0.12499437777E+03 0.  0.
        -11    1    1    2    0    0 -0.45406827052E+02  0.23648212164E+03 -0.47282911635E+02  0.24540017834E+03  0.00000000000E+00 0. -1.
         11    1    1    2    0    0 -0.22604956688E+03  0.13354554952E+03 -0.54608254963E+02  0.26816950235E+03  0.00000000000E+00 0.  1.
        -15    1    3    3    0    0  0.18971187494E+03 -0.15342702983E+03  0.57851962100E+02  0.25075975798E+03  0.17770000000E+01 0.  1.
         15    1    3    3    0    0  0.81744518990E+02 -0.21660064133E+03  0.44039204498E+02  0.23567056132E+03  0.17770000000E+01 0.  1.
</event>
<event>
 8    1  0.1270595E-008  0.5000089E+03  0.7546771E-02  0.9399790E-01
        -11   -1    0    0    0    0  0.00000000000E+00  0.00000000000E+00  0.50000000000E+03  0.50000000000E+03  0.00000000000E+00 0. -1.
         11   -1    0    0    0    0 -0.00000000000E+00 -0.00000000000E+00 -0.50000000000E+03  0.50000000000E+03  0.00000000000E+00 0.  1.
         25    2    1    2    0    0 -0.46600356438E+03 -0.64728101367E+02  0.11416475879E+03  0.50000886948E+03  0.12500491307E+03 0.  0.
         23    2    1    2    0    0  0.46600356438E+03  0.64728101367E+02 -0.11416475879E+03  0.49999113052E+03  0.12493393987E+03 0.  0.
        -11    1    4    4    0    0  0.25104327862E+03  0.67333494024E+02 -0.75407870066E+01  0.26002574992E+03  0.00000000000E+00 0. -1.
         11    1    4    4    0    0  0.21496028576E+03 -0.26053926568E+01 -0.10662397178E+03  0.23996538059E+03  0.00000000000E+00 0.  1.
        -15    1    3    3    0    0 -0.45255230351E+03 -0.35760706048E+02  0.99127684153E+02  0.46466318017E+03  0.17770000000E+01 0.  1.
         15    1    3    3    0    0 -0.13451260869E+02 -0.28967395319E+02  0.15037074636E+02  0.35345689315E+02  0.17770000000E+01 0.  1.
</event>
<event>
 7    1  0.1270595E-008  0.5026085E+03  0.7546771E-02  0.9393992E-01
        -11   -1    0    0    0    0  0.00000000000E+00  0.00000000000E+00  0.50000000000E+03  0.50000000000E+03  0.00000000000E+00 0. -1.
         11   -1    0    0    0    0 -0.00000000000E+00 -0.00000000000E+00 -0.50000000000E+03  0.50000000000E+03  0.00000000000E+00 0.  1.
         25    2    1    2    0    0 -0.30671862257E+03 -0.36743197297E+03 -0.51879028621E+02  0.49739151175E+03  0.12499725660E+03 0.  0.
        -11    1    1    2    0    0  0.13306754191E+03  0.13640598273E+03  0.90622004717E+02  0.21101163611E+03  0.00000000000E+00 0. -1.
         11    1    1    2    0    0  0.17365108065E+03  0.23102599024E+03 -0.38742976096E+02  0.29159685214E+03  0.00000000000E+00 0.  1.
        -15    1    3    3    0    0 -0.95971094547E+02 -0.19352731630E+03 -0.59418218776E+02  0.22404677100E+03  0.17770000000E+01 0. -1.
         15    1    3    3    0    0 -0.21074752802E+03 -0.17390465667E+03  0.75391901552E+01  0.27334474075E+03  0.17770000000E+01 0. -1.
</event>
<event>
 8    1  0.1270595E-008  0.5021452E+03  0.7546771E-02  0.9395022E-01
        -11   -1    0    0    0    0  0.00000000000E+00  0.00000000000E+00  0.50000000000E+03  0.50000000000E+03  0.00000000000E+00 0. -1.
         11   -1    0    0    0    0 -0.00000000000E+00 -0.00000000000E+00 -0.50000000000E+03  0.50000000000E+03  0.00000000000E+00 0.  1.
         25    2    1    2    0    0  0.45929282339E+03  0.14902178997E+03 -0.58038772004E+02  0.50214517037E+03  0.12499552619E+03 0.  0.
         23    2    1    2    0    0 -0.45929282339E+03 -0.14902178997E+03  0.58038772004E+02  0.49785482963E+03  0.10645910400E+03 0.  0.
        -11    1    4    4    0    0 -0.59086604741E+02 -0.43425438740E+02 -0.21423044399E+02  0.76393340161E+02  0.00000000000E+00 0. -1.
         11    1    4    4    0    0 -0.40020621865E+03 -0.10559635123E+03  0.79461816404E+02  0.42146148947E+03  0.00000000000E+00 0.  1.
        -15    1    3    3    0    0  0.16643213112E+03  0.84063162442E+02  0.31447655158E+02  0.18909886909E+03  0.17770000000E+01 0. -1.
         15    1    3    3    0    0  0.29286069227E+03  0.64958627526E+02 -0.89486427162E+02  0.31304630128E+03  0.17770000000E+01 0. -1.
</event>
<event>
 7    1  0.1270595E-008  0.5063011E+03  0.7546771E-02  0.9385820E-01
        -11   -1    0    0    0    0  0.00000000000E+00  0.00000000000E+00  0.50000000000E+03  0.50000000000E+03  0.00000000000E+00 0.  1.
         11   -1    0    0    0    0 -0.00000000000E+00 -0.00000000000E+00 -0.50000000000E+03  0.50000000000E+03  0.00000000000E+00 0. -1.
         25    2    1    2    0    0 -0.27836341648E+03  0.34229411041E+03 -0.18292516437E+03  0.49369892896E+03  0.12500226814E+03 0.  0.
        -11    1    1    2    0    0  0.96964201544E+02 -0.23116521417E+03  0.14686996943E+03  0.29053433626E+03  0.00000000000E+00 0. -1.
         11    1    1    2    0    0  0.18139921493E+03 -0.11112889624E+03  0.36055194945E+02  0.21576673478E+03  0.00000000000E+00 0.  1.
        -15    1    3    3    0    0 -0.70382539974E+02  0.16994579056E+02 -0.27012729978E+02  0.77300471929E+02  0.17770000000E+01 0. -1.
         15    1    3    3    0    0 -0.20798087650E+03  0.32529953135E+03 -0.15591243440E+03  0.41639845703E+03  0.17770000000E+01 0. -1.
</event>
<event>
 8    1  0.1270595E-008  0.5021377E+03  0.7546771E-02  0.9395039E-01
        -11   -1    0    0    0    0  0.00000000000E+00  0.00000000000E+00  0.50000000000E+03  0.50000000000E+03  0.00000000000E+00 0. -1.
         11   -1    0    0    0    0 -0.00000000000E+00 -0.00000000000E+00 -0.50000000000E+03  0.50000000000E+03  0.00000000000E+00 0.  1.
         25    2    1    2    0    0 -0.18084400572E+03  0.45050122880E+03  0.29358894877E+02  0.50213774737E+03  0.12499784426E+03 0.  0.
         23    2    1    2    0    0  0.18084400572E+03 -0.45050122880E+03 -0.29358894877E+02  0.49786225263E+03  0.10653152736E+03 0.  0.
        -11    1    4    4    0    0  0.13336964806E+03 -0.22533059410E+03 -0.50870904617E+02  0.26673805240E+03  0.00000000000E+00 0.  1.
         11    1    4    4    0    0  0.47474357667E+02 -0.22517063470E+03  0.21512009740E+02  0.23112420023E+03  0.00000000000E+00 0. -1.
        -15    1    3    3    0    0 -0.36353762799E+02  0.25569607328E+03  0.25852059243E+02  0.25956418215E+03  0.17770000000E+01 0.  1.
         15    1    3    3    0    0 -0.14449024292E+03  0.19480515553E+03  0.35068356344E+01  0.24257356522E+03  0.17770000000E+01 0.  1.
</event>
<event>
 8    1  0.1270595E-008  0.5014688E+03  0.7546771E-02  0.9396529E-01
        -11   -1    0    0    0    0  0.00000000000E+00  0.00000000000E+00  0.50000000000E+03  0.50000000000E+03  0.00000000000E+00 0.  1.
         11   -1    0    0    0    0 -0.00000000000E+00 -0.00000000000E+00 -0.50000000000E+03  0.50000000000E+03  0.00000000000E+00 0. -1.
         25    2    1    2    0    0  0.41037479786E+03  0.25493924356E+03  0.49459239172E+02  0.50146878787E+03  0.12499294477E+03 0.  0.
         23    2    1    2    0    0 -0.41037479786E+03 -0.25493924356E+03 -0.49459239172E+02  0.49853121213E+03  0.11263063750E+03 0.  0.
        -11    1    4    4    0    0 -0.16769331018E+03 -0.69359087149E+02 -0.64660599372E+02  0.19264662561E+03  0.00000000000E+00 0. -1.
         11    1    4    4    0    0 -0.24268148768E+03 -0.18558015641E+03  0.15201360200E+02  0.30588458652E+03  0.00000000000E+00 0.  1.
        -15    1    3    3    0    0  0.32197485170E+03  0.19516155991E+03  0.90310977654E+02  0.38718867495E+03  0.17770000000E+01 0. -1.
         15    1    3    3    0    0  0.88399946156E+02  0.59777683648E+02 -0.40851738482E+02  0.11428011292E+03  0.17770000000E+01 0. -1.
</event>
<event>
 8    1  0.1270595E-008  0.5010671E+03  0.7546771E-02  0.9397425E-01
        -11   -1    0    0    0    0  0.00000000000E+00  0.00000000000E+00  0.50000000000E+03  0.50000000000E+03  0.00000000000E+00 0.  1.
         11   -1    0    0    0    0 -0.00000000000E+00 -0.00000000000E+00 -0.50000000000E+03  0.50000000000E+03  0.00000000000E+00 0. -1.
         25    2    1    2    0    0 -0.29324867545E+03  0.21771636142E+03 -0.31944863405E+03  0.50106714140E+03  0.12500260280E+03 0.  0.
         23    2    1    2    0    0  0.29324867545E+03 -0.21771636142E+03  0.31944863405E+03  0.49893285860E+03  0.11615234784E+03 0.  0.
        -11    1    4    4    0    0  0.18713339560E+03 -0.13622005629E+03  0.27156819942E+03  0.35682502494E+03  0.00000000000E+00 0.  1.
         11    1    4    4    0    0  0.10611527985E+03 -0.81496305128E+02  0.47880434629E+02  0.14210783366E+03  0.00000000000E+00 0. -1.
        -15    1    3    3    0    0 -0.17487005732E+03  0.10216862328E+03 -0.98969347052E+02  0.22542416444E+03  0.17770000000E+01 0. -1.
         15    1    3    3    0    0 -0.11837861814E+03  0.11554773814E+03 -0.22047928700E+03  0.27564297696E+03  0.17770000000E+01 0. -1.
</event>
<event>
 8    1  0.1270595E-008  0.5022246E+03  0.7546771E-02  0.9394846E-01
        -11   -1    0    0    0    0  0.00000000000E+00  0.00000000000E+00  0.50000000000E+03  0.50000000000E+03  0.00000000000E+00 0.  1.
         11   -1    0    0    0    0 -0.00000000000E+00 -0.00000000000E+00 -0.50000000000E+03  0.50000000000E+03  0.00000000000E+00 0. -1.
         25    2    1    2    0    0 -0.11280233229E+03 -0.45156473965E+03  0.14131316679E+03  0.50222464972E+03  0.12500042966E+03 0.  0.
         23    2    1    2    0    0  0.11280233229E+03  0.45156473965E+03 -0.14131316679E+03  0.49777535028E+03  0.10571569405E+03 0.  0.
        -11    1    4    4    0    0  0.44925989320E+02  0.18322203530E+03 -0.37611058059E+01  0.18868705481E+03  0.00000000000E+00 0.  1.
         11    1    4    4    0    0  0.67876342974E+02  0.26834270435E+03 -0.13755206099E+03  0.30908829547E+03  0.00000000000E+00 0. -1.
        -15    1    3    3    0    0 -0.81715055804E+02 -0.38147333714E+03  0.67785526704E+02  0.39597637891E+03  0.17770000000E+01 0.  1.
         15    1    3    3    0    0 -0.31087276490E+02 -0.70091402511E+02  0.73527640090E+02  0.10624827082E+03  0.17770000000E+01 0.  1.
</event>
<event>
 8    1  0.1270595E-008  0.5019122E+03  0.7546771E-02  0.9395541E-01
        -11   -1    0    0    0    0  0.00000000000E+00  0.00000000000E+00  0.50000000000E+03  0.50000000000E+03  0.00000000000E+00 0.  1.
         11   -1    0    0    0    0 -0.00000000000E+00 -0.00000000000E+00 -0.50000000000E+03  0.50000000000E+03  0.00000000000E+00 0. -1.
         25    2    1    2    0    0  0.38297628207E+03  0.29875406533E+03  0.19101401102E+02  0.50191221866E+03  0.12500475005E+03 0.  0.
         23    2    1    2    0    0 -0.38297628207E+03 -0.29875406533E+03 -0.19101401102E+02  0.49808778134E+03  0.10863586066E+03 0.  0.
        -11    1    4    4    0    0 -0.35575370699E+03 -0.23964381749E+03 -0.37171577178E+02  0.43054800597E+03  0.00000000000E+00 0.  1.
         11    1    4    4    0    0 -0.27222575079E+02 -0.59110247842E+02  0.18070176075E+02  0.67539775372E+02  0.00000000000E+00 0. -1.
        -15    1    3    3    0    0  0.51357569094E+02  0.23499420343E+02 -0.36642626951E+02  0.67347327330E+02  0.17770000000E+01 0.  1.
         15    1    3    3    0    0  0.33161871297E+03  0.27525464499E+03  0.55744028054E+02  0.43456489133E+03  0.17770000000E+01 0.  1.
</event>
<event>
 7    1  0.1270595E-008  0.5108964E+03  0.7546771E-02  0.9375753E-01
        -11   -1    0    0    0    0  0.00000000000E+00  0.00000000000E+00  0.50000000000E+03  0.50000000000E+03  0.00000000000E+00 0. -1.
         11   -1    0    0    0    0 -0.00000000000E+00 -0.00000000000E+00 -0.50000000000E+03  0.50000000000E+03  0.00000000000E+00 0.  1.
         25    2    1    2    0    0  0.19307179371E+03 -0.42553851052E+03 -0.72360214952E+02  0.48910356352E+03  0.12500621455E+03 0.  0.
        -11    1    1    2    0    0 -0.14480747752E+03  0.27259394796E+03 -0.45313993584E+02  0.31197760180E+03  0.00000000000E+00 0.  1.
         11    1    1    2    0    0 -0.48264316189E+02  0.15294456256E+03  0.11767420854E+03  0.19891883468E+03  0.00000000000E+00 0. -1.
        -15    1    3    3    0    0  0.16155061126E+01 -0.64545761351E+02  0.24627307639E+02  0.69126168554E+02  0.17770000000E+01 0.  1.
         15    1    3    3    0    0  0.19145628760E+03 -0.36099274917E+03 -0.96987522591E+02  0.41997739497E+03  0.17770000000E+01 0.  1.
</event>
<event>
 7    1  0.1270595E-008  0.5182016E+03  0.7546771E-02  0.9359979E-01
        -11   -1    0    0    0    0  0.00000000000E+00  0.00000000000E+00  0.50000000000E+03  0.50000000000E+03  0.00000000000E+00 0.  1.
         11   -1    0    0    0    0 -0.00000000000E+00 -0.00000000000E+00 -0.50000000000E+03  0.50000000000E+03  0.00000000000E+00 0. -1.
         25    2    1    2    0    0  0.14768836894E+03 -0.43018491817E+03  0.98143739368E+02  0.48179839896E+03  0.12500634192E+03 0.  0.
        -11    1    1    2    0    0 -0.70001165686E+02  0.24088260407E+03  0.61959912459E+02  0.25838657645E+03  0.00000000000E+00 0.  1.
         11    1    1    2    0    0 -0.77687203258E+02  0.18930231410E+03 -0.16010365183E+03  0.25981502459E+03  0.00000000000E+00 0. -1.
        -15    1    3    3    0    0  0.84354903730E+02 -0.37336092457E+03  0.56074729110E+02  0.38686129653E+03  0.17770000000E+01 0. -1.
         15    1    3    3    0    0  0.63333465214E+02 -0.56823993602E+02  0.42069010258E+02  0.94937102431E+02  0.17770000000E+01 0. -1.
</event>
<event>
 8    1  0.1270595E-008  0.5016443E+03  0.7546771E-02  0.9396138E-01
        -11   -1    0    0    0    0  0.00000000000E+00  0.00000000000E+00  0.50000000000E+03  0.50000000000E+03  0.00000000000E+00 0.  1.
         11   -1    0    0    0    0 -0.00000000000E+00 -0.00000000000E+00 -0.50000000000E+03  0.50000000000E+03  0.00000000000E+00 0. -1.
         25    2    1    2    0    0 -0.41322271123E+03 -0.17181747397E+03  0.18906828973E+03  0.50164432000E+03  0.12500380859E+03 0.  0.
         23    2    1    2    0    0  0.41322271123E+03  0.17181747397E+03 -0.18906828973E+03  0.49835568000E+03  0.11107345394E+03 0.  0.
        -11    1    4    4    0    0  0.10394308492E+03 -0.36517952077E+01 -0.59965687961E+02  0.12005575473E+03  0.00000000000E+00 0. -1.
         11    1    4    4    0    0  0.30927962631E+03  0.17546926918E+03 -0.12910260177E+03  0.37829992527E+03  0.00000000000E+00 0.  1.
        -15    1    3    3    0    0 -0.20420007178E+03 -0.84873980165E+02  0.26059410689E+02  0.22267355577E+03  0.17770000000E+01 0.  1.
         15    1    3    3    0    0 -0.20902263946E+03 -0.86943493807E+02  0.16300887904E+03  0.27897076423E+03  0.17770000000E+01 0.  1.
</event>
<event>
 8    1  0.1270595E-008  0.5022289E+03  0.7546771E-02  0.9394836E-01
        -11   -1    0    0    0    0  0.00000000000E+00  0.00000000000E+00  0.50000000000E+03  0.50000000000E+03  0.00000000000E+00 0.  1.
         11   -1    0    0    0    0 -0.00000000000E+00 -0.00000000000E+00 -0.50000000000E+03  0.50000000000E+03  0.00000000000E+00 0. -1.
         25    2    1    2    0    0 -0.46168741808E+03 -0.14514280997E+03  0.48855208547E+02  0.50222886178E+03  0.12500116361E+03 0.  0.
         23    2    1    2    0    0  0.46168741808E+03  0.14514280997E+03 -0.48855208547E+02  0.49777113822E+03  0.10567671143E+03 0.  0.
        -11    1    4    4    0    0  0.31093133677E+03  0.63398690249E+02 -0.70066652062E+02  0.32497234627E+03  0.00000000000E+00 0.  1.
         11    1    4    4    0    0  0.15075608132E+03  0.81744119723E+02  0.21211443515E+02  0.17279879195E+03  0.00000000000E+00 0. -1.
        -15    1    3    3    0    0 -0.20598640396E+03 -0.48496299030E+02  0.81808731791E+02  0.22688789294E+03  0.17770000000E+01 0. -1.
         15    1    3    3    0    0 -0.25570101413E+03 -0.96646510942E+02 -0.32953523244E+02  0.27534096885E+03  0.17770000000E+01 0. -1.
</event>
<event>
 7    1  0.1270595E-008  0.5014021E+03  0.7546771E-02  0.9396678E-01
        -11   -1    0    0    0    0  0.00000000000E+00  0.00000000000E+00  0.50000000000E+03  0.50000000000E+03  0.00000000000E+00 0. -1.
         11   -1    0    0    0    0 -0.00000000000E+00 -0.00000000000E+00 -0.50000000000E+03  0.50000000000E+03  0.00000000000E+00 0.  1.
         25    2    1    2    0    0  0.16902514051E+03  0.34257414861E+03 -0.29503773282E+03  0.49859790035E+03  0.12500422805E+03 0.  0.
        -11    1    1    2    0    0 -0.12857304098E+03 -0.26962651799E+03  0.29231536330E+03  0.41794468258E+03  0.00000000000E+00 0. -1.
         11    1    1    2    0    0 -0.40452099530E+02 -0.72947630613E+02  0.27223695221E+01  0.83457417072E+02  0.00000000000E+00 0.  1.
        -15    1    3    3    0    0  0.17407346682E+03  0.23949094160E+03 -0.24285700320E+03  0.38293624103E+03  0.17770000000E+01 0. -1.
         15    1    3    3    0    0 -0.50483263118E+01  0.10308320701E+03 -0.52180729620E+02  0.11566165933E+03  0.17770000000E+01 0. -1.
</event>
<event>
 8    1  0.1270595E-008  0.5020101E+03  0.7546771E-02  0.9395323E-01
        -11   -1    0    0    0    0  0.00000000000E+00  0.00000000000E+00  0.50000000000E+03  0.50000000000E+03  0.00000000000E+00 0.  1.
         11   -1    0    0    0    0 -0.00000000000E+00 -0.00000000000E+00 -0.50000000000E+03  0.50000000000E+03  0.00000000000E+00 0. -1.
         25    2    1    2    0    0 -0.41522857179E+03 -0.13457197864E+03  0.21415922711E+03  0.50201013788E+03  0.12500247882E+03 0.  0.
         23    2    1    2    0    0  0.41522857179E+03  0.13457197864E+03 -0.21415922711E+03  0.49798986212E+03  0.10772810192E+03 0.  0.
        -11    1    4    4    0    0  0.33945394947E+02  0.41657879925E+02 -0.68917038039E+01  0.54177157357E+02  0.00000000000E+00 0.  1.
         11    1    4    4    0    0  0.38128317685E+03  0.92914098718E+02 -0.20726752331E+03  0.44381270476E+03  0.00000000000E+00 0. -1.
        -15    1    3    3    0    0 -0.17802153022E+03 -0.53942365236E+02  0.24187783205E+02  0.18758904705E+03  0.17770000000E+01 0. -1.
         15    1    3    3    0    0 -0.23720704158E+03 -0.80629613406E+02  0.18997144391E+03  0.31442109083E+03  0.17770000000E+01 0. -1.
</event>
<event>
 7    1  0.1270595E-008  0.5176934E+03  0.7546771E-02  0.9361067E-01
        -11   -1    0    0    0    0  0.00000000000E+00  0.00000000000E+00  0.50000000000E+03  0.50000000000E+03  0.00000000000E+00 0. -1.
         11   -1    0    0    0    0 -0.00000000000E+00 -0.00000000000E+00 -0.50000000000E+03  0.50000000000E+03  0.00000000000E+00 0.  1.
         25    2    1    2    0    0 -0.34352873345E+03 -0.55261299820E+02  0.30971702934E+03  0.48230658020E+03  0.12501678719E+03 0.  0.
        -11    1    1    2    0    0  0.14300207154E+03 -0.16182773787E+02 -0.26292918983E+03  0.29973860862E+03  0.00000000000E+00 0.  1.
         11    1    1    2    0    0  0.20052666191E+03  0.71444073607E+02 -0.46787839515E+02  0.21795481118E+03  0.00000000000E+00 0. -1.
        -15    1    3    3    0    0 -0.16940601578E+03  0.23890413052E+02  0.98783359518E+02  0.19756128129E+03  0.17770000000E+01 0.  1.
         15    1    3    3    0    0 -0.17412271767E+03 -0.79151712871E+02  0.21093366982E+03  0.28474529892E+03  0.17770000000E+01 0.  1.
</event>
<event>
 8    1  0.1270595E-008  0.5001777E+03  0.7546771E-02  0.9399412E-01
        -11   -1    0    0    0    0  0.00000000000E+00  0.00000000000E+00  0.50000000000E+03  0.50000000000E+03  0.00000000000E+00 0.  1.
         11   -1    0    0    0    0 -0.00000000000E+00 -0.00000000000E+00 -0.50000000000E+03  0.50000000000E+03  0.00000000000E+00 0. -1.
         25    2    1    2    0    0  0.22134050411E+03  0.42663510088E+03  0.59513412420E+02  0.50017770397E+03  0.12500704474E+03 0.  0.
         23    2    1    2    0    0 -0.22134050411E+03 -0.42663510088E+03 -0.59513412420E+02  0.49982229603E+03  0.12357731703E+03 0.  0.
        -11    1    4    4    0    0 -0.47012059457E+02 -0.21688558805E+03 -0.46713654509E+02  0.22678548798E+03  0.00000000000E+00 0. -1.
         11    1    4    4    0    0 -0.17432844466E+03 -0.20974951282E+03 -0.12799757911E+02  0.27303680805E+03  0.00000000000E+00 0.  1.
        -15    1    3    3    0    0  0.16319462735E+03  0.30240246048E+03  0.98675643300E+02  0.35751891532E+03  0.17770000000E+01 0.  1.
         15    1    3    3    0    0  0.58145876769E+02  0.12423264040E+03 -0.39162230880E+02  0.14265878866E+03  0.17770000000E+01 0.  1.
</event>
<event>
 8    1  0.1270595E-008  0.5016885E+03  0.7546771E-02  0.9396039E-01
        -11   -1    0    0    0    0  0.00000000000E+00  0.00000000000E+00  0.50000000000E+03  0.50000000000E+03  0.00000000000E+00 0. -1.
         11   -1    0    0    0    0 -0.00000000000E+00 -0.00000000000E+00 -0.50000000000E+03  0.50000000000E+03  0.00000000000E+00 0.  1.
         25    2    1    2    0    0  0.23426705015E+03  0.42070643087E+03  0.64733333150E+02  0.50168849485E+03  0.12500395867E+03 0.  0.
         23    2    1    2    0    0 -0.23426705015E+03 -0.42070643087E+03 -0.64733333150E+02  0.49831150515E+03  0.11067520039E+03 0.  0.
        -11    1    4    4    0    0 -0.13369972302E+03 -0.30636474676E+03 -0.84434735323E+02  0.34476687561E+03  0.00000000000E+00 0.  1.
         11    1    4    4    0    0 -0.10056732712E+03 -0.11434168412E+03  0.19701402174E+02  0.15354462953E+03  0.00000000000E+00 0. -1.
        -15    1    3    3    0    0  0.15595729737E+03  0.15382791028E+03  0.37100453399E+02  0.22218304606E+03  0.17770000000E+01 0.  1.
         15    1    3    3    0    0  0.78309752780E+02  0.26687852059E+03  0.27632879751E+02  0.27950544879E+03  0.17770000000E+01 0.  1.
</event>
<event>
 8    1  0.1270595E-008  0.5006271E+03  0.7546771E-02  0.9398408E-01
        -11   -1    0    0    0    0  0.00000000000E+00  0.00000000000E+00  0.50000000000E+03  0.50000000000E+03  0.00000000000E+00 0.  1.
         11   -1    0    0    0    0 -0.00000000000E+00 -0.00000000000E+00 -0.50000000000E+03  0.50000000000E+03  0.00000000000E+00 0. -1.
         25    2    1    2    0    0 -0.24972350706E+03  0.37260240446E+03  0.18387023572E+03  0.50062711922E+03  0.12499946853E+03 0.  0.
         23    2    1    2    0    0  0.24972350706E+03 -0.37260240446E+03 -0.18387023572E+03  0.49937288078E+03  0.11987755708E+03 0.  0.
        -11    1    4    4    0    0  0.13146322818E+03 -0.22814987714E+03 -0.16726346038E+03  0.31194873294E+03  0.00000000000E+00 0. -1.
         11    1    4    4    0    0  0.11826027888E+03 -0.14445252731E+03 -0.16606775338E+02  0.18742414784E+03  0.00000000000E+00 0.  1.
        -15    1    3    3    0    0 -0.17297612105E+03  0.14691921812E+03  0.98658093262E+02  0.24747236654E+03  0.17770000000E+01 0. -1.
         15    1    3    3    0    0 -0.76747386010E+02  0.22568318633E+03  0.85212142454E+02  0.25315475268E+03  0.17770000000E+01 0. -1.
</event>
<event>
 7    1  0.1270595E-008  0.5024078E+03  0.7546771E-02  0.9394438E-01
        -11   -1    0    0    0    0  0.00000000000E+00  0.00000000000E+00  0.50000000000E+03  0.50000000000E+03  0.00000000000E+00 0. -1.
         11   -1    0    0    0    0 -0.00000000000E+00 -0.00000000000E+00 -0.50000000000E+03  0.50000000000E+03  0.00000000000E+00 0.  1.
         25    2    1    2    0    0 -0.34087776061E+03  0.33269212893E+03  0.71360484565E+02  0.49759223860E+03  0.12499606724E+03 0.  0.
        -11    1    1    2    0    0  0.26715255890E+03 -0.26554891681E+03 -0.11459019766E+03  0.39372278362E+03  0.00000000000E+00 0.  1.
         11    1    1    2    0    0  0.73725201713E+02 -0.67143212116E+02  0.43229713091E+02  0.10868497778E+03  0.00000000000E+00 0. -1.
        -15    1    3    3    0    0 -0.16226260793E+03  0.22632987630E+03  0.22097374593E+01  0.27850028277E+03  0.17770000000E+01 0. -1.
         15    1    3    3    0    0 -0.17861515268E+03  0.10636225263E+03  0.69150747106E+02  0.21909195582E+03  0.17770000000E+01 0. -1.
</event>
<event>
 8    1  0.1270595E-008  0.5023764E+03  0.7546771E-02  0.9394508E-01
        -11   -1    0    0    0    0  0.00000000000E+00  0.00000000000E+00  0.50000000000E+03  0.50000000000E+03  0.00000000000E+00 0.  1.
         11   -1    0    0    0    0 -0.00000000000E+00 -0.00000000000E+00 -0.50000000000E+03  0.50000000000E+03  0.00000000000E+00 0. -1.
         25    2    1    2    0    0 -0.11656478273E+03 -0.45734111581E+03  0.11836086910E+03  0.50237643055E+03  0.12499815139E+03 0.  0.
         23    2    1    2    0    0  0.11656478273E+03  0.45734111581E+03 -0.11836086910E+03  0.49762356945E+03  0.10426733313E+03 0.  0.
        -11    1    4    4    0    0  0.62602006024E+02  0.34179981787E+03 -0.12661661381E+03  0.36983495447E+03  0.00000000000E+00 0. -1.
         11    1    4    4    0    0  0.53962776705E+02  0.11554129794E+03  0.82557447020E+01  0.12778861499E+03  0.00000000000E+00 0.  1.
        -15    1    3    3    0    0  0.20684795934E+02 -0.10785179580E+03  0.50208397361E+02  0.12076386684E+03  0.17770000000E+01 0.  1.
         15    1    3    3    0    0 -0.13724957866E+03 -0.34948932001E+03  0.68152471744E+02  0.38161256371E+03  0.17770000000E+01 0.  1.
</event>
<event>
 8    1  0.1270595E-008  0.5023092E+03  0.7546771E-02  0.9394657E-01
        -11   -1    0    0    0    0  0.00000000000E+00  0.00000000000E+00  0.50000000000E+03  0.50000000000E+03  0.00000000000E+00 0.  1.
         11   -1    0    0    0    0 -0.00000000000E+00 -0.00000000000E+00 -0.50000000000E+03  0.50000000000E+03  0.00000000000E+00 0. -1.
         25    2    1    2    0    0 -0.46998966172E+03  0.93060904626E+02 -0.84491489673E+02  0.50230924155E+03  0.12500059291E+03 0.  0.
         23    2    1    2    0    0  0.46998966172E+03 -0.93060904626E+02  0.84491489673E+02  0.49769075845E+03  0.10491265472E+03 0.  0.
        -11    1    4    4    0    0  0.25638791172E+03 -0.45494831840E+02 -0.70338787268E+01  0.26048803514E+03  0.00000000000E+00 0.  1.
         11    1    4    4    0    0  0.21360175000E+03 -0.47566072786E+02  0.91525368400E+02  0.23720272331E+03  0.00000000000E+00 0. -1.
        -15    1    3    3    0    0 -0.38904338696E+03  0.37031314503E+02 -0.98049785748E+02  0.40291809764E+03  0.17770000000E+01 0.  1.
         15    1    3    3    0    0 -0.80946274759E+02  0.56029590122E+02  0.13558296075E+02  0.99391143912E+02  0.17770000000E+01 0.  1.
</event>
<event>
 8    1  0.1270595E-008  0.5005850E+03  0.7546771E-02  0.9398502E-01
        -11   -1    0    0    0    0  0.00000000000E+00  0.00000000000E+00  0.50000000000E+03  0.50000000000E+03  0.00000000000E+00 0.  1.
         11   -1    0    0    0    0 -0.00000000000E+00 -0.00000000000E+00 -0.50000000000E+03  0.50000000000E+03  0.00000000000E+00 0. -1.
         25    2    1    2    0    0 -0.21882657998E+01 -0.43148721318E+03 -0.22085014278E+03  0.50058501359E+03  0.12499826647E+03 0.  0.
         23    2    1    2    0    0  0.21882657998E+01  0.43148721318E+03  0.22085014278E+03  0.49941498641E+03  0.12022703288E+03 0.  0.
        -11    1    4    4    0    0 -0.39237720522E+02  0.34971277882E+03  0.20222283733E+03  0.40587276617E+03  0.00000000000E+00 0.  1.
         11    1    4    4    0    0  0.41425986322E+02  0.81774434365E+02  0.18627305444E+02  0.93542220235E+02  0.00000000000E+00 0. -1.
        -15    1    3    3    0    0  0.23745176327E+02 -0.83043953251E+01 -0.10979885412E+02  0.27504763100E+02  0.17770000000E+01 0. -1.
         15    1    3    3    0    0 -0.25933442127E+02 -0.42318281786E+03 -0.20987025736E+03  0.47308025049E+03  0.17770000000E+01 0. -1.
</event>
<event>
 8    1  0.1270595E-008  0.5022699E+03  0.7546771E-02  0.9394745E-01
        -11   -1    0    0    0    0  0.00000000000E+00  0.00000000000E+00  0.50000000000E+03  0.50000000000E+03  0.00000000000E+00 0.  1.
         11   -1    0    0    0    0 -0.00000000000E+00 -0.00000000000E+00 -0.50000000000E+03  0.50000000000E+03  0.00000000000E+00 0. -1.
         25    2    1    2    0    0 -0.83330093967E+02  0.47067585892E+03 -0.90379409520E+02  0.50226992671E+03  0.12500789127E+03 0.  0.
         23    2    1    2    0    0  0.83330093967E+02 -0.47067585892E+03  0.90379409520E+02  0.49773007329E+03  0.10529539144E+03 0.  0.
        -11    1    4    4    0    0 -0.10609108275E+02 -0.21094918677E+02  0.23999216738E+02  0.33667657721E+02  0.00000000000E+00 0.  1.
         11    1    4    4    0    0  0.93939202242E+02 -0.44958094025E+03  0.66380192782E+02  0.46406241557E+03  0.00000000000E+00 0. -1.
        -15    1    3    3    0    0 -0.26729473315E+02  0.33200835978E+03 -0.11094868615E+03  0.35107945595E+03  0.17770000000E+01 0.  1.
         15    1    3    3    0    0 -0.56600620652E+02  0.13866749915E+03  0.20569276629E+02  0.15119047076E+03  0.17770000000E+01 0.  1.
</event>
<event>
 8    1  0.1270595E-008  0.5012282E+03  0.7546771E-02  0.9397066E-01
        -11   -1    0    0    0    0  0.00000000000E+00  0.00000000000E+00  0.50000000000E+03  0.50000000000E+03  0.00000000000E+00 0.  1.
         11   -1    0    0    0    0 -0.00000000000E+00 -0.00000000000E+00 -0.50000000000E+03  0.50000000000E+03  0.00000000000E+00 0. -1.
         25    2    1    2    0    0 -0.80290602619E+02 -0.44551556912E+03 -0.17513923202E+03  0.50122818316E+03  0.12500095122E+03 0.  0.
         23    2    1    2    0    0  0.80290602619E+02  0.44551556912E+03  0.17513923202E+03  0.49877181684E+03  0.11475570348E+03 0.  0.
        -11    1    4    4    0    0  0.36535333491E+02  0.26841479933E+03  0.44804341126E+02  0.27457014418E+03  0.00000000000E+00 0.  1.
         11    1    4    4    0    0  0.43755269127E+02  0.17710076979E+03  0.13033489090E+03  0.22420167266E+03  0.00000000000E+00 0. -1.
        -15    1    3    3    0    0 -0.10690459697E+03 -0.25253981329E+03 -0.90064321381E+02  0.28865150245E+03  0.17770000000E+01 0.  1.
         15    1    3    3    0    0  0.26613994356E+02 -0.19297575582E+03 -0.85074910643E+02  0.21257668071E+03  0.17770000000E+01 0.  1.
</event>
<event>
 8    1  0.1270595E-008  0.5010860E+03  0.7546771E-02  0.9397383E-01
        -11   -1    0    0    0    0  0.00000000000E+00  0.00000000000E+00  0.50000000000E+03  0.50000000000E+03  0.00000000000E+00 0. -1.
         11   -1    0    0    0    0 -0.00000000000E+00 -0.00000000000E+00 -0.50000000000E+03  0.50000000000E+03  0.00000000000E+00 0.  1.
         25    2    1    2    0    0  0.39799114988E+03  0.15293389295E+03 -0.23168165616E+03  0.50108595418E+03  0.12500005069E+03 0.  0.
         23    2    1    2    0    0 -0.39799114988E+03 -0.15293389295E+03  0.23168165616E+03  0.49891404582E+03  0.11598751796E+03 0.  0.
        -11    1    4    4    0    0 -0.29060868773E+03 -0.11063298969E+03  0.10659755353E+03  0.32871888630E+03  0.00000000000E+00 0.  1.
         11    1    4    4    0    0 -0.10738246215E+03 -0.42300903260E+02  0.12508410263E+03  0.17019515952E+03  0.00000000000E+00 0. -1.
        -15    1    3    3    0    0  0.36153597191E+03  0.17274171683E+03 -0.19473767115E+03  0.44550407182E+03  0.17770000000E+01 0. -1.
         15    1    3    3    0    0  0.36455177974E+02 -0.19807823885E+02 -0.36943985014E+02  0.55581882353E+02  0.17770000000E+01 0. -1.
</event>
<event>
 7    1  0.1270595E-008  0.5188955E+03  0.7546771E-02  0.9358495E-01
        -11   -1    0    0    0    0  0.00000000000E+00  0.00000000000E+00  0.50000000000E+03  0.50000000000E+03  0.00000000000E+00 0. -1.
         11   -1    0    0    0    0 -0.00000000000E+00 -0.00000000000E+00 -0.50000000000E+03  0.50000000000E+03  0.00000000000E+00 0. -1.
         25    2    1    2    0    0  0.20171236951E+03  0.33547517871E+03  0.25020976420E+03  0.48110446629E+03  0.12500042336E+03 0.  0.
        -11    1    1    2    0    0 -0.14794797583E+03 -0.19755390547E+03 -0.23219140569E+02  0.24790174991E+03  0.00000000000E+00 0. -1.
         11    1    1    2    0    0 -0.53764393687E+02 -0.13792127324E+03 -0.22699062363E+03  0.27099378380E+03  0.00000000000E+00 0. -1.
        -15    1    3    3    0    0 -0.91337859403E+01 -0.13799952906E+01 -0.30159658061E+01  0.98784721161E+01  0.17770000000E+01 0. -1.
         15    1    3    3    0    0  0.21084615545E+03  0.33685517400E+03  0.25322573001E+03  0.47122599418E+03  0.17770000000E+01 0. -1.
</event>
<event>
 8    1  0.1270595E-008  0.5008352E+03  0.7546771E-02  0.9397943E-01
        -11   -1    0    0    0    0  0.00000000000E+00  0.00000000000E+00  0.50000000000E+03  0.50000000000E+03  0.00000000000E+00 0.  1.
         11   -1    0    0    0    0 -0.00000000000E+00 -0.00000000000E+00 -0.50000000000E+03  0.50000000000E+03  0.00000000000E+00 0. -1.
         25    2    1    2    0    0  0.46396293840E+03  0.14050135133E+03  0.14479835766E+02  0.50083517014E+03  0.12499585619E+03 0.  0.
         23    2    1    2    0    0 -0.46396293840E+03 -0.14050135133E+03 -0.14479835766E+02  0.49916482986E+03  0.11812545784E+03 0.  0.
        -11    1    4    4    0    0 -0.27037372386E+03 -0.97741945398E+02  0.47610450965E+02  0.29141412712E+03  0.00000000000E+00 0.  1.
         11    1    4    4    0    0 -0.19358921454E+03 -0.42759405934E+02 -0.62090286731E+02  0.20775070274E+03  0.00000000000E+00 0. -1.
        -15    1    3    3    0    0  0.26106011357E+03  0.13996537795E+03 -0.10415727658E+02  0.29640231955E+03  0.17770000000E+01 0.  1.
         15    1    3    3    0    0  0.20290282484E+03  0.53597337993E+00  0.24895563424E+02  0.20443285059E+03  0.17770000000E+01 0.  1.
</event>
<event>
 8    1  0.1270595E-008  0.5023898E+03  0.7546771E-02  0.9394478E-01
        -11   -1    0    0    0    0  0.00000000000E+00  0.00000000000E+00  0.50000000000E+03  0.50000000000E+03  0.00000000000E+00 0.  1.
         11   -1    0    0    0    0 -0.00000000000E+00 -0.00000000000E+00 -0.50000000000E+03  0.50000000000E+03  0.00000000000E+00 0. -1.
         25    2    1    2    0    0  0.21783642702E+03 -0.47417744144E+02 -0.43251521713E+03  0.50238984236E+03  0.12499995705E+03 0.  0.
         23    2    1    2    0    0 -0.21783642702E+03  0.47417744144E+02  0.43251521713E+03  0.49761015764E+03  0.10414079194E+03 0.  0.
        -11    1    4    4    0    0 -0.85705342520E+02  0.71663074171E+02  0.19816298098E+03  0.22748531593E+03  0.00000000000E+00 0.  1.
         11    1    4    4    0    0 -0.13213108450E+03 -0.24245330028E+02  0.23435223615E+03  0.27012484171E+03  0.00000000000E+00 0. -1.
        -15    1    3    3    0    0  0.18790648593E+03  0.11330923794E+02 -0.34203830107E+03  0.39042360893E+03  0.17770000000E+01 0.  1.
         15    1    3    3    0    0  0.29929941088E+02 -0.58748667937E+02 -0.90476916062E+02  0.11196623342E+03  0.17770000000E+01 0.  1.
</event>
<event>
 8    1  0.1270595E-008  0.5047021E+03  0.7546771E-02  0.9389349E-01
        -11   -1    0    0    0    0  0.00000000000E+00  0.00000000000E+00  0.50000000000E+03  0.50000000000E+03  0.00000000000E+00 0.  1.
         11   -1    0    0    0    0 -0.00000000000E+00 -0.00000000000E+00 -0.50000000000E+03  0.50000000000E+03  0.00000000000E+00 0. -1.
         25    2    1    2    0    0 -0.56274953707E+02  0.33680865066E+03 -0.34998681945E+03  0.50470211212E+03  0.12500604232E+03 0.  0.
         23    2    1    2    0    0  0.56274953707E+02 -0.33680865066E+03  0.34998681945E+03  0.49529788788E+03  0.78881470408E+02 0.  0.
        -11    1    4    4    0    0  0.68236958795E+02 -0.17949915310E+03  0.20735461931E+03  0.28261664257E+03  0.00000000000E+00 0. -1.
         11    1    4    4    0    0 -0.11962005088E+02 -0.15730949756E+03  0.14263220014E+03  0.21268124531E+03  0.00000000000E+00 0.  1.
        -15    1    3    3    0    0 -0.78420765042E+02  0.15862895018E+03 -0.12409115539E+03  0.21613591279E+03  0.17770000000E+01 0.  1.
         15    1    3    3    0    0  0.22145811336E+02  0.17817970049E+03 -0.22589566406E+03  0.28856619933E+03  0.17770000000E+01 0.  1.
</event>
<event>
 8    1  0.1270595E-008  0.5018418E+03  0.7546771E-02  0.9395698E-01
        -11   -1    0    0    0    0  0.00000000000E+00  0.00000000000E+00  0.50000000000E+03  0.50000000000E+03  0.00000000000E+00 0. -1.
         11   -1    0    0    0    0 -0.00000000000E+00 -0.00000000000E+00 -0.50000000000E+03  0.50000000000E+03  0.00000000000E+00 0.  1.
         25    2    1    2    0    0  0.44993673570E+03  0.17077230069E+03 -0.67921337993E+02  0.50184184083E+03  0.12500272093E+03 0.  0.
         23    2    1    2    0    0 -0.44993673570E+03 -0.17077230069E+03  0.67921337993E+02  0.49815815917E+03  0.10927945174E+03 0.  0.
        -11    1    4    4    0    0 -0.25447972125E+03 -0.14619413313E+03  0.13549961770E+02  0.29379628070E+03  0.00000000000E+00 0. -1.
         11    1    4    4    0    0 -0.19545701445E+03 -0.24578167567E+02  0.54371376223E+02  0.20436187847E+03  0.00000000000E+00 0.  1.
        -15    1    3    3    0    0  0.26875038456E+03  0.82407099400E+02 -0.98661715577E+02  0.29791775892E+03  0.17770000000E+01 0. -1.
         15    1    3    3    0    0  0.18118635114E+03  0.88365201294E+02  0.30740377585E+02  0.20392408191E+03  0.17770000000E+01 0. -1.
</event>
<event>
 8    1  0.1270595E-008  0.5017486E+03  0.7546771E-02  0.9395906E-01
        -11   -1    0    0    0    0  0.00000000000E+00  0.00000000000E+00  0.50000000000E+03  0.50000000000E+03  0.00000000000E+00 0.  1.
         11   -1    0    0    0    0 -0.00000000000E+00 -0.00000000000E+00 -0.50000000000E+03  0.50000000000E+03  0.00000000000E+00 0. -1.
         25    2    1    2    0    0  0.45718550047E+03  0.91946854415E+02  0.13657847314E+03  0.50174856196E+03  0.12500053691E+03 0.  0.
         23    2    1    2    0    0 -0.45718550047E+03 -0.91946854415E+02 -0.13657847314E+03  0.49825143804E+03  0.11012724597E+03 0.  0.
        -11    1    4    4    0    0 -0.88948217464E+02 -0.55347239224E+02 -0.58725030848E+02  0.12009884066E+03  0.00000000000E+00 0.  1.
         11    1    4    4    0    0 -0.36823728301E+03 -0.36599615191E+02 -0.77853442288E+02  0.37815259738E+03  0.00000000000E+00 0. -1.
        -15    1    3    3    0    0  0.29594616910E+03 -0.36000669806E+00  0.99935358940E+02  0.31236916990E+03  0.17770000000E+01 0.  1.
         15    1    3    3    0    0  0.16123933137E+03  0.92306861113E+02  0.36643114197E+02  0.18937939206E+03  0.17770000000E+01 0.  1.
</event>
<event>
 8    1  0.1270595E-008  0.5015365E+03  0.7546771E-02  0.9396378E-01
        -11   -1    0    0    0    0  0.00000000000E+00  0.00000000000E+00  0.50000000000E+03  0.50000000000E+03  0.00000000000E+00 0.  1.
         11   -1    0    0    0    0 -0.00000000000E+00 -0.00000000000E+00 -0.50000000000E+03  0.50000000000E+03  0.00000000000E+00 0. -1.
         25    2    1    2    0    0 -0.37348404801E+03 -0.30611358414E+03 -0.52163784501E+02  0.50153652661E+03  0.12498786584E+03 0.  0.
         23    2    1    2    0    0  0.37348404801E+03  0.30611358414E+03  0.52163784501E+02  0.49846347339E+03  0.11202193259E+03 0.  0.
        -11    1    4    4    0    0  0.15886754639E+03  0.20039343797E+03  0.13189763328E+02  0.25606717309E+03  0.00000000000E+00 0.  1.
         11    1    4    4    0    0  0.21461650162E+03  0.10572014616E+03  0.38974021173E+02  0.24239630030E+03  0.00000000000E+00 0. -1.
        -15    1    3    3    0    0 -0.16572813212E+03 -0.20664446552E+03 -0.57757851418E+02  0.27112151526E+03  0.17770000000E+01 0.  1.
         15    1    3    3    0    0 -0.20775591589E+03 -0.99469118611E+02  0.55940669170E+01  0.23041501135E+03  0.17770000000E+01 0.  1.
</event>
<event>
 8    1  0.1270595E-008  0.5013329E+03  0.7546771E-02  0.9396832E-01
        -11   -1    0    0    0    0  0.00000000000E+00  0.00000000000E+00  0.50000000000E+03  0.50000000000E+03  0.00000000000E+00 0.  1.
         11   -1    0    0    0    0 -0.00000000000E+00 -0.00000000000E+00 -0.50000000000E+03  0.50000000000E+03  0.00000000000E+00 0. -1.
         25    2    1    2    0    0 -0.15146825275E+02  0.37531224418E+03 -0.30760548954E+03  0.50133293613E+03  0.12499947483E+03 0.  0.
         23    2    1    2    0    0  0.15146825275E+02 -0.37531224418E+03  0.30760548954E+03  0.49866706387E+03  0.11383758803E+03 0.  0.
        -11    1    4    4    0    0  0.27099837624E+01 -0.29866252981E+03  0.17832956781E+03  0.34786216448E+03  0.00000000000E+00 0. -1.
         11    1    4    4    0    0  0.12436841513E+02 -0.76649714370E+02  0.12927592173E+03  0.15080489939E+03  0.00000000000E+00 0.  1.
        -15    1    3    3    0    0  0.41642617631E+02  0.17785365849E+03 -0.19432370132E+03  0.26670374963E+03  0.17770000000E+01 0. -1.
         15    1    3    3    0    0 -0.56789442906E+02  0.19745858568E+03 -0.11328178822E+03  0.23462918650E+03  0.17770000000E+01 0. -1.
</event>
<event>
 8    1  0.1270595E-008  0.5001207E+03  0.7546771E-02  0.9399540E-01
        -11   -1    0    0    0    0  0.00000000000E+00  0.00000000000E+00  0.50000000000E+03  0.50000000000E+03  0.00000000000E+00 0.  1.
         11   -1    0    0    0    0 -0.00000000000E+00 -0.00000000000E+00 -0.50000000000E+03  0.50000000000E+03  0.00000000000E+00 0. -1.
         25    2    1    2    0    0 -0.24052610919E+03  0.10282002718E+03  0.40751883416E+03  0.50012074556E+03  0.12499757098E+03 0.  0.
         23    2    1    2    0    0  0.24052610919E+03 -0.10282002718E+03 -0.40751883416E+03  0.49987925444E+03  0.12402782605E+03 0.  0.
        -11    1    4    4    0    0  0.19427260789E+03 -0.22651612874E+02 -0.25339132683E+03  0.32009702632E+03  0.00000000000E+00 0.  1.
         11    1    4    4    0    0  0.46253501303E+02 -0.80168414308E+02 -0.15412750733E+03  0.17978222813E+03  0.00000000000E+00 0. -1.
        -15    1    3    3    0    0 -0.16563750403E+03  0.54882721806E+02  0.15865876096E+03  0.23584667911E+03  0.17770000000E+01 0.  1.
         15    1    3    3    0    0 -0.74888605166E+02  0.47937305377E+02  0.24886007320E+03  0.26427406644E+03  0.17770000000E+01 0.  1.
</event>
<event>
 8    1  0.1270595E-008  0.5007282E+03  0.7546771E-02  0.9398182E-01
        -11   -1    0    0    0    0  0.00000000000E+00  0.00000000000E+00  0.50000000000E+03  0.50000000000E+03  0.00000000000E+00 0. -1.
         11   -1    0    0    0    0 -0.00000000000E+00 -0.00000000000E+00 -0.50000000000E+03  0.50000000000E+03  0.00000000000E+00 0.  1.
         25    2    1    2    0    0 -0.23474788145E+03  0.36044931186E+03  0.22377005161E+03  0.50072820704E+03  0.12500170825E+03 0.  0.
         23    2    1    2    0    0  0.23474788145E+03 -0.36044931186E+03 -0.22377005161E+03  0.49927179296E+03  0.11903366323E+03 0.  0.
        -11    1    4    4    0    0  0.45771531847E+01 -0.83650977363E+02 -0.22117610361E+02  0.86646552344E+02  0.00000000000E+00 0. -1.
         11    1    4    4    0    0  0.23017072827E+03 -0.27679833449E+03 -0.20165244125E+03  0.41262524061E+03  0.00000000000E+00 0.  1.
        -15    1    3    3    0    0 -0.14655981602E+03  0.20140115504E+03  0.19555805789E+03  0.31668330657E+03  0.17770000000E+01 0.  1.
         15    1    3    3    0    0 -0.88188065433E+02  0.15904815681E+03  0.28211993715E+02  0.18404490047E+03  0.17770000000E+01 0.  1.
</event>
<event>
 8    1  0.1270595E-008  0.5023238E+03  0.7546771E-02  0.9394625E-01
        -11   -1    0    0    0    0  0.00000000000E+00  0.00000000000E+00  0.50000000000E+03  0.50000000000E+03  0.00000000000E+00 0. -1.
         11   -1    0    0    0    0 -0.00000000000E+00 -0.00000000000E+00 -0.50000000000E+03  0.50000000000E+03  0.00000000000E+00 0.  1.
         25    2    1    2    0    0 -0.20154291382E+03  0.44147830333E+03  0.34438460877E+02  0.50232384365E+03  0.12498239032E+03 0.  0.
         23    2    1    2    0    0  0.20154291382E+03 -0.44147830333E+03 -0.34438460877E+02  0.49767615635E+03  0.10475166149E+03 0.  0.
        -11    1    4    4    0    0  0.45779769067E+02 -0.68926447339E+02  0.31475172054E+02  0.88528689443E+02  0.00000000000E+00 0. -1.
         11    1    4    4    0    0  0.15576314475E+03 -0.37255185599E+03 -0.65913632932E+02  0.40914746690E+03  0.00000000000E+00 0.  1.
        -15    1    3    3    0    0 -0.17496377312E+01  0.35805304717E+02 -0.28403735220E+02  0.45771289926E+02  0.17770000000E+01 0. -1.
         15    1    3    3    0    0 -0.19979327609E+03  0.40567299862E+03  0.62842196097E+02  0.45655255373E+03  0.17770000000E+01 0. -1.
</event>
<event>
 7    1  0.1270595E-008  0.5016380E+03  0.7546771E-02  0.9396152E-01
        -11   -1    0    0    0    0  0.00000000000E+00  0.00000000000E+00  0.50000000000E+03  0.50000000000E+03  0.00000000000E+00 0.  1.
         11   -1    0    0    0    0 -0.00000000000E+00 -0.00000000000E+00 -0.50000000000E+03  0.50000000000E+03  0.00000000000E+00 0. -1.
         25    2    1    2    0    0  0.10234155781E+03  0.35110490531E+03  0.31462682620E+03  0.49836196238E+03  0.12500462711E+03 0.  0.
        -11    1    1    2    0    0  0.19273237626E+02 -0.13905475427E+03 -0.74285342563E+02  0.15882693252E+03  0.00000000000E+00 0.  1.
         11    1    1    2    0    0 -0.12161479544E+03 -0.21205015104E+03 -0.24034148363E+03  0.34281110510E+03  0.00000000000E+00 0. -1.
        -15    1    3    3    0    0 -0.63711375559E+01  0.15980428371E+02  0.63210348476E+02  0.65533742210E+02  0.17770000000E+01 0. -1.
         15    1    3    3    0    0  0.10871269537E+03  0.33512447694E+03  0.25141647772E+03  0.43282822017E+03  0.17770000000E+01 0. -1.
</event>
<event>
 7    1  0.1270595E-008  0.5154657E+03  0.7546771E-02  0.9365854E-01
        -11   -1    0    0    0    0  0.00000000000E+00  0.00000000000E+00  0.50000000000E+03  0.50000000000E+03  0.00000000000E+00 0.  1.
         11   -1    0    0    0    0 -0.00000000000E+00 -0.00000000000E+00 -0.50000000000E+03  0.50000000000E+03  0.00000000000E+00 0. -1.
         25    2    1    2    0    0 -0.36305272320E+03  0.29345864108E+03 -0.34949698136E+02  0.48453431898E+03  0.12500708386E+03 0.  0.
        -11    1    1    2    0    0  0.38557727151E+02 -0.15266904044E+03 -0.15252165442E+02  0.15819975595E+03  0.00000000000E+00 0.  1.
         11    1    1    2    0    0  0.32449499605E+03 -0.14078960064E+03  0.50201863578E+02  0.35726592507E+03  0.00000000000E+00 0. -1.
        -15    1    3    3    0    0 -0.34311325650E+03  0.22232723622E+03 -0.37722428522E+02  0.41058768381E+03  0.17770000000E+01 0.  1.
         15    1    3    3    0    0 -0.19939466701E+02  0.71131404857E+02  0.27727303866E+01  0.73946635164E+02  0.17770000000E+01 0.  1.
</event>
<event>
 7    1  0.1270595E-008  0.5024182E+03  0.7546771E-02  0.9394415E-01
        -11   -1    0    0    0    0  0.00000000000E+00  0.00000000000E+00  0.50000000000E+03  0.50000000000E+03  0.00000000000E+00 0. -1.
         11   -1    0    0    0    0 -0.00000000000E+00 -0.00000000000E+00 -0.50000000000E+03  0.50000000000E+03  0.00000000000E+00 0.  1.
         25    2    1    2    0    0 -0.17913026742E+03 -0.34785268555E+03  0.28084472758E+03  0.49758184211E+03  0.12499914013E+03 0.  0.
        -11    1    1    2    0    0  0.95065904461E+01  0.46400104885E+02  0.12382554013E+02  0.48955823342E+02  0.00000000000E+00 0. -1.
         11    1    1    2    0    0  0.16962367698E+03  0.30145258067E+03 -0.29322728160E+03  0.45346233455E+03  0.00000000000E+00 0.  1.
        -15    1    3    3    0    0  0.16952036344E+02 -0.98949296608E+01  0.17846486377E+02  0.26588267604E+02  0.17770000000E+01 0. -1.
         15    1    3    3    0    0 -0.19608230377E+03 -0.33795775589E+03  0.26299824121E+03  0.47099357450E+03  0.17770000000E+01 0. -1.
</event>
<event>
 8    1  0.1270595E-008  0.5009913E+03  0.7546771E-02  0.9397594E-01
        -11   -1    0    0    0    0  0.00000000000E+00  0.00000000000E+00  0.50000000000E+03  0.50000000000E+03  0.00000000000E+00 0.  1.
         11   -1    0    0    0    0 -0.00000000000E+00 -0.00000000000E+00 -0.50000000000E+03  0.50000000000E+03  0.00000000000E+00 0. -1.
         25    2    1    2    0    0  0.16742089304E+03  0.45446824068E+03 -0.28226521211E+02  0.50099134511E+03  0.12499781661E+03 0.  0.
         23    2    1    2    0    0 -0.16742089304E+03 -0.45446824068E+03  0.28226521211E+02  0.49900865489E+03  0.11679796209E+03 0.  0.
        -11    1    4    4    0    0 -0.63534453327E+02 -0.27318753110E+03 -0.30082648929E+02  0.28208690093E+03  0.00000000000E+00 0. -1.
         11    1    4    4    0    0 -0.10388643972E+03 -0.18128070958E+03  0.58309170140E+02  0.21692175397E+03  0.00000000000E+00 0.  1.
        -15    1    3    3    0    0  0.53646793925E+02  0.46871179462E+02 -0.31218475084E+02  0.77798694579E+02  0.17770000000E+01 0.  1.
         15    1    3    3    0    0  0.11377409912E+03  0.40759706122E+03  0.29919538730E+01  0.42319265053E+03  0.17770000000E+01 0.  1.
</event>
<event>
 8    1  0.1270595E-008  0.5021291E+03  0.7546771E-02  0.9395058E-01
        -11   -1    0    0    0    0  0.00000000000E+00  0.00000000000E+00  0.50000000000E+03  0.50000000000E+03  0.00000000000E+00 0.  1.
         11   -1    0    0    0    0 -0.00000000000E+00 -0.00000000000E+00 -0.50000000000E+03  0.50000000000E+03  0.00000000000E+00 0. -1.
         25    2    1    2    0    0 -0.37372803938E+03  0.89248196210E+02 -0.29810935781E+03  0.50212912950E+03  0.12500634197E+03 0.  0.
         23    2    1    2    0    0  0.37372803938E+03 -0.89248196210E+02  0.29810935781E+03  0.49787087050E+03  0.10662235477E+03 0.  0.
        -11    1    4    4    0    0  0.10993366201E+03 -0.29448472759E+02  0.15369615630E+03  0.19124625762E+03  0.00000000000E+00 0.  1.
         11    1    4    4    0    0  0.26379437737E+03 -0.59799723451E+02  0.14441320150E+03  0.30662461288E+03  0.00000000000E+00 0. -1.
        -15    1    3    3    0    0 -0.36967677743E+02 -0.26542422986E+02 -0.17687356336E+02  0.48858056847E+02  0.17770000000E+01 0. -1.
         15    1    3    3    0    0 -0.33676036164E+03  0.11579061920E+03 -0.28042200147E+03  0.45327107265E+03  0.17770000000E+01 0. -1.
</event>
<event>
 8    1  0.1270595E-008  0.5012930E+03  0.7546771E-02  0.9396921E-01
        -11   -1    0    0    0    0  0.00000000000E+00  0.00000000000E+00  0.50000000000E+03  0.50000000000E+03  0.00000000000E+00 0.  1.
         11   -1    0    0    0    0 -0.00000000000E+00 -0.00000000000E+00 -0.50000000000E+03  0.50000000000E+03  0.00000000000E+00 0. -1.
         25    2    1    2    0    0 -0.22233797107E+03  0.42277596265E+03 -0.86550008806E+02  0.50129303648E+03  0.12502046399E+03 0.  0.
         23    2    1    2    0    0  0.22233797107E+03 -0.42277596265E+03  0.86550008806E+02  0.49870696352E+03  0.11421052257E+03 0.  0.
        -11    1    4    4    0    0  0.17610858869E+02 -0.12492591442E+03 -0.35865271901E+01  0.12621208192E+03  0.00000000000E+00 0. -1.
         11    1    4    4    0    0  0.20472711220E+03 -0.29785004823E+03  0.90136535997E+02  0.37249488161E+03  0.00000000000E+00 0.  1.
        -15    1    3    3    0    0 -0.21662636511E+03  0.40207772668E+03 -0.10965329521E+03  0.46970254762E+03  0.17770000000E+01 0. -1.
         15    1    3    3    0    0 -0.57116059604E+01  0.20698235969E+02  0.23103286402E+02  0.31590488860E+02  0.17770000000E+01 0. -1.
</event>
<event>
 8    1  0.1270595E-008  0.5016117E+03  0.7546771E-02  0.9396211E-01
        -11   -1    0    0    0    0  0.00000000000E+00  0.00000000000E+00  0.50000000000E+03  0.50000000000E+03  0.00000000000E+00 0.  1.
         11   -1    0    0    0    0 -0.00000000000E+00 -0.00000000000E+00 -0.50000000000E+03  0.50000000000E+03  0.00000000000E+00 0. -1.
         25    2    1    2    0    0  0.14142775302E+03  0.25381775332E+03  0.38931141792E+03  0.50161170431E+03  0.12500264220E+03 0.  0.
         23    2    1    2    0    0 -0.14142775302E+03 -0.25381775332E+03 -0.38931141792E+03  0.49838829569E+03  0.11136539828E+03 0.  0.
        -11    1    4    4    0    0 -0.16647989129E+02 -0.12716540576E+03 -0.11970171629E+03  0.17543288417E+03  0.00000000000E+00 0.  1.
         11    1    4    4    0    0 -0.12477976389E+03 -0.12665234756E+03 -0.26960970163E+03  0.32295541152E+03  0.00000000000E+00 0. -1.
        -15    1    3    3    0    0  0.17392944948E+02  0.14397648230E+03  0.13534655090E+03  0.19837738923E+03  0.17770000000E+01 0. -1.
         15    1    3    3    0    0  0.12403480807E+03  0.10984127102E+03  0.25396486702E+03  0.30323431508E+03  0.17770000000E+01 0. -1.
</event>
<event>
 8    1  0.1270595E-008  0.5024096E+03  0.7546771E-02  0.9394434E-01
        -11   -1    0    0    0    0  0.00000000000E+00  0.00000000000E+00  0.50000000000E+03  0.50000000000E+03  0.00000000000E+00 0.  1.
         11   -1    0    0    0    0 -0.00000000000E+00 -0.00000000000E+00 -0.50000000000E+03  0.50000000000E+03  0.00000000000E+00 0. -1.
         25    2    1    2    0    0  0.44332445043E+03  0.10599191730E+03 -0.17035479005E+03  0.50240956656E+03  0.12499505268E+03 0.  0.
         23    2    1    2    0    0 -0.44332445043E+03 -0.10599191730E+03  0.17035479005E+03  0.49759043344E+03  0.10394532253E+03 0.  0.
        -11    1    4    4    0    0 -0.18360227652E+03 -0.21870280739E+02  0.20157735458E+02  0.18599580485E+03  0.00000000000E+00 0.  1.
         11    1    4    4    0    0 -0.25972217391E+03 -0.84121636562E+02  0.15019705459E+03  0.31159462859E+03  0.00000000000E+00 0. -1.
        -15    1    3    3    0    0  0.18978559220E+03  0.38612182559E+02 -0.79108816444E+01  0.19384326510E+03  0.17770000000E+01 0. -1.
         15    1    3    3    0    0  0.25353885823E+03  0.67379734741E+02 -0.16244390841E+03  0.30856630146E+03  0.17770000000E+01 0. -1.
</event>
<event>
 7    1  0.1270595E-008  0.5014447E+03  0.7546771E-02  0.9396583E-01
        -11   -1    0    0    0    0  0.00000000000E+00  0.00000000000E+00  0.50000000000E+03  0.50000000000E+03  0.00000000000E+00 0.  1.
         11   -1    0    0    0    0 -0.00000000000E+00 -0.00000000000E+00 -0.50000000000E+03  0.50000000000E+03  0.00000000000E+00 0. -1.
         25    2    1    2    0    0  0.13627700610E+03 -0.27005054252E+03 -0.37607133487E+03  0.49855527675E+03  0.12501598761E+03 0.  0.
        -11    1    1    2    0    0 -0.11148824393E+02  0.16024845582E+03  0.14326294784E+03  0.21523971776E+03  0.00000000000E+00 0. -1.
         11    1    1    2    0    0 -0.12512818170E+03  0.10980208670E+03  0.23280838703E+03  0.28620500550E+03  0.00000000000E+00 0.  1.
        -15    1    3    3    0    0 -0.11413821991E+02 -0.50254643428E+02 -0.21162027029E+02  0.55738618888E+02  0.17770000000E+01 0.  1.
         15    1    3    3    0    0  0.14769082809E+03 -0.21979589909E+03 -0.35490930784E+03  0.44281665786E+03  0.17770000000E+01 0. -1.
</event>
<event>
 8    1  0.1270595E-008  0.5019569E+03  0.7546771E-02  0.9395442E-01
        -11   -1    0    0    0    0  0.00000000000E+00  0.00000000000E+00  0.50000000000E+03  0.50000000000E+03  0.00000000000E+00 0. -1.
         11   -1    0    0    0    0 -0.00000000000E+00 -0.00000000000E+00 -0.50000000000E+03  0.50000000000E+03  0.00000000000E+00 0.  1.
         25    2    1    2    0    0 -0.64857342459E+02 -0.48095622986E+03 -0.28469739150E+02  0.50195692690E+03  0.12499944203E+03 0.  0.
         23    2    1    2    0    0  0.64857342459E+02  0.48095622986E+03  0.28469739150E+02  0.49804307310E+03  0.10821740479E+03 0.  0.
        -11    1    4    4    0    0  0.11251337580E+01  0.23528650448E+03 -0.31123430148E+02  0.23733873055E+03  0.00000000000E+00 0.  1.
         11    1    4    4    0    0  0.63732208701E+02  0.24566972538E+03  0.59593169297E+02  0.26070434254E+03  0.00000000000E+00 0. -1.
        -15    1    3    3    0    0 -0.37416354940E+02 -0.40629579650E+03 -0.67119584624E+02  0.41350266533E+03  0.17770000000E+01 0. -1.
         15    1    3    3    0    0 -0.27440987519E+02 -0.74660433362E+02  0.38649845474E+02  0.88454261571E+02  0.17770000000E+01 0. -1.
</event>
<event>
 8    1  0.1270595E-008  0.5017258E+03  0.7546771E-02  0.9395956E-01
        -11   -1    0    0    0    0  0.00000000000E+00  0.00000000000E+00  0.50000000000E+03  0.50000000000E+03  0.00000000000E+00 0.  1.
         11   -1    0    0    0    0 -0.00000000000E+00 -0.00000000000E+00 -0.50000000000E+03  0.50000000000E+03  0.00000000000E+00 0. -1.
         25    2    1    2    0    0  0.23209061077E+03 -0.34819995453E+03 -0.24696996547E+03  0.50172580147E+03  0.12500142432E+03 0.  0.
         23    2    1    2    0    0 -0.23209061077E+03  0.34819995453E+03  0.24696996547E+03  0.49827419853E+03  0.11033473224E+03 0.  0.
        -11    1    4    4    0    0 -0.50433338415E+02  0.25587106006E+02  0.63617029530E+02  0.85119610336E+02  0.00000000000E+00 0.  1.
         11    1    4    4    0    0 -0.18165727235E+03  0.32261284852E+03  0.18335293593E+03  0.41315458819E+03  0.00000000000E+00 0. -1.
        -15    1    3    3    0    0  0.21496052493E+02  0.76199954717E+01 -0.84506514185E+01  0.24386796472E+02  0.17770000000E+01 0. -1.
         15    1    3    3    0    0  0.21059455827E+03 -0.35581995000E+03 -0.23851931405E+03  0.47733900500E+03  0.17770000000E+01 0. -1.
</event>
<event>
 8    1  0.1270595E-008  0.5024481E+03  0.7546771E-02  0.9394348E-01
        -11   -1    0    0    0    0  0.00000000000E+00  0.00000000000E+00  0.50000000000E+03  0.50000000000E+03  0.00000000000E+00 0.  1.
         11   -1    0    0    0    0 -0.00000000000E+00 -0.00000000000E+00 -0.50000000000E+03  0.50000000000E+03  0.00000000000E+00 0. -1.
         25    2    1    2    0    0 -0.18974211073E+03 -0.44274826006E+03  0.69295817609E+02  0.50244814865E+03  0.12499656544E+03 0.  0.
         23    2    1    2    0    0  0.18974211073E+03  0.44274826006E+03 -0.69295817609E+02  0.49755185135E+03  0.10357530632E+03 0.  0.
        -11    1    4    4    0    0  0.15607091573E+03  0.38936867639E+03 -0.24576714182E+02  0.42020246521E+03  0.00000000000E+00 0. -1.
         11    1    4    4    0    0  0.33671195000E+02  0.53379583669E+02 -0.44719103427E+02  0.77349386143E+02  0.00000000000E+00 0.  1.
        -15    1    3    3    0    0 -0.14996293547E+02 -0.29835830677E+02  0.41389709821E+02  0.53210256722E+02  0.17770000000E+01 0. -1.
         15    1    3    3    0    0 -0.17474581718E+03 -0.41291242938E+03  0.27906107788E+02  0.44923789192E+03  0.17770000000E+01 0. -1.
</event>
<event>
 8    1  0.1270595E-008  0.5048255E+03  0.7546771E-02  0.9389077E-01
        -11   -1    0    0    0    0  0.00000000000E+00  0.00000000000E+00  0.50000000000E+03  0.50000000000E+03  0.00000000000E+00 0.  1.
         11   -1    0    0    0    0 -0.00000000000E+00 -0.00000000000E+00 -0.50000000000E+03  0.50000000000E+03  0.00000000000E+00 0. -1.
         25    2    1    2    0    0 -0.89699726507E+02  0.30991663588E+03 -0.36759711333E+03  0.50482547844E+03  0.12500705508E+03 0.  0.
         23    2    1    2    0    0  0.89699726507E+02 -0.30991663588E+03  0.36759711333E+03  0.49517452156E+03  0.77303343667E+02 0.  0.
        -11    1    4    4    0    0  0.65827253536E+01 -0.15671483537E+03  0.15905876296E+03  0.22338881345E+03  0.00000000000E+00 0. -1.
         11    1    4    4    0    0  0.83117001154E+02 -0.15320180052E+03  0.20853835037E+03  0.27178570812E+03  0.00000000000E+00 0.  1.
        -15    1    3    3    0    0 -0.41148420499E+02  0.28898839249E+03 -0.32550139333E+03  0.43722053736E+03  0.17770000000E+01 0.  1.
         15    1    3    3    0    0 -0.48551306008E+02  0.20928243397E+02 -0.42095719996E+02  0.67604941075E+02  0.17770000000E+01 0.  1.
</event>
<event>
 7    1  0.1270595E-008  0.5055678E+03  0.7546771E-02  0.9387437E-01
        -11   -1    0    0    0    0  0.00000000000E+00  0.00000000000E+00  0.50000000000E+03  0.50000000000E+03  0.00000000000E+00 0. -1.
         11   -1    0    0    0    0 -0.00000000000E+00 -0.00000000000E+00 -0.50000000000E+03  0.50000000000E+03  0.00000000000E+00 0.  1.
         25    2    1    2    0    0 -0.16152782694E+03  0.31381446318E+03 -0.32290637524E+03  0.49443217165E+03  0.12499555599E+03 0.  0.
        -11    1    1    2    0    0  0.23104363367E+02 -0.22040180191E+03  0.17262971552E+03  0.28091241442E+03  0.00000000000E+00 0.  1.
         11    1    1    2    0    0  0.13842346357E+03 -0.93412661265E+02  0.15027665972E+03  0.22465541393E+03  0.00000000000E+00 0. -1.
        -15    1    3    3    0    0  0.12462073506E+02  0.38952167208E+01  0.14464641971E+01  0.13256167510E+02  0.17770000000E+01 0. -1.
         15    1    3    3    0    0 -0.17398990045E+03  0.30991924646E+03 -0.32435283944E+03  0.48117600414E+03  0.17770000000E+01 0. -1.
</event>
<event>
 7    1  0.1270595E-008  0.5019926E+03  0.7546771E-02  0.9395362E-01
        -11   -1    0    0    0    0  0.00000000000E+00  0.00000000000E+00  0.50000000000E+03  0.50000000000E+03  0.00000000000E+00 0.  1.
         11   -1    0    0    0    0 -0.00000000000E+00 -0.00000000000E+00 -0.50000000000E+03  0.50000000000E+03  0.00000000000E+00 0. -1.
         25    2    1    2    0    0 -0.14300721873E+03 -0.24371172708E+03 -0.39056345545E+03  0.49800737839E+03  0.12500026272E+03 0.  0.
        -11    1    1    2    0    0 -0.39792893176E+01  0.69506161419E+02  0.17472155435E+03  0.18808126641E+03  0.00000000000E+00 0.  1.
         11    1    1    2    0    0  0.14698650805E+03  0.17420556566E+03  0.21584190110E+03  0.31391135520E+03  0.00000000000E+00 0. -1.
        -15    1    3    3    0    0 -0.15891828597E+03 -0.24551821629E+03 -0.37541568855E+03  0.47589317403E+03  0.17770000000E+01 0. -1.
         15    1    3    3    0    0  0.15911067238E+02  0.18064892121E+01 -0.15147766894E+02  0.22114204367E+02  0.17770000000E+01 0. -1.
</event>
<event>
 7    1  0.1270595E-008  0.5123399E+03  0.7546771E-02  0.9372614E-01
        -11   -1    0    0    0    0  0.00000000000E+00  0.00000000000E+00  0.50000000000E+03  0.50000000000E+03  0.00000000000E+00 0.  1.
         11   -1    0    0    0    0 -0.00000000000E+00 -0.00000000000E+00 -0.50000000000E+03  0.50000000000E+03  0.00000000000E+00 0. -1.
         25    2    1    2    0    0  0.41587024964E+03 -0.18121904988E+03  0.12805404001E+03  0.48766008161E+03  0.12500443775E+03 0.  0.
        -11    1    1    2    0    0 -0.35986651707E+03  0.11116188072E+03 -0.17011142100E+03  0.41327807755E+03  0.00000000000E+00 0. -1.
         11    1    1    2    0    0 -0.56003732577E+02  0.70057169160E+02  0.42057380992E+02  0.99061840833E+02  0.00000000000E+00 0.  1.
        -15    1    3    3    0    0  0.39594297601E+03 -0.17665594297E+03  0.87643114581E+02  0.44233769419E+03  0.17770000000E+01 0.  1.
         15    1    3    3    0    0  0.19927273636E+02 -0.45631069113E+01  0.40410925424E+02  0.45322387425E+02  0.17770000000E+01 0.  1.
</event>
<event>
 7    1  0.1270595E-008  0.5048338E+03  0.7546771E-02  0.9389058E-01
        -11   -1    0    0    0    0  0.00000000000E+00  0.00000000000E+00  0.50000000000E+03  0.50000000000E+03  0.00000000000E+00 0.  1.
         11   -1    0    0    0    0 -0.00000000000E+00 -0.00000000000E+00 -0.50000000000E+03  0.50000000000E+03  0.00000000000E+00 0. -1.
         25    2    1    2    0    0  0.22916540050E+03 -0.31990388671E+03  0.27333063161E+03  0.49516619463E+03  0.12499859445E+03 0.  0.
        -11    1    1    2    0    0 -0.16693340416E+03  0.26408143407E+03 -0.12892655535E+03  0.33797606708E+03  0.00000000000E+00 0.  1.
         11    1    1    2    0    0 -0.62231996339E+02  0.55822452645E+02 -0.14440407626E+03  0.16685773829E+03  0.00000000000E+00 0. -1.
        -15    1    3    3    0    0  0.26249358911E+02 -0.13591112307E+03  0.10382932119E+03  0.17304493025E+03  0.17770000000E+01 0.  1.
         15    1    3    3    0    0  0.20291604158E+03 -0.18399276364E+03  0.16950131042E+03  0.32212126438E+03  0.17770000000E+01 0.  1.
</event>
<event>
 8    1  0.1270595E-008  0.5023090E+03  0.7546771E-02  0.9394658E-01
        -11   -1    0    0    0    0  0.00000000000E+00  0.00000000000E+00  0.50000000000E+03  0.50000000000E+03  0.00000000000E+00 0.  1.
         11   -1    0    0    0    0 -0.00000000000E+00 -0.00000000000E+00 -0.50000000000E+03  0.50000000000E+03  0.00000000000E+00 0. -1.
         25    2    1    2    0    0  0.36059369585E+03 -0.27714616000E+03 -0.17278741856E+03  0.50230899985E+03  0.12498412630E+03 0.  0.
         23    2    1    2    0    0 -0.36059369585E+03  0.27714616000E+03  0.17278741856E+03  0.49769100015E+03  0.10489533891E+03 0.  0.
        -11    1    4    4    0    0 -0.70897866462E+02  0.64998777617E+02  0.84257563366E+02  0.12786979919E+03  0.00000000000E+00 0.  1.
         11    1    4    4    0    0 -0.28969582939E+03  0.21214738238E+03  0.88529855199E+02  0.36982120096E+03  0.00000000000E+00 0. -1.
        -15    1    3    3    0    0  0.17358434498E+03 -0.85854883951E+02 -0.21190782701E+02  0.19481989868E+03  0.17770000000E+01 0. -1.
         15    1    3    3    0    0  0.18700935087E+03 -0.19129127605E+03 -0.15159663586E+03  0.30748910117E+03  0.17770000000E+01 0. -1.
</event>
<event>
 8    1  0.1270595E-008  0.5022177E+03  0.7546771E-02  0.9394861E-01
        -11   -1    0    0    0    0  0.00000000000E+00  0.00000000000E+00  0.50000000000E+03  0.50000000000E+03  0.00000000000E+00 0.  1.
         11   -1    0    0    0    0 -0.00000000000E+00 -0.00000000000E+00 -0.50000000000E+03  0.50000000000E+03  0.00000000000E+00 0. -1.
         25    2    1    2    0    0  0.86567496671E+02  0.47032751194E+03 -0.88856893682E+02  0.50221766871E+03  0.12500055697E+03 0.  0.
         23    2    1    2    0    0 -0.86567496671E+02 -0.47032751194E+03  0.88856893682E+02  0.49778233129E+03  0.10578185962E+03 0.  0.
        -11    1    4    4    0    0 -0.95512951723E+02 -0.42853867536E+03  0.10611246323E+03  0.45169455950E+03  0.00000000000E+00 0.  1.
         11    1    4    4    0    0  0.89454550525E+01 -0.41788836573E+02 -0.17255569546E+02  0.46087771790E+02  0.00000000000E+00 0. -1.
        -15    1    3    3    0    0 -0.28514530410E+01  0.14962067402E+03 -0.78766575682E+02  0.16912069079E+03  0.17770000000E+01 0. -1.
         15    1    3    3    0    0  0.89418949712E+02  0.32070683792E+03 -0.10090318000E+02  0.33309697792E+03  0.17770000000E+01 0. -1.
</event>
<event>
 7    1  0.1270595E-008  0.5073835E+03  0.7546771E-02  0.9383438E-01
        -11   -1    0    0    0    0  0.00000000000E+00  0.00000000000E+00  0.50000000000E+03  0.50000000000E+03  0.00000000000E+00 0.  1.
         11   -1    0    0    0    0 -0.00000000000E+00 -0.00000000000E+00 -0.50000000000E+03  0.50000000000E+03  0.00000000000E+00 0.  1.
         25    2    1    2    0    0 -0.28690486015E+03  0.19523071941E+03  0.32651933174E+03  0.49261650715E+03  0.12500686596E+03 0.  0.
        -11    1    1    2    0    0  0.14955975494E+03 -0.12637438391E+03 -0.69169946939E+02  0.20766098999E+03  0.00000000000E+00 0.  1.
         11    1    1    2    0    0  0.13734510521E+03 -0.68856335502E+02 -0.25734938480E+03  0.29972250286E+03  0.00000000000E+00 0.  1.
        -15    1    3    3    0    0 -0.62727732959E+02  0.91619268237E+01  0.13206214554E+02  0.64778632411E+02  0.17770000000E+01 0.  1.
         15    1    3    3    0    0 -0.22417712719E+03  0.18606879259E+03  0.31331311719E+03  0.42783787474E+03  0.17770000000E+01 0.  1.
</event>
<event>
 7    1  0.1270595E-008  0.4213277E+03  0.7546771E-02  0.9595402E-01
        -11   -1    0    0    0    0  0.00000000000E+00  0.00000000000E+00  0.50000000000E+03  0.50000000000E+03  0.00000000000E+00 0. -1.
         11   -1    0    0    0    0 -0.00000000000E+00 -0.00000000000E+00 -0.50000000000E+03  0.50000000000E+03  0.00000000000E+00 0.  1.
         25    2    1    2    0    0 -0.37597671755E+03  0.14614103356E+03  0.22441717426E+03  0.47823030491E+03  0.12500185040E+03 0.  0.
        -11    1    1    2    0    0  0.21666422437E+03 -0.15290901588E+03 -0.24493925893E+03  0.36099832940E+03  0.00000000000E+00 0. -1.
         11    1    1    2    0    0  0.15931249318E+03  0.67679823231E+01  0.20522084675E+02  0.16077136569E+03  0.00000000000E+00 0.  1.
        -15    1    3    3    0    0  0.12649326101E+01 -0.25510960791E+01 -0.95206541906E+01  0.10094985435E+02  0.17770000000E+01 0.  1.
         15    1    3    3    0    0 -0.37724165016E+03  0.14869212963E+03  0.23393782845E+03  0.46813531948E+03  0.17770000000E+01 0.  1.
</event>
<event>
 8    1  0.1270595E-008  0.5021868E+03  0.7546771E-02  0.9394930E-01
        -11   -1    0    0    0    0  0.00000000000E+00  0.00000000000E+00  0.50000000000E+03  0.50000000000E+03  0.00000000000E+00 0.  1.
         11   -1    0    0    0    0 -0.00000000000E+00 -0.00000000000E+00 -0.50000000000E+03  0.50000000000E+03  0.00000000000E+00 0. -1.
         25    2    1    2    0    0  0.47479906945E+03 -0.10181513204E+03  0.27673439833E+02  0.50218682325E+03  0.12500123483E+03 0.  0.
         23    2    1    2    0    0 -0.47479906945E+03  0.10181513204E+03 -0.27673439833E+02  0.49781317675E+03  0.10607385266E+03 0.  0.
        -11    1    4    4    0    0 -0.38876166735E+03  0.59304385430E+02 -0.57222335414E+02  0.39740035204E+03  0.00000000000E+00 0. -1.
         11    1    4    4    0    0 -0.86037402099E+02  0.42510746605E+02  0.29548895581E+02  0.10041282471E+03  0.00000000000E+00 0.  1.
        -15    1    3    3    0    0  0.30433349637E+03 -0.12320106168E+03  0.10921705611E+01  0.32833173648E+03  0.17770000000E+01 0.  1.
         15    1    3    3    0    0  0.17046557308E+03  0.21385929640E+02  0.26581269272E+02  0.17385508677E+03  0.17770000000E+01 0.  1.
</event>
<event>
 8    1  0.1270595E-008  0.5016064E+03  0.7546771E-02  0.9396222E-01
        -11   -1    0    0    0    0  0.00000000000E+00  0.00000000000E+00  0.50000000000E+03  0.50000000000E+03  0.00000000000E+00 0. -1.
         11   -1    0    0    0    0 -0.00000000000E+00 -0.00000000000E+00 -0.50000000000E+03  0.50000000000E+03  0.00000000000E+00 0.  1.
         25    2    1    2    0    0 -0.11785498796E+03 -0.41385450686E+03 -0.22543128346E+03  0.50160643285E+03  0.12499759550E+03 0.  0.
         23    2    1    2    0    0  0.11785498796E+03  0.41385450686E+03  0.22543128346E+03  0.49839356715E+03  0.11140706073E+03 0.  0.
        -11    1    4    4    0    0  0.16255741653E+01  0.39802592176E+02  0.62605110254E+02  0.74204370931E+02  0.00000000000E+00 0. -1.
         11    1    4    4    0    0  0.11622941379E+03  0.37405191468E+03  0.16282617321E+03  0.42418919622E+03  0.00000000000E+00 0.  1.
        -15    1    3    3    0    0 -0.11352410431E+03 -0.24036758092E+03 -0.18363825899E+03  0.32309513168E+03  0.17770000000E+01 0. -1.
         15    1    3    3    0    0 -0.43308836466E+01 -0.17348692593E+03 -0.41793024467E+02  0.17851130117E+03  0.17770000000E+01 0. -1.
</event>
<event>
 8    1  0.1270595E-008  0.5021541E+03  0.7546771E-02  0.9395003E-01
        -11   -1    0    0    0    0  0.00000000000E+00  0.00000000000E+00  0.50000000000E+03  0.50000000000E+03  0.00000000000E+00 0. -1.
         11   -1    0    0    0    0 -0.00000000000E+00 -0.00000000000E+00 -0.50000000000E+03  0.50000000000E+03  0.00000000000E+00 0.  1.
         25    2    1    2    0    0  0.36091343836E+03  0.31233907195E+03  0.93372676759E+02  0.50215408303E+03  0.12500424183E+03 0.  0.
         23    2    1    2    0    0 -0.36091343836E+03 -0.31233907195E+03 -0.93372676759E+02  0.49784591697E+03  0.10638559312E+03 0.  0.
        -11    1    4    4    0    0 -0.17695569081E+03 -0.94742683959E+02 -0.67365441914E+02  0.21172528295E+03  0.00000000000E+00 0. -1.
         11    1    4    4    0    0 -0.18395774755E+03 -0.21759638800E+03 -0.26007234846E+02  0.28612063403E+03  0.00000000000E+00 0.  1.
        -15    1    3    3    0    0  0.87184396975E+02  0.41831097621E+02 -0.24297420296E+02  0.99722024479E+02  0.17770000000E+01 0. -1.
         15    1    3    3    0    0  0.27372904139E+03  0.27050797433E+03  0.11767009706E+03  0.40243205855E+03  0.17770000000E+01 0. -1.
</event>
<event>
 7    1  0.1270595E-008  0.5003786E+03  0.7546771E-02  0.9398963E-01
        -11   -1    0    0    0    0  0.00000000000E+00  0.00000000000E+00  0.50000000000E+03  0.50000000000E+03  0.00000000000E+00 0. -1.
         11   -1    0    0    0    0 -0.00000000000E+00 -0.00000000000E+00 -0.50000000000E+03  0.50000000000E+03  0.00000000000E+00 0.  1.
         25    2    1    2    0    0 -0.45837283849E+03 -0.26026065092E+02 -0.15235817170E+03  0.49962137774E+03  0.12500197392E+03 0.  0.
        -11    1    1    2    0    0  0.34528317862E+03 -0.42172469099E+01  0.16486804400E+03  0.38264831182E+03  0.00000000000E+00 0. -1.
         11    1    1    2    0    0  0.11308965987E+03  0.30243312002E+02 -0.12509872304E+02  0.11773031044E+03  0.00000000000E+00 0.  1.
        -15    1    3    3    0    0 -0.87151909436E+02 -0.10825518472E+02  0.19945370576E+02  0.90075649900E+02  0.17770000000E+01 0.  1.
         15    1    3    3    0    0 -0.37122092905E+03 -0.15200546621E+02 -0.17230354227E+03  0.40954572784E+03  0.17770000000E+01 0.  1.
</event>
<event>
 7    1  0.1270595E-008  0.5003860E+03  0.7546771E-02  0.9398946E-01
        -11   -1    0    0    0    0  0.00000000000E+00  0.00000000000E+00  0.50000000000E+03  0.50000000000E+03  0.00000000000E+00 0.  1.
         11   -1    0    0    0    0 -0.00000000000E+00 -0.00000000000E+00 -0.50000000000E+03  0.50000000000E+03  0.00000000000E+00 0. -1.
         25    2    1    2    0    0 -0.46552104548E+03  0.12391841150E+02 -0.13086459633E+03  0.49961403173E+03  0.12500094645E+03 0.  0.
        -11    1    1    2    0    0  0.80673479472E+02  0.24626283699E+02 -0.17726811774E+02  0.86191089995E+02  0.00000000000E+00 0. -1.
         11    1    1    2    0    0  0.38484756601E+03 -0.37018124849E+02  0.14859140811E+03  0.41419487828E+03  0.00000000000E+00 0.  1.
        -15    1    3    3    0    0 -0.32643373880E+03 -0.15403324288E+02 -0.14407587080E+03  0.35715159596E+03  0.17770000000E+01 0.  1.
         15    1    3    3    0    0 -0.13908730668E+03  0.27795165438E+02  0.13211274461E+02  0.14246243576E+03  0.17770000000E+01 0.  1.
</event>
<event>
 8    1  0.1270595E-008  0.5021638E+03  0.7546771E-02  0.9394981E-01
        -11   -1    0    0    0    0  0.00000000000E+00  0.00000000000E+00  0.50000000000E+03  0.50000000000E+03  0.00000000000E+00 0.  1.
         11   -1    0    0    0    0 -0.00000000000E+00 -0.00000000000E+00 -0.50000000000E+03  0.50000000000E+03  0.00000000000E+00 0. -1.
         25    2    1    2    0    0  0.42666279555E+02  0.25239764706E+03 -0.41354235912E+03  0.50216379601E+03  0.12500484625E+03 0.  0.
         23    2    1    2    0    0 -0.42666279555E+02 -0.25239764706E+03  0.41354235912E+03  0.49783620399E+03  0.10629496488E+03 0.  0.
        -11    1    4    4    0    0 -0.72875926175E+02 -0.11754953033E+03  0.22419663699E+03  0.26342536843E+03  0.00000000000E+00 0.  1.
         11    1    4    4    0    0  0.30209646620E+02 -0.13484811673E+03  0.18934572213E+03  0.23441083555E+03  0.00000000000E+00 0. -1.
        -15    1    3    3    0    0  0.40391302575E+02  0.13118332972E+02 -0.92043739623E+02  0.10138419855E+03  0.17770000000E+01 0.  1.
         15    1    3    3    0    0  0.22749769803E+01  0.23927931409E+03 -0.32149861950E+03  0.40077959746E+03  0.17770000000E+01 0.  1.
</event>
<event>
 8    1  0.1270595E-008  0.5023938E+03  0.7546771E-02  0.9394469E-01
        -11   -1    0    0    0    0  0.00000000000E+00  0.00000000000E+00  0.50000000000E+03  0.50000000000E+03  0.00000000000E+00 0. -1.
         11   -1    0    0    0    0 -0.00000000000E+00 -0.00000000000E+00 -0.50000000000E+03  0.50000000000E+03  0.00000000000E+00 0.  1.
         25    2    1    2    0    0  0.43990697881E+03  0.48517512097E+02 -0.20224194743E+03  0.50239380544E+03  0.12500252577E+03 0.  0.
         23    2    1    2    0    0 -0.43990697881E+03 -0.48517512097E+02  0.20224194743E+03  0.49760619456E+03  0.10410581433E+03 0.  0.
        -11    1    4    4    0    0 -0.19158547339E+03 -0.57376179706E+02  0.13113938873E+03  0.23915383937E+03  0.00000000000E+00 0. -1.
         11    1    4    4    0    0 -0.24832150543E+03  0.88586676093E+01  0.71102558705E+02  0.25845235519E+03  0.00000000000E+00 0.  1.
        -15    1    3    3    0    0  0.43446387340E+03  0.35976470369E+02 -0.21271418896E+03  0.48508107325E+03  0.17770000000E+01 0.  1.
         15    1    3    3    0    0  0.54431054091E+01  0.12541041728E+02  0.10472241525E+02  0.17312732184E+02  0.17770000000E+01 0.  1.
</event>
<event>
 8    1  0.1270595E-008  0.5021287E+03  0.7546771E-02  0.9395059E-01
        -11   -1    0    0    0    0  0.00000000000E+00  0.00000000000E+00  0.50000000000E+03  0.50000000000E+03  0.00000000000E+00 0.  1.
         11   -1    0    0    0    0 -0.00000000000E+00 -0.00000000000E+00 -0.50000000000E+03  0.50000000000E+03  0.00000000000E+00 0. -1.
         25    2    1    2    0    0 -0.27036529426E+03 -0.40342452419E+03  0.25675891996E+02  0.50212874869E+03  0.12500115908E+03 0.  0.
         23    2    1    2    0    0  0.27036529426E+03  0.40342452419E+03 -0.25675891996E+02  0.49787125131E+03  0.10661984990E+03 0.  0.
        -11    1    4    4    0    0  0.86031215925E+02  0.21283689388E+03 -0.36769013390E+02  0.23249273936E+03  0.00000000000E+00 0.  1.
         11    1    4    4    0    0  0.18433407833E+03  0.19058763032E+03  0.11093121393E+02  0.26537851195E+03  0.00000000000E+00 0. -1.
        -15    1    3    3    0    0  0.37212286470E+01 -0.35603132059E+02  0.24496152467E+02  0.43412553136E+02  0.17770000000E+01 0. -1.
         15    1    3    3    0    0 -0.27408652290E+03 -0.36782139213E+03  0.11797395290E+01  0.45871619555E+03  0.17770000000E+01 0. -1.
</event>
<event>
 8    1  0.1270595E-008  0.5018367E+03  0.7546771E-02  0.9395709E-01
        -11   -1    0    0    0    0  0.00000000000E+00  0.00000000000E+00  0.50000000000E+03  0.50000000000E+03  0.00000000000E+00 0.  1.
         11   -1    0    0    0    0 -0.00000000000E+00 -0.00000000000E+00 -0.50000000000E+03  0.50000000000E+03  0.00000000000E+00 0. -1.
         25    2    1    2    0    0 -0.38905523796E+03  0.22796360877E+03  0.18133376090E+03  0.50183667500E+03  0.12500692154E+03 0.  0.
         23    2    1    2    0    0  0.38905523796E+03 -0.22796360877E+03 -0.18133376090E+03  0.49816332500E+03  0.10933151617E+03 0.  0.
        -11    1    4    4    0    0  0.37092469094E+03 -0.18125355349E+03 -0.17178852594E+03  0.44715687923E+03  0.00000000000E+00 0.  1.
         11    1    4    4    0    0  0.18130547018E+02 -0.46710055279E+02 -0.95452349611E+01  0.51006445767E+02  0.00000000000E+00 0. -1.
        -15    1    3    3    0    0 -0.39352955854E+03  0.23124985323E+03  0.18740290101E+03  0.49342173959E+03  0.17770000000E+01 0. -1.
         15    1    3    3    0    0  0.44743205841E+01 -0.32862444623E+01 -0.60691401099E+01  0.84149354144E+01  0.17770000000E+01 0. -1.
</event>
<event>
 8    1  0.1314112E-008  0.5020465E+03  0.7546771E-02  0.9395242E-01
        -11   -1    0    0    0    0  0.00000000000E+00  0.00000000000E+00  0.50000000000E+03  0.50000000000E+03  0.00000000000E+00 0. -1.
         11   -1    0    0    0    0 -0.00000000000E+00 -0.00000000000E+00 -0.50000000000E+03  0.50000000000E+03  0.00000000000E+00 0.  1.
         25    2    1    2    0    0 -0.17884636296E+03  0.38665722907E+03 -0.23438207830E+03  0.50204653740E+03  0.12500373093E+03 0.  0.
         23    2    1    2    0    0  0.17884636296E+03 -0.38665722907E+03  0.23438207830E+03  0.49795346260E+03  0.10739114466E+03 0.  0.
        -11    1    4    4    0    0  0.58825137197E+02 -0.21631022623E+03  0.77745159510E+02  0.23726529574E+03  0.00000000000E+00 0.  1.
         11    1    4    4    0    0  0.12002122577E+03 -0.17034700284E+03  0.15663691879E+03  0.26068816686E+03  0.00000000000E+00 0. -1.
        -15    1    3    3    0    0 -0.13067942642E+03  0.32759080516E+03 -0.23838705385E+03  0.42570458453E+03  0.17770000000E+01 0. -1.
         15    1    3    3    0    0 -0.48166936544E+02  0.59066423905E+02  0.40049755521E+01  0.76341952864E+02  0.17770000000E+01 0. -1.
</event>
<event>
 8    1  0.1270595E-008  0.5001814E+03  0.7546771E-02  0.9399404E-01
        -11   -1    0    0    0    0  0.00000000000E+00  0.00000000000E+00  0.50000000000E+03  0.50000000000E+03  0.00000000000E+00 0. -1.
         11   -1    0    0    0    0 -0.00000000000E+00 -0.00000000000E+00 -0.50000000000E+03  0.50000000000E+03  0.00000000000E+00 0.  1.
         25    2    1    2    0    0  0.17443697741E+03  0.38251599817E+03 -0.24043722192E+03  0.50018143853E+03  0.12499866330E+03 0.  0.
         23    2    1    2    0    0 -0.17443697741E+03 -0.38251599817E+03  0.24043722192E+03  0.49981856147E+03  0.12353861243E+03 0.  0.
        -11    1    4    4    0    0 -0.92248448574E+02 -0.30115606225E+03  0.21515397543E+03  0.38143935722E+03  0.00000000000E+00 0. -1.
         11    1    4    4    0    0 -0.82188528838E+02 -0.81359935921E+02  0.25283246485E+02  0.11837920425E+03  0.00000000000E+00 0.  1.
        -15    1    3    3    0    0  0.10962526387E+03  0.34854801200E+03 -0.19848082795E+03  0.41581391504E+03  0.17770000000E+01 0.  1.
         15    1    3    3    0    0  0.64811713546E+02  0.33967986170E+02 -0.41956393961E+02  0.84367523493E+02  0.17770000000E+01 0.  1.
</event>
<event>
 8    1  0.1270595E-008  0.5023671E+03  0.7546771E-02  0.9394529E-01
        -11   -1    0    0    0    0  0.00000000000E+00  0.00000000000E+00  0.50000000000E+03  0.50000000000E+03  0.00000000000E+00 0.  1.
         11   -1    0    0    0    0 -0.00000000000E+00 -0.00000000000E+00 -0.50000000000E+03  0.50000000000E+03  0.00000000000E+00 0. -1.
         25    2    1    2    0    0  0.44134813119E+03 -0.84524268741E+02 -0.18658895685E+03  0.50236706166E+03  0.12499880364E+03 0.  0.
         23    2    1    2    0    0 -0.44134813119E+03  0.84524268741E+02  0.18658895685E+03  0.49763293834E+03  0.10435793020E+03 0.  0.
        -11    1    4    4    0    0 -0.27612710583E+03  0.98785237753E+02  0.95473639180E+02  0.30841517075E+03  0.00000000000E+00 0. -1.
         11    1    4    4    0    0 -0.16522102536E+03 -0.14260969011E+02  0.91115317667E+02  0.18921776759E+03  0.00000000000E+00 0.  1.
        -15    1    3    3    0    0  0.85271378251E+02  0.19775506615E+02 -0.11360801363E+01  0.87559848205E+02  0.17770000000E+01 0.  1.
         15    1    3    3    0    0  0.35607675294E+03 -0.10429977536E+03 -0.18545287671E+03  0.41480721345E+03  0.17770000000E+01 0.  1.
</event>
<event>
 8    1  0.1270595E-008  0.5000042E+03  0.7546771E-02  0.9399800E-01
        -11   -1    0    0    0    0  0.00000000000E+00  0.00000000000E+00  0.50000000000E+03  0.50000000000E+03  0.00000000000E+00 0.  1.
         11   -1    0    0    0    0 -0.00000000000E+00 -0.00000000000E+00 -0.50000000000E+03  0.50000000000E+03  0.00000000000E+00 0. -1.
         25    2    1    2    0    0  0.26115669692E+03 -0.39793732513E+03  0.88446960404E+02  0.50000422918E+03  0.12499771726E+03 0.  0.
         23    2    1    2    0    0 -0.26115669692E+03  0.39793732513E+03 -0.88446960404E+02  0.49999577082E+03  0.12496387859E+03 0.  0.
        -11    1    4    4    0    0 -0.16134723720E+03  0.13528548329E+03 -0.49859522220E+02  0.21638175731E+03  0.00000000000E+00 0. -1.
         11    1    4    4    0    0 -0.99809459721E+02  0.26265184184E+03 -0.38587438184E+02  0.28361401350E+03  0.00000000000E+00 0.  1.
        -15    1    3    3    0    0  0.32978623716E+02 -0.85985129226E+02  0.65112744204E+02  0.11280008536E+03  0.17770000000E+01 0.  1.
         15    1    3    3    0    0  0.22817807321E+03 -0.31195219590E+03  0.23334216200E+02  0.38720414382E+03  0.17770000000E+01 0.  1.
</event>
<event>
 7    1  0.1270595E-008  0.5010198E+03  0.7546771E-02  0.9397531E-01
        -11   -1    0    0    0    0  0.00000000000E+00  0.00000000000E+00  0.50000000000E+03  0.50000000000E+03  0.00000000000E+00 0. -1.
         11   -1    0    0    0    0 -0.00000000000E+00 -0.00000000000E+00 -0.50000000000E+03  0.50000000000E+03  0.00000000000E+00 0.  1.
         25    2    1    2    0    0 -0.33991561374E+03 -0.32473209406E+03 -0.11121266288E+03  0.49898024068E+03  0.12497786534E+03 0.  0.
        -11    1    1    2    0    0  0.23940243329E+03  0.14527266027E+03  0.37555147829E+02  0.28253859916E+03  0.00000000000E+00 0.  1.
         11    1    1    2    0    0  0.10051318046E+03  0.17945943379E+03  0.73657515050E+02  0.21848116016E+03  0.00000000000E+00 0. -1.
        -15    1    3    3    0    0 -0.11947285762E+03 -0.68628149774E+02  0.14244036400E+02  0.13852666513E+03  0.17770000000E+01 0. -1.
         15    1    3    3    0    0 -0.22044275612E+03 -0.25610394429E+03 -0.12545669928E+03  0.36045357555E+03  0.17770000000E+01 0. -1.
</event>
<event>
 7    1  0.1270595E-008  0.5040852E+03  0.7546771E-02  0.9390715E-01
        -11   -1    0    0    0    0  0.00000000000E+00  0.00000000000E+00  0.50000000000E+03  0.50000000000E+03  0.00000000000E+00 0.  1.
         11   -1    0    0    0    0 -0.00000000000E+00 -0.00000000000E+00 -0.50000000000E+03  0.50000000000E+03  0.00000000000E+00 0. -1.
         25    2    1    2    0    0 -0.26219321793E+03  0.15949900455E+03  0.36894546897E+03  0.49591476466E+03  0.12500191499E+03 0.  0.
        -11    1    1    2    0    0  0.13043727291E+03 -0.47403640516E+02 -0.27304756637E+03  0.30629391244E+03  0.00000000000E+00 0. -1.
         11    1    1    2    0    0  0.13175594503E+03 -0.11209536404E+03 -0.95897902605E+02  0.19779132289E+03  0.00000000000E+00 0.  1.
        -15    1    3    3    0    0 -0.16336812676E+03  0.15153273077E+03  0.19701610696E+03  0.29743876255E+03  0.17770000000E+01 0. -1.
         15    1    3    3    0    0 -0.98825091174E+02  0.79662737784E+01  0.17192936201E+03  0.19847600211E+03  0.17770000000E+01 0. -1.
</event>
<event>
 8    1  0.1270595E-008  0.5022669E+03  0.7546771E-02  0.9394752E-01
        -11   -1    0    0    0    0  0.00000000000E+00  0.00000000000E+00  0.50000000000E+03  0.50000000000E+03  0.00000000000E+00 0. -1.
         11   -1    0    0    0    0 -0.00000000000E+00 -0.00000000000E+00 -0.50000000000E+03  0.50000000000E+03  0.00000000000E+00 0.  1.
         25    2    1    2    0    0 -0.24495558435E+03  0.41978540619E+03  0.20614267698E+02  0.50226690664E+03  0.12499628763E+03 0.  0.
         23    2    1    2    0    0  0.24495558435E+03 -0.41978540619E+03 -0.20614267698E+02  0.49773309336E+03  0.10531029691E+03 0.  0.
        -11    1    4    4    0    0  0.73750526060E+02 -0.22519552178E+03  0.71048647303E+01  0.23707096454E+03  0.00000000000E+00 0. -1.
         11    1    4    4    0    0  0.17120505829E+03 -0.19458988441E+03 -0.27719132428E+02  0.26066212882E+03  0.00000000000E+00 0.  1.
        -15    1    3    3    0    0 -0.20048832495E+03  0.36759569203E+03 -0.25699917923E+02  0.41950662062E+03  0.17770000000E+01 0. -1.
         15    1    3    3    0    0 -0.44467259398E+02  0.52189714166E+02  0.46314185621E+02  0.82760286018E+02  0.17770000000E+01 0. -1.
</event>
<event>
 8    1  0.1270595E-008  0.5013336E+03  0.7546771E-02  0.9396831E-01
        -11   -1    0    0    0    0  0.00000000000E+00  0.00000000000E+00  0.50000000000E+03  0.50000000000E+03  0.00000000000E+00 0. -1.
         11   -1    0    0    0    0 -0.00000000000E+00 -0.00000000000E+00 -0.50000000000E+03  0.50000000000E+03  0.00000000000E+00 0.  1.
         25    2    1    2    0    0 -0.38885453686E+03  0.16593543718E+03 -0.23868010338E+03  0.50133362619E+03  0.12499917138E+03 0.  0.
         23    2    1    2    0    0  0.38885453686E+03 -0.16593543718E+03  0.23868010338E+03  0.49866637381E+03  0.11383119287E+03 0.  0.
        -11    1    4    4    0    0  0.17882259650E+03 -0.11828798651E+03  0.71456470675E+02  0.22599910613E+03  0.00000000000E+00 0.  1.
         11    1    4    4    0    0  0.21003194036E+03 -0.47647450669E+02  0.16722363271E+03  0.27266726768E+03  0.00000000000E+00 0. -1.
        -15    1    3    3    0    0 -0.32119617855E+03  0.16859530388E+03 -0.23749784259E+03  0.43358937323E+03  0.17770000000E+01 0. -1.
         15    1    3    3    0    0 -0.67658358308E+02 -0.26598667011E+01 -0.11822607888E+01  0.67744252962E+02  0.17770000000E+01 0. -1.
</event>
<event>
 8    1  0.1270595E-008  0.5009966E+03  0.7546771E-02  0.9397582E-01
        -11   -1    0    0    0    0  0.00000000000E+00  0.00000000000E+00  0.50000000000E+03  0.50000000000E+03  0.00000000000E+00 0. -1.
         11   -1    0    0    0    0 -0.00000000000E+00 -0.00000000000E+00 -0.50000000000E+03  0.50000000000E+03  0.00000000000E+00 0.  1.
         25    2    1    2    0    0 -0.32214034177E+03 -0.21210543736E+03 -0.29429520293E+03  0.50099663839E+03  0.12499939541E+03 0.  0.
         23    2    1    2    0    0  0.32214034177E+03  0.21210543736E+03  0.29429520293E+03  0.49900336161E+03  0.11675432359E+03 0.  0.
        -11    1    4    4    0    0  0.10537492488E+03  0.13080451422E+03  0.91734379556E+02  0.19138676058E+03  0.00000000000E+00 0.  1.
         11    1    4    4    0    0  0.21676541689E+03  0.81300923147E+02  0.20256082337E+03  0.30761660103E+03  0.00000000000E+00 0. -1.
        -15    1    3    3    0    0 -0.33033265719E+03 -0.18905486269E+03 -0.28096074243E+03  0.47307874823E+03  0.17770000000E+01 0.  1.
         15    1    3    3    0    0  0.81923154207E+01 -0.23050574677E+02 -0.13334460495E+02  0.27917890153E+02  0.17770000000E+01 0.  1.
</event>
<event>
 8    1  0.1270595E-008  0.5014860E+03  0.7546771E-02  0.9396491E-01
        -11   -1    0    0    0    0  0.00000000000E+00  0.00000000000E+00  0.50000000000E+03  0.50000000000E+03  0.00000000000E+00 0. -1.
         11   -1    0    0    0    0 -0.00000000000E+00 -0.00000000000E+00 -0.50000000000E+03  0.50000000000E+03  0.00000000000E+00 0.  1.
         25    2    1    2    0    0  0.22931586589E+03 -0.61249624742E+02  0.42370496697E+03  0.50148600087E+03  0.12500010865E+03 0.  0.
         23    2    1    2    0    0 -0.22931586589E+03  0.61249624742E+02 -0.42370496697E+03  0.49851399913E+03  0.11248566758E+03 0.  0.
        -11    1    4    4    0    0 -0.14036296862E+03 -0.10942522048E+02 -0.17431492580E+03  0.22406962111E+03  0.00000000000E+00 0. -1.
         11    1    4    4    0    0 -0.88952897274E+02  0.72192146790E+02 -0.24939004116E+03  0.27444437801E+03  0.00000000000E+00 0.  1.
        -15    1    3    3    0    0  0.17526839237E+02  0.31131077473E+02  0.40767134898E+02  0.54235146308E+02  0.17770000000E+01 0. -1.
         15    1    3    3    0    0  0.21178902666E+03 -0.92380702215E+02  0.38293783207E+03  0.44725085457E+03  0.17770000000E+01 0. -1.
</event>
<event>
 8    1  0.1270595E-008  0.5023379E+03  0.7546771E-02  0.9394594E-01
        -11   -1    0    0    0    0  0.00000000000E+00  0.00000000000E+00  0.50000000000E+03  0.50000000000E+03  0.00000000000E+00 0.  1.
         11   -1    0    0    0    0 -0.00000000000E+00 -0.00000000000E+00 -0.50000000000E+03  0.50000000000E+03  0.00000000000E+00 0. -1.
         25    2    1    2    0    0  0.13415863313E+03  0.33427529134E+03  0.32707783092E+03  0.50233786748E+03  0.12499966552E+03 0.  0.
         23    2    1    2    0    0 -0.13415863313E+03 -0.33427529134E+03 -0.32707783092E+03  0.49766213252E+03  0.10463833627E+03 0.  0.
        -11    1    4    4    0    0 -0.12120533453E+03 -0.33778955037E+03 -0.32483183126E+03  0.48405395573E+03  0.00000000000E+00 0.  1.
         11    1    4    4    0    0 -0.12953298594E+02  0.35142590275E+01 -0.22459996602E+01  0.13608176786E+02  0.00000000000E+00 0. -1.
        -15    1    3    3    0    0  0.11284008270E+03  0.33401005322E+03  0.32712089830E+03  0.48094369707E+03  0.17770000000E+01 0. -1.
         15    1    3    3    0    0  0.21318550432E+02  0.26523811852E+00 -0.43067378720E-01  0.21394170412E+02  0.17770000000E+01 0. -1.
</event>
<event>
 8    1  0.1270595E-008  0.5015038E+03  0.7546771E-02  0.9396451E-01
        -11   -1    0    0    0    0  0.00000000000E+00  0.00000000000E+00  0.50000000000E+03  0.50000000000E+03  0.00000000000E+00 0.  1.
         11   -1    0    0    0    0 -0.00000000000E+00 -0.00000000000E+00 -0.50000000000E+03  0.50000000000E+03  0.00000000000E+00 0. -1.
         25    2    1    2    0    0 -0.41929736789E+03  0.24446358372E+03  0.17559202849E+02  0.50150380983E+03  0.12500007677E+03 0.  0.
         23    2    1    2    0    0  0.41929736789E+03 -0.24446358372E+03 -0.17559202849E+02  0.49849619017E+03  0.11232719852E+03 0.  0.
        -11    1    4    4    0    0  0.31085286800E+03 -0.21815498907E+03 -0.48109498790E+02  0.38279972397E+03  0.00000000000E+00 0.  1.
         11    1    4    4    0    0  0.10844449989E+03 -0.26308594646E+02  0.30550295942E+02  0.11569646619E+03  0.00000000000E+00 0. -1.
        -15    1    3    3    0    0 -0.41037241430E+03  0.23168536803E+03  0.41279513824E+02  0.47306530646E+03  0.17770000000E+01 0. -1.
         15    1    3    3    0    0 -0.89249535822E+01  0.12778215684E+02 -0.23720310975E+02  0.28438503376E+02  0.17770000000E+01 0. -1.
</event>
<event>
 7    1  0.1270595E-008  0.5042931E+03  0.7546771E-02  0.9390254E-01
        -11   -1    0    0    0    0  0.00000000000E+00  0.00000000000E+00  0.50000000000E+03  0.50000000000E+03  0.00000000000E+00 0. -1.
         11   -1    0    0    0    0 -0.00000000000E+00 -0.00000000000E+00 -0.50000000000E+03  0.50000000000E+03  0.00000000000E+00 0.  1.
         25    2    1    2    0    0  0.47532515939E+03  0.11901984016E+02  0.63450594919E+02  0.49570686280E+03  0.12499460571E+03 0.  0.
        -11    1    1    2    0    0 -0.34072369016E+03 -0.24072293051E+02 -0.11385593981E+03  0.36004900133E+03  0.00000000000E+00 0.  1.
         11    1    1    2    0    0 -0.13460146923E+03  0.12170309035E+02  0.50405344891E+02  0.14424413587E+03  0.00000000000E+00 0. -1.
        -15    1    3    3    0    0  0.12081692856E+03 -0.16846759904E+02 -0.34511844969E+02  0.12678631124E+03  0.17770000000E+01 0.  1.
         15    1    3    3    0    0  0.35450823083E+03  0.28748743920E+02  0.97962439888E+02  0.36892055155E+03  0.17770000000E+01 0.  1.
</event>
<event>
 7    1  0.1270595E-008  0.5019106E+03  0.7546771E-02  0.9395545E-01
        -11   -1    0    0    0    0  0.00000000000E+00  0.00000000000E+00  0.50000000000E+03  0.50000000000E+03  0.00000000000E+00 0.  1.
         11   -1    0    0    0    0 -0.00000000000E+00 -0.00000000000E+00 -0.50000000000E+03  0.50000000000E+03  0.00000000000E+00 0. -1.
         25    2    1    2    0    0  0.10033245874E+03  0.47039384311E+03 -0.33645432003E+02  0.49808936637E+03  0.12499612746E+03 0.  0.
        -11    1    1    2    0    0 -0.10944467282E+03 -0.31389030200E+03 -0.27680730983E+02  0.33357380138E+03  0.00000000000E+00 0.  1.
         11    1    1    2    0    0  0.91122140811E+01 -0.15650354111E+03  0.61326162985E+02  0.16833683225E+03  0.00000000000E+00 0. -1.
        -15    1    3    3    0    0  0.53603500149E+02  0.10053859319E+03 -0.51096550845E+02  0.12488138046E+03  0.17770000000E+01 0.  1.
         15    1    3    3    0    0  0.46728958589E+02  0.36985524992E+03  0.17451118843E+02  0.37320798590E+03  0.17770000000E+01 0.  1.
</event>
<event>
 8    1  0.1270595E-008  0.5057524E+03  0.7546771E-02  0.9387029E-01
        -11   -1    0    0    0    0  0.00000000000E+00  0.00000000000E+00  0.50000000000E+03  0.50000000000E+03  0.00000000000E+00 0.  1.
         11   -1    0    0    0    0 -0.00000000000E+00 -0.00000000000E+00 -0.50000000000E+03  0.50000000000E+03  0.00000000000E+00 0. -1.
         25    2    1    2    0    0  0.20424289317E+03  0.21696946411E+02  0.44494448238E+03  0.50575244984E+03  0.12499612485E+03 0.  0.
         23    2    1    2    0    0 -0.20424289317E+03 -0.21696946411E+02 -0.44494448238E+03  0.49424755016E+03  0.64180460729E+02 0.  0.
        -11    1    4    4    0    0 -0.97406760452E+02 -0.22389987762E+02 -0.14728502959E+03  0.17799513610E+03  0.00000000000E+00 0.  1.
         11    1    4    4    0    0 -0.10683613272E+03  0.69304135110E+00 -0.29765945279E+03  0.31625241406E+03  0.00000000000E+00 0. -1.
        -15    1    3    3    0    0  0.16903517818E+03 -0.65387941226E+01  0.42292499319E+03  0.45550450589E+03  0.17770000000E+01 0. -1.
         15    1    3    3    0    0  0.35207714995E+02  0.28235740534E+02  0.22019489189E+02  0.50247943956E+02  0.17770000000E+01 0. -1.
</event>
<event>
 8    1  0.1270595E-008  0.5022643E+03  0.7546771E-02  0.9394757E-01
        -11   -1    0    0    0    0  0.00000000000E+00  0.00000000000E+00  0.50000000000E+03  0.50000000000E+03  0.00000000000E+00 0. -1.
         11   -1    0    0    0    0 -0.00000000000E+00 -0.00000000000E+00 -0.50000000000E+03  0.50000000000E+03  0.00000000000E+00 0.  1.
         25    2    1    2    0    0 -0.65832656099E+02  0.48132242022E+03 -0.25251910767E+02  0.50226433035E+03  0.12500635074E+03 0.  0.
         23    2    1    2    0    0  0.65832656099E+02 -0.48132242022E+03  0.25251910767E+02  0.49773566965E+03  0.10534669920E+03 0.  0.
        -11    1    4    4    0    0 -0.14225777278E+02 -0.63672084306E+02 -0.24265191061E+02  0.69608236267E+02  0.00000000000E+00 0.  1.
         11    1    4    4    0    0  0.80058433377E+02 -0.41765033591E+03  0.49517101827E+02  0.42812743339E+03  0.00000000000E+00 0. -1.
        -15    1    3    3    0    0 -0.90492783118E+02  0.20443777469E+03 -0.15285464274E+02  0.22409942138E+03  0.17770000000E+01 0.  1.
         15    1    3    3    0    0  0.24660127019E+02  0.27688464553E+03 -0.99664464931E+01  0.27816490897E+03  0.17770000000E+01 0.  1.
</event>
<event>
 8    1  0.1270595E-008  0.5022078E+03  0.7546771E-02  0.9394883E-01
        -11   -1    0    0    0    0  0.00000000000E+00  0.00000000000E+00  0.50000000000E+03  0.50000000000E+03  0.00000000000E+00 0.  1.
         11   -1    0    0    0    0 -0.00000000000E+00 -0.00000000000E+00 -0.50000000000E+03  0.50000000000E+03  0.00000000000E+00 0. -1.
         25    2    1    2    0    0 -0.20555983547E+03  0.29943084111E+03  0.32353320831E+03  0.50220778431E+03  0.12500098868E+03 0.  0.
         23    2    1    2    0    0  0.20555983547E+03 -0.29943084111E+03 -0.32353320831E+03  0.49779221569E+03  0.10587576945E+03 0.  0.
        -11    1    4    4    0    0  0.16618068377E+03 -0.21232324322E+03 -0.17595809829E+03  0.32196029511E+03  0.00000000000E+00 0.  1.
         11    1    4    4    0    0  0.39379151692E+02 -0.87107597891E+02 -0.14757511002E+03  0.17583192058E+03  0.00000000000E+00 0. -1.
        -15    1    3    3    0    0 -0.19322369138E+03  0.29513549650E+03  0.33367557086E+03  0.48557481455E+03  0.17770000000E+01 0.  1.
         15    1    3    3    0    0 -0.12336144084E+02  0.42953446110E+01 -0.10142362541E+02  0.16632969762E+02  0.17770000000E+01 0.  1.
</event>
<event>
 8    1  0.1270595E-008  0.5049653E+03  0.7546771E-02  0.9388767E-01
        -11   -1    0    0    0    0  0.00000000000E+00  0.00000000000E+00  0.50000000000E+03  0.50000000000E+03  0.00000000000E+00 0. -1.
         11   -1    0    0    0    0 -0.00000000000E+00 -0.00000000000E+00 -0.50000000000E+03  0.50000000000E+03  0.00000000000E+00 0.  1.
         25    2    1    2    0    0 -0.27544429787E+03 -0.42839708036E+02  0.40207109147E+03  0.50496534531E+03  0.12499614215E+03 0.  0.
         23    2    1    2    0    0  0.27544429787E+03  0.42839708036E+02 -0.40207109147E+03  0.49503465469E+03  0.75454257204E+02 0.  0.
        -11    1    4    4    0    0  0.10467101225E+03  0.46034880033E+02 -0.12382471619E+03  0.16854611038E+03  0.00000000000E+00 0. -1.
         11    1    4    4    0    0  0.17077328562E+03 -0.31951719971E+01 -0.27824637529E+03  0.32648854431E+03  0.00000000000E+00 0.  1.
        -15    1    3    3    0    0 -0.14087630543E+03 -0.84894687760E+02  0.21870496267E+03  0.27365719407E+03  0.17770000000E+01 0.  1.
         15    1    3    3    0    0 -0.13456799244E+03  0.42054979724E+02  0.18336612881E+03  0.23130815124E+03  0.17770000000E+01 0.  1.
</event>
<event>
 8    1  0.1270595E-008  0.5017263E+03  0.7546771E-02  0.9395955E-01
        -11   -1    0    0    0    0  0.00000000000E+00  0.00000000000E+00  0.50000000000E+03  0.50000000000E+03  0.00000000000E+00 0.  1.
         11   -1    0    0    0    0 -0.00000000000E+00 -0.00000000000E+00 -0.50000000000E+03  0.50000000000E+03  0.00000000000E+00 0. -1.
         25    2    1    2    0    0 -0.32129275738E+03 -0.32426093891E+03  0.16652619590E+03  0.50172632234E+03  0.12499654457E+03 0.  0.
         23    2    1    2    0    0  0.32129275738E+03  0.32426093891E+03 -0.16652619590E+03  0.49827367766E+03  0.11032448271E+03 0.  0.
        -11    1    4    4    0    0  0.92009550295E+02  0.84350883761E+02 -0.99710735193E+02  0.15975938047E+03  0.00000000000E+00 0. -1.
         11    1    4    4    0    0  0.22928320709E+03  0.23991005514E+03 -0.66815460708E+02  0.33851429719E+03  0.00000000000E+00 0.  1.
        -15    1    3    3    0    0 -0.42414882140E+02 -0.85649142020E+02 -0.67871875716E+01  0.95833300057E+02  0.17770000000E+01 0. -1.
         15    1    3    3    0    0 -0.27887787525E+03 -0.23861179689E+03  0.17331338347E+03  0.40589302228E+03  0.17770000000E+01 0. -1.
</event>
<event>
 7    1  0.1270595E-008  0.4677536E+03  0.7546771E-02  0.9475003E-01
        -11   -1    0    0    0    0  0.00000000000E+00  0.00000000000E+00  0.50000000000E+03  0.50000000000E+03  0.00000000000E+00 0. -1.
         11   -1    0    0    0    0 -0.00000000000E+00 -0.00000000000E+00 -0.50000000000E+03  0.50000000000E+03  0.00000000000E+00 0. -1.
         25    2    1    2    0    0 -0.15872036228E+03  0.12449041639E+03 -0.42061380087E+03  0.48294110013E+03  0.12500447809E+03 0.  0.
        -11    1    1    2    0    0  0.61115056377E+02  0.41184294700E+02  0.26106059894E+02  0.78183902494E+02  0.00000000000E+00 0. -1.
         11    1    1    2    0    0  0.97605305903E+02 -0.16567471109E+03  0.39450774097E+03  0.43887499738E+03  0.00000000000E+00 0. -1.
        -15    1    3    3    0    0 -0.15820944929E+03  0.68829690886E+02 -0.36746966645E+03  0.40596166036E+03  0.17770000000E+01 0. -1.
         15    1    3    3    0    0 -0.51091298911E+00  0.55660725502E+02 -0.53144134414E+02  0.76979439769E+02  0.17770000000E+01 0. -1.
</event>
<event>
 8    1  0.1270595E-008  0.5023243E+03  0.7546771E-02  0.9394624E-01
        -11   -1    0    0    0    0  0.00000000000E+00  0.00000000000E+00  0.50000000000E+03  0.50000000000E+03  0.00000000000E+00 0. -1.
         11   -1    0    0    0    0 -0.00000000000E+00 -0.00000000000E+00 -0.50000000000E+03  0.50000000000E+03  0.00000000000E+00 0.  1.
         25    2    1    2    0    0 -0.27942283155E+03 -0.39827744080E+03 -0.14968400426E+01  0.50232429734E+03  0.12500168206E+03 0.  0.
         23    2    1    2    0    0  0.27942283155E+03  0.39827744080E+03  0.14968400426E+01  0.49767570266E+03  0.10477034813E+03 0.  0.
        -11    1    4    4    0    0  0.19707916973E+03  0.33987775349E+03  0.26170335849E+02  0.39375369578E+03  0.00000000000E+00 0. -1.
         11    1    4    4    0    0  0.82343661823E+02  0.58399687313E+02 -0.24673495806E+02  0.10392200689E+03  0.00000000000E+00 0.  1.
        -15    1    3    3    0    0 -0.26155980219E+03 -0.29750225937E+03 -0.26272900649E+02  0.39700698670E+03  0.17770000000E+01 0.  1.
         15    1    3    3    0    0 -0.17863029360E+02 -0.10077518143E+03  0.24776060606E+02  0.10531731063E+03  0.17770000000E+01 0.  1.
</event>
<event>
 7    1  0.1270595E-008  0.5051885E+03  0.7546771E-02  0.9388274E-01
        -11   -1    0    0    0    0  0.00000000000E+00  0.00000000000E+00  0.50000000000E+03  0.50000000000E+03  0.00000000000E+00 0.  1.
         11   -1    0    0    0    0 -0.00000000000E+00 -0.00000000000E+00 -0.50000000000E+03  0.50000000000E+03  0.00000000000E+00 0. -1.
         25    2    1    2    0    0 -0.35151795313E+03  0.18106552518E+03 -0.26993509674E+03  0.49481152309E+03  0.12499556454E+03 0.  0.
        -11    1    1    2    0    0  0.28705675755E+03 -0.14424642159E+03  0.12957816765E+03  0.34640888229E+03  0.00000000000E+00 0. -1.
         11    1    1    2    0    0  0.64461195572E+02 -0.36819103591E+02  0.14035692909E+03  0.15877959462E+03  0.00000000000E+00 0.  1.
        -15    1    3    3    0    0 -0.30068183880E+02  0.62019460417E+02 -0.68636829261E+02  0.97286593179E+02  0.17770000000E+01 0. -1.
         15    1    3    3    0    0 -0.32144976925E+03  0.11904606476E+03 -0.20129826748E+03  0.39752492991E+03  0.17770000000E+01 0. -1.
</event>
<event>
 8    1  0.1270595E-008  0.5012813E+03  0.7546771E-02  0.9396947E-01
        -11   -1    0    0    0    0  0.00000000000E+00  0.00000000000E+00  0.50000000000E+03  0.50000000000E+03  0.00000000000E+00 0.  1.
         11   -1    0    0    0    0 -0.00000000000E+00 -0.00000000000E+00 -0.50000000000E+03  0.50000000000E+03  0.00000000000E+00 0. -1.
         25    2    1    2    0    0 -0.25911779445E+03 -0.24230365035E+03 -0.33136602823E+03  0.50128128641E+03  0.12500557212E+03 0.  0.
         23    2    1    2    0    0  0.25911779445E+03  0.24230365035E+03  0.33136602823E+03  0.49871871359E+03  0.11429707016E+03 0.  0.
        -11    1    4    4    0    0  0.22184240510E+03  0.16668399703E+03  0.19778884416E+03  0.34076096379E+03  0.00000000000E+00 0.  1.
         11    1    4    4    0    0  0.37275389352E+02  0.75619653318E+02  0.13357718407E+03  0.15795774980E+03  0.00000000000E+00 0. -1.
        -15    1    3    3    0    0 -0.49484452566E+01 -0.46771743081E+02 -0.83963410620E+02  0.96255364075E+02  0.17770000000E+01 0. -1.
         15    1    3    3    0    0 -0.25416934920E+03 -0.19553190726E+03 -0.24740261761E+03  0.40502592233E+03  0.17770000000E+01 0. -1.
</event>
<event>
 8    1  0.1270595E-008  0.5019960E+03  0.7546771E-02  0.9395355E-01
        -11   -1    0    0    0    0  0.00000000000E+00  0.00000000000E+00  0.50000000000E+03  0.50000000000E+03  0.00000000000E+00 0.  1.
         11   -1    0    0    0    0 -0.00000000000E+00 -0.00000000000E+00 -0.50000000000E+03  0.50000000000E+03  0.00000000000E+00 0. -1.
         25    2    1    2    0    0 -0.10854872635E+02 -0.46390534514E+03 -0.14508345114E+03  0.50199599061E+03  0.12499907714E+03 0.  0.
         23    2    1    2    0    0  0.10854872635E+02  0.46390534514E+03  0.14508345114E+03  0.49800400939E+03  0.10785540347E+03 0.  0.
        -11    1    4    4    0    0 -0.70711850156E+01  0.60165851801E+02  0.59482607316E+02  0.84900600431E+02  0.00000000000E+00 0. -1.
         11    1    4    4    0    0  0.17926057651E+02  0.40373949334E+03  0.85600843820E+02  0.41310340895E+03  0.00000000000E+00 0.  1.
        -15    1    3    3    0    0  0.48934152377E+02 -0.33338369135E+03 -0.98847733494E+02  0.35115989104E+03  0.17770000000E+01 0.  1.
         15    1    3    3    0    0 -0.59789025012E+02 -0.13052165379E+03 -0.46235717642E+02  0.15083609957E+03  0.17770000000E+01 0.  1.
</event>
<event>
 7    1  0.1270595E-008  0.5046309E+03  0.7546771E-02  0.9389507E-01
        -11   -1    0    0    0    0  0.00000000000E+00  0.00000000000E+00  0.50000000000E+03  0.50000000000E+03  0.00000000000E+00 0. -1.
         11   -1    0    0    0    0 -0.00000000000E+00 -0.00000000000E+00 -0.50000000000E+03  0.50000000000E+03  0.00000000000E+00 0.  1.
         25    2    1    2    0    0  0.64911677121E+02  0.47475373672E+03 -0.12690580471E+02  0.49536906168E+03  0.12499928032E+03 0.  0.
        -11    1    1    2    0    0  0.20003754273E+02 -0.34300654113E+03 -0.21289457496E+02  0.34424828023E+03  0.00000000000E+00 0. -1.
         11    1    1    2    0    0 -0.84915431395E+02 -0.13174719559E+03  0.33980037967E+02  0.16038265809E+03  0.00000000000E+00 0.  1.
        -15    1    3    3    0    0 -0.12744685760E+02  0.41844827751E+01 -0.12515500808E+02  0.18431831181E+02  0.17770000000E+01 0.  1.
         15    1    3    3    0    0  0.77656362881E+02  0.47056925394E+03 -0.17507966348E+00  0.47693723050E+03  0.17770000000E+01 0.  1.
</event>
<event>
 7    1  0.1270595E-008  0.5083402E+03  0.7546771E-02  0.9381339E-01
        -11   -1    0    0    0    0  0.00000000000E+00  0.00000000000E+00  0.50000000000E+03  0.50000000000E+03  0.00000000000E+00 0. -1.
         11   -1    0    0    0    0 -0.00000000000E+00 -0.00000000000E+00 -0.50000000000E+03  0.50000000000E+03  0.00000000000E+00 0.  1.
         25    2    1    2    0    0  0.35372489141E+03  0.17503872963E+03  0.26522540828E+03  0.49165983692E+03  0.12500008950E+03 0.  0.
        -11    1    1    2    0    0 -0.29756101968E+03 -0.20934935446E+03 -0.19780354707E+03  0.41412070206E+03  0.00000000000E+00 0. -1.
         11    1    1    2    0    0 -0.56163871731E+02  0.34310624833E+02 -0.67421861214E+02  0.94219461014E+02  0.00000000000E+00 0.  1.
        -15    1    3    3    0    0  0.33709970159E+03  0.17955728387E+03  0.21448665444E+03  0.43804646976E+03  0.17770000000E+01 0. -1.
         15    1    3    3    0    0  0.16625189815E+02 -0.45185542382E+01  0.50738753841E+02  0.53613367168E+02  0.17770000000E+01 0. -1.
</event>
<event>
 7    1  0.1270595E-008  0.5025278E+03  0.7546771E-02  0.9394171E-01
        -11   -1    0    0    0    0  0.00000000000E+00  0.00000000000E+00  0.50000000000E+03  0.50000000000E+03  0.00000000000E+00 0. -1.
         11   -1    0    0    0    0 -0.00000000000E+00 -0.00000000000E+00 -0.50000000000E+03  0.50000000000E+03  0.00000000000E+00 0.  1.
         25    2    1    2    0    0 -0.20735265133E+03 -0.31367925771E+03 -0.30077382060E+03  0.49747220363E+03  0.12499561393E+03 0.  0.
        -11    1    1    2    0    0  0.67292411668E+02  0.15095119654E+03  0.50575698396E+02  0.17283643618E+03  0.00000000000E+00 0.  1.
         11    1    1    2    0    0  0.14006023966E+03  0.16272806117E+03  0.25019812220E+03  0.32969136018E+03  0.00000000000E+00 0. -1.
        -15    1    3    3    0    0 -0.10162607770E+03 -0.25319169455E+03 -0.18683395092E+03  0.33067200789E+03  0.17770000000E+01 0. -1.
         15    1    3    3    0    0 -0.10572657363E+03 -0.60487563152E+02 -0.11393986968E+03  0.16680019574E+03  0.17770000000E+01 0. -1.
</event>
<event>
 8    1  0.1270595E-008  0.5049825E+03  0.7546771E-02  0.9388729E-01
        -11   -1    0    0    0    0  0.00000000000E+00  0.00000000000E+00  0.50000000000E+03  0.50000000000E+03  0.00000000000E+00 0. -1.
         11   -1    0    0    0    0 -0.00000000000E+00 -0.00000000000E+00 -0.50000000000E+03  0.50000000000E+03  0.00000000000E+00 0.  1.
         25    2    1    2    0    0  0.32277951915E+03 -0.34360838951E+03  0.13087331932E+03  0.50498254222E+03  0.12500479558E+03 0.  0.
         23    2    1    2    0    0 -0.32277951915E+03  0.34360838951E+03 -0.13087331932E+03  0.49501745778E+03  0.75240377929E+02 0.  0.
        -11    1    4    4    0    0 -0.19912379738E+02  0.55627130669E+02 -0.22928651292E+02  0.63376680122E+02  0.00000000000E+00 0. -1.
         11    1    4    4    0    0 -0.30286713941E+03  0.28798125884E+03 -0.10794466803E+03  0.43164077765E+03  0.00000000000E+00 0.  1.
        -15    1    3    3    0    0 -0.19416550443E+01  0.49860731437E+01  0.13056742058E+02  0.14222067074E+02  0.17770000000E+01 0.  1.
         15    1    3    3    0    0  0.32472117420E+03 -0.34859446265E+03  0.11781657726E+03  0.49076047515E+03  0.17770000000E+01 0.  1.
</event>
<event>
 8    1  0.1270595E-008  0.5010907E+03  0.7546771E-02  0.9397372E-01
        -11   -1    0    0    0    0  0.00000000000E+00  0.00000000000E+00  0.50000000000E+03  0.50000000000E+03  0.00000000000E+00 0.  1.
         11   -1    0    0    0    0 -0.00000000000E+00 -0.00000000000E+00 -0.50000000000E+03  0.50000000000E+03  0.00000000000E+00 0. -1.
         25    2    1    2    0    0  0.35441096468E+03  0.23168664121E+03  0.23702937953E+03  0.50109074641E+03  0.12499271090E+03 0.  0.
         23    2    1    2    0    0 -0.35441096468E+03 -0.23168664121E+03 -0.23702937953E+03  0.49890925359E+03  0.11593828078E+03 0.  0.
        -11    1    4    4    0    0 -0.31546762081E+03 -0.19940403885E+03 -0.15843204277E+03  0.40544112108E+03  0.00000000000E+00 0.  1.
         11    1    4    4    0    0 -0.38943343873E+02 -0.32282602359E+02 -0.78597336766E+02  0.93468132504E+02  0.00000000000E+00 0. -1.
        -15    1    3    3    0    0  0.94372351929E+02  0.29300332552E+02  0.11014560239E+03  0.14798601877E+03  0.17770000000E+01 0.  1.
         15    1    3    3    0    0  0.26003861275E+03  0.20238630866E+03  0.12688377715E+03  0.35310472765E+03  0.17770000000E+01 0.  1.
</event>
<event>
 8    1  0.1270595E-008  0.5011173E+03  0.7546771E-02  0.9397313E-01
        -11   -1    0    0    0    0  0.00000000000E+00  0.00000000000E+00  0.50000000000E+03  0.50000000000E+03  0.00000000000E+00 0.  1.
         11   -1    0    0    0    0 -0.00000000000E+00 -0.00000000000E+00 -0.50000000000E+03  0.50000000000E+03  0.00000000000E+00 0. -1.
         25    2    1    2    0    0 -0.48171444527E+03 -0.39071732921E+02  0.43811055858E+02  0.50111725829E+03  0.12499476326E+03 0.  0.
         23    2    1    2    0    0  0.48171444527E+03  0.39071732921E+02 -0.43811055858E+02  0.49888274171E+03  0.11571159950E+03 0.  0.
        -11    1    4    4    0    0  0.11971826624E+03 -0.36985994650E+02  0.70651082424E+01  0.12550036983E+03  0.00000000000E+00 0.  1.
         11    1    4    4    0    0  0.36199617903E+03  0.76057727572E+02 -0.50876164100E+02  0.37338237188E+03  0.00000000000E+00 0. -1.
        -15    1    3    3    0    0 -0.12983355710E+03  0.24863160746E+02  0.55256498762E+02  0.14328770951E+03  0.17770000000E+01 0.  1.
         15    1    3    3    0    0 -0.35188088818E+03 -0.63934893667E+02 -0.11445442904E+02  0.35782954879E+03  0.17770000000E+01 0.  1.
</event>
<event>
 7    1  0.1270595E-008  0.5004872E+03  0.7546771E-02  0.9398720E-01
        -11   -1    0    0    0    0  0.00000000000E+00  0.00000000000E+00  0.50000000000E+03  0.50000000000E+03  0.00000000000E+00 0.  1.
         11   -1    0    0    0    0 -0.00000000000E+00 -0.00000000000E+00 -0.50000000000E+03  0.50000000000E+03  0.00000000000E+00 0. -1.
         25    2    1    2    0    0 -0.34585853865E+03 -0.11815114428E+03  0.31671757944E+03  0.49951280807E+03  0.12500079457E+03 0.  0.
        -11    1    1    2    0    0  0.20785415463E+03  0.94565522474E+01 -0.13668442997E+03  0.24894860790E+03  0.00000000000E+00 0. -1.
         11    1    1    2    0    0  0.13800438402E+03  0.10869459204E+03 -0.18003314947E+03  0.25153858403E+03  0.00000000000E+00 0.  1.
        -15    1    3    3    0    0 -0.24013030598E+03 -0.13597896579E+03  0.25524700351E+03  0.37590827807E+03  0.17770000000E+01 0.  1.
         15    1    3    3    0    0 -0.10572823268E+03  0.17827821502E+02  0.61470575927E+02  0.12360453001E+03  0.17770000000E+01 0.  1.
</event>
<event>
 8    1  0.1270595E-008  0.5018689E+03  0.7546771E-02  0.9395637E-01
        -11   -1    0    0    0    0  0.00000000000E+00  0.00000000000E+00  0.50000000000E+03  0.50000000000E+03  0.00000000000E+00 0. -1.
         11   -1    0    0    0    0 -0.00000000000E+00 -0.00000000000E+00 -0.50000000000E+03  0.50000000000E+03  0.00000000000E+00 0. -1.
         25    2    1    2    0    0 -0.86629482228E+02 -0.17167804439E+03 -0.44639754198E+03  0.50186894491E+03  0.12499461695E+03 0.  0.
         23    2    1    2    0    0  0.86629482228E+02  0.17167804439E+03  0.44639754198E+03  0.49813105509E+03  0.10902185303E+03 0.  0.
        -11    1    4    4    0    0 -0.10738289360E+02  0.18808159725E+02  0.14367944332E+03  0.14530258141E+03  0.00000000000E+00 0. -1.
         11    1    4    4    0    0  0.97367771588E+02  0.15286988467E+03  0.30271809866E+03  0.35282847368E+03  0.00000000000E+00 0. -1.
        -15    1    3    3    0    0 -0.10118370237E+03 -0.17982143445E+03 -0.36995418445E+03  0.42360730192E+03  0.17770000000E+01 0.  1.
         15    1    3    3    0    0  0.14554220145E+02  0.81433900578E+01 -0.76443357528E+02  0.78261642998E+02  0.17770000000E+01 0.  1.
</event>
<event>
 7    1  0.1270595E-008  0.4603625E+03  0.7546771E-02  0.9493149E-01
        -11   -1    0    0    0    0  0.00000000000E+00  0.00000000000E+00  0.50000000000E+03  0.50000000000E+03  0.00000000000E+00 0.  1.
         11   -1    0    0    0    0 -0.00000000000E+00 -0.00000000000E+00 -0.50000000000E+03  0.50000000000E+03  0.00000000000E+00 0. -1.
         25    2    1    2    0    0  0.44339106049E+03  0.84305073672E+02 -0.59164319288E+02  0.47204920118E+03  0.12500821450E+03 0.  0.
        -11    1    1    2    0    0 -0.11426442252E+02 -0.91196221360E+02  0.77392382815E-01  0.91909305092E+02  0.00000000000E+00 0.  1.
         11    1    1    2    0    0 -0.43196461823E+03  0.68911476878E+01  0.59086926905E+02  0.43604149373E+03  0.00000000000E+00 0. -1.
        -15    1    3    3    0    0  0.24432751668E+03  0.23892976241E+02 -0.90534720463E+02  0.26166104613E+03  0.17770000000E+01 0. -1.
         15    1    3    3    0    0  0.19906354380E+03  0.60412097431E+02  0.31370401175E+02  0.21038815505E+03  0.17770000000E+01 0. -1.
</event>
<event>
 8    1  0.1270595E-008  0.5003331E+03  0.7546771E-02  0.9399065E-01
        -11   -1    0    0    0    0  0.00000000000E+00  0.00000000000E+00  0.50000000000E+03  0.50000000000E+03  0.00000000000E+00 0.  1.
         11   -1    0    0    0    0 -0.00000000000E+00 -0.00000000000E+00 -0.50000000000E+03  0.50000000000E+03  0.00000000000E+00 0. -1.
         25    2    1    2    0    0 -0.44049835045E+03 -0.18717334824E+03  0.75064191235E+02  0.50033307692E+03  0.12500358400E+03 0.  0.
         23    2    1    2    0    0  0.44049835045E+03  0.18717334824E+03 -0.75064191235E+02  0.49966692308E+03  0.12231002479E+03 0.  0.
        -11    1    4    4    0    0  0.96176977122E+02 -0.10764790951E+02 -0.17752015917E+02  0.98392203561E+02  0.00000000000E+00 0.  1.
         11    1    4    4    0    0  0.34432137333E+03  0.19793813920E+03 -0.57312175319E+02  0.40127471951E+03  0.00000000000E+00 0. -1.
        -15    1    3    3    0    0 -0.99516025162E+02 -0.68489064395E+02  0.69201143563E+02  0.13923414526E+03  0.17770000000E+01 0. -1.
         15    1    3    3    0    0 -0.34098232529E+03 -0.11868428385E+03  0.58630476723E+01  0.36109893167E+03  0.17770000000E+01 0. -1.
</event>
<event>
 8    1  0.1270595E-008  0.5015755E+03  0.7546771E-02  0.9396291E-01
        -11   -1    0    0    0    0  0.00000000000E+00  0.00000000000E+00  0.50000000000E+03  0.50000000000E+03  0.00000000000E+00 0. -1.
         11   -1    0    0    0    0 -0.00000000000E+00 -0.00000000000E+00 -0.50000000000E+03  0.50000000000E+03  0.00000000000E+00 0.  1.
         25    2    1    2    0    0 -0.38293702087E+03  0.14720151323E+03  0.26008379876E+03  0.50157551617E+03  0.12500147436E+03 0.  0.
         23    2    1    2    0    0  0.38293702087E+03 -0.14720151323E+03 -0.26008379876E+03  0.49842448383E+03  0.11168856812E+03 0.  0.
        -11    1    4    4    0    0  0.36397594740E+03 -0.15103131101E+03 -0.26899772126E+03  0.47712547745E+03  0.00000000000E+00 0.  1.
         11    1    4    4    0    0  0.18961073472E+02  0.38297977815E+01  0.89139224980E+01  0.21299006375E+02  0.00000000000E+00 0. -1.
        -15    1    3    3    0    0 -0.38720686265E+03  0.14253108445E+03  0.23330693225E+03  0.47400374142E+03  0.17770000000E+01 0.  1.
         15    1    3    3    0    0  0.42698417738E+01  0.46704287756E+01  0.26776866512E+02  0.27571774751E+02  0.17770000000E+01 0.  1.
</event>
<event>
 8    1  0.1270595E-008  0.5022207E+03  0.7546771E-02  0.9394854E-01
        -11   -1    0    0    0    0  0.00000000000E+00  0.00000000000E+00  0.50000000000E+03  0.50000000000E+03  0.00000000000E+00 0.  1.
         11   -1    0    0    0    0 -0.00000000000E+00 -0.00000000000E+00 -0.50000000000E+03  0.50000000000E+03  0.00000000000E+00 0. -1.
         25    2    1    2    0    0 -0.38598738988E+03 -0.10516050801E+03 -0.27668596103E+03  0.50222074984E+03  0.12500225177E+03 0.  0.
         23    2    1    2    0    0  0.38598738988E+03  0.10516050801E+03  0.27668596103E+03  0.49777925016E+03  0.10575473167E+03 0.  0.
        -11    1    4    4    0    0  0.42654690685E+02 -0.61759531595E+01  0.69010003400E+02  0.81363048149E+02  0.00000000000E+00 0.  1.
         11    1    4    4    0    0  0.34333269919E+03  0.11133646117E+03  0.20767595763E+03  0.41641620201E+03  0.00000000000E+00 0. -1.
        -15    1    3    3    0    0 -0.12461100163E+03 -0.86183051045E+02 -0.14158589593E+03  0.20737681566E+03  0.17770000000E+01 0. -1.
         15    1    3    3    0    0 -0.26137638825E+03 -0.18977456961E+02 -0.13510006510E+03  0.29484393418E+03  0.17770000000E+01 0. -1.
</event>
<event>
 7    1  0.1270595E-008  0.5154100E+03  0.7546771E-02  0.9365974E-01
        -11   -1    0    0    0    0  0.00000000000E+00  0.00000000000E+00  0.50000000000E+03  0.50000000000E+03  0.00000000000E+00 0.  1.
         11   -1    0    0    0    0 -0.00000000000E+00 -0.00000000000E+00 -0.50000000000E+03  0.50000000000E+03  0.00000000000E+00 0. -1.
         25    2    1    2    0    0 -0.11954372008E+03 -0.40276373989E+03  0.20662220614E+03  0.48458997625E+03  0.12500151130E+03 0.  0.
        -11    1    1    2    0    0  0.52751827180E+02  0.14746805130E+03  0.31744442921E+02  0.15980391447E+03  0.00000000000E+00 0.  1.
         11    1    1    2    0    0  0.66791892902E+02  0.25529568859E+03 -0.23836664906E+03  0.35560610928E+03  0.00000000000E+00 0. -1.
        -15    1    3    3    0    0 -0.13537233672E+03 -0.30104038598E+03  0.12410630465E+03  0.35264219277E+03  0.17770000000E+01 0.  1.
         15    1    3    3    0    0  0.15828616642E+02 -0.10172335391E+03  0.82515901499E+02  0.13194778348E+03  0.17770000000E+01 0.  1.
</event>
<event>
 7    1  0.1270595E-008  0.5010510E+03  0.7546771E-02  0.9397461E-01
        -11   -1    0    0    0    0  0.00000000000E+00  0.00000000000E+00  0.50000000000E+03  0.50000000000E+03  0.00000000000E+00 0. -1.
         11   -1    0    0    0    0 -0.00000000000E+00 -0.00000000000E+00 -0.50000000000E+03  0.50000000000E+03  0.00000000000E+00 0.  1.
         25    2    1    2    0    0 -0.41811090597E+03 -0.23889622666E+03 -0.37906486904E+02  0.49894897161E+03  0.12500015087E+03 0.  0.
        -11    1    1    2    0    0  0.56840944386E+02 -0.88403070891E+01  0.25235008334E+02  0.62815998231E+02  0.00000000000E+00 0. -1.
         11    1    1    2    0    0  0.36126996158E+03  0.24773653374E+03  0.12671478570E+02  0.43823503016E+03  0.00000000000E+00 0.  1.
        -15    1    3    3    0    0 -0.95749963274E+02 -0.49906291785E+02 -0.61947159311E+02  0.12449619152E+03  0.17770000000E+01 0.  1.
         15    1    3    3    0    0 -0.32236094269E+03 -0.18898993487E+03  0.24040672407E+02  0.37445278009E+03  0.17770000000E+01 0.  1.
</event>
<event>
 8    1  0.1270595E-008  0.5010084E+03  0.7546771E-02  0.9397556E-01
        -11   -1    0    0    0    0  0.00000000000E+00  0.00000000000E+00  0.50000000000E+03  0.50000000000E+03  0.00000000000E+00 0.  1.
         11   -1    0    0    0    0 -0.00000000000E+00 -0.00000000000E+00 -0.50000000000E+03  0.50000000000E+03  0.00000000000E+00 0. -1.
         25    2    1    2    0    0 -0.18384941362E+03 -0.13937028154E+03  0.42680042804E+03  0.50100844916E+03  0.12500471386E+03 0.  0.
         23    2    1    2    0    0  0.18384941362E+03  0.13937028154E+03 -0.42680042804E+03  0.49899155084E+03  0.11665881953E+03 0.  0.
        -11    1    4    4    0    0  0.20944952913E+02 -0.21119291406E+02 -0.44861653982E+02  0.53826420279E+02  0.00000000000E+00 0.  1.
         11    1    4    4    0    0  0.16290446071E+03  0.16048957295E+03 -0.38193877405E+03  0.44516513057E+03  0.00000000000E+00 0. -1.
        -15    1    3    3    0    0 -0.11620821770E+03 -0.13631950514E+03  0.22179121969E+03  0.28509973729E+03  0.17770000000E+01 0.  1.
         15    1    3    3    0    0 -0.67641195926E+02 -0.30507763989E+01  0.20500920835E+03  0.21590871186E+03  0.17770000000E+01 0.  1.
</event>
<event>
 8    1  0.1270595E-008  0.5046938E+03  0.7546771E-02  0.9389368E-01
        -11   -1    0    0    0    0  0.00000000000E+00  0.00000000000E+00  0.50000000000E+03  0.50000000000E+03  0.00000000000E+00 0.  1.
         11   -1    0    0    0    0 -0.00000000000E+00 -0.00000000000E+00 -0.50000000000E+03  0.50000000000E+03  0.00000000000E+00 0. -1.
         25    2    1    2    0    0 -0.18947993320E+03  0.19728725381E+03  0.40529770270E+03  0.50469384139E+03  0.12499896052E+03 0.  0.
         23    2    1    2    0    0  0.18947993320E+03 -0.19728725381E+03 -0.40529770270E+03  0.49530615861E+03  0.78975042526E+02 0.  0.
        -11    1    4    4    0    0  0.16721779307E+03 -0.15197015122E+03 -0.27725887241E+03  0.35767191602E+03  0.00000000000E+00 0.  1.
         11    1    4    4    0    0  0.22262140124E+02 -0.45317102589E+02 -0.12803883029E+03  0.13763424258E+03  0.00000000000E+00 0. -1.
        -15    1    3    3    0    0 -0.17225935090E+03  0.21531035113E+03  0.37291258339E+03  0.46378743391E+03  0.17770000000E+01 0.  1.
         15    1    3    3    0    0 -0.17220582299E+02 -0.18023097319E+02  0.32385119303E+02  0.40906407481E+02  0.17770000000E+01 0.  1.
</event>
<event>
 8    1  0.1270595E-008  0.5010184E+03  0.7546771E-02  0.9397534E-01
        -11   -1    0    0    0    0  0.00000000000E+00  0.00000000000E+00  0.50000000000E+03  0.50000000000E+03  0.00000000000E+00 0.  1.
         11   -1    0    0    0    0 -0.00000000000E+00 -0.00000000000E+00 -0.50000000000E+03  0.50000000000E+03  0.00000000000E+00 0. -1.
         25    2    1    2    0    0  0.14658417189E+03  0.46010665263E+03 -0.47018827193E+02  0.50101840638E+03  0.12499448859E+03 0.  0.
         23    2    1    2    0    0 -0.14658417189E+03 -0.46010665263E+03  0.47018827193E+02  0.49898159362E+03  0.11656247004E+03 0.  0.
        -11    1    4    4    0    0 -0.95847342026E+02 -0.15967262218E+03  0.55019170357E+02  0.19418848666E+03  0.00000000000E+00 0.  1.
         11    1    4    4    0    0 -0.50736829867E+02 -0.30043403045E+03 -0.80003431643E+01  0.30479310696E+03  0.00000000000E+00 0. -1.
        -15    1    3    3    0    0  0.11532752583E+03  0.43978189372E+03 -0.20288107974E+02  0.45510802818E+03  0.17770000000E+01 0. -1.
         15    1    3    3    0    0  0.31256646061E+02  0.20324758908E+02 -0.26730719218E+02  0.45910378202E+02  0.17770000000E+01 0. -1.
</event>
<event>
 7    1  0.1270595E-008  0.4080012E+03  0.7546771E-02  0.9633051E-01
        -11   -1    0    0    0    0  0.00000000000E+00  0.00000000000E+00  0.50000000000E+03  0.50000000000E+03  0.00000000000E+00 0.  1.
         11   -1    0    0    0    0 -0.00000000000E+00 -0.00000000000E+00 -0.50000000000E+03  0.50000000000E+03  0.00000000000E+00 0. -1.
         25    2    1    2    0    0  0.26532884268E+03 -0.22188573218E+03  0.29901987301E+03  0.47399439110E+03  0.12500050174E+03 0.  0.
        -11    1    1    2    0    0  0.18283604228E+02  0.89449651930E+02 -0.15846879070E+03  0.18288763775E+03  0.00000000000E+00 0.  1.
         11    1    1    2    0    0 -0.28361244691E+03  0.13243608025E+03 -0.14055108231E+03  0.34311797115E+03  0.00000000000E+00 0. -1.
        -15    1    3    3    0    0  0.12485267383E+03 -0.18356887402E+03  0.17406358212E+03  0.28211169777E+03  0.17770000000E+01 0.  1.
         15    1    3    3    0    0  0.14047616885E+03 -0.38316858154E+02  0.12495629089E+03  0.19188269332E+03  0.17770000000E+01 0.  1.
</event>
<event>
 8    1  0.1270595E-008  0.5013114E+03  0.7546771E-02  0.9396880E-01
        -11   -1    0    0    0    0  0.00000000000E+00  0.00000000000E+00  0.50000000000E+03  0.50000000000E+03  0.00000000000E+00 0.  1.
         11   -1    0    0    0    0 -0.00000000000E+00 -0.00000000000E+00 -0.50000000000E+03  0.50000000000E+03  0.00000000000E+00 0. -1.
         25    2    1    2    0    0 -0.40518029732E+03 -0.26498892384E+03  0.36004034876E+02  0.50131143897E+03  0.12500666068E+03 0.  0.
         23    2    1    2    0    0  0.40518029732E+03  0.26498892384E+03 -0.36004034876E+02  0.49868856103E+03  0.11403414962E+03 0.  0.
        -11    1    4    4    0    0  0.24457449634E+03  0.11936051895E+03  0.25488511481E+02  0.27333730437E+03  0.00000000000E+00 0.  1.
         11    1    4    4    0    0  0.16060580099E+03  0.14562840489E+03 -0.61492546358E+02  0.22535125666E+03  0.00000000000E+00 0. -1.
        -15    1    3    3    0    0 -0.17894201415E+03 -0.99015985678E+02  0.75378330022E+02  0.21796664932E+03  0.17770000000E+01 0. -1.
         15    1    3    3    0    0 -0.22623828317E+03 -0.16597293816E+03 -0.39374295146E+02  0.28334478965E+03  0.17770000000E+01 0. -1.
</event>
<event>
 8    1  0.1270595E-008  0.5015232E+03  0.7546771E-02  0.9396408E-01
        -11   -1    0    0    0    0  0.00000000000E+00  0.00000000000E+00  0.50000000000E+03  0.50000000000E+03  0.00000000000E+00 0.  1.
         11   -1    0    0    0    0 -0.00000000000E+00 -0.00000000000E+00 -0.50000000000E+03  0.50000000000E+03  0.00000000000E+00 0. -1.
         25    2    1    2    0    0  0.32642739808E+03 -0.29468035643E+03  0.20618060644E+03  0.50152322981E+03  0.12499499545E+03 0.  0.
         23    2    1    2    0    0 -0.32642739808E+03  0.29468035643E+03 -0.20618060644E+03  0.49847677019E+03  0.11214851433E+03 0.  0.
        -11    1    4    4    0    0 -0.17878334352E+03  0.17092818566E+03 -0.54491688589E+02  0.25327706706E+03  0.00000000000E+00 0.  1.
         11    1    4    4    0    0 -0.14764405456E+03  0.12375217076E+03 -0.15168891785E+03  0.24519970313E+03  0.00000000000E+00 0. -1.
        -15    1    3    3    0    0  0.27364024088E+03 -0.19002466120E+03  0.18903452446E+03  0.38304772870E+03  0.17770000000E+01 0. -1.
         15    1    3    3    0    0  0.52787157204E+02 -0.10465569522E+03  0.17146081980E+02  0.11847550112E+03  0.17770000000E+01 0. -1.
</event>
<event>
 8    1  0.1270595E-008  0.5056785E+03  0.7546771E-02  0.9387193E-01
        -11   -1    0    0    0    0  0.00000000000E+00  0.00000000000E+00  0.50000000000E+03  0.50000000000E+03  0.00000000000E+00 0. -1.
         11   -1    0    0    0    0 -0.00000000000E+00 -0.00000000000E+00 -0.50000000000E+03  0.50000000000E+03  0.00000000000E+00 0.  1.
         25    2    1    2    0    0  0.24201756356E+03 -0.34797050728E+03 -0.24582535514E+03  0.50567849223E+03  0.12499862907E+03 0.  0.
         23    2    1    2    0    0 -0.24201756356E+03  0.34797050728E+03  0.24582535514E+03  0.49432150777E+03  0.65327427677E+02 0.  0.
        -11    1    4    4    0    0 -0.45141932449E+02  0.33517363435E+02  0.47703860272E+02  0.73735106983E+02  0.00000000000E+00 0.  1.
         11    1    4    4    0    0 -0.19687563111E+03  0.31445314384E+03  0.19812149487E+03  0.42058640079E+03  0.00000000000E+00 0. -1.
        -15    1    3    3    0    0  0.84794268971E+02 -0.22568505288E+03 -0.11298137978E+03  0.26625506765E+03  0.17770000000E+01 0. -1.
         15    1    3    3    0    0  0.15722329459E+03 -0.12228545439E+03 -0.13284397537E+03  0.23942342458E+03  0.17770000000E+01 0. -1.
</event>
<event>
 8    1  0.1270595E-008  0.5000030E+03  0.7546771E-02  0.9399803E-01
        -11   -1    0    0    0    0  0.00000000000E+00  0.00000000000E+00  0.50000000000E+03  0.50000000000E+03  0.00000000000E+00 0. -1.
         11   -1    0    0    0    0 -0.00000000000E+00 -0.00000000000E+00 -0.50000000000E+03  0.50000000000E+03  0.00000000000E+00 0.  1.
         25    2    1    2    0    0  0.33376590758E+03  0.28220321517E+03  0.20818191067E+03  0.50000296073E+03  0.12499966836E+03 0.  0.
         23    2    1    2    0    0 -0.33376590758E+03 -0.28220321517E+03 -0.20818191067E+03  0.49999703927E+03  0.12497598021E+03 0.  0.
        -11    1    4    4    0    0 -0.17510913875E+03 -0.20249183354E+03 -0.17371152132E+03  0.31912669234E+03  0.00000000000E+00 0.  1.
         11    1    4    4    0    0 -0.15865676883E+03 -0.79711381636E+02 -0.34470389359E+02  0.18087034694E+03  0.00000000000E+00 0. -1.
        -15    1    3    3    0    0  0.23679782756E+02  0.82308105342E+02  0.39299294568E+02  0.94249395748E+02  0.17770000000E+01 0.  1.
         15    1    3    3    0    0  0.31008612482E+03  0.19989510983E+03  0.16888261611E+03  0.40575356498E+03  0.17770000000E+01 0.  1.
</event>
<event>
 8    1  0.1270595E-008  0.5022665E+03  0.7546771E-02  0.9394752E-01
        -11   -1    0    0    0    0  0.00000000000E+00  0.00000000000E+00  0.50000000000E+03  0.50000000000E+03  0.00000000000E+00 0. -1.
         11   -1    0    0    0    0 -0.00000000000E+00 -0.00000000000E+00 -0.50000000000E+03  0.50000000000E+03  0.00000000000E+00 0.  1.
         25    2    1    2    0    0  0.30963823892E+03 -0.29827210061E+03  0.22760625524E+03  0.50226654669E+03  0.12499996601E+03 0.  0.
         23    2    1    2    0    0 -0.30963823892E+03  0.29827210061E+03 -0.22760625524E+03  0.49773345331E+03  0.10531808066E+03 0.  0.
        -11    1    4    4    0    0 -0.16105777048E+03  0.13133146340E+03 -0.16582257460E+03  0.26586591538E+03  0.00000000000E+00 0.  1.
         11    1    4    4    0    0 -0.14858046844E+03  0.16694063721E+03 -0.61783680639E+02  0.23186753793E+03  0.00000000000E+00 0. -1.
        -15    1    3    3    0    0  0.26345364386E+03 -0.24802826314E+03  0.23816278396E+03  0.43318646236E+03  0.17770000000E+01 0.  1.
         15    1    3    3    0    0  0.46184595057E+02 -0.50243837467E+02 -0.10556528719E+02  0.69080084334E+02  0.17770000000E+01 0.  1.
</event>
<event>
 8    1  0.1270595E-008  0.5053697E+03  0.7546771E-02  0.9387874E-01
        -11   -1    0    0    0    0  0.00000000000E+00  0.00000000000E+00  0.50000000000E+03  0.50000000000E+03  0.00000000000E+00 0. -1.
         11   -1    0    0    0    0 -0.00000000000E+00 -0.00000000000E+00 -0.50000000000E+03  0.50000000000E+03  0.00000000000E+00 0.  1.
         25    2    1    2    0    0  0.16792140857E+03 -0.33466429692E+03  0.31555774941E+03  0.50536968111E+03  0.12499612103E+03 0.  0.
         23    2    1    2    0    0 -0.16792140857E+03  0.33466429692E+03 -0.31555774941E+03  0.49463031889E+03  0.69890400353E+02 0.  0.
        -11    1    4    4    0    0 -0.62426775956E+00  0.32018367318E+02 -0.11097009505E+02  0.33892612409E+02  0.00000000000E+00 0. -1.
         11    1    4    4    0    0 -0.16729714082E+03  0.30264592961E+03 -0.30446073991E+03  0.46073770649E+03  0.00000000000E+00 0.  1.
        -15    1    3    3    0    0  0.61088925120E+02 -0.20250472787E+03  0.10923713661E+03  0.23806707317E+03  0.17770000000E+01 0.  1.
         15    1    3    3    0    0  0.10683248346E+03 -0.13215956905E+03  0.20632061281E+03  0.26730260794E+03  0.17770000000E+01 0.  1.
</event>
<event>
 8    1  0.1270595E-008  0.5052793E+03  0.7546771E-02  0.9388074E-01
        -11   -1    0    0    0    0  0.00000000000E+00  0.00000000000E+00  0.50000000000E+03  0.50000000000E+03  0.00000000000E+00 0.  1.
         11   -1    0    0    0    0 -0.00000000000E+00 -0.00000000000E+00 -0.50000000000E+03  0.50000000000E+03  0.00000000000E+00 0. -1.
         25    2    1    2    0    0  0.31683264990E+03  0.13812686394E+03 -0.34672863073E+03  0.50527930116E+03  0.12499788091E+03 0.  0.
         23    2    1    2    0    0 -0.31683264990E+03 -0.13812686394E+03  0.34672863073E+03  0.49472069884E+03  0.71174910637E+02 0.  0.
        -11    1    4    4    0    0 -0.20673335820E+03 -0.52197793684E+02  0.21011055259E+03  0.29934885229E+03  0.00000000000E+00 0.  1.
         11    1    4    4    0    0 -0.11009929170E+03 -0.85929070255E+02  0.13661807814E+03  0.19537184655E+03  0.00000000000E+00 0. -1.
        -15    1    3    3    0    0  0.16705845790E+03  0.11345692936E+03 -0.12822444328E+03  0.23921887208E+03  0.17770000000E+01 0.  1.
         15    1    3    3    0    0  0.14977419200E+03  0.24669934577E+02 -0.21850418745E+03  0.26606042908E+03  0.17770000000E+01 0.  1.
</event>
<event>
 8    1  0.1671707E-008  0.5023956E+03  0.7546771E-02  0.9394465E-01
        -11   -1    0    0    0    0  0.00000000000E+00  0.00000000000E+00  0.50000000000E+03  0.50000000000E+03  0.00000000000E+00 0. -1.
         11   -1    0    0    0    0 -0.00000000000E+00 -0.00000000000E+00 -0.50000000000E+03  0.50000000000E+03  0.00000000000E+00 0.  1.
         25    2    1    2    0    0 -0.43777332733E+03  0.20123550012E+03  0.68071817303E+02  0.50239564251E+03  0.12500558657E+03 0.  0.
         23    2    1    2    0    0  0.43777332733E+03 -0.20123550012E+03 -0.68071817303E+02  0.49760435749E+03  0.10409184241E+03 0.  0.
        -11    1    4    4    0    0  0.19455692936E+03 -0.83809586927E+02 -0.82020378099E+02  0.22716467166E+03  0.00000000000E+00 0.  1.
         11    1    4    4    0    0  0.24321639796E+03 -0.11742591319E+03  0.13948560796E+02  0.27043968584E+03  0.00000000000E+00 0. -1.
        -15    1    3    3    0    0 -0.24194346718E+03  0.42890868373E+02  0.40667799904E+02  0.24906484212E+03  0.17770000000E+01 0.  1.
         15    1    3    3    0    0 -0.19582986015E+03  0.15834463175E+03  0.27404017399E+02  0.25333080039E+03  0.17770000000E+01 0.  1.
</event>
<event>
 7    1  0.1270595E-008  0.5046580E+03  0.7546771E-02  0.9389447E-01
        -11   -1    0    0    0    0  0.00000000000E+00  0.00000000000E+00  0.50000000000E+03  0.50000000000E+03  0.00000000000E+00 0. -1.
         11   -1    0    0    0    0 -0.00000000000E+00 -0.00000000000E+00 -0.50000000000E+03  0.50000000000E+03  0.00000000000E+00 0.  1.
         25    2    1    2    0    0 -0.38717273606E+03 -0.16116236746E+03 -0.23208248925E+03  0.49534197340E+03  0.12500141023E+03 0.  0.
        -11    1    1    2    0    0  0.34039924954E+03  0.11065175277E+03  0.12852737845E+03  0.38030875154E+03  0.00000000000E+00 0.  1.
         11    1    1    2    0    0  0.46773486515E+02  0.50510614689E+02  0.10355511080E+03  0.12434927507E+03  0.00000000000E+00 0. -1.
        -15    1    3    3    0    0 -0.25547950650E+02 -0.43636763340E+02 -0.14484954956E+01  0.50617395878E+02  0.17770000000E+01 0. -1.
         15    1    3    3    0    0 -0.36162478541E+03 -0.11752560412E+03 -0.23063399376E+03  0.44472457752E+03  0.17770000000E+01 0. -1.
</event>
<event>
 8    1  0.1270595E-008  0.5023487E+03  0.7546771E-02  0.9394570E-01
        -11   -1    0    0    0    0  0.00000000000E+00  0.00000000000E+00  0.50000000000E+03  0.50000000000E+03  0.00000000000E+00 0. -1.
         11   -1    0    0    0    0 -0.00000000000E+00 -0.00000000000E+00 -0.50000000000E+03  0.50000000000E+03  0.00000000000E+00 0.  1.
         25    2    1    2    0    0 -0.18351964035E+03  0.43263516585E+03  0.12600119969E+03  0.50234868635E+03  0.12500102095E+03 0.  0.
         23    2    1    2    0    0  0.18351964035E+03 -0.43263516585E+03 -0.12600119969E+03  0.49765131365E+03  0.10453651292E+03 0.  0.
        -11    1    4    4    0    0  0.14273159440E+03 -0.20349433989E+03 -0.70910732568E+02  0.25847743887E+03  0.00000000000E+00 0. -1.
         11    1    4    4    0    0  0.40788045944E+02 -0.22914082595E+03 -0.55090467120E+02  0.23917387478E+03  0.00000000000E+00 0.  1.
        -15    1    3    3    0    0 -0.16968114728E+02  0.79653937768E+02  0.71246167250E+02  0.10822125852E+03  0.17770000000E+01 0. -1.
         15    1    3    3    0    0 -0.16655152562E+03  0.35298122808E+03  0.54755032438E+02  0.39412742783E+03  0.17770000000E+01 0. -1.
</event>
<event>
 7    1  0.1270595E-008  0.5017865E+03  0.7546771E-02  0.9395821E-01
        -11   -1    0    0    0    0  0.00000000000E+00  0.00000000000E+00  0.50000000000E+03  0.50000000000E+03  0.00000000000E+00 0.  1.
         11   -1    0    0    0    0 -0.00000000000E+00 -0.00000000000E+00 -0.50000000000E+03  0.50000000000E+03  0.00000000000E+00 0. -1.
         25    2    1    2    0    0  0.33581435581E+03 -0.29938850420E+03 -0.17375249273E+03  0.49821354713E+03  0.12498820665E+03 0.  0.
        -11    1    1    2    0    0 -0.82646336873E+02  0.16378773983E+03  0.62958780009E+02  0.19396043075E+03  0.00000000000E+00 0. -1.
         11    1    1    2    0    0 -0.25316801894E+03  0.13560076437E+03  0.11079371272E+03  0.30782602211E+03  0.00000000000E+00 0.  1.
        -15    1    3    3    0    0  0.15026032685E+03 -0.69172013766E+02 -0.25304353945E+02  0.16735113197E+03  0.17770000000E+01 0. -1.
         15    1    3    3    0    0  0.18555402896E+03 -0.23021649044E+03 -0.14844813878E+03  0.33086241517E+03  0.17770000000E+01 0. -1.
</event>
<event>
 7    1  0.1270595E-008  0.5033919E+03  0.7546771E-02  0.9392252E-01
        -11   -1    0    0    0    0  0.00000000000E+00  0.00000000000E+00  0.50000000000E+03  0.50000000000E+03  0.00000000000E+00 0. -1.
         11   -1    0    0    0    0 -0.00000000000E+00 -0.00000000000E+00 -0.50000000000E+03  0.50000000000E+03  0.00000000000E+00 0.  1.
         25    2    1    2    0    0 -0.36252648109E+03  0.30175405790E+03 -0.92278015269E+02  0.49660813258E+03  0.12499377702E+03 0.  0.
        -11    1    1    2    0    0  0.16555640844E+03 -0.22197090136E+03  0.15191452026E+02  0.27732793881E+03  0.00000000000E+00 0.  1.
         11    1    1    2    0    0  0.19697007265E+03 -0.79783156532E+02  0.77086563242E+02  0.22606392861E+03  0.00000000000E+00 0. -1.
        -15    1    3    3    0    0 -0.63876972840E+02  0.56447448128E+02  0.31332813410E+02  0.90837684826E+02  0.17770000000E+01 0. -1.
         15    1    3    3    0    0 -0.29864950825E+03  0.24530660977E+03 -0.12361082868E+03  0.40577044776E+03  0.17770000000E+01 0. -1.
</event>
<event>
 8    1  0.1270595E-008  0.5048194E+03  0.7546771E-02  0.9389090E-01
        -11   -1    0    0    0    0  0.00000000000E+00  0.00000000000E+00  0.50000000000E+03  0.50000000000E+03  0.00000000000E+00 0. -1.
         11   -1    0    0    0    0 -0.00000000000E+00 -0.00000000000E+00 -0.50000000000E+03  0.50000000000E+03  0.00000000000E+00 0.  1.
         25    2    1    2    0    0  0.99980856441E+02 -0.47344034634E+03 -0.71246580747E+02  0.50481943082E+03  0.12499859706E+03 0.  0.
         23    2    1    2    0    0 -0.99980856441E+02  0.47344034634E+03  0.71246580747E+02  0.49518056918E+03  0.77367872082E+02 0.  0.
        -11    1    4    4    0    0  0.62347796118E+01  0.89210937480E+02  0.30394673187E+02  0.94452633637E+02  0.00000000000E+00 0.  1.
         11    1    4    4    0    0 -0.10621563605E+03  0.38422940886E+03  0.40851907560E+02  0.40072793554E+03  0.00000000000E+00 0. -1.
        -15    1    3    3    0    0  0.12185838335E+03 -0.39401420258E+03 -0.32353016786E+02  0.41369860146E+03  0.17770000000E+01 0. -1.
         15    1    3    3    0    0 -0.21877526909E+02 -0.79426143762E+02 -0.38893563962E+02  0.91120829360E+02  0.17770000000E+01 0. -1.
</event>
<event>
 8    1  0.1270595E-008  0.5008329E+03  0.7546771E-02  0.9397948E-01
        -11   -1    0    0    0    0  0.00000000000E+00  0.00000000000E+00  0.50000000000E+03  0.50000000000E+03  0.00000000000E+00 0. -1.
         11   -1    0    0    0    0 -0.00000000000E+00 -0.00000000000E+00 -0.50000000000E+03  0.50000000000E+03  0.00000000000E+00 0.  1.
         25    2    1    2    0    0 -0.77095393759E+02  0.31118695775E+03  0.36390264776E+03  0.50083291016E+03  0.12500977736E+03 0.  0.
         23    2    1    2    0    0  0.77095393759E+02 -0.31118695775E+03 -0.36390264776E+03  0.49916708984E+03  0.11815931669E+03 0.  0.
        -11    1    4    4    0    0  0.85498182762E+02 -0.18302528995E+03 -0.15787271263E+03  0.25638250605E+03  0.00000000000E+00 0. -1.
         11    1    4    4    0    0 -0.84027890028E+01 -0.12816166781E+03 -0.20602993513E+03  0.24278458379E+03  0.00000000000E+00 0.  1.
        -15    1    3    3    0    0 -0.29801398687E+02  0.21925336323E+03  0.31869491952E+03  0.38798166207E+03  0.17770000000E+01 0. -1.
         15    1    3    3    0    0 -0.47293995072E+02  0.91933594528E+02  0.45207728242E+02  0.11285124809E+03  0.17770000000E+01 0. -1.
</event>
<event>
 8    1  0.1270595E-008  0.5018422E+03  0.7546771E-02  0.9395697E-01
        -11   -1    0    0    0    0  0.00000000000E+00  0.00000000000E+00  0.50000000000E+03  0.50000000000E+03  0.00000000000E+00 0. -1.
         11   -1    0    0    0    0 -0.00000000000E+00 -0.00000000000E+00 -0.50000000000E+03  0.50000000000E+03  0.00000000000E+00 0.  1.
         25    2    1    2    0    0 -0.20551546404E+03 -0.41386653752E+03  0.15064965978E+03  0.50184219004E+03  0.12501258685E+03 0.  0.
         23    2    1    2    0    0  0.20551546404E+03  0.41386653752E+03 -0.15064965978E+03  0.49815780996E+03  0.10928754180E+03 0.  0.
        -11    1    4    4    0    0  0.13995166588E+03  0.16076392670E+03 -0.75363158816E+02  0.22607767386E+03  0.00000000000E+00 0. -1.
         11    1    4    4    0    0  0.65563798158E+02  0.25310261082E+03 -0.75286500964E+02  0.27208013610E+03  0.00000000000E+00 0.  1.
        -15    1    3    3    0    0 -0.37364429539E+02 -0.11884439645E+03 -0.12280650102E+02  0.12519609922E+03  0.17770000000E+01 0.  1.
         15    1    3    3    0    0 -0.16815103450E+03 -0.29502214107E+03  0.16293030988E+03  0.37664609082E+03  0.17770000000E+01 0.  1.
</event>
<event>
 8    1  0.1271972E-008  0.5020736E+03  0.7546771E-02  0.9395182E-01
        -11   -1    0    0    0    0  0.00000000000E+00  0.00000000000E+00  0.50000000000E+03  0.50000000000E+03  0.00000000000E+00 0.  1.
         11   -1    0    0    0    0 -0.00000000000E+00 -0.00000000000E+00 -0.50000000000E+03  0.50000000000E+03  0.00000000000E+00 0. -1.
         25    2    1    2    0    0 -0.41688331076E+03  0.24805595766E+03  0.33613881819E+02  0.50207361431E+03  0.12499827284E+03 0.  0.
         23    2    1    2    0    0  0.41688331076E+03 -0.24805595766E+03 -0.33613881819E+02  0.49792638569E+03  0.10713234618E+03 0.  0.
        -11    1    4    4    0    0  0.24222164360E+03 -0.11527443731E+03 -0.65722474486E+02  0.27618646632E+03  0.00000000000E+00 0. -1.
         11    1    4    4    0    0  0.17466166716E+03 -0.13278152035E+03  0.32108592667E+02  0.22173991938E+03  0.00000000000E+00 0.  1.
        -15    1    3    3    0    0 -0.15974212418E+03  0.36315274934E+02  0.41025304292E+02  0.16888628942E+03  0.17770000000E+01 0.  1.
         15    1    3    3    0    0 -0.25714118658E+03  0.21174068273E+03 -0.74114224728E+01  0.33318732489E+03  0.17770000000E+01 0.  1.
</event>
<event>
 8    1  0.1270595E-008  0.5020415E+03  0.7546771E-02  0.9395253E-01
        -11   -1    0    0    0    0  0.00000000000E+00  0.00000000000E+00  0.50000000000E+03  0.50000000000E+03  0.00000000000E+00 0. -1.
         11   -1    0    0    0    0 -0.00000000000E+00 -0.00000000000E+00 -0.50000000000E+03  0.50000000000E+03  0.00000000000E+00 0.  1.
         25    2    1    2    0    0 -0.39091846748E+03  0.26686935545E+03 -0.11128321881E+03  0.50204149247E+03  0.12500081711E+03 0.  0.
         23    2    1    2    0    0  0.39091846748E+03 -0.26686935545E+03  0.11128321881E+03  0.49795850753E+03  0.10743472130E+03 0.  0.
        -11    1    4    4    0    0  0.96601843032E+02 -0.11923223472E+03  0.11425060701E+02  0.15387908852E+03  0.00000000000E+00 0.  1.
         11    1    4    4    0    0  0.29431662445E+03 -0.14763712073E+03  0.99858158110E+02  0.34407941901E+03  0.00000000000E+00 0. -1.
        -15    1    3    3    0    0 -0.18447464321E+03  0.15445196343E+03  0.30856264092E+01  0.24062207258E+03  0.17770000000E+01 0. -1.
         15    1    3    3    0    0 -0.20644382427E+03  0.11241739202E+03 -0.11436884522E+03  0.26141941989E+03  0.17770000000E+01 0. -1.
</event>
<event>
 8    1  0.1270595E-008  0.5022001E+03  0.7546771E-02  0.9394900E-01
        -11   -1    0    0    0    0  0.00000000000E+00  0.00000000000E+00  0.50000000000E+03  0.50000000000E+03  0.00000000000E+00 0. -1.
         11   -1    0    0    0    0 -0.00000000000E+00 -0.00000000000E+00 -0.50000000000E+03  0.50000000000E+03  0.00000000000E+00 0.  1.
         25    2    1    2    0    0  0.13060569301E+03  0.41128024915E+03 -0.22443177269E+03  0.50220009756E+03  0.12500410796E+03 0.  0.
         23    2    1    2    0    0 -0.13060569301E+03 -0.41128024915E+03  0.22443177269E+03  0.49779990244E+03  0.10595202635E+03 0.  0.
        -11    1    4    4    0    0 -0.14535349834E+03 -0.36488451678E+03  0.21646173246E+03  0.44846854035E+03  0.00000000000E+00 0. -1.
         11    1    4    4    0    0  0.14747805331E+02 -0.46395732368E+02  0.79700402346E+01  0.49331362087E+02  0.00000000000E+00 0.  1.
        -15    1    3    3    0    0  0.24296177206E+02  0.16787819080E+03 -0.28202783493E+02  0.17196495544E+03  0.17770000000E+01 0.  1.
         15    1    3    3    0    0  0.10630951580E+03  0.24340205835E+03 -0.19622898920E+03  0.33023514212E+03  0.17770000000E+01 0.  1.
</event>
<event>
 8    1  0.1270595E-008  0.5047152E+03  0.7546771E-02  0.9389320E-01
        -11   -1    0    0    0    0  0.00000000000E+00  0.00000000000E+00  0.50000000000E+03  0.50000000000E+03  0.00000000000E+00 0.  1.
         11   -1    0    0    0    0 -0.00000000000E+00 -0.00000000000E+00 -0.50000000000E+03  0.50000000000E+03  0.00000000000E+00 0. -1.
         25    2    1    2    0    0 -0.14768365475E+03 -0.41465454735E+03  0.21298991775E+03  0.50471520236E+03  0.12499549958E+03 0.  0.
         23    2    1    2    0    0  0.14768365475E+03  0.41465454735E+03 -0.21298991775E+03  0.49528479764E+03  0.78698603457E+02 0.  0.
        -11    1    4    4    0    0  0.42409920812E+02  0.86134246527E+02 -0.82057194398E+02  0.12629763640E+03  0.00000000000E+00 0. -1.
         11    1    4    4    0    0  0.10527373394E+03  0.32852030083E+03 -0.13093272335E+03  0.36898716123E+03  0.00000000000E+00 0.  1.
        -15    1    3    3    0    0 -0.14547219373E+03 -0.28039808277E+03  0.10660885177E+03  0.33339743397E+03  0.17770000000E+01 0. -1.
         15    1    3    3    0    0 -0.22114610178E+01 -0.13425646458E+03  0.10638106597E+03  0.17131776840E+03  0.17770000000E+01 0. -1.
</event>
<event>
 8    1  0.1270595E-008  0.5016998E+03  0.7546771E-02  0.9396014E-01
        -11   -1    0    0    0    0  0.00000000000E+00  0.00000000000E+00  0.50000000000E+03  0.50000000000E+03  0.00000000000E+00 0.  1.
         11   -1    0    0    0    0 -0.00000000000E+00 -0.00000000000E+00 -0.50000000000E+03  0.50000000000E+03  0.00000000000E+00 0. -1.
         25    2    1    2    0    0  0.11924221918E+03 -0.46454045583E+03 -0.77852663447E+02  0.50169978899E+03  0.12500039652E+03 0.  0.
         23    2    1    2    0    0 -0.11924221918E+03  0.46454045583E+03  0.77852663447E+02  0.49830021101E+03  0.11056907865E+03 0.  0.
        -11    1    4    4    0    0 -0.62953803536E+02  0.13999778094E+03 -0.19724899200E+02  0.15476314709E+03  0.00000000000E+00 0. -1.
         11    1    4    4    0    0 -0.56288415641E+02  0.32454267488E+03  0.97577562647E+02  0.34353706392E+03  0.00000000000E+00 0.  1.
        -15    1    3    3    0    0  0.86809741420E+02 -0.30252206590E+03 -0.10991329126E+03  0.33337609526E+03  0.17770000000E+01 0. -1.
         15    1    3    3    0    0  0.32432477757E+02 -0.16201838992E+03  0.32060627813E+02  0.16832369373E+03  0.17770000000E+01 0. -1.
</event>
<event>
 7    1  0.1270595E-008  0.5026726E+03  0.7546771E-02  0.9393849E-01
        -11   -1    0    0    0    0  0.00000000000E+00  0.00000000000E+00  0.50000000000E+03  0.50000000000E+03  0.00000000000E+00 0.  1.
         11   -1    0    0    0    0 -0.00000000000E+00 -0.00000000000E+00 -0.50000000000E+03  0.50000000000E+03  0.00000000000E+00 0. -1.
         25    2    1    2    0    0  0.15483527786E+03 -0.23867817608E+03  0.38828854879E+03  0.49732739578E+03  0.12500122584E+03 0.  0.
        -11    1    1    2    0    0 -0.14179118505E+03  0.94302590790E+02 -0.24881820568E+03  0.30150989746E+03  0.00000000000E+00 0. -1.
         11    1    1    2    0    0 -0.13044092808E+02  0.14437558529E+03 -0.13947034311E+03  0.20116270676E+03  0.00000000000E+00 0.  1.
        -15    1    3    3    0    0  0.39371914517E+02 -0.36896353091E+02  0.12467254464E+02  0.55408290778E+02  0.17770000000E+01 0. -1.
         15    1    3    3    0    0  0.11546336334E+03 -0.20178182299E+03  0.37582129433E+03  0.44191910500E+03  0.17770000000E+01 0. -1.
</event>
<event>
 7    1  0.1270595E-008  0.4143915E+03  0.7546771E-02  0.9614809E-01
        -11   -1    0    0    0    0  0.00000000000E+00  0.00000000000E+00  0.50000000000E+03  0.50000000000E+03  0.00000000000E+00 0. -1.
         11   -1    0    0    0    0 -0.00000000000E+00 -0.00000000000E+00 -0.50000000000E+03  0.50000000000E+03  0.00000000000E+00 0.  1.
         25    2    1    2    0    0 -0.25733452582E+03 -0.28417109293E+03 -0.12806888736E+03  0.42308585853E+03  0.12500294212E+03 0.  0.
        -11    1    1    2    0    0  0.21802608483E+03  0.20202326475E+03  0.27441945476E+03  0.40454271754E+03  0.00000000000E+00 0. -1.
         11    1    1    2    0    0  0.39308440995E+02  0.82147828188E+02 -0.14635056740E+03  0.17237142393E+03  0.00000000000E+00 0.  1.
        -15    1    3    3    0    0 -0.13510943551E+03 -0.12831898196E+03  0.15931520123E+01  0.18634917911E+03  0.17770000000E+01 0.  1.
         15    1    3    3    0    0 -0.12222509031E+03 -0.15585211098E+03 -0.12966203937E+03  0.23673667942E+03  0.17770000000E+01 0.  1.
</event>
<event>
 8    1  0.1270595E-008  0.5019306E+03  0.7546771E-02  0.9395500E-01
        -11   -1    0    0    0    0  0.00000000000E+00  0.00000000000E+00  0.50000000000E+03  0.50000000000E+03  0.00000000000E+00 0. -1.
         11   -1    0    0    0    0 -0.00000000000E+00 -0.00000000000E+00 -0.50000000000E+03  0.50000000000E+03  0.00000000000E+00 0.  1.
         25    2    1    2    0    0 -0.32258601231E+03 -0.36204537563E+03 -0.34258466960E+02  0.50193060335E+03  0.12498839411E+03 0.  0.
         23    2    1    2    0    0  0.32258601231E+03  0.36204537563E+03  0.34258466960E+02  0.49806939665E+03  0.10844764622E+03 0.  0.
        -11    1    4    4    0    0  0.20074699458E+03  0.17683169767E+03 -0.24719485872E+02  0.26866309408E+03  0.00000000000E+00 0.  1.
         11    1    4    4    0    0  0.12183901773E+03  0.18521367795E+03  0.58977952832E+02  0.22940630258E+03  0.00000000000E+00 0. -1.
        -15    1    3    3    0    0  0.10959578451E+02 -0.52734795562E+01 -0.20590785398E+01  0.12462723615E+02  0.17770000000E+01 0. -1.
         15    1    3    3    0    0 -0.33354559076E+03 -0.35677189607E+03 -0.32199388420E+02  0.48946787973E+03  0.17770000000E+01 0. -1.
</event>
<event>
 8    1  0.1270595E-008  0.5020189E+03  0.7546771E-02  0.9395304E-01
        -11   -1    0    0    0    0  0.00000000000E+00  0.00000000000E+00  0.50000000000E+03  0.50000000000E+03  0.00000000000E+00 0. -1.
         11   -1    0    0    0    0 -0.00000000000E+00 -0.00000000000E+00 -0.50000000000E+03  0.50000000000E+03  0.00000000000E+00 0.  1.
         25    2    1    2    0    0 -0.28472014494E+03 -0.39219410108E+03  0.38950063513E+02  0.50201888179E+03  0.12499630542E+03 0.  0.
         23    2    1    2    0    0  0.28472014494E+03  0.39219410108E+03 -0.38950063513E+02  0.49798111821E+03  0.10763973614E+03 0.  0.
        -11    1    4    4    0    0  0.51923148111E+02  0.11775658502E+03 -0.49663999933E+02  0.13794614716E+03  0.00000000000E+00 0.  1.
         11    1    4    4    0    0  0.23279699683E+03  0.27443751605E+03  0.10713936420E+02  0.36003497106E+03  0.00000000000E+00 0. -1.
        -15    1    3    3    0    0 -0.16644675259E+03 -0.31921792159E+03  0.10579073445E+02  0.36016618031E+03  0.17770000000E+01 0. -1.
         15    1    3    3    0    0 -0.11827339235E+03 -0.72976179484E+02  0.28370990068E+02  0.14185270148E+03  0.17770000000E+01 0. -1.
</event>
<event>
 7    1  0.1270595E-008  0.5077190E+03  0.7546771E-02  0.9382702E-01
        -11   -1    0    0    0    0  0.00000000000E+00  0.00000000000E+00  0.50000000000E+03  0.50000000000E+03  0.00000000000E+00 0.  1.
         11   -1    0    0    0    0 -0.00000000000E+00 -0.00000000000E+00 -0.50000000000E+03  0.50000000000E+03  0.00000000000E+00 0. -1.
         25    2    1    2    0    0 -0.13024138452E+03 -0.44010084167E+03 -0.12674232187E+03  0.49228102869E+03  0.12500170390E+03 0.  0.
        -11    1    1    2    0    0 -0.27190136544E+02  0.21401329809E+03  0.45366775168E+02  0.22045212536E+03  0.00000000000E+00 0. -1.
         11    1    1    2    0    0  0.15743152106E+03  0.22608754358E+03  0.81375546698E+02  0.28726684595E+03  0.00000000000E+00 0.  1.
        -15    1    3    3    0    0 -0.12146404111E+02 -0.15498185755E+03  0.76934636924E+01  0.15565750356E+03  0.17770000000E+01 0. -1.
         15    1    3    3    0    0 -0.11809498040E+03 -0.28511898412E+03 -0.13443578556E+03  0.33662352513E+03  0.17770000000E+01 0. -1.
</event>
<event>
 7    1  0.1270595E-008  0.5030692E+03  0.7546771E-02  0.9392968E-01
        -11   -1    0    0    0    0  0.00000000000E+00  0.00000000000E+00  0.50000000000E+03  0.50000000000E+03  0.00000000000E+00 0.  1.
         11   -1    0    0    0    0 -0.00000000000E+00 -0.00000000000E+00 -0.50000000000E+03  0.50000000000E+03  0.00000000000E+00 0. -1.
         25    2    1    2    0    0 -0.46941162962E+03  0.71057621601E+02  0.76937389238E+02  0.49693080585E+03  0.12499760129E+03 0.  0.
        -11    1    1    2    0    0  0.36106596132E+03  0.20146949190E+01 -0.23352915644E+02  0.36182598869E+03  0.00000000000E+00 0.  1.
         11    1    1    2    0    0  0.10834566829E+03 -0.73072316520E+02 -0.53584473594E+02  0.14124320547E+03  0.00000000000E+00 0. -1.
        -15    1    3    3    0    0 -0.34152950127E+03 -0.59100908078E+01  0.57794456708E+02  0.34644001842E+03  0.17770000000E+01 0. -1.
         15    1    3    3    0    0 -0.12788212835E+03  0.76967712409E+02  0.19142932529E+02  0.15049078742E+03  0.17770000000E+01 0. -1.
</event>
<event>
 7    1  0.1270595E-008  0.4917298E+03  0.7546771E-02  0.9418507E-01
        -11   -1    0    0    0    0  0.00000000000E+00  0.00000000000E+00  0.50000000000E+03  0.50000000000E+03  0.00000000000E+00 0.  1.
         11   -1    0    0    0    0 -0.00000000000E+00 -0.00000000000E+00 -0.50000000000E+03  0.50000000000E+03  0.00000000000E+00 0. -1.
         25    2    1    2    0    0 -0.31223079097E+03 -0.35064885168E+02 -0.36370765845E+03  0.49661425429E+03  0.12499937496E+03 0.  0.
        -11    1    1    2    0    0  0.28237849438E+03  0.34607424650E+02  0.37565867494E+03  0.47122683284E+03  0.00000000000E+00 0.  1.
         11    1    1    2    0    0  0.29852296599E+02  0.45746051818E+00 -0.11951016487E+02  0.32158912877E+02  0.00000000000E+00 0. -1.
        -15    1    3    3    0    0 -0.24187901161E+02  0.34161599327E+02 -0.45046681257E+02  0.61517726326E+02  0.17770000000E+01 0.  1.
         15    1    3    3    0    0 -0.28804288981E+03 -0.69226484495E+02 -0.31866097720E+03  0.43509652796E+03  0.17770000000E+01 0.  1.
</event>
<event>
 8    1  0.1270595E-008  0.5022936E+03  0.7546771E-02  0.9394692E-01
        -11   -1    0    0    0    0  0.00000000000E+00  0.00000000000E+00  0.50000000000E+03  0.50000000000E+03  0.00000000000E+00 0. -1.
         11   -1    0    0    0    0 -0.00000000000E+00 -0.00000000000E+00 -0.50000000000E+03  0.50000000000E+03  0.00000000000E+00 0.  1.
         25    2    1    2    0    0  0.31074909896E+03  0.31658836559E+03 -0.19970260893E+03  0.50229357334E+03  0.12499802430E+03 0.  0.
         23    2    1    2    0    0 -0.31074909896E+03 -0.31658836559E+03  0.19970260893E+03  0.49770642666E+03  0.10505883776E+03 0.  0.
        -11    1    4    4    0    0 -0.29329382433E+03 -0.28598992566E+03  0.14886835738E+03  0.43585925802E+03  0.00000000000E+00 0.  1.
         11    1    4    4    0    0 -0.17455274629E+02 -0.30598439926E+02  0.50834251545E+02  0.61847168636E+02  0.00000000000E+00 0. -1.
        -15    1    3    3    0    0  0.16714233359E+02  0.69244299261E+02 -0.47123047769E+01  0.71410798359E+02  0.17770000000E+01 0. -1.
         15    1    3    3    0    0  0.29403486560E+03  0.24734406633E+03 -0.19499030415E+03  0.43088277498E+03  0.17770000000E+01 0. -1.
</event>
<event>
 7    1  0.1270595E-008  0.4152045E+03  0.7546771E-02  0.9612513E-01
        -11   -1    0    0    0    0  0.00000000000E+00  0.00000000000E+00  0.50000000000E+03  0.50000000000E+03  0.00000000000E+00 0. -1.
         11   -1    0    0    0    0 -0.00000000000E+00 -0.00000000000E+00 -0.50000000000E+03  0.50000000000E+03  0.00000000000E+00 0.  1.
         25    2    1    2    0    0  0.39754912201E+03  0.79961071888E+02  0.17500026065E+03  0.45900883721E+03  0.12499977592E+03 0.  0.
        -11    1    1    2    0    0 -0.33606234881E+03 -0.15132522193E+03 -0.32260273777E+02  0.36997020197E+03  0.00000000000E+00 0. -1.
         11    1    1    2    0    0 -0.61486773198E+02  0.71364150038E+02 -0.14273998687E+03  0.17102096082E+03  0.00000000000E+00 0.  1.
        -15    1    3    3    0    0  0.46842227803E+02 -0.31273147869E+02  0.20631026750E+02  0.60008341728E+02  0.17770000000E+01 0.  1.
         15    1    3    3    0    0  0.35070689421E+03  0.11123421976E+03  0.15436923390E+03  0.39900049548E+03  0.17770000000E+01 0.  1.
</event>
<event>
 8    1  0.1270595E-008  0.5011169E+03  0.7546771E-02  0.9397314E-01
        -11   -1    0    0    0    0  0.00000000000E+00  0.00000000000E+00  0.50000000000E+03  0.50000000000E+03  0.00000000000E+00 0.  1.
         11   -1    0    0    0    0 -0.00000000000E+00 -0.00000000000E+00 -0.50000000000E+03  0.50000000000E+03  0.00000000000E+00 0. -1.
         25    2    1    2    0    0 -0.40417401941E+02  0.47843512447E+03 -0.70388949938E+02  0.50111692652E+03  0.12501933875E+03 0.  0.
         23    2    1    2    0    0  0.40417401941E+02 -0.47843512447E+03  0.70388949938E+02  0.49888307348E+03  0.11574101273E+03 0.  0.
        -11    1    4    4    0    0  0.42156488340E+02 -0.72118336210E+02  0.36468358262E+02  0.91149136481E+02  0.00000000000E+00 0.  1.
         11    1    4    4    0    0 -0.17390863997E+01 -0.40631678826E+03  0.33920591676E+02  0.40773393700E+03  0.00000000000E+00 0. -1.
        -15    1    3    3    0    0 -0.31226819655E+02  0.22265118185E+02  0.48188983561E+01  0.38694046880E+02  0.17770000000E+01 0.  1.
         15    1    3    3    0    0 -0.91905822852E+01  0.45617000629E+03 -0.75207848294E+02  0.46242287964E+03  0.17770000000E+01 0.  1.
</event>
<event>
 8    1  0.1270595E-008  0.5022840E+03  0.7546771E-02  0.9394714E-01
        -11   -1    0    0    0    0  0.00000000000E+00  0.00000000000E+00  0.50000000000E+03  0.50000000000E+03  0.00000000000E+00 0. -1.
         11   -1    0    0    0    0 -0.00000000000E+00 -0.00000000000E+00 -0.50000000000E+03  0.50000000000E+03  0.00000000000E+00 0.  1.
         25    2    1    2    0    0  0.28842111278E+03  0.23248386934E+03 -0.31532095056E+03  0.50228396583E+03  0.12500557053E+03 0.  0.
         23    2    1    2    0    0 -0.28842111278E+03 -0.23248386934E+03  0.31532095056E+03  0.49771603417E+03  0.10515921740E+03 0.  0.
        -11    1    4    4    0    0 -0.13232165419E+03 -0.82263617836E+02  0.19601552961E+03  0.25039650723E+03  0.00000000000E+00 0.  1.
         11    1    4    4    0    0 -0.15609945859E+03 -0.15022025150E+03  0.11930542095E+03  0.24731952694E+03  0.00000000000E+00 0. -1.
        -15    1    3    3    0    0  0.28681715642E+03  0.23573507713E+03 -0.27564984197E+03  0.46240793777E+03  0.17770000000E+01 0. -1.
         15    1    3    3    0    0  0.16039563647E+01 -0.32512077907E+01 -0.39671108585E+02  0.39876028056E+02  0.17770000000E+01 0. -1.
</event>
<event>
 7    1  0.1270595E-008  0.5019101E+03  0.7546771E-02  0.9395546E-01
        -11   -1    0    0    0    0  0.00000000000E+00  0.00000000000E+00  0.50000000000E+03  0.50000000000E+03  0.00000000000E+00 0.  1.
         11   -1    0    0    0    0 -0.00000000000E+00 -0.00000000000E+00 -0.50000000000E+03  0.50000000000E+03  0.00000000000E+00 0. -1.
         25    2    1    2    0    0  0.13008001915E+03 -0.38042019293E+03  0.26613509436E+03  0.49808994141E+03  0.12500146684E+03 0.  0.
        -11    1    1    2    0    0 -0.73897532576E+02  0.30332545962E+03 -0.13594577995E+03  0.34051201868E+03  0.00000000000E+00 0.  1.
         11    1    1    2    0    0 -0.56182486579E+02  0.77094733304E+02 -0.13018931441E+03  0.16139803991E+03  0.00000000000E+00 0. -1.
        -15    1    3    3    0    0  0.28537193766E+02 -0.15114187881E+03  0.36558068101E+02  0.15810720739E+03  0.17770000000E+01 0. -1.
         15    1    3    3    0    0  0.10154282539E+03 -0.22927831412E+03  0.22957702626E+03  0.33998273402E+03  0.17770000000E+01 0. -1.
</event>
<event>
 8    1  0.1270595E-008  0.5017871E+03  0.7546771E-02  0.9395820E-01
        -11   -1    0    0    0    0  0.00000000000E+00  0.00000000000E+00  0.50000000000E+03  0.50000000000E+03  0.00000000000E+00 0.  1.
         11   -1    0    0    0    0 -0.00000000000E+00 -0.00000000000E+00 -0.50000000000E+03  0.50000000000E+03  0.00000000000E+00 0. -1.
         25    2    1    2    0    0 -0.38795061019E+03  0.27247206691E+03 -0.10685932194E+03  0.50178712362E+03  0.12499879822E+03 0.  0.
         23    2    1    2    0    0  0.38795061019E+03 -0.27247206691E+03  0.10685932194E+03  0.49821287638E+03  0.10977455221E+03 0.  0.
        -11    1    4    4    0    0  0.12454681266E+03 -0.56462952146E+02 -0.12358483226E+02  0.13730515509E+03  0.00000000000E+00 0.  1.
         11    1    4    4    0    0  0.26340379753E+03 -0.21600911476E+03  0.11921780516E+03  0.36090772129E+03  0.00000000000E+00 0. -1.
        -15    1    3    3    0    0 -0.36100038234E+03  0.20401801537E+03 -0.10679563954E+03  0.42819749299E+03  0.17770000000E+01 0. -1.
         15    1    3    3    0    0 -0.26950227848E+02  0.68454051532E+02 -0.63682396845E-01  0.73589630633E+02  0.17770000000E+01 0. -1.
</event>
<event>
 8    1  0.1270595E-008  0.5021824E+03  0.7546771E-02  0.9394940E-01
        -11   -1    0    0    0    0  0.00000000000E+00  0.00000000000E+00  0.50000000000E+03  0.50000000000E+03  0.00000000000E+00 0.  1.
         11   -1    0    0    0    0 -0.00000000000E+00 -0.00000000000E+00 -0.50000000000E+03  0.50000000000E+03  0.00000000000E+00 0. -1.
         25    2    1    2    0    0 -0.35663450492E+03 -0.32500438224E+03  0.61197485132E+02  0.50218239155E+03  0.12500401441E+03 0.  0.
         23    2    1    2    0    0  0.35663450492E+03  0.32500438224E+03 -0.61197485132E+02  0.49781760845E+03  0.10611889803E+03 0.  0.
        -11    1    4    4    0    0  0.25514040248E+03  0.19797334973E+03  0.31376067635E+01  0.32295497636E+03  0.00000000000E+00 0.  1.
         11    1    4    4    0    0  0.10149410244E+03  0.12703103251E+03 -0.64335091896E+02  0.17486263209E+03  0.00000000000E+00 0. -1.
        -15    1    3    3    0    0 -0.29391124454E+03 -0.31400542228E+03  0.76041408292E+02  0.43677073894E+03  0.17770000000E+01 0. -1.
         15    1    3    3    0    0 -0.62723260383E+02 -0.10998959957E+02 -0.14843923160E+02  0.65411652609E+02  0.17770000000E+01 0. -1.
</event>
<event>
 7    1  0.1270595E-008  0.5061665E+03  0.7546771E-02  0.9386117E-01
        -11   -1    0    0    0    0  0.00000000000E+00  0.00000000000E+00  0.50000000000E+03  0.50000000000E+03  0.00000000000E+00 0.  1.
         11   -1    0    0    0    0 -0.00000000000E+00 -0.00000000000E+00 -0.50000000000E+03  0.50000000000E+03  0.00000000000E+00 0. -1.
         25    2    1    2    0    0  0.18490088816E+03  0.40529446403E+03 -0.17261350273E+03  0.49383353838E+03  0.12499680508E+03 0.  0.
        -11    1    1    2    0    0  0.21605300704E+02 -0.38493782191E+02  0.52166212405E+02  0.68336476369E+02  0.00000000000E+00 0.  1.
         11    1    1    2    0    0 -0.20650618887E+03 -0.36680068184E+03  0.12044729033E+03  0.43782998525E+03  0.00000000000E+00 0. -1.
        -15    1    3    3    0    0  0.11479946692E+03  0.12980464185E+03 -0.30294007932E+02  0.17592341316E+03  0.17770000000E+01 0. -1.
         15    1    3    3    0    0  0.70101421240E+02  0.27548982218E+03 -0.14231949480E+03  0.31791012522E+03  0.17770000000E+01 0. -1.
</event>
<event>
 7    1  0.1270595E-008  0.5046633E+03  0.7546771E-02  0.9389435E-01
        -11   -1    0    0    0    0  0.00000000000E+00  0.00000000000E+00  0.50000000000E+03  0.50000000000E+03  0.00000000000E+00 0. -1.
         11   -1    0    0    0    0 -0.00000000000E+00 -0.00000000000E+00 -0.50000000000E+03  0.50000000000E+03  0.00000000000E+00 0.  1.
         25    2    1    2    0    0 -0.37321510420E+03 -0.26585899268E+03  0.14057987818E+03  0.49533669149E+03  0.12500087119E+03 0.  0.
        -11    1    1    2    0    0  0.21178989678E+03  0.80829461742E+02 -0.12440528615E+03  0.25858274785E+03  0.00000000000E+00 0. -1.
         11    1    1    2    0    0  0.16142520741E+03  0.18502953094E+03 -0.16174592033E+02  0.24608056066E+03  0.00000000000E+00 0.  1.
        -15    1    3    3    0    0 -0.15421886546E+03 -0.13608781374E+03  0.12413509780E+03  0.24024161119E+03  0.17770000000E+01 0. -1.
         15    1    3    3    0    0 -0.21899623873E+03 -0.12977117894E+03  0.16444780385E+02  0.25509508030E+03  0.17770000000E+01 0. -1.
</event>
<event>
 8    1  0.1270595E-008  0.5013037E+03  0.7546771E-02  0.9396897E-01
        -11   -1    0    0    0    0  0.00000000000E+00  0.00000000000E+00  0.50000000000E+03  0.50000000000E+03  0.00000000000E+00 0. -1.
         11   -1    0    0    0    0 -0.00000000000E+00 -0.00000000000E+00 -0.50000000000E+03  0.50000000000E+03  0.00000000000E+00 0.  1.
         25    2    1    2    0    0 -0.16228269039E+03  0.36911259823E+03 -0.27037148389E+03  0.50130370061E+03  0.12499951669E+03 0.  0.
         23    2    1    2    0    0  0.16228269039E+03 -0.36911259823E+03  0.27037148389E+03  0.49869629939E+03  0.11409416265E+03 0.  0.
        -11    1    4    4    0    0  0.10633249680E+03 -0.13508527461E+03  0.15654031334E+03  0.23250699128E+03  0.00000000000E+00 0.  1.
         11    1    4    4    0    0  0.55950193587E+02 -0.23402732362E+03  0.11383117055E+03  0.26618930811E+03  0.00000000000E+00 0. -1.
        -15    1    3    3    0    0 -0.78337369564E+02  0.58632910007E+02 -0.87728667150E+02  0.13143073604E+03  0.17770000000E+01 0. -1.
         15    1    3    3    0    0 -0.83945320824E+02  0.31047968822E+03 -0.18264281674E+03  0.36987296458E+03  0.17770000000E+01 0. -1.
</event>
<event>
 7    1  0.1270595E-008  0.5119261E+03  0.7546771E-02  0.9373513E-01
        -11   -1    0    0    0    0  0.00000000000E+00  0.00000000000E+00  0.50000000000E+03  0.50000000000E+03  0.00000000000E+00 0. -1.
         11   -1    0    0    0    0 -0.00000000000E+00 -0.00000000000E+00 -0.50000000000E+03  0.50000000000E+03  0.00000000000E+00 0.  1.
         25    2    1    2    0    0 -0.29176936355E+03  0.17142007920E+03 -0.32875139658E+03  0.48807391724E+03  0.12499785149E+03 0.  0.
        -11    1    1    2    0    0  0.16568839540E+03  0.15189329349E+02  0.12339830966E+03  0.20714850452E+03  0.00000000000E+00 0. -1.
         11    1    1    2    0    0  0.12608096815E+03 -0.18660940854E+03  0.20535308692E+03  0.30477757824E+03  0.00000000000E+00 0.  1.
        -15    1    3    3    0    0 -0.16240807038E+03  0.34347779001E+02 -0.19946540888E+03  0.25951061310E+03  0.17770000000E+01 0.  1.
         15    1    3    3    0    0 -0.12936129318E+03  0.13707230019E+03 -0.12928598771E+03  0.22856330414E+03  0.17770000000E+01 0.  1.
</event>
<event>
 8    1  0.1270595E-008  0.5023671E+03  0.7546771E-02  0.9394529E-01
        -11   -1    0    0    0    0  0.00000000000E+00  0.00000000000E+00  0.50000000000E+03  0.50000000000E+03  0.00000000000E+00 0.  1.
         11   -1    0    0    0    0 -0.00000000000E+00 -0.00000000000E+00 -0.50000000000E+03  0.50000000000E+03  0.00000000000E+00 0. -1.
         25    2    1    2    0    0  0.29263795902E+03 -0.12993254164E+03  0.36637269885E+03  0.50236713056E+03  0.12499735583E+03 0.  0.
         23    2    1    2    0    0 -0.29263795902E+03  0.12993254164E+03 -0.36637269885E+03  0.49763286944E+03  0.10435553578E+03 0.  0.
        -11    1    4    4    0    0 -0.65507218407E+02  0.32876366907E+02 -0.27471453946E+02  0.78273443430E+02  0.00000000000E+00 0.  1.
         11    1    4    4    0    0 -0.22713074061E+03  0.97056174731E+02 -0.33890124491E+03  0.41935942601E+03  0.00000000000E+00 0. -1.
        -15    1    3    3    0    0  0.17012168936E+03 -0.11327979570E+03  0.15137214429E+03  0.25434304610E+03  0.17770000000E+01 0. -1.
         15    1    3    3    0    0  0.12251626966E+03 -0.16652745937E+02  0.21500055456E+03  0.24802408445E+03  0.17770000000E+01 0. -1.
</event>
<event>
 8    1  0.1270595E-008  0.5014673E+03  0.7546771E-02  0.9396533E-01
        -11   -1    0    0    0    0  0.00000000000E+00  0.00000000000E+00  0.50000000000E+03  0.50000000000E+03  0.00000000000E+00 0.  1.
         11   -1    0    0    0    0 -0.00000000000E+00 -0.00000000000E+00 -0.50000000000E+03  0.50000000000E+03  0.00000000000E+00 0. -1.
         25    2    1    2    0    0 -0.37626056314E+03  0.27684898365E+03 -0.13276794601E+03  0.50146729617E+03  0.12499900207E+03 0.  0.
         23    2    1    2    0    0  0.37626056314E+03 -0.27684898365E+03  0.13276794601E+03  0.49853270383E+03  0.11265060223E+03 0.  0.
        -11    1    4    4    0    0  0.18159696621E+03 -0.19706652018E+03  0.97802079624E+02  0.28526815155E+03  0.00000000000E+00 0.  1.
         11    1    4    4    0    0  0.19466359693E+03 -0.79782463470E+02  0.34965866382E+02  0.21326455228E+03  0.00000000000E+00 0. -1.
        -15    1    3    3    0    0 -0.17471366648E+03  0.15190484027E+03 -0.38611713263E+01  0.23155563505E+03  0.17770000000E+01 0.  1.
         15    1    3    3    0    0 -0.20154689666E+03  0.12494414337E+03 -0.12890677468E+03  0.26991166111E+03  0.17770000000E+01 0.  1.
</event>
<event>
 7    1  0.1270595E-008  0.5010704E+03  0.7546771E-02  0.9397418E-01
        -11   -1    0    0    0    0  0.00000000000E+00  0.00000000000E+00  0.50000000000E+03  0.50000000000E+03  0.00000000000E+00 0.  1.
         11   -1    0    0    0    0 -0.00000000000E+00 -0.00000000000E+00 -0.50000000000E+03  0.50000000000E+03  0.00000000000E+00 0. -1.
         25    2    1    2    0    0  0.12851963375E+03 -0.42695849967E+03 -0.18572741047E+03  0.49892958392E+03  0.12500080802E+03 0.  0.
        -11    1    1    2    0    0 -0.13810265467E+02  0.17420590421E+03  0.13040659129E+03  0.21804655362E+03  0.00000000000E+00 0.  1.
         11    1    1    2    0    0 -0.11470936829E+03  0.25275259547E+03  0.55320819180E+02  0.28302386246E+03  0.00000000000E+00 0. -1.
        -15    1    3    3    0    0  0.11962369276E+03 -0.32368666010E+03 -0.87260123061E+02  0.35594995238E+03  0.17770000000E+01 0. -1.
         15    1    3    3    0    0  0.88959409964E+01 -0.10327183958E+03 -0.98467287412E+02  0.14297963154E+03  0.17770000000E+01 0. -1.
</event>
<event>
 8    1  0.1270595E-008  0.5053101E+03  0.7546771E-02  0.9388006E-01
        -11   -1    0    0    0    0  0.00000000000E+00  0.00000000000E+00  0.50000000000E+03  0.50000000000E+03  0.00000000000E+00 0. -1.
         11   -1    0    0    0    0 -0.00000000000E+00 -0.00000000000E+00 -0.50000000000E+03  0.50000000000E+03  0.00000000000E+00 0.  1.
         25    2    1    2    0    0  0.29314673529E+03  0.54019535005E+02  0.38840660055E+03  0.50531013461E+03  0.12500210485E+03 0.  0.
         23    2    1    2    0    0 -0.29314673529E+03 -0.54019535005E+02 -0.38840660055E+03  0.49468986539E+03  0.70747840894E+02 0.  0.
        -11    1    4    4    0    0 -0.20168699848E+02 -0.23026301630E+02 -0.52161553712E+02  0.60479870254E+02  0.00000000000E+00 0.  1.
         11    1    4    4    0    0 -0.27297803544E+03 -0.30993233375E+02 -0.33624504684E+03  0.43420999513E+03  0.00000000000E+00 0. -1.
        -15    1    3    3    0    0  0.54904508833E+02  0.62977201576E+02  0.82077534943E+02  0.11713459130E+03  0.17770000000E+01 0. -1.
         15    1    3    3    0    0  0.23824222646E+03 -0.89576665712E+01  0.30632906561E+03  0.38817554331E+03  0.17770000000E+01 0. -1.
</event>
<event>
 8    1  0.1270595E-008  0.5015317E+03  0.7546771E-02  0.9396389E-01
        -11   -1    0    0    0    0  0.00000000000E+00  0.00000000000E+00  0.50000000000E+03  0.50000000000E+03  0.00000000000E+00 0.  1.
         11   -1    0    0    0    0 -0.00000000000E+00 -0.00000000000E+00 -0.50000000000E+03  0.50000000000E+03  0.00000000000E+00 0. -1.
         25    2    1    2    0    0  0.46774056275E+03  0.80890168243E+02 -0.10289151410E+03  0.50153169225E+03  0.12499168490E+03 0.  0.
         23    2    1    2    0    0 -0.46774056275E+03 -0.80890168243E+02  0.10289151410E+03  0.49846830775E+03  0.11206933921E+03 0.  0.
        -11    1    4    4    0    0 -0.11831336054E+02 -0.25424701702E+02  0.11679150629E+01  0.28067062459E+02  0.00000000000E+00 0. -1.
         11    1    4    4    0    0 -0.45590922670E+03 -0.55465466541E+02  0.10172359904E+03  0.47040124529E+03  0.00000000000E+00 0.  1.
        -15    1    3    3    0    0  0.41536843816E+03  0.86289288251E+02 -0.12806198479E+03  0.44314761690E+03  0.17770000000E+01 0. -1.
         15    1    3    3    0    0  0.52372124592E+02 -0.53991200073E+01  0.25170470684E+02  0.58384075351E+02  0.17770000000E+01 0. -1.
</event>
<event>
 8    1  0.1270595E-008  0.5049605E+03  0.7546771E-02  0.9388778E-01
        -11   -1    0    0    0    0  0.00000000000E+00  0.00000000000E+00  0.50000000000E+03  0.50000000000E+03  0.00000000000E+00 0.  1.
         11   -1    0    0    0    0 -0.00000000000E+00 -0.00000000000E+00 -0.50000000000E+03  0.50000000000E+03  0.00000000000E+00 0. -1.
         25    2    1    2    0    0  0.21750216620E+03  0.31748621061E+03 -0.30208455767E+03  0.50496053542E+03  0.12500150445E+03 0.  0.
         23    2    1    2    0    0 -0.21750216620E+03 -0.31748621061E+03  0.30208455767E+03  0.49503946458E+03  0.75526851397E+02 0.  0.
        -11    1    4    4    0    0 -0.18316208899E+03 -0.20677724630E+03  0.20961831765E+03  0.34676363639E+03  0.00000000000E+00 0. -1.
         11    1    4    4    0    0 -0.34340077210E+02 -0.11070896431E+03  0.92466240018E+02  0.14827582819E+03  0.00000000000E+00 0.  1.
        -15    1    3    3    0    0  0.15827168133E+03  0.29003588741E+03 -0.20800404496E+03  0.39043511822E+03  0.17770000000E+01 0. -1.
         15    1    3    3    0    0  0.59230484873E+02  0.27450323206E+02 -0.94080512709E+02  0.11452541719E+03  0.17770000000E+01 0. -1.
</event>
<event>
 8    1  0.1270595E-008  0.5023877E+03  0.7546771E-02  0.9394483E-01
        -11   -1    0    0    0    0  0.00000000000E+00  0.00000000000E+00  0.50000000000E+03  0.50000000000E+03  0.00000000000E+00 0.  1.
         11   -1    0    0    0    0 -0.00000000000E+00 -0.00000000000E+00 -0.50000000000E+03  0.50000000000E+03  0.00000000000E+00 0. -1.
         25    2    1    2    0    0 -0.41340963352E+03 -0.10499908487E+03  0.23416446316E+03  0.50238769278E+03  0.12501225994E+03 0.  0.
         23    2    1    2    0    0  0.41340963352E+03  0.10499908487E+03 -0.23416446316E+03  0.49761230722E+03  0.10417619490E+03 0.  0.
        -11    1    4    4    0    0  0.12998431030E+03  0.45813777593E+02 -0.13127234621E+03  0.19033457915E+03  0.00000000000E+00 0. -1.
         11    1    4    4    0    0  0.28342532322E+03  0.59185307273E+02 -0.10289211695E+03  0.30727772807E+03  0.00000000000E+00 0.  1.
        -15    1    3    3    0    0 -0.13615552093E+03  0.19129474975E+02  0.45713592469E+02  0.14490394390E+03  0.17770000000E+01 0. -1.
         15    1    3    3    0    0 -0.27725411259E+03 -0.12412855984E+03  0.18845087069E+03  0.35748374888E+03  0.17770000000E+01 0. -1.
</event>
<event>
 8    1  0.1270595E-008  0.5023715E+03  0.7546771E-02  0.9394519E-01
        -11   -1    0    0    0    0  0.00000000000E+00  0.00000000000E+00  0.50000000000E+03  0.50000000000E+03  0.00000000000E+00 0.  1.
         11   -1    0    0    0    0 -0.00000000000E+00 -0.00000000000E+00 -0.50000000000E+03  0.50000000000E+03  0.00000000000E+00 0. -1.
         25    2    1    2    0    0  0.35959207764E+03  0.21249875713E+03 -0.24958082483E+03  0.50237154913E+03  0.12499760465E+03 0.  0.
         23    2    1    2    0    0 -0.35959207764E+03 -0.21249875713E+03  0.24958082483E+03  0.49762845087E+03  0.10431348386E+03 0.  0.
        -11    1    4    4    0    0 -0.14629733978E+03 -0.13032487915E+03  0.15677493482E+03  0.25093000207E+03  0.00000000000E+00 0.  1.
         11    1    4    4    0    0 -0.21329473786E+03 -0.82173877981E+02  0.92805890005E+02  0.24669844880E+03  0.00000000000E+00 0. -1.
        -15    1    3    3    0    0  0.17426132402E+03  0.16550078346E+03 -0.17427511755E+03  0.29687117189E+03  0.17770000000E+01 0.  1.
         15    1    3    3    0    0  0.18533075362E+03  0.46997973668E+02 -0.75305707281E+02  0.20550037723E+03  0.17770000000E+01 0.  1.
</event>
<event>
 8    1  0.1270595E-008  0.5053333E+03  0.7546771E-02  0.9387955E-01
        -11   -1    0    0    0    0  0.00000000000E+00  0.00000000000E+00  0.50000000000E+03  0.50000000000E+03  0.00000000000E+00 0.  1.
         11   -1    0    0    0    0 -0.00000000000E+00 -0.00000000000E+00 -0.50000000000E+03  0.50000000000E+03  0.00000000000E+00 0. -1.
         25    2    1    2    0    0  0.44310162541E+02 -0.37677008831E+03 -0.30954054283E+03  0.50533325404E+03  0.12500903979E+03 0.  0.
         23    2    1    2    0    0 -0.44310162541E+02  0.37677008831E+03  0.30954054283E+03  0.49466674596E+03  0.70432605790E+02 0.  0.
        -11    1    4    4    0    0 -0.22575711883E+02  0.30316668485E+03  0.27710840381E+03  0.41134993500E+03  0.00000000000E+00 0.  1.
         11    1    4    4    0    0 -0.21734450658E+02  0.73603403467E+02  0.32432139021E+02  0.83316810962E+02  0.00000000000E+00 0. -1.
        -15    1    3    3    0    0  0.10804980351E+02 -0.73700859710E+02 -0.54691920605E+01  0.74710334714E+02  0.17770000000E+01 0.  1.
         15    1    3    3    0    0  0.33505182191E+02 -0.30306922860E+03 -0.30407135077E+03  0.43062291932E+03  0.17770000000E+01 0.  1.
</event>
<event>
 8    1  0.1270595E-008  0.5015568E+03  0.7546771E-02  0.9396333E-01
        -11   -1    0    0    0    0  0.00000000000E+00  0.00000000000E+00  0.50000000000E+03  0.50000000000E+03  0.00000000000E+00 0. -1.
         11   -1    0    0    0    0 -0.00000000000E+00 -0.00000000000E+00 -0.50000000000E+03  0.50000000000E+03  0.00000000000E+00 0.  1.
         25    2    1    2    0    0 -0.43492576944E+02 -0.42145802727E+03  0.23751831254E+03  0.50155679180E+03  0.12500317441E+03 0.  0.
         23    2    1    2    0    0  0.43492576944E+02  0.42145802727E+03 -0.23751831254E+03  0.49844320820E+03  0.11185799035E+03 0.  0.
        -11    1    4    4    0    0  0.87441285521E+00  0.56831220633E+02  0.71302572223E+01  0.57283442673E+02  0.00000000000E+00 0. -1.
         11    1    4    4    0    0  0.42618164089E+02  0.36462680664E+03 -0.24464856976E+03  0.44115976552E+03  0.00000000000E+00 0.  1.
        -15    1    3    3    0    0 -0.65720178537E+02 -0.10822951858E+03  0.52512059630E+02  0.13708918518E+03  0.17770000000E+01 0.  1.
         15    1    3    3    0    0  0.22227601593E+02 -0.31322850869E+03  0.18500625291E+03  0.36446760662E+03  0.17770000000E+01 0.  1.
</event>
<event>
 8    1  0.1270595E-008  0.5002917E+03  0.7546771E-02  0.9399157E-01
        -11   -1    0    0    0    0  0.00000000000E+00  0.00000000000E+00  0.50000000000E+03  0.50000000000E+03  0.00000000000E+00 0.  1.
         11   -1    0    0    0    0 -0.00000000000E+00 -0.00000000000E+00 -0.50000000000E+03  0.50000000000E+03  0.00000000000E+00 0. -1.
         25    2    1    2    0    0  0.20037859342E+03  0.25183079281E+03  0.36207537910E+03  0.50029174069E+03  0.12499166672E+03 0.  0.
         23    2    1    2    0    0 -0.20037859342E+03 -0.25183079281E+03 -0.36207537910E+03  0.49970825931E+03  0.12263537566E+03 0.  0.
        -11    1    4    4    0    0 -0.85110252612E+02 -0.15110078186E+03 -0.27053072281E+03  0.32134416653E+03  0.00000000000E+00 0. -1.
         11    1    4    4    0    0 -0.11526834080E+03 -0.10073001095E+03 -0.91544656291E+02  0.17836409278E+03  0.00000000000E+00 0.  1.
        -15    1    3    3    0    0  0.21718992738E+03  0.24022994749E+03  0.34823340654E+03  0.47555394582E+03  0.17770000000E+01 0. -1.
         15    1    3    3    0    0 -0.16811333965E+02  0.11600845320E+02  0.13841972556E+02  0.24737794871E+02  0.17770000000E+01 0. -1.
</event>
<event>
 8    1  0.1270595E-008  0.5000684E+03  0.7546771E-02  0.9399657E-01
        -11   -1    0    0    0    0  0.00000000000E+00  0.00000000000E+00  0.50000000000E+03  0.50000000000E+03  0.00000000000E+00 0.  1.
         11   -1    0    0    0    0 -0.00000000000E+00 -0.00000000000E+00 -0.50000000000E+03  0.50000000000E+03  0.00000000000E+00 0. -1.
         25    2    1    2    0    0 -0.88236031527E+02  0.47598064106E+03  0.98633635269E+01  0.50006837655E+03  0.12501170891E+03 0.  0.
         23    2    1    2    0    0  0.88236031527E+02 -0.47598064106E+03 -0.98633635269E+01  0.49993162345E+03  0.12446354589E+03 0.  0.
        -11    1    4    4    0    0  0.46939983276E+02 -0.22390451716E+03  0.57248305547E+02  0.23582612943E+03  0.00000000000E+00 0. -1.
         11    1    4    4    0    0  0.41296048251E+02 -0.25207612390E+03 -0.67111669073E+02  0.26410549401E+03  0.00000000000E+00 0.  1.
        -15    1    3    3    0    0 -0.12382741877E+02  0.33396014513E+03  0.38909537280E+02  0.33645181029E+03  0.17770000000E+01 0.  1.
         15    1    3    3    0    0 -0.75853289651E+02  0.14202049594E+03 -0.29046173753E+02  0.16361656626E+03  0.17770000000E+01 0.  1.
</event>
<event>
 8    1  0.1270595E-008  0.5021051E+03  0.7546771E-02  0.9395112E-01
        -11   -1    0    0    0    0  0.00000000000E+00  0.00000000000E+00  0.50000000000E+03  0.50000000000E+03  0.00000000000E+00 0.  1.
         11   -1    0    0    0    0 -0.00000000000E+00 -0.00000000000E+00 -0.50000000000E+03  0.50000000000E+03  0.00000000000E+00 0. -1.
         25    2    1    2    0    0 -0.24308094926E+03  0.38357788175E+03  0.17396122145E+03  0.50210506621E+03  0.12500660655E+03 0.  0.
         23    2    1    2    0    0  0.24308094926E+03 -0.38357788175E+03 -0.17396122145E+03  0.49789493379E+03  0.10684811308E+03 0.  0.
        -11    1    4    4    0    0  0.10475110745E+03 -0.78564826442E+02 -0.37091447799E+02  0.13609188795E+03  0.00000000000E+00 0.  1.
         11    1    4    4    0    0  0.13832984181E+03 -0.30501305531E+03 -0.13686977365E+03  0.36180304584E+03  0.00000000000E+00 0. -1.
        -15    1    3    3    0    0 -0.24015327795E+03  0.38949877231E+03  0.18118891597E+03  0.49215391042E+03  0.17770000000E+01 0. -1.
         15    1    3    3    0    0 -0.29276713081E+01 -0.59208905623E+01 -0.72276945231E+01  0.99511557851E+01  0.17770000000E+01 0. -1.
</event>
<event>
 8    1  0.1270595E-008  0.5012980E+03  0.7546771E-02  0.9396910E-01
        -11   -1    0    0    0    0  0.00000000000E+00  0.00000000000E+00  0.50000000000E+03  0.50000000000E+03  0.00000000000E+00 0. -1.
         11   -1    0    0    0    0 -0.00000000000E+00 -0.00000000000E+00 -0.50000000000E+03  0.50000000000E+03  0.00000000000E+00 0.  1.
         25    2    1    2    0    0 -0.19510978958E+03 -0.30454413253E+03 -0.32381987919E+03  0.50129801658E+03  0.12500171447E+03 0.  0.
         23    2    1    2    0    0  0.19510978958E+03  0.30454413253E+03  0.32381987919E+03  0.49870198342E+03  0.11414637732E+03 0.  0.
        -11    1    4    4    0    0  0.12878411192E+03  0.10302147217E+03  0.11530622408E+03  0.20123194707E+03  0.00000000000E+00 0. -1.
         11    1    4    4    0    0  0.66325677670E+02  0.20152266036E+03  0.20851365511E+03  0.29747003635E+03  0.00000000000E+00 0.  1.
        -15    1    3    3    0    0 -0.17692526162E+03 -0.26484119758E+03 -0.32823865962E+03  0.45736985420E+03  0.17770000000E+01 0.  1.
         15    1    3    3    0    0 -0.18184527967E+02 -0.39702934948E+02  0.44187804242E+01  0.43928162383E+02  0.17770000000E+01 0.  1.
</event>
<event>
 8    1  0.1270595E-008  0.5009719E+03  0.7546771E-02  0.9397638E-01
        -11   -1    0    0    0    0  0.00000000000E+00  0.00000000000E+00  0.50000000000E+03  0.50000000000E+03  0.00000000000E+00 0.  1.
         11   -1    0    0    0    0 -0.00000000000E+00 -0.00000000000E+00 -0.50000000000E+03  0.50000000000E+03  0.00000000000E+00 0. -1.
         25    2    1    2    0    0 -0.44277601006E+03 -0.16789401561E+02 -0.19752291693E+03  0.50097186928E+03  0.12500012802E+03 0.  0.
         23    2    1    2    0    0  0.44277601006E+03  0.16789401561E+02  0.19752291693E+03  0.49902813072E+03  0.11696706140E+03 0.  0.
        -11    1    4    4    0    0  0.22138882855E+03 -0.47043771402E+02  0.77484615484E+02  0.23922791533E+03  0.00000000000E+00 0. -1.
         11    1    4    4    0    0  0.22138718150E+03  0.63833172963E+02  0.12003830145E+03  0.25980021539E+03  0.00000000000E+00 0.  1.
        -15    1    3    3    0    0 -0.40995425131E+03  0.38178788538E+01 -0.14329783733E+03  0.43429770007E+03  0.17770000000E+01 0.  1.
         15    1    3    3    0    0 -0.32821758742E+02 -0.20607280415E+02 -0.54225079602E+02  0.66674169210E+02  0.17770000000E+01 0.  1.
</event>
