<event>
 6    1  0.4834149E-006  0.3488792E+03  0.7546771E-02  0.9820812E-01
        -11   -1    0    0    0    0  0.00000000000E+00  0.00000000000E+00  0.18250000000E+03  0.18250000000E+03  0.00000000000E+00 0. -1.
         11   -1    0    0    0    0 -0.00000000000E+00 -0.00000000000E+00 -0.18250000000E+03  0.18250000000E+03  0.00000000000E+00 0.  1.
        -11    1    1    2    0    0 -0.28818211396E-01  0.12855149838E+02 -0.47310860094E+01  0.13698134277E+02  0.00000000000E+00 0.  1.
         11    1    1    2    0    0  0.79214665487E+00  0.15765911385E+01 -0.16601370897E+01  0.24226413472E+01  0.00000000000E+00 0. -1.
        -15    1    1    2    0    0 -0.85165825320E+02 -0.11655188493E+03 -0.10276916082E+03  0.17720670932E+03  0.17770000000E+01 0.  1.
         15    1    1    2    0    0  0.84402496877E+02  0.10212014395E+03  0.10916038392E+03  0.17167251506E+03  0.17770000000E+01 0. -1.
</event>
<event>
 6    1  0.4834149E-006  0.1477353E+03  0.7546771E-02  0.1100082E+00
        -11   -1    0    0    0    0  0.00000000000E+00  0.00000000000E+00  0.18250000000E+03  0.18250000000E+03  0.00000000000E+00 0. -1.
         11   -1    0    0    0    0 -0.00000000000E+00 -0.00000000000E+00 -0.18250000000E+03  0.18250000000E+03  0.00000000000E+00 0.  1.
        -11    1    1    2    0    0 -0.11257816124E+02 -0.67669549465E+01 -0.26836513067E+02  0.29878563164E+02  0.00000000000E+00 0.  1.
         11    1    1    2    0    0  0.15902321826E+02  0.26452977660E+02 -0.17776304754E+02  0.35617985306E+02  0.00000000000E+00 0. -1.
        -15    1    1    2    0    0  0.78933535071E+02  0.26338538697E+02  0.14108558640E+03  0.16380635518E+03  0.17770000000E+01 0. -1.
         15    1    1    2    0    0 -0.83578040773E+02 -0.46024561411E+02 -0.96472768575E+02  0.13569709635E+03  0.17770000000E+01 0.  1.
</event>
<event>
 6    1  0.4834149E-006  0.3650000E+03  0.7546771E-02  0.9765871E-01
        -11   -1    0    0    0    0  0.00000000000E+00  0.00000000000E+00  0.18250000000E+03  0.18250000000E+03  0.00000000000E+00 0.  1.
         11   -1    0    0    0    0 -0.00000000000E+00 -0.00000000000E+00 -0.18250000000E+03  0.18250000000E+03  0.00000000000E+00 0. -1.
        -11    1    1    2    0    0 -0.13091648958E+01 -0.34860633726E+00 -0.10911341775E+02  0.10995127032E+02  0.00000000000E+00 0. -1.
         11    1    1    2    0    0 -0.73937528379E+01 -0.10796692866E+02 -0.12165069016E+03  0.12235246860E+03  0.00000000000E+00 0.  1.
        -15    1    1    2    0    0 -0.46290895851E+02  0.28962769336E+02  0.15895312498E+03  0.16808016753E+03  0.17770000000E+01 0.  1.
         15    1    1    2    0    0  0.54993813585E+02 -0.17817470133E+02 -0.26391093052E+02  0.63572236834E+02  0.17770000000E+01 0. -1.
</event>
<event>
 6    1  0.4834149E-006  0.3650000E+03  0.7546771E-02  0.9765871E-01
        -11   -1    0    0    0    0  0.00000000000E+00  0.00000000000E+00  0.18250000000E+03  0.18250000000E+03  0.00000000000E+00 0. -1.
         11   -1    0    0    0    0 -0.00000000000E+00 -0.00000000000E+00 -0.18250000000E+03  0.18250000000E+03  0.00000000000E+00 0.  1.
        -11    1    1    2    0    0 -0.23573296750E+00 -0.69933194742E+00  0.47955720263E+00  0.88011948919E+00  0.00000000000E+00 0. -1.
         11    1    1    2    0    0  0.12713650313E+01 -0.15029062627E+02  0.42242809728E+00  0.15088655937E+02  0.00000000000E+00 0.  1.
        -15    1    1    2    0    0  0.15246290308E+03 -0.74747948590E+02  0.12968861270E+02  0.17030426221E+03  0.17770000000E+01 0. -1.
         15    1    1    2    0    0 -0.15349853514E+03  0.90476343165E+02 -0.13870846570E+02  0.17872696237E+03  0.17770000000E+01 0.  1.
</event>
<event>
 6    1  0.5444186E-006  0.3650000E+03  0.7546771E-02  0.9765871E-01
        -11   -1    0    0    0    0  0.00000000000E+00  0.00000000000E+00  0.18250000000E+03  0.18250000000E+03  0.00000000000E+00 0. -1.
         11   -1    0    0    0    0 -0.00000000000E+00 -0.00000000000E+00 -0.18250000000E+03  0.18250000000E+03  0.00000000000E+00 0.  1.
        -11    1    1    2    0    0  0.34117248439E+01 -0.95346722710E-01  0.92613712072E+01  0.98702560274E+01  0.00000000000E+00 0.  1.
         11    1    1    2    0    0  0.10833734270E+01  0.34034993195E+00  0.17295189426E+01  0.20690026175E+01  0.00000000000E+00 0. -1.
        -15    1    1    2    0    0  0.58084411515E+02 -0.44622652161E+02  0.15430745020E+03  0.17081840318E+03  0.17770000000E+01 0. -1.
         15    1    1    2    0    0 -0.62579509786E+02  0.44377648952E+02 -0.16529834035E+03  0.18224233818E+03  0.17770000000E+01 0.  1.
</event>
<event>
 6    1  0.4834149E-006  0.3650000E+03  0.7546771E-02  0.9765871E-01
        -11   -1    0    0    0    0  0.00000000000E+00  0.00000000000E+00  0.18250000000E+03  0.18250000000E+03  0.00000000000E+00 0. -1.
         11   -1    0    0    0    0 -0.00000000000E+00 -0.00000000000E+00 -0.18250000000E+03  0.18250000000E+03  0.00000000000E+00 0.  1.
        -11    1    1    2    0    0  0.14465919093E+02 -0.23668393491E+01 -0.64186237023E+01  0.16001983438E+02  0.00000000000E+00 0. -1.
         11    1    1    2    0    0  0.32508249896E+01  0.27099996017E+01 -0.92576753866E+00  0.43323211434E+01  0.00000000000E+00 0.  1.
        -15    1    1    2    0    0 -0.15058961776E+03 -0.34481483412E+02  0.95457729920E+02  0.18160820908E+03  0.17770000000E+01 0. -1.
         15    1    1    2    0    0  0.13287287368E+03  0.34138323160E+02 -0.88113338679E+02  0.16305748634E+03  0.17770000000E+01 0.  1.
</event>
<event>
 6    1  0.4834149E-006  0.3650000E+03  0.7546771E-02  0.9765871E-01
        -11   -1    0    0    0    0  0.00000000000E+00  0.00000000000E+00  0.18250000000E+03  0.18250000000E+03  0.00000000000E+00 0. -1.
         11   -1    0    0    0    0 -0.00000000000E+00 -0.00000000000E+00 -0.18250000000E+03  0.18250000000E+03  0.00000000000E+00 0.  1.
        -11    1    1    2    0    0 -0.78744736112E+01  0.12270475131E+01 -0.67261420459E+02  0.67731910223E+02  0.00000000000E+00 0.  1.
         11    1    1    2    0    0 -0.17122073310E+01 -0.65586079404E+00 -0.15849973014E+02  0.15955671464E+02  0.00000000000E+00 0. -1.
        -15    1    1    2    0    0  0.25309853238E+02 -0.60203893082E+02  0.16576302960E+03  0.17817305387E+03  0.17770000000E+01 0. -1.
         15    1    1    2    0    0 -0.15723172295E+02  0.59632706363E+02 -0.82651636126E+02  0.10313936445E+03  0.17770000000E+01 0.  1.
</event>
<event>
 6    1  0.4834149E-006  0.2966742E+03  0.7546771E-02  0.1002325E+00
        -11   -1    0    0    0    0  0.00000000000E+00  0.00000000000E+00  0.18250000000E+03  0.18250000000E+03  0.00000000000E+00 0. -1.
         11   -1    0    0    0    0 -0.00000000000E+00 -0.00000000000E+00 -0.18250000000E+03  0.18250000000E+03  0.00000000000E+00 0.  1.
        -11    1    1    2    0    0  0.57354465163E+00  0.18364218522E+01 -0.10154782469E+02  0.10335424795E+02  0.00000000000E+00 0.  1.
         11    1    1    2    0    0 -0.63869070967E+01  0.91583372763E+01 -0.56905292059E+02  0.57990343923E+02  0.00000000000E+00 0. -1.
        -15    1    1    2    0    0  0.13744293729E+03 -0.42907837456E+02 -0.33044734547E+01  0.14403374883E+03  0.17770000000E+01 0. -1.
         15    1    1    2    0    0 -0.13162957485E+03  0.31913078327E+02  0.70364547983E+02  0.15264048246E+03  0.17770000000E+01 0.  1.
</event>
<event>
 6    1  0.4834149E-006  0.3364492E+03  0.7546771E-02  0.9865395E-01
        -11   -1    0    0    0    0  0.00000000000E+00  0.00000000000E+00  0.18250000000E+03  0.18250000000E+03  0.00000000000E+00 0. -1.
         11   -1    0    0    0    0 -0.00000000000E+00 -0.00000000000E+00 -0.18250000000E+03  0.18250000000E+03  0.00000000000E+00 0.  1.
        -11    1    1    2    0    0 -0.10971850659E+02 -0.10117505450E+02 -0.22686600146E+02  0.27155611752E+02  0.00000000000E+00 0. -1.
         11    1    1    2    0    0 -0.48631383832E+00 -0.11020869412E+01  0.69415612301E+00  0.13903055414E+01  0.00000000000E+00 0.  1.
        -15    1    1    2    0    0  0.23136950346E+02  0.14318763948E+03  0.10592199368E+03  0.17961248578E+03  0.17770000000E+01 0. -1.
         15    1    1    2    0    0 -0.11678785849E+02 -0.13196804709E+03 -0.83929549661E+02  0.15684159693E+03  0.17770000000E+01 0.  1.
</event>
<event>
 6    1  0.4834149E-006  0.1811994E+03  0.7546771E-02  0.1069495E+00
        -11   -1    0    0    0    0  0.00000000000E+00  0.00000000000E+00  0.18250000000E+03  0.18250000000E+03  0.00000000000E+00 0. -1.
         11   -1    0    0    0    0 -0.00000000000E+00 -0.00000000000E+00 -0.18250000000E+03  0.18250000000E+03  0.00000000000E+00 0.  1.
        -11    1    1    2    0    0  0.35543827041E+00 -0.59905899068E+00  0.12576755576E+01  0.14376911513E+01  0.00000000000E+00 0. -1.
         11    1    1    2    0    0  0.56972042025E-01  0.80640740075E+00  0.82788189526E+00  0.11571201934E+01  0.00000000000E+00 0.  1.
        -15    1    1    2    0    0 -0.29966173867E+02 -0.66715239962E+02 -0.16689927984E+03  0.18222903764E+03  0.17770000000E+01 0.  1.
         15    1    1    2    0    0  0.29553763554E+02  0.66507891552E+02  0.16481372239E+03  0.18017615102E+03  0.17770000000E+01 0. -1.
</event>
<event>
 6    1  0.4834149E-006  0.3650000E+03  0.7546771E-02  0.9765871E-01
        -11   -1    0    0    0    0  0.00000000000E+00  0.00000000000E+00  0.18250000000E+03  0.18250000000E+03  0.00000000000E+00 0.  1.
         11   -1    0    0    0    0 -0.00000000000E+00 -0.00000000000E+00 -0.18250000000E+03  0.18250000000E+03  0.00000000000E+00 0. -1.
        -11    1    1    2    0    0  0.39372810344E+00 -0.43912175772E+00  0.10991031051E+02  0.11006843930E+02  0.00000000000E+00 0.  1.
         11    1    1    2    0    0 -0.64420879264E+00 -0.12011539629E+01  0.12444838267E+02  0.12519256180E+02  0.00000000000E+00 0. -1.
        -15    1    1    2    0    0 -0.13921626948E+03 -0.22345372876E+02  0.83691560791E+02  0.16397536538E+03  0.17770000000E+01 0.  1.
         15    1    1    2    0    0  0.13946675017E+03  0.23985648596E+02 -0.10712743011E+03  0.17749853451E+03  0.17770000000E+01 0. -1.
</event>
<event>
 6    1  0.4834149E-006  0.3650000E+03  0.7546771E-02  0.9765871E-01
        -11   -1    0    0    0    0  0.00000000000E+00  0.00000000000E+00  0.18250000000E+03  0.18250000000E+03  0.00000000000E+00 0. -1.
         11   -1    0    0    0    0 -0.00000000000E+00 -0.00000000000E+00 -0.18250000000E+03  0.18250000000E+03  0.00000000000E+00 0.  1.
        -11    1    1    2    0    0  0.16972010703E+01 -0.76499142269E+00 -0.52768800833E+01  0.55956381909E+01  0.00000000000E+00 0. -1.
         11    1    1    2    0    0  0.92651810210E+01 -0.24929083290E+02 -0.64694038283E+02  0.69947275589E+02  0.00000000000E+00 0.  1.
        -15    1    1    2    0    0 -0.22375587835E+02  0.95310632946E+02  0.15227597250E+03  0.18104119204E+03  0.17770000000E+01 0. -1.
         15    1    1    2    0    0  0.11413205744E+02 -0.69616558234E+02 -0.82305054137E+02  0.10841589418E+03  0.17770000000E+01 0.  1.
</event>
<event>
 6    1  0.4834149E-006  0.3650000E+03  0.7546771E-02  0.9765871E-01
        -11   -1    0    0    0    0  0.00000000000E+00  0.00000000000E+00  0.18250000000E+03  0.18250000000E+03  0.00000000000E+00 0.  1.
         11   -1    0    0    0    0 -0.00000000000E+00 -0.00000000000E+00 -0.18250000000E+03  0.18250000000E+03  0.00000000000E+00 0. -1.
        -11    1    1    2    0    0 -0.40831518447E+01  0.52728990997E+01 -0.26440501603E+02  0.27268584835E+02  0.00000000000E+00 0. -1.
         11    1    1    2    0    0 -0.40864931810E-01  0.94737667563E+00 -0.99571869312E+01  0.10002237954E+02  0.00000000000E+00 0.  1.
        -15    1    1    2    0    0 -0.75744977590E+01  0.50081502922E+02 -0.13644987247E+03  0.14555842599E+03  0.17770000000E+01 0. -1.
         15    1    1    2    0    0  0.11698514536E+02 -0.56301778698E+02  0.17284756100E+03  0.18217075122E+03  0.17770000000E+01 0.  1.
</event>
<event>
 6    1  0.4834149E-006  0.1336617E+03  0.7546771E-02  0.1115742E+00
        -11   -1    0    0    0    0  0.00000000000E+00  0.00000000000E+00  0.18250000000E+03  0.18250000000E+03  0.00000000000E+00 0.  1.
         11   -1    0    0    0    0 -0.00000000000E+00 -0.00000000000E+00 -0.18250000000E+03  0.18250000000E+03  0.00000000000E+00 0. -1.
        -11    1    1    2    0    0 -0.89938206512E+01  0.62084621642E+02  0.27343519813E+02  0.68432865862E+02  0.00000000000E+00 0.  1.
         11    1    1    2    0    0  0.20731238153E+02 -0.17028050095E+01 -0.46968450862E+01  0.21324730573E+02  0.00000000000E+00 0. -1.
        -15    1    1    2    0    0 -0.10462041707E+02  0.99865983719E+02 -0.50768313498E+02  0.11253109973E+03  0.17770000000E+01 0. -1.
         15    1    1    2    0    0 -0.12753757949E+01 -0.16024780035E+03  0.28121638771E+02  0.16271130384E+03  0.17770000000E+01 0.  1.
</event>
<event>
 6    1  0.4834149E-006  0.3650000E+03  0.7546771E-02  0.9765871E-01
        -11   -1    0    0    0    0  0.00000000000E+00  0.00000000000E+00  0.18250000000E+03  0.18250000000E+03  0.00000000000E+00 0.  1.
         11   -1    0    0    0    0 -0.00000000000E+00 -0.00000000000E+00 -0.18250000000E+03  0.18250000000E+03  0.00000000000E+00 0. -1.
        -11    1    1    2    0    0  0.12971649845E+01 -0.12555687780E+01  0.99710174140E+01  0.10133127761E+02  0.00000000000E+00 0.  1.
         11    1    1    2    0    0 -0.12445998885E+01 -0.73507525239E+00  0.15151841171E+02  0.15220632555E+02  0.00000000000E+00 0. -1.
        -15    1    1    2    0    0 -0.11255234702E+03  0.24796107234E+02  0.11206388424E+03  0.16076177915E+03  0.17770000000E+01 0.  1.
         15    1    1    2    0    0  0.11249978193E+03 -0.22805463203E+02 -0.13718674282E+03  0.17888446054E+03  0.17770000000E+01 0. -1.
</event>
<event>
 6    1  0.4834149E-006  0.3487295E+03  0.7546771E-02  0.9821337E-01
        -11   -1    0    0    0    0  0.00000000000E+00  0.00000000000E+00  0.18250000000E+03  0.18250000000E+03  0.00000000000E+00 0. -1.
         11   -1    0    0    0    0 -0.00000000000E+00 -0.00000000000E+00 -0.18250000000E+03  0.18250000000E+03  0.00000000000E+00 0.  1.
        -11    1    1    2    0    0 -0.15925260724E+01  0.10499447185E+00  0.19528689080E+01  0.25220745632E+01  0.00000000000E+00 0.  1.
         11    1    1    2    0    0 -0.77942721483E+01  0.45727858258E+01  0.10361388731E+02  0.13748433546E+02  0.00000000000E+00 0. -1.
        -15    1    1    2    0    0 -0.14678415537E+03 -0.82046372521E+02 -0.38394717792E+02  0.17249494948E+03  0.17770000000E+01 0. -1.
         15    1    1    2    0    0  0.15617095359E+03  0.77368592224E+02  0.26080460153E+02  0.17623454241E+03  0.17770000000E+01 0.  1.
</event>
<event>
 6    1  0.4834149E-006  0.3463173E+03  0.7546771E-02  0.9829836E-01
        -11   -1    0    0    0    0  0.00000000000E+00  0.00000000000E+00  0.18250000000E+03  0.18250000000E+03  0.00000000000E+00 0.  1.
         11   -1    0    0    0    0 -0.00000000000E+00 -0.00000000000E+00 -0.18250000000E+03  0.18250000000E+03  0.00000000000E+00 0. -1.
        -11    1    1    2    0    0  0.13928385801E+02  0.70043315137E+00 -0.67772051435E+00  0.13962444009E+02  0.00000000000E+00 0.  1.
         11    1    1    2    0    0  0.61578907852E+00  0.22553042064E+01  0.40406989403E+01  0.46682803235E+01  0.00000000000E+00 0. -1.
        -15    1    1    2    0    0 -0.10035595253E+02 -0.15565796693E+03  0.76760691315E+02  0.17385475921E+03  0.17770000000E+01 0.  1.
         15    1    1    2    0    0 -0.45085796261E+01  0.15270222957E+03 -0.80123669741E+02  0.17251451646E+03  0.17770000000E+01 0. -1.
</event>
<event>
 6    1  0.4834149E-006  0.3650000E+03  0.7546771E-02  0.9765871E-01
        -11   -1    0    0    0    0  0.00000000000E+00  0.00000000000E+00  0.18250000000E+03  0.18250000000E+03  0.00000000000E+00 0. -1.
         11   -1    0    0    0    0 -0.00000000000E+00 -0.00000000000E+00 -0.18250000000E+03  0.18250000000E+03  0.00000000000E+00 0.  1.
        -11    1    1    2    0    0 -0.42871822183E+00  0.60133862721E+00  0.90955221788E+01  0.91254551209E+01  0.00000000000E+00 0.  1.
         11    1    1    2    0    0  0.11488332004E+01 -0.26371441953E+01  0.23132966540E+02  0.23311123700E+02  0.00000000000E+00 0. -1.
        -15    1    1    2    0    0  0.21377281586E+02  0.12364337473E+03  0.93312092791E+02  0.15638087055E+03  0.17770000000E+01 0. -1.
         15    1    1    2    0    0 -0.22097396564E+02 -0.12160756916E+03 -0.12554058151E+03  0.17618255063E+03  0.17770000000E+01 0.  1.
</event>
<event>
 6    1  0.4834149E-006  0.3564043E+03  0.7546771E-02  0.9794779E-01
        -11   -1    0    0    0    0  0.00000000000E+00  0.00000000000E+00  0.18250000000E+03  0.18250000000E+03  0.00000000000E+00 0. -1.
         11   -1    0    0    0    0 -0.00000000000E+00 -0.00000000000E+00 -0.18250000000E+03  0.18250000000E+03  0.00000000000E+00 0.  1.
        -11    1    1    2    0    0 -0.90295600466E+00  0.33386289313E+01  0.69933645620E-01  0.34592865453E+01  0.00000000000E+00 0. -1.
         11    1    1    2    0    0  0.10321196287E+01 -0.11317476035E+01  0.48977672322E+01  0.51316905038E+01  0.00000000000E+00 0.  1.
        -15    1    1    2    0    0  0.74940499141E+02  0.26449394769E+02  0.15678706175E+03  0.17578677241E+03  0.17770000000E+01 0. -1.
         15    1    1    2    0    0 -0.75069662765E+02 -0.28656276097E+02 -0.16175476263E+03  0.18062225054E+03  0.17770000000E+01 0.  1.
</event>
<event>
 6    1  0.4834149E-006  0.3650000E+03  0.7546771E-02  0.9765871E-01
        -11   -1    0    0    0    0  0.00000000000E+00  0.00000000000E+00  0.18250000000E+03  0.18250000000E+03  0.00000000000E+00 0.  1.
         11   -1    0    0    0    0 -0.00000000000E+00 -0.00000000000E+00 -0.18250000000E+03  0.18250000000E+03  0.00000000000E+00 0. -1.
        -11    1    1    2    0    0 -0.36883590695E+00 -0.34000349750E+00  0.13129832165E+01  0.14055487296E+01  0.00000000000E+00 0. -1.
         11    1    1    2    0    0  0.48554845161E+01 -0.78427043654E+01  0.84217685382E+01  0.12490393387E+02  0.00000000000E+00 0.  1.
        -15    1    1    2    0    0  0.79504520275E+02 -0.14985650829E+03  0.15485668573E+02  0.17035523321E+03  0.17770000000E+01 0.  1.
         15    1    1    2    0    0 -0.83991168884E+02  0.15803921615E+03 -0.25220420328E+02  0.18074882468E+03  0.17770000000E+01 0. -1.
</event>
<event>
 6    1  0.4834149E-006  0.3650000E+03  0.7546771E-02  0.9765871E-01
        -11   -1    0    0    0    0  0.00000000000E+00  0.00000000000E+00  0.18250000000E+03  0.18250000000E+03  0.00000000000E+00 0.  1.
         11   -1    0    0    0    0 -0.00000000000E+00 -0.00000000000E+00 -0.18250000000E+03  0.18250000000E+03  0.00000000000E+00 0. -1.
        -11    1    1    2    0    0 -0.85579013929E-01  0.56195957376E+01 -0.81948766373E+00  0.56796778124E+01  0.00000000000E+00 0. -1.
         11    1    1    2    0    0  0.14929394555E+01  0.12347020339E+02  0.35723947782E+01  0.12939852546E+02  0.00000000000E+00 0.  1.
        -15    1    1    2    0    0  0.72301953326E+02  0.14764501209E+03  0.95200610790E+01  0.16468275970E+03  0.17770000000E+01 0.  1.
         15    1    1    2    0    0 -0.73709313768E+02 -0.16561162817E+03 -0.12272968193E+02  0.18169770994E+03  0.17770000000E+01 0. -1.
</event>
<event>
 6    1  0.4834149E-006  0.2818833E+03  0.7546771E-02  0.1008890E+00
        -11   -1    0    0    0    0  0.00000000000E+00  0.00000000000E+00  0.18250000000E+03  0.18250000000E+03  0.00000000000E+00 0.  1.
         11   -1    0    0    0    0 -0.00000000000E+00 -0.00000000000E+00 -0.18250000000E+03  0.18250000000E+03  0.00000000000E+00 0. -1.
        -11    1    1    2    0    0  0.32556336608E+02 -0.15138341134E+02 -0.35893007091E+02  0.50768025210E+02  0.00000000000E+00 0. -1.
         11    1    1    2    0    0  0.23046009739E+02  0.63464047271E+01 -0.21795379812E+02  0.32348632104E+02  0.00000000000E+00 0.  1.
        -15    1    1    2    0    0 -0.92957373257E+02  0.12320513279E+03  0.19362533568E+02  0.15555913160E+03  0.17770000000E+01 0.  1.
         15    1    1    2    0    0  0.37355026910E+02 -0.11441319639E+03  0.38325853336E+02  0.12632421108E+03  0.17770000000E+01 0. -1.
</event>
