<event>
 6    1  0.1505306E-006  0.9794298E+03  0.7546771E-02  0.8704207E-01
        -11   -1    0    0    0    0  0.00000000000E+00  0.00000000000E+00  0.50000000000E+03  0.50000000000E+03  0.00000000000E+00 0. -1.
         11   -1    0    0    0    0 -0.00000000000E+00 -0.00000000000E+00 -0.50000000000E+03  0.50000000000E+03  0.00000000000E+00 0.  1.
        -11    1    1    2    0    0  0.50092149808E+01 -0.10625075727E+00  0.23883399553E+01  0.55504677001E+01  0.00000000000E+00 0. -1.
         11    1    1    2    0    0 -0.10938127440E+02 -0.75000961867E+00  0.10287093197E+02  0.15034275266E+02  0.00000000000E+00 0.  1.
        -15    1    1    2    0    0  0.23462289294E+03 -0.38265030414E+03 -0.20473066227E+03  0.49334263849E+03  0.17770000000E+01 0. -1.
         15    1    1    2    0    0 -0.22869398048E+03  0.38350656452E+03  0.19205522912E+03  0.48607261854E+03  0.17770000000E+01 0.  1.
</event>
<event>
 6    1  0.1505306E-006  0.9563989E+03  0.7546771E-02  0.8727034E-01
        -11   -1    0    0    0    0  0.00000000000E+00  0.00000000000E+00  0.50000000000E+03  0.50000000000E+03  0.00000000000E+00 0. -1.
         11   -1    0    0    0    0 -0.00000000000E+00 -0.00000000000E+00 -0.50000000000E+03  0.50000000000E+03  0.00000000000E+00 0.  1.
        -11    1    1    2    0    0  0.25362641294E+00  0.93655265976E+00 -0.24509019217E+02  0.24528218040E+02  0.00000000000E+00 0.  1.
         11    1    1    2    0    0 -0.89514700710E+00  0.13646428429E+01 -0.19002893908E+02  0.19072847589E+02  0.00000000000E+00 0. -1.
        -15    1    1    2    0    0 -0.33780076497E+03 -0.33848316608E+03  0.12956477984E+02  0.47838398655E+03  0.17770000000E+01 0. -1.
         15    1    1    2    0    0  0.33844228556E+03  0.33618197058E+03  0.30555435141E+02  0.47801494783E+03  0.17770000000E+01 0.  1.
</event>
<event>
 6    1  0.1505306E-006  0.1000000E+04  0.7546771E-02  0.8684367E-01
        -11   -1    0    0    0    0  0.00000000000E+00  0.00000000000E+00  0.50000000000E+03  0.50000000000E+03  0.00000000000E+00 0. -1.
         11   -1    0    0    0    0 -0.00000000000E+00 -0.00000000000E+00 -0.50000000000E+03  0.50000000000E+03  0.00000000000E+00 0.  1.
        -11    1    1    2    0    0  0.55234553319E+00 -0.32708310898E+00  0.20251493242E+01  0.21244525726E+01  0.00000000000E+00 0. -1.
         11    1    1    2    0    0  0.15542974936E+01  0.38398380546E+00  0.24887640325E+01  0.29592618456E+01  0.00000000000E+00 0.  1.
        -15    1    1    2    0    0  0.17363054837E+03 -0.16532400239E+03 -0.43771163513E+03  0.49907336770E+03  0.17770000000E+01 0.  1.
         15    1    1    2    0    0 -0.17573719139E+03  0.16526710169E+03  0.43319772177E+03  0.49584291788E+03  0.17770000000E+01 0. -1.
</event>
<event>
 6    1  0.1505306E-006  0.9871407E+03  0.7546771E-02  0.8696711E-01
        -11   -1    0    0    0    0  0.00000000000E+00  0.00000000000E+00  0.50000000000E+03  0.50000000000E+03  0.00000000000E+00 0. -1.
         11   -1    0    0    0    0 -0.00000000000E+00 -0.00000000000E+00 -0.50000000000E+03  0.50000000000E+03  0.00000000000E+00 0.  1.
        -11    1    1    2    0    0 -0.73476845796E+01 -0.31693036513E+01 -0.48870762310E+00  0.80169688447E+01  0.00000000000E+00 0.  1.
         11    1    1    2    0    0 -0.29515785736E+01 -0.37882242357E+01 -0.62111268726E+00  0.48423382685E+01  0.00000000000E+00 0. -1.
        -15    1    1    2    0    0  0.10820023129E+03 -0.30437858325E+03 -0.37116584026E+03  0.49205777171E+03  0.17770000000E+01 0.  1.
         15    1    1    2    0    0 -0.97900968136E+02  0.31133611114E+03  0.37227566057E+03  0.49508292118E+03  0.17770000000E+01 0. -1.
</event>
<event>
 6    1  0.1505306E-006  0.1000000E+04  0.7546771E-02  0.8684367E-01
        -11   -1    0    0    0    0  0.00000000000E+00  0.00000000000E+00  0.50000000000E+03  0.50000000000E+03  0.00000000000E+00 0. -1.
         11   -1    0    0    0    0 -0.00000000000E+00 -0.00000000000E+00 -0.50000000000E+03  0.50000000000E+03  0.00000000000E+00 0.  1.
        -11    1    1    2    0    0  0.31772322549E+01  0.68665101951E+01  0.12459544987E+02  0.14576831903E+02  0.00000000000E+00 0.  1.
         11    1    1    2    0    0  0.31190615339E-01  0.28448621348E+01  0.87702010801E+01  0.92201214963E+01  0.00000000000E+00 0. -1.
        -15    1    1    2    0    0 -0.30303205822E+03  0.27946106977E+03  0.24718691983E+03  0.48065730921E+03  0.17770000000E+01 0. -1.
         15    1    1    2    0    0  0.29982363535E+03 -0.28917244210E+03 -0.26841666590E+03  0.49554573739E+03  0.17770000000E+01 0.  1.
</event>
<event>
 6    1  0.1505306E-006  0.9879957E+03  0.7546771E-02  0.8695884E-01
        -11   -1    0    0    0    0  0.00000000000E+00  0.00000000000E+00  0.50000000000E+03  0.50000000000E+03  0.00000000000E+00 0.  1.
         11   -1    0    0    0    0 -0.00000000000E+00 -0.00000000000E+00 -0.50000000000E+03  0.50000000000E+03  0.00000000000E+00 0. -1.
        -11    1    1    2    0    0  0.19695124006E+01  0.14805734524E+00  0.87347417791E+01  0.89552562231E+01  0.00000000000E+00 0. -1.
         11    1    1    2    0    0  0.40575480096E+00 -0.44830674551E+00  0.29884653336E+01  0.30490229495E+01  0.00000000000E+00 0.  1.
        -15    1    1    2    0    0 -0.29106126350E+03 -0.35901169793E+03  0.17013059047E+03  0.49249734406E+03  0.17770000000E+01 0.  1.
         15    1    1    2    0    0  0.28868599630E+03  0.35931194733E+03 -0.18185379759E+03  0.49549837677E+03  0.17770000000E+01 0. -1.
</event>
<event>
 6    1  0.1505306E-006  0.1000000E+04  0.7546771E-02  0.8684367E-01
        -11   -1    0    0    0    0  0.00000000000E+00  0.00000000000E+00  0.50000000000E+03  0.50000000000E+03  0.00000000000E+00 0.  1.
         11   -1    0    0    0    0 -0.00000000000E+00 -0.00000000000E+00 -0.50000000000E+03  0.50000000000E+03  0.00000000000E+00 0. -1.
        -11    1    1    2    0    0  0.87692974198E+01  0.63153404896E+01 -0.57889050550E+01  0.12259507513E+02  0.00000000000E+00 0. -1.
         11    1    1    2    0    0  0.87164941327E+00  0.35744805936E+00  0.44219062922E+00  0.10407085891E+01  0.00000000000E+00 0.  1.
        -15    1    1    2    0    0 -0.46508650732E+03 -0.16791386008E+03  0.69415711446E+02  0.49932176242E+03  0.17770000000E+01 0.  1.
         15    1    1    2    0    0  0.45544556049E+03  0.16124107153E+03 -0.64068997020E+02  0.48737802148E+03  0.17770000000E+01 0. -1.
</event>
<event>
 6    1  0.1505306E-006  0.1000000E+04  0.7546771E-02  0.8684367E-01
        -11   -1    0    0    0    0  0.00000000000E+00  0.00000000000E+00  0.50000000000E+03  0.50000000000E+03  0.00000000000E+00 0.  1.
         11   -1    0    0    0    0 -0.00000000000E+00 -0.00000000000E+00 -0.50000000000E+03  0.50000000000E+03  0.00000000000E+00 0. -1.
        -11    1    1    2    0    0 -0.92534233271E+00 -0.14321950015E+01 -0.24781763187E+02  0.24840354820E+02  0.00000000000E+00 0. -1.
         11    1    1    2    0    0  0.48903496743E+00 -0.19719056323E+01 -0.21175729390E+02  0.21272965995E+02  0.00000000000E+00 0.  1.
        -15    1    1    2    0    0 -0.26871399717E+03 -0.15013246503E+03  0.38608455358E+03  0.49377262943E+03  0.17770000000E+01 0.  1.
         15    1    1    2    0    0  0.26915030453E+03  0.15353656566E+03 -0.34012706100E+03  0.46011404976E+03  0.17770000000E+01 0. -1.
</event>
<event>
 6    1  0.1505306E-006  0.1000000E+04  0.7546771E-02  0.8684367E-01
        -11   -1    0    0    0    0  0.00000000000E+00  0.00000000000E+00  0.50000000000E+03  0.50000000000E+03  0.00000000000E+00 0. -1.
         11   -1    0    0    0    0 -0.00000000000E+00 -0.00000000000E+00 -0.50000000000E+03  0.50000000000E+03  0.00000000000E+00 0.  1.
        -11    1    1    2    0    0 -0.43318251527E+01  0.10947401243E+02  0.17525124665E+03  0.17564626315E+03  0.00000000000E+00 0. -1.
         11    1    1    2    0    0  0.95237583703E+00 -0.27031392169E+00  0.32452023551E+02  0.32467120628E+02  0.00000000000E+00 0.  1.
        -15    1    1    2    0    0  0.11074989169E+03  0.24594655039E+03  0.17294601443E+03  0.32041960895E+03  0.17770000000E+01 0. -1.
         15    1    1    2    0    0 -0.10737044237E+03 -0.25662363772E+03 -0.38064928464E+03  0.47146700728E+03  0.17770000000E+01 0.  1.
</event>
<event>
 6    1  0.1505306E-006  0.9917453E+03  0.7546771E-02  0.8692268E-01
        -11   -1    0    0    0    0  0.00000000000E+00  0.00000000000E+00  0.50000000000E+03  0.50000000000E+03  0.00000000000E+00 0.  1.
         11   -1    0    0    0    0 -0.00000000000E+00 -0.00000000000E+00 -0.50000000000E+03  0.50000000000E+03  0.00000000000E+00 0. -1.
        -11    1    1    2    0    0 -0.42341817038E+01  0.54673222622E+01 -0.53276809311E-01  0.69153991814E+01  0.00000000000E+00 0.  1.
         11    1    1    2    0    0 -0.56506879524E+00  0.10624460365E+01  0.58795730122E+00  0.13393237517E+01  0.00000000000E+00 0. -1.
        -15    1    1    2    0    0  0.47429926602E+03  0.62513728968E+02  0.13705376440E+03  0.49764912551E+03  0.17770000000E+01 0. -1.
         15    1    1    2    0    0 -0.46950001552E+03 -0.69043497266E+02 -0.13758844489E+03  0.49409615156E+03  0.17770000000E+01 0.  1.
</event>
<event>
 6    1  0.1505306E-006  0.4978745E+03  0.7546771E-02  0.9404578E-01
        -11   -1    0    0    0    0  0.00000000000E+00  0.00000000000E+00  0.50000000000E+03  0.50000000000E+03  0.00000000000E+00 0.  1.
         11   -1    0    0    0    0 -0.00000000000E+00 -0.00000000000E+00 -0.50000000000E+03  0.50000000000E+03  0.00000000000E+00 0. -1.
        -11    1    1    2    0    0  0.10025992058E+00 -0.64416811430E+00  0.48049935664E+00  0.80986680564E+00  0.00000000000E+00 0.  1.
         11    1    1    2    0    0  0.68927126465E+00 -0.13273504396E+01 -0.30927566179E+01  0.34354181060E+01  0.00000000000E+00 0. -1.
        -15    1    1    2    0    0  0.22191569917E+03 -0.44091153307E+03 -0.55104421761E+02  0.49667817806E+03  0.17770000000E+01 0.  1.
         15    1    1    2    0    0 -0.22270523035E+03  0.44288305163E+03  0.57716679022E+02  0.49907653703E+03  0.17770000000E+01 0. -1.
</event>
<event>
 6    1  0.1505306E-006  0.9950653E+03  0.7546771E-02  0.8689081E-01
        -11   -1    0    0    0    0  0.00000000000E+00  0.00000000000E+00  0.50000000000E+03  0.50000000000E+03  0.00000000000E+00 0.  1.
         11   -1    0    0    0    0 -0.00000000000E+00 -0.00000000000E+00 -0.50000000000E+03  0.50000000000E+03  0.00000000000E+00 0. -1.
        -11    1    1    2    0    0 -0.14688084035E+00 -0.66565098546E+00  0.62580705059E+00  0.92536462017E+00  0.00000000000E+00 0.  1.
         11    1    1    2    0    0  0.21654635691E+00 -0.14983309112E+01  0.37125070226E+01  0.40093136865E+01  0.00000000000E+00 0. -1.
        -15    1    1    2    0    0  0.42039297398E+03 -0.26263379966E+03  0.32826923185E+02  0.49677714311E+03  0.17770000000E+01 0.  1.
         15    1    1    2    0    0 -0.42046263950E+03  0.26479778156E+03 -0.37165237258E+02  0.49828817859E+03  0.17770000000E+01 0. -1.
</event>
<event>
 6    1  0.1505306E-006  0.9921697E+03  0.7546771E-02  0.8691860E-01
        -11   -1    0    0    0    0  0.00000000000E+00  0.00000000000E+00  0.50000000000E+03  0.50000000000E+03  0.00000000000E+00 0. -1.
         11   -1    0    0    0    0 -0.00000000000E+00 -0.00000000000E+00 -0.50000000000E+03  0.50000000000E+03  0.00000000000E+00 0.  1.
        -11    1    1    2    0    0  0.57278047912E+01 -0.19390906606E+01  0.26600956744E+01  0.66063552215E+01  0.00000000000E+00 0. -1.
         11    1    1    2    0    0  0.10953301897E+01  0.25247788441E+00  0.48433646074E+00  0.12239587876E+01  0.00000000000E+00 0.  1.
        -15    1    1    2    0    0 -0.37872909175E+02 -0.62307571005E+02 -0.49239745417E+03  0.49777002849E+03  0.17770000000E+01 0.  1.
         15    1    1    2    0    0  0.31049774194E+02  0.63994183781E+02  0.48925302204E+03  0.49439965750E+03  0.17770000000E+01 0. -1.
</event>
<event>
 6    1  0.1505306E-006  0.1000000E+04  0.7546771E-02  0.8684367E-01
        -11   -1    0    0    0    0  0.00000000000E+00  0.00000000000E+00  0.50000000000E+03  0.50000000000E+03  0.00000000000E+00 0.  1.
         11   -1    0    0    0    0 -0.00000000000E+00 -0.00000000000E+00 -0.50000000000E+03  0.50000000000E+03  0.00000000000E+00 0. -1.
        -11    1    1    2    0    0 -0.86145232098E+01 -0.10067940443E+02  0.15822030365E+02  0.20637589000E+02  0.00000000000E+00 0.  1.
         11    1    1    2    0    0 -0.81794599869E+00 -0.36278841348E+01  0.14425495772E+01  0.39889256993E+01  0.00000000000E+00 0. -1.
        -15    1    1    2    0    0  0.57109100925E+02 -0.36794069474E+03  0.29891294055E+03  0.47748707628E+03  0.17770000000E+01 0.  1.
         15    1    1    2    0    0 -0.47676631717E+02  0.38163651932E+03 -0.31617752050E+03  0.49788640902E+03  0.17770000000E+01 0. -1.
</event>
<event>
 6    1  0.1505306E-006  0.9747861E+03  0.7546771E-02  0.8708756E-01
        -11   -1    0    0    0    0  0.00000000000E+00  0.00000000000E+00  0.50000000000E+03  0.50000000000E+03  0.00000000000E+00 0. -1.
         11   -1    0    0    0    0 -0.00000000000E+00 -0.00000000000E+00 -0.50000000000E+03  0.50000000000E+03  0.00000000000E+00 0.  1.
        -11    1    1    2    0    0  0.10015569177E+01  0.18076205023E+01  0.74871895997E+01  0.77671498145E+01  0.00000000000E+00 0. -1.
         11    1    1    2    0    0 -0.13469492104E+02 -0.94560271712E+01  0.56616317070E+01  0.17403957624E+02  0.00000000000E+00 0.  1.
        -15    1    1    2    0    0 -0.35457696030E+03  0.31906155297E+03  0.82448242546E+02  0.48407227331E+03  0.17770000000E+01 0. -1.
         15    1    1    2    0    0  0.36704489549E+03 -0.31141314630E+03 -0.95597063853E+02  0.49075661925E+03  0.17770000000E+01 0.  1.
</event>
