<event>
 6    1  0.1460437E-005  0.5032350E+03  0.7546771E-02  0.9392600E-01
        -11   -1    0    0    0    0  0.00000000000E+00  0.00000000000E+00  0.50000000000E+03  0.50000000000E+03  0.00000000000E+00 0. -1.
         11   -1    0    0    0    0 -0.00000000000E+00 -0.00000000000E+00 -0.50000000000E+03  0.50000000000E+03  0.00000000000E+00 0. -1.
        -11    1    1    2    0    0 -0.10192866990E+03 -0.13813484476E+03  0.46615956301E+03  0.49676496180E+03  0.00000000000E+00 0. -1.
         11    1    1    2    0    0  0.98870826157E+02  0.13493166416E+03 -0.36419204371E+03  0.40077155458E+03  0.00000000000E+00 0. -1.
        -15    1    1    2    0    0  0.16640590057E+01  0.55874432801E+00 -0.89080137007E+02  0.89115149250E+02  0.17770000000E+01 0.  1.
         15    1    1    2    0    0  0.13937847348E+01  0.26444362673E+01 -0.12887382296E+02  0.13348334372E+02  0.17770000000E+01 0.  1.
</event>
<event>
 6    1  0.1460437E-005  0.3795986E+03  0.7546771E-02  0.9718679E-01
        -11   -1    0    0    0    0  0.00000000000E+00  0.00000000000E+00  0.50000000000E+03  0.50000000000E+03  0.00000000000E+00 0. -1.
         11   -1    0    0    0    0 -0.00000000000E+00 -0.00000000000E+00 -0.50000000000E+03  0.50000000000E+03  0.00000000000E+00 0.  1.
        -11    1    1    2    0    0 -0.12577294951E+03  0.14006828901E+03  0.38285319510E+03  0.42663160855E+03  0.00000000000E+00 0. -1.
         11    1    1    2    0    0  0.14684133826E+03 -0.15112098472E+03 -0.22258424800E+02  0.21188527112E+03  0.00000000000E+00 0.  1.
        -15    1    1    2    0    0 -0.10587410232E+01  0.14800792389E+01 -0.19813388690E+02  0.19975977260E+02  0.17770000000E+01 0.  1.
         15    1    1    2    0    0 -0.20009647727E+02  0.95726164742E+01 -0.34078138161E+03  0.34150714307E+03  0.17770000000E+01 0.  1.
</event>
<event>
 6    1  0.1460437E-005  0.3566152E+03  0.7546771E-02  0.9794059E-01
        -11   -1    0    0    0    0  0.00000000000E+00  0.00000000000E+00  0.50000000000E+03  0.50000000000E+03  0.00000000000E+00 0.  1.
         11   -1    0    0    0    0 -0.00000000000E+00 -0.00000000000E+00 -0.50000000000E+03  0.50000000000E+03  0.00000000000E+00 0. -1.
        -11    1    1    2    0    0 -0.19407442095E+03  0.63410470755E+02  0.41406918329E+03  0.46166985739E+03  0.00000000000E+00 0.  1.
         11    1    1    2    0    0  0.20940873772E+03 -0.32313508231E+02 -0.12642293977E+03  0.24673658413E+03  0.00000000000E+00 0. -1.
        -15    1    1    2    0    0 -0.16849802830E+02 -0.37392350273E+02 -0.25164171525E+03  0.25496826135E+03  0.17770000000E+01 0.  1.
         15    1    1    2    0    0  0.15154860637E+01  0.62953877495E+01 -0.36004528273E+02  0.36625297133E+02  0.17770000000E+01 0. -1.
</event>
<event>
 6    1  0.1460437E-005  0.3946247E+03  0.7546771E-02  0.9672418E-01
        -11   -1    0    0    0    0  0.00000000000E+00  0.00000000000E+00  0.50000000000E+03  0.50000000000E+03  0.00000000000E+00 0.  1.
         11   -1    0    0    0    0 -0.00000000000E+00 -0.00000000000E+00 -0.50000000000E+03  0.50000000000E+03  0.00000000000E+00 0.  1.
        -11    1    1    2    0    0  0.39470414612E+01  0.37113719497E+02  0.42591810551E+03  0.42755027764E+03  0.00000000000E+00 0.  1.
         11    1    1    2    0    0  0.45944547453E+02  0.46541223555E+02 -0.36424979252E+03  0.37007417943E+03  0.00000000000E+00 0.  1.
        -15    1    1    2    0    0  0.55735979783E+02 -0.13212542700E+02  0.74787451324E+01  0.57794118081E+02  0.17770000000E+01 0. -1.
         15    1    1    2    0    0 -0.10562756870E+03 -0.70442400352E+02 -0.69147058124E+02  0.14458142485E+03  0.17770000000E+01 0.  1.
</event>
<event>
 6    1  0.1460437E-005  0.5023392E+03  0.7546771E-02  0.9394591E-01
        -11   -1    0    0    0    0  0.00000000000E+00  0.00000000000E+00  0.50000000000E+03  0.50000000000E+03  0.00000000000E+00 0.  1.
         11   -1    0    0    0    0 -0.00000000000E+00 -0.00000000000E+00 -0.50000000000E+03  0.50000000000E+03  0.00000000000E+00 0. -1.
        -11    1    1    2    0    0 -0.73318036756E+02  0.15626427078E+01  0.49222787559E+03  0.49766078595E+03  0.00000000000E+00 0.  1.
         11    1    1    2    0    0  0.73859753036E+02  0.13088607586E+01 -0.26777370268E+03  0.27777640663E+03  0.00000000000E+00 0. -1.
        -15    1    1    2    0    0  0.19294496191E+01 -0.26976014317E+01 -0.14810826369E+03  0.14815605061E+03  0.17770000000E+01 0. -1.
         15    1    1    2    0    0 -0.24711658986E+01 -0.17390203466E+00 -0.76345909219E+02  0.76406756810E+02  0.17770000000E+01 0. -1.
</event>
<event>
 6    1  0.1460437E-005  0.4251076E+03  0.7546771E-02  0.9584993E-01
        -11   -1    0    0    0    0  0.00000000000E+00  0.00000000000E+00  0.50000000000E+03  0.50000000000E+03  0.00000000000E+00 0. -1.
         11   -1    0    0    0    0 -0.00000000000E+00 -0.00000000000E+00 -0.50000000000E+03  0.50000000000E+03  0.00000000000E+00 0. -1.
        -11    1    1    2    0    0  0.10713012777E+03 -0.46533488592E+02  0.45514846943E+03  0.46989611518E+03  0.00000000000E+00 0. -1.
         11    1    1    2    0    0 -0.10804196845E+03  0.58791489420E+02 -0.63854283023E+02  0.13858887270E+03  0.00000000000E+00 0. -1.
        -15    1    1    2    0    0  0.16777039599E+00 -0.78847387722E+01 -0.20454910289E+03  0.20470879433E+03  0.17770000000E+01 0. -1.
         15    1    1    2    0    0  0.74407028436E+00 -0.43732620556E+01 -0.18674508351E+03  0.18680621779E+03  0.17770000000E+01 0. -1.
</event>
<event>
 6    1  0.1460437E-005  0.5179174E+03  0.7546771E-02  0.9360587E-01
        -11   -1    0    0    0    0  0.00000000000E+00  0.00000000000E+00  0.50000000000E+03  0.50000000000E+03  0.00000000000E+00 0.  1.
         11   -1    0    0    0    0 -0.00000000000E+00 -0.00000000000E+00 -0.50000000000E+03  0.50000000000E+03  0.00000000000E+00 0. -1.
        -11    1    1    2    0    0 -0.16489815703E+03  0.12582810710E+03  0.20992216825E+03  0.29511257420E+03  0.00000000000E+00 0.  1.
         11    1    1    2    0    0  0.29444359280E+03 -0.58962541959E+02 -0.37713389841E+03  0.48208255312E+03  0.00000000000E+00 0. -1.
        -15    1    1    2    0    0 -0.12139815156E+03 -0.66833237376E+02  0.15397970008E+03  0.20716442404E+03  0.17770000000E+01 0.  1.
         15    1    1    2    0    0 -0.81472841985E+01 -0.32327763416E-01  0.13232030076E+02  0.15640448646E+02  0.17770000000E+01 0. -1.
</event>
<event>
 6    1  0.1460437E-005  0.4940356E+03  0.7546771E-02  0.9413255E-01
        -11   -1    0    0    0    0  0.00000000000E+00  0.00000000000E+00  0.50000000000E+03  0.50000000000E+03  0.00000000000E+00 0.  1.
         11   -1    0    0    0    0 -0.00000000000E+00 -0.00000000000E+00 -0.50000000000E+03  0.50000000000E+03  0.00000000000E+00 0.  1.
        -11    1    1    2    0    0  0.23822821592E+01  0.29711156229E+01  0.13498458664E+02  0.14025376381E+02  0.00000000000E+00 0.  1.
         11    1    1    2    0    0  0.55817780714E+02  0.51931192577E+02 -0.49237141835E+03  0.49823898584E+03  0.00000000000E+00 0.  1.
        -15    1    1    2    0    0 -0.32004920902E+02 -0.36032596661E+02  0.15693154926E+03  0.16417469923E+03  0.17770000000E+01 0. -1.
         15    1    1    2    0    0 -0.26195141972E+02 -0.18869711539E+02  0.32194141043E+03  0.32356093855E+03  0.17770000000E+01 0.  1.
</event>
<event>
 6    1  0.1794086E-005  0.5010249E+03  0.7546771E-02  0.9397519E-01
        -11   -1    0    0    0    0  0.00000000000E+00  0.00000000000E+00  0.50000000000E+03  0.50000000000E+03  0.00000000000E+00 0.  1.
         11   -1    0    0    0    0 -0.00000000000E+00 -0.00000000000E+00 -0.50000000000E+03  0.50000000000E+03  0.00000000000E+00 0. -1.
        -11    1    1    2    0    0  0.70163165629E+01  0.37229792063E+02  0.47464829072E+03  0.47615783728E+03  0.00000000000E+00 0.  1.
         11    1    1    2    0    0 -0.86973571692E+00 -0.36683347208E+02 -0.49762412203E+03  0.49897514089E+03  0.00000000000E+00 0. -1.
        -15    1    1    2    0    0 -0.52969349149E+01  0.20639997639E+00  0.80979858042E+01  0.98404889882E+01  0.17770000000E+01 0.  1.
         15    1    1    2    0    0 -0.84964593102E+00 -0.75284483136E+00  0.14877845501E+02  0.15026532843E+02  0.17770000000E+01 0. -1.
</event>
<event>
 6    1  0.1460437E-005  0.4914816E+03  0.7546771E-02  0.9419075E-01
        -11   -1    0    0    0    0  0.00000000000E+00  0.00000000000E+00  0.50000000000E+03  0.50000000000E+03  0.00000000000E+00 0.  1.
         11   -1    0    0    0    0 -0.00000000000E+00 -0.00000000000E+00 -0.50000000000E+03  0.50000000000E+03  0.00000000000E+00 0. -1.
        -11    1    1    2    0    0 -0.43362274426E+02 -0.11197390389E+03  0.47630012715E+03  0.49120286351E+03  0.00000000000E+00 0.  1.
         11    1    1    2    0    0  0.28128445248E+02  0.11218689911E+03 -0.47808881548E+03  0.49188009235E+03  0.00000000000E+00 0. -1.
        -15    1    1    2    0    0  0.20799430361E+01  0.19670463681E+01  0.45067113728E+00  0.33994511206E+01  0.17770000000E+01 0.  1.
         15    1    1    2    0    0  0.13153886142E+02 -0.21800415891E+01  0.13380171881E+01  0.13517593016E+02  0.17770000000E+01 0. -1.
</event>
<event>
 6    1  0.1460437E-005  0.5140392E+03  0.7546771E-02  0.9368933E-01
        -11   -1    0    0    0    0  0.00000000000E+00  0.00000000000E+00  0.50000000000E+03  0.50000000000E+03  0.00000000000E+00 0.  1.
         11   -1    0    0    0    0 -0.00000000000E+00 -0.00000000000E+00 -0.50000000000E+03  0.50000000000E+03  0.00000000000E+00 0. -1.
        -11    1    1    2    0    0 -0.93254392892E+02  0.15380414520E+03  0.45144856985E+03  0.48596080921E+03  0.00000000000E+00 0.  1.
         11    1    1    2    0    0  0.11895380143E+03 -0.10353940847E+03 -0.19553312557E+03  0.25120433750E+03  0.00000000000E+00 0. -1.
        -15    1    1    2    0    0 -0.56623802977E+01 -0.28884247112E+02 -0.15294313604E+03  0.15575982433E+03  0.17770000000E+01 0.  1.
         15    1    1    2    0    0 -0.20037028244E+02 -0.21380489616E+02 -0.10297230823E+03  0.10707502897E+03  0.17770000000E+01 0. -1.
</event>
<event>
 6    1  0.1460437E-005  0.5021120E+03  0.7546771E-02  0.9395096E-01
        -11   -1    0    0    0    0  0.00000000000E+00  0.00000000000E+00  0.50000000000E+03  0.50000000000E+03  0.00000000000E+00 0. -1.
         11   -1    0    0    0    0 -0.00000000000E+00 -0.00000000000E+00 -0.50000000000E+03  0.50000000000E+03  0.00000000000E+00 0. -1.
        -11    1    1    2    0    0 -0.76306520097E+02  0.72718767126E+02  0.48660228588E+03  0.49788802831E+03  0.00000000000E+00 0. -1.
         11    1    1    2    0    0  0.73152943401E+02 -0.80053724519E+02 -0.38206301498E+03  0.39715500671E+03  0.00000000000E+00 0. -1.
        -15    1    1    2    0    0  0.93041933601E+00  0.24512955098E+01 -0.56035527937E+02  0.56124973496E+02  0.17770000000E+01 0. -1.
         15    1    1    2    0    0  0.22231573602E+01  0.48836618831E+01 -0.48503742967E+02  0.48831991489E+02  0.17770000000E+01 0.  1.
</event>
<event>
 6    1  0.1460437E-005  0.5107571E+03  0.7546771E-02  0.9376056E-01
        -11   -1    0    0    0    0  0.00000000000E+00  0.00000000000E+00  0.50000000000E+03  0.50000000000E+03  0.00000000000E+00 0.  1.
         11   -1    0    0    0    0 -0.00000000000E+00 -0.00000000000E+00 -0.50000000000E+03  0.50000000000E+03  0.00000000000E+00 0. -1.
        -11    1    1    2    0    0 -0.21066832406E+03  0.12488541849E+03  0.42353406136E+03  0.48924289637E+03  0.00000000000E+00 0.  1.
         11    1    1    2    0    0  0.21081726855E+03 -0.98394006948E+02 -0.27969653410E+03  0.36380688904E+03  0.00000000000E+00 0. -1.
        -15    1    1    2    0    0 -0.24952867268E+01  0.19471293781E+00 -0.10644928023E+02  0.11078654728E+02  0.17770000000E+01 0. -1.
         15    1    1    2    0    0  0.23463422384E+01 -0.26686124477E+02 -0.13319259923E+03  0.13587155987E+03  0.17770000000E+01 0.  1.
</event>
<event>
 6    1  0.1460437E-005  0.4026704E+03  0.7546771E-02  0.9648543E-01
        -11   -1    0    0    0    0  0.00000000000E+00  0.00000000000E+00  0.50000000000E+03  0.50000000000E+03  0.00000000000E+00 0.  1.
         11   -1    0    0    0    0 -0.00000000000E+00 -0.00000000000E+00 -0.50000000000E+03  0.50000000000E+03  0.00000000000E+00 0.  1.
        -11    1    1    2    0    0 -0.50429499326E+02  0.42620074620E+01  0.18684318872E+03  0.19357602197E+03  0.00000000000E+00 0.  1.
         11    1    1    2    0    0 -0.12624266933E+03  0.24128752020E+03 -0.34554217193E+03  0.43995030577E+03  0.00000000000E+00 0.  1.
        -15    1    1    2    0    0  0.14666240948E+03 -0.15165615356E+03  0.44529492739E+02  0.21562811672E+03  0.17770000000E+01 0.  1.
         15    1    1    2    0    0  0.30009759182E+02 -0.93893374100E+02  0.11416949047E+03  0.15084555555E+03  0.17770000000E+01 0. -1.
</event>
<event>
 6    1  0.1460437E-005  0.5016520E+03  0.7546771E-02  0.9396121E-01
        -11   -1    0    0    0    0  0.00000000000E+00  0.00000000000E+00  0.50000000000E+03  0.50000000000E+03  0.00000000000E+00 0.  1.
         11   -1    0    0    0    0 -0.00000000000E+00 -0.00000000000E+00 -0.50000000000E+03  0.50000000000E+03  0.00000000000E+00 0.  1.
        -11    1    1    2    0    0  0.56451920176E+02  0.64459331217E+02  0.49092657326E+03  0.49834799589E+03  0.00000000000E+00 0.  1.
         11    1    1    2    0    0 -0.43838566653E+02 -0.57115064352E+02 -0.37788753707E+03  0.38468550945E+03  0.00000000000E+00 0.  1.
        -15    1    1    2    0    0  0.79340457647E+01 -0.41188546627E+01 -0.30877061927E+02  0.32194172271E+02  0.17770000000E+01 0.  1.
         15    1    1    2    0    0 -0.20547399288E+02 -0.32254122027E+01 -0.82161974257E+02  0.84772322395E+02  0.17770000000E+01 0. -1.
</event>
<event>
 6    1  0.1460437E-005  0.5002765E+03  0.7546771E-02  0.9399191E-01
        -11   -1    0    0    0    0  0.00000000000E+00  0.00000000000E+00  0.50000000000E+03  0.50000000000E+03  0.00000000000E+00 0.  1.
         11   -1    0    0    0    0 -0.00000000000E+00 -0.00000000000E+00 -0.50000000000E+03  0.50000000000E+03  0.00000000000E+00 0.  1.
        -11    1    1    2    0    0  0.17764013403E+03 -0.16713002196E+03  0.39714727644E+03  0.46606267887E+03  0.00000000000E+00 0.  1.
         11    1    1    2    0    0 -0.58437002537E+01 -0.30670469640E+02 -0.10876098725E+02  0.33062305788E+02  0.00000000000E+00 0.  1.
        -15    1    1    2    0    0 -0.45434676748E+02  0.90422424328E+02 -0.26345987790E+02  0.10458390638E+03  0.17770000000E+01 0. -1.
         15    1    1    2    0    0 -0.12636175702E+03  0.10737806727E+03 -0.35992518992E+03  0.39629110896E+03  0.17770000000E+01 0.  1.
</event>
<event>
 6    1  0.1460437E-005  0.5077849E+03  0.7546771E-02  0.9382557E-01
        -11   -1    0    0    0    0  0.00000000000E+00  0.00000000000E+00  0.50000000000E+03  0.50000000000E+03  0.00000000000E+00 0.  1.
         11   -1    0    0    0    0 -0.00000000000E+00 -0.00000000000E+00 -0.50000000000E+03  0.50000000000E+03  0.00000000000E+00 0. -1.
        -11    1    1    2    0    0 -0.29913568736E+03  0.54091045429E+02  0.38712746526E+03  0.49221506988E+03  0.00000000000E+00 0.  1.
         11    1    1    2    0    0  0.25033346033E+03 -0.20248389926E+02 -0.26701329604E+03  0.36656914616E+03  0.00000000000E+00 0. -1.
        -15    1    1    2    0    0  0.43775623500E+02 -0.30258891445E+02 -0.12310740878E+03  0.13412866043E+03  0.17770000000E+01 0.  1.
         15    1    1    2    0    0  0.50266035372E+01 -0.35837640585E+01  0.29932395536E+01  0.70871235330E+01  0.17770000000E+01 0. -1.
</event>
<event>
 6    1  0.1460437E-005  0.5014403E+03  0.7546771E-02  0.9396593E-01
        -11   -1    0    0    0    0  0.00000000000E+00  0.00000000000E+00  0.50000000000E+03  0.50000000000E+03  0.00000000000E+00 0. -1.
         11   -1    0    0    0    0 -0.00000000000E+00 -0.00000000000E+00 -0.50000000000E+03  0.50000000000E+03  0.00000000000E+00 0. -1.
        -11    1    1    2    0    0  0.26734669729E+02  0.35250987615E+02  0.49659275608E+03  0.49855966552E+03  0.00000000000E+00 0. -1.
         11    1    1    2    0    0 -0.74590628490E+01 -0.26966130387E+02 -0.95283201004E+02  0.99306083399E+02  0.00000000000E+00 0. -1.
        -15    1    1    2    0    0 -0.57439990070E+01  0.17658116984E+01 -0.20456706577E+03  0.20466302485E+03  0.17770000000E+01 0. -1.
         15    1    1    2    0    0 -0.13531607873E+02 -0.10050668926E+02 -0.19674248931E+03  0.19747122623E+03  0.17770000000E+01 0. -1.
</event>
<event>
 6    1  0.1460437E-005  0.4504637E+03  0.7546771E-02  0.9518028E-01
        -11   -1    0    0    0    0  0.00000000000E+00  0.00000000000E+00  0.50000000000E+03  0.50000000000E+03  0.00000000000E+00 0.  1.
         11   -1    0    0    0    0 -0.00000000000E+00 -0.00000000000E+00 -0.50000000000E+03  0.50000000000E+03  0.00000000000E+00 0.  1.
        -11    1    1    2    0    0  0.14911787833E+03  0.72142095251E+02  0.43386454686E+03  0.46441260595E+03  0.00000000000E+00 0.  1.
         11    1    1    2    0    0 -0.98807577090E+02 -0.16562012549E+02 -0.14246811588E+02  0.10119391874E+03  0.00000000000E+00 0.  1.
        -15    1    1    2    0    0 -0.20253152498E+02 -0.61738235257E+02 -0.37256900608E+03  0.37819653872E+03  0.17770000000E+01 0.  1.
         15    1    1    2    0    0 -0.30057148743E+02  0.61581525558E+01 -0.47048729190E+02  0.56196936579E+02  0.17770000000E+01 0. -1.
</event>
<event>
 6    1  0.1460437E-005  0.5287513E+03  0.7546771E-02  0.9337679E-01
        -11   -1    0    0    0    0  0.00000000000E+00  0.00000000000E+00  0.50000000000E+03  0.50000000000E+03  0.00000000000E+00 0. -1.
         11   -1    0    0    0    0 -0.00000000000E+00 -0.00000000000E+00 -0.50000000000E+03  0.50000000000E+03  0.00000000000E+00 0.  1.
        -11    1    1    2    0    0  0.21185353022E+03  0.60258865015E+01  0.25685360340E+03  0.33300450921E+03  0.00000000000E+00 0. -1.
         11    1    1    2    0    0 -0.15804690156E+03 -0.34223656134E+02 -0.44263444491E+03  0.47124869608E+03  0.00000000000E+00 0.  1.
        -15    1    1    2    0    0 -0.18706548518E+01  0.27636231543E+01  0.12805161595E+02  0.13351661132E+02  0.17770000000E+01 0.  1.
         15    1    1    2    0    0 -0.51935973803E+02  0.25434146478E+02  0.17297567992E+03  0.18239513358E+03  0.17770000000E+01 0. -1.
</event>
<event>
 6    1  0.1460437E-005  0.5139664E+03  0.7546771E-02  0.9369090E-01
        -11   -1    0    0    0    0  0.00000000000E+00  0.00000000000E+00  0.50000000000E+03  0.50000000000E+03  0.00000000000E+00 0. -1.
         11   -1    0    0    0    0 -0.00000000000E+00 -0.00000000000E+00 -0.50000000000E+03  0.50000000000E+03  0.00000000000E+00 0. -1.
        -11    1    1    2    0    0  0.78252354938E+02 -0.93584733771E+02  0.47047547085E+03  0.48603364300E+03  0.00000000000E+00 0. -1.
         11    1    1    2    0    0  0.71609176119E+01  0.72065217303E+02 -0.71779014382E+02  0.10196519598E+03  0.00000000000E+00 0. -1.
        -15    1    1    2    0    0 -0.28342984196E+02 -0.16914102008E+02 -0.94460297600E+02  0.10007655645E+03  0.17770000000E+01 0. -1.
         15    1    1    2    0    0 -0.57070288354E+02  0.38433618477E+02 -0.30423615887E+03  0.31192460457E+03  0.17770000000E+01 0.  1.
</event>
<event>
 6    1  0.1460437E-005  0.5096609E+03  0.7546771E-02  0.9378449E-01
        -11   -1    0    0    0    0  0.00000000000E+00  0.00000000000E+00  0.50000000000E+03  0.50000000000E+03  0.00000000000E+00 0. -1.
         11   -1    0    0    0    0 -0.00000000000E+00 -0.00000000000E+00 -0.50000000000E+03  0.50000000000E+03  0.00000000000E+00 0. -1.
        -11    1    1    2    0    0 -0.34133247883E+02 -0.55964122381E+02  0.43506305526E+03  0.43997377610E+03  0.00000000000E+00 0. -1.
         11    1    1    2    0    0  0.27462256923E+02  0.38650195649E+02  0.51071310393E+02  0.69687100128E+02  0.00000000000E+00 0. -1.
        -15    1    1    2    0    0  0.21957187958E+02  0.21449638353E+02 -0.12060440424E+03  0.12446198271E+03  0.17770000000E+01 0.  1.
         15    1    1    2    0    0 -0.15286196998E+02 -0.41357116202E+01 -0.36552996142E+03  0.36587714106E+03  0.17770000000E+01 0. -1.
</event>
<event>
 6    1  0.1460437E-005  0.2625232E+03  0.7546771E-02  0.1018172E+00
        -11   -1    0    0    0    0  0.00000000000E+00  0.00000000000E+00  0.50000000000E+03  0.50000000000E+03  0.00000000000E+00 0. -1.
         11   -1    0    0    0    0 -0.00000000000E+00 -0.00000000000E+00 -0.50000000000E+03  0.50000000000E+03  0.00000000000E+00 0.  1.
        -11    1    1    2    0    0  0.51186551140E+02 -0.81322874550E+02  0.34821299514E+03  0.36122813142E+03  0.00000000000E+00 0. -1.
         11    1    1    2    0    0  0.14388798493E+03  0.75020958969E+02 -0.13536027405E+03  0.21131564136E+03  0.00000000000E+00 0.  1.
        -15    1    1    2    0    0 -0.22963558812E+03 -0.10836302331E+02 -0.19990297252E+02  0.23076546209E+03  0.17770000000E+01 0. -1.
         15    1    1    2    0    0  0.34561052056E+02  0.17138217911E+02 -0.19286242384E+03  0.19669076514E+03  0.17770000000E+01 0.  1.
</event>
<event>
 6    1  0.1460437E-005  0.5092595E+03  0.7546771E-02  0.9379326E-01
        -11   -1    0    0    0    0  0.00000000000E+00  0.00000000000E+00  0.50000000000E+03  0.50000000000E+03  0.00000000000E+00 0.  1.
         11   -1    0    0    0    0 -0.00000000000E+00 -0.00000000000E+00 -0.50000000000E+03  0.50000000000E+03  0.00000000000E+00 0. -1.
        -11    1    1    2    0    0 -0.10622015840E+02  0.12099544211E+03  0.47547187471E+03  0.49074048934E+03  0.00000000000E+00 0.  1.
         11    1    1    2    0    0 -0.41829783042E+01 -0.13241569430E+03 -0.25986730221E+03  0.29168892362E+03  0.00000000000E+00 0. -1.
        -15    1    1    2    0    0  0.17854013586E+02  0.13845511339E+02 -0.13805139190E+03  0.13989927991E+03  0.17770000000E+01 0.  1.
         15    1    1    2    0    0 -0.30490194418E+01 -0.24252591532E+01 -0.77553180600E+02  0.77671307133E+02  0.17770000000E+01 0. -1.
</event>
<event>
 6    1  0.1460437E-005  0.5078015E+03  0.7546771E-02  0.9382521E-01
        -11   -1    0    0    0    0  0.00000000000E+00  0.00000000000E+00  0.50000000000E+03  0.50000000000E+03  0.00000000000E+00 0. -1.
         11   -1    0    0    0    0 -0.00000000000E+00 -0.00000000000E+00 -0.50000000000E+03  0.50000000000E+03  0.00000000000E+00 0. -1.
        -11    1    1    2    0    0 -0.55895910320E+02 -0.12068720561E+02  0.48886540556E+03  0.49219852860E+03  0.00000000000E+00 0. -1.
         11    1    1    2    0    0  0.50347155452E+02  0.37228559399E+02 -0.10024617801E+03  0.11819516869E+03  0.00000000000E+00 0. -1.
        -15    1    1    2    0    0 -0.87948862583E+00 -0.17135398632E+02 -0.25109941688E+03  0.25169122010E+03  0.17770000000E+01 0. -1.
         15    1    1    2    0    0  0.64282434940E+01 -0.80244402058E+01 -0.13751981067E+03  0.13791508261E+03  0.17770000000E+01 0.  1.
</event>
<event>
 6    1  0.1460437E-005  0.5074882E+03  0.7546771E-02  0.9383208E-01
        -11   -1    0    0    0    0  0.00000000000E+00  0.00000000000E+00  0.50000000000E+03  0.50000000000E+03  0.00000000000E+00 0. -1.
         11   -1    0    0    0    0 -0.00000000000E+00 -0.00000000000E+00 -0.50000000000E+03  0.50000000000E+03  0.00000000000E+00 0.  1.
        -11    1    1    2    0    0  0.18608777032E+03 -0.11929194573E+03  0.44012345148E+03  0.49251180608E+03  0.00000000000E+00 0. -1.
         11    1    1    2    0    0 -0.19136501199E+03  0.10623072917E+03 -0.43055667911E+03  0.48299543430E+03  0.00000000000E+00 0.  1.
        -15    1    1    2    0    0  0.62947436002E+01  0.13723964862E+02 -0.13289555452E+02  0.20192598190E+02  0.17770000000E+01 0.  1.
         15    1    1    2    0    0 -0.10175019315E+01 -0.66274830041E+00  0.37227830783E+01  0.43001614317E+01  0.17770000000E+01 0. -1.
</event>
<event>
 6    1  0.1460437E-005  0.5034305E+03  0.7546771E-02  0.9392166E-01
        -11   -1    0    0    0    0  0.00000000000E+00  0.00000000000E+00  0.50000000000E+03  0.50000000000E+03  0.00000000000E+00 0.  1.
         11   -1    0    0    0    0 -0.00000000000E+00 -0.00000000000E+00 -0.50000000000E+03  0.50000000000E+03  0.00000000000E+00 0.  1.
        -11    1    1    2    0    0  0.77677519143E+02 -0.12395226926E+03  0.47453484570E+03  0.49656951358E+03  0.00000000000E+00 0.  1.
         11    1    1    2    0    0 -0.60188775459E+02  0.11222547482E+03 -0.28535911102E+03  0.31248530867E+03  0.00000000000E+00 0.  1.
        -15    1    1    2    0    0 -0.68320804490E+01 -0.28527102225E+01 -0.66534011547E+02  0.66968258902E+02  0.17770000000E+01 0. -1.
         15    1    1    2    0    0 -0.10656663234E+02  0.14579504661E+02 -0.12264172312E+03  0.12397691885E+03  0.17770000000E+01 0.  1.
</event>
<event>
 6    1  0.1460437E-005  0.5033665E+03  0.7546771E-02  0.9392308E-01
        -11   -1    0    0    0    0  0.00000000000E+00  0.00000000000E+00  0.50000000000E+03  0.50000000000E+03  0.00000000000E+00 0.  1.
         11   -1    0    0    0    0 -0.00000000000E+00 -0.00000000000E+00 -0.50000000000E+03  0.50000000000E+03  0.00000000000E+00 0. -1.
        -11    1    1    2    0    0 -0.10261077368E+03  0.57504056782E+02  0.48250301017E+03  0.49663350898E+03  0.00000000000E+00 0.  1.
         11    1    1    2    0    0  0.98060175168E+02 -0.57169437496E+02 -0.31936297055E+03  0.33893487501E+03  0.00000000000E+00 0. -1.
        -15    1    1    2    0    0 -0.26497600977E+01  0.83221683132E+01 -0.58972084067E+02  0.59641798617E+02  0.17770000000E+01 0. -1.
         15    1    1    2    0    0  0.72003586103E+01 -0.86567875993E+01 -0.10416795555E+03  0.10478981739E+03  0.17770000000E+01 0.  1.
</event>
<event>
 6    1  0.1460437E-005  0.3833769E+03  0.7546771E-02  0.9706833E-01
        -11   -1    0    0    0    0  0.00000000000E+00  0.00000000000E+00  0.50000000000E+03  0.50000000000E+03  0.00000000000E+00 0.  1.
         11   -1    0    0    0    0 -0.00000000000E+00 -0.00000000000E+00 -0.50000000000E+03  0.50000000000E+03  0.00000000000E+00 0. -1.
        -11    1    1    2    0    0  0.11943268912E+03 -0.21725112271E+03  0.34969022822E+03  0.42865542486E+03  0.00000000000E+00 0.  1.
         11    1    1    2    0    0 -0.52618024785E+01  0.20639588474E+03 -0.40021427223E+01  0.20650173110E+03  0.00000000000E+00 0. -1.
        -15    1    1    2    0    0 -0.95610452537E+02  0.56935636276E+01 -0.30680050954E+03  0.32140859616E+03  0.17770000000E+01 0. -1.
         15    1    1    2    0    0 -0.18560434104E+02  0.51616743490E+01 -0.38887575957E+02  0.43434247881E+02  0.17770000000E+01 0.  1.
</event>
<event>
 6    1  0.1460437E-005  0.5087011E+03  0.7546771E-02  0.9380548E-01
        -11   -1    0    0    0    0  0.00000000000E+00  0.00000000000E+00  0.50000000000E+03  0.50000000000E+03  0.00000000000E+00 0. -1.
         11   -1    0    0    0    0 -0.00000000000E+00 -0.00000000000E+00 -0.50000000000E+03  0.50000000000E+03  0.00000000000E+00 0. -1.
        -11    1    1    2    0    0 -0.63499575446E+02 -0.12567083473E+02  0.48701585579E+03  0.49129886165E+03  0.00000000000E+00 0. -1.
         11    1    1    2    0    0  0.55484811635E+02 -0.11313052974E+01 -0.61590193068E+02  0.82904740853E+02  0.00000000000E+00 0. -1.
        -15    1    1    2    0    0  0.71914527524E+01  0.60631608521E+01 -0.19321825738E+03  0.19345524450E+03  0.17770000000E+01 0. -1.
         15    1    1    2    0    0  0.82331105823E+00  0.76352279181E+01 -0.23220740535E+03  0.23234115299E+03  0.17770000000E+01 0. -1.
</event>
<event>
 6    1  0.1460437E-005  0.5093416E+03  0.7546771E-02  0.9379146E-01
        -11   -1    0    0    0    0  0.00000000000E+00  0.00000000000E+00  0.50000000000E+03  0.50000000000E+03  0.00000000000E+00 0.  1.
         11   -1    0    0    0    0 -0.00000000000E+00 -0.00000000000E+00 -0.50000000000E+03  0.50000000000E+03  0.00000000000E+00 0. -1.
        -11    1    1    2    0    0 -0.65137820241E+02  0.72505005238E+02  0.48088014749E+03  0.49065836145E+03  0.00000000000E+00 0.  1.
         11    1    1    2    0    0  0.72969076031E+02 -0.66628647442E+02 -0.15988711897E+03  0.18795678634E+03  0.00000000000E+00 0. -1.
        -15    1    1    2    0    0 -0.31604344421E+01  0.34820821447E+01 -0.79385345231E+02  0.79544352461E+02  0.17770000000E+01 0. -1.
         15    1    1    2    0    0 -0.46708213476E+01 -0.93584399406E+01 -0.24160768328E+03  0.24184049975E+03  0.17770000000E+01 0.  1.
</event>
<event>
 6    1  0.1460437E-005  0.5050969E+03  0.7546771E-02  0.9388477E-01
        -11   -1    0    0    0    0  0.00000000000E+00  0.00000000000E+00  0.50000000000E+03  0.50000000000E+03  0.00000000000E+00 0. -1.
         11   -1    0    0    0    0 -0.00000000000E+00 -0.00000000000E+00 -0.50000000000E+03  0.50000000000E+03  0.00000000000E+00 0.  1.
        -11    1    1    2    0    0  0.19297883314E+03  0.95360312817E+02  0.44563959364E+03  0.49490308821E+03  0.00000000000E+00 0. -1.
         11    1    1    2    0    0 -0.18213438784E+03 -0.50974621971E+02 -0.33131933570E+03  0.38150209636E+03  0.00000000000E+00 0.  1.
        -15    1    1    2    0    0 -0.63805003916E+01 -0.39267845723E+02 -0.10027467416E+03  0.10789273608E+03  0.17770000000E+01 0.  1.
         15    1    1    2    0    0 -0.44639449093E+01 -0.51178451234E+01 -0.14045583789E+02  0.15702079348E+02  0.17770000000E+01 0.  1.
</event>
<event>
 6    1  0.1460437E-005  0.5024809E+03  0.7546771E-02  0.9394276E-01
        -11   -1    0    0    0    0  0.00000000000E+00  0.00000000000E+00  0.50000000000E+03  0.50000000000E+03  0.00000000000E+00 0.  1.
         11   -1    0    0    0    0 -0.00000000000E+00 -0.00000000000E+00 -0.50000000000E+03  0.50000000000E+03  0.00000000000E+00 0. -1.
        -11    1    1    2    0    0 -0.90534081224E+02  0.51162687143E+02  0.48652973925E+03  0.49751907260E+03  0.00000000000E+00 0.  1.
         11    1    1    2    0    0  0.97045722839E+02 -0.49918684811E+02 -0.39548791677E+03  0.41026874086E+03  0.00000000000E+00 0. -1.
        -15    1    1    2    0    0  0.84004994769E+00 -0.24866540986E+01 -0.56606784798E+01  0.64876916059E+01  0.17770000000E+01 0.  1.
         15    1    1    2    0    0 -0.73516915625E+01  0.12426517662E+01 -0.85381144005E+02  0.85724494941E+02  0.17770000000E+01 0. -1.
</event>
<event>
 6    1  0.1460437E-005  0.5015449E+03  0.7546771E-02  0.9396359E-01
        -11   -1    0    0    0    0  0.00000000000E+00  0.00000000000E+00  0.50000000000E+03  0.50000000000E+03  0.00000000000E+00 0. -1.
         11   -1    0    0    0    0 -0.00000000000E+00 -0.00000000000E+00 -0.50000000000E+03  0.50000000000E+03  0.00000000000E+00 0. -1.
        -11    1    1    2    0    0  0.28188156424E+01 -0.50028405929E+02  0.42391153298E+03  0.42686271202E+03  0.00000000000E+00 0. -1.
         11    1    1    2    0    0 -0.15337495428E+02  0.41845983592E+02 -0.49645857862E+03  0.49845505855E+03  0.00000000000E+00 0. -1.
        -15    1    1    2    0    0  0.31815889915E+01  0.48918891543E+01  0.13909846466E+02  0.15188635413E+02  0.17770000000E+01 0.  1.
         15    1    1    2    0    0  0.93370907945E+01  0.32905331833E+01  0.58637199177E+02  0.59493594020E+02  0.17770000000E+01 0.  1.
</event>
<event>
 6    1  0.1460437E-005  0.5017356E+03  0.7546771E-02  0.9395934E-01
        -11   -1    0    0    0    0  0.00000000000E+00  0.00000000000E+00  0.50000000000E+03  0.50000000000E+03  0.00000000000E+00 0. -1.
         11   -1    0    0    0    0 -0.00000000000E+00 -0.00000000000E+00 -0.50000000000E+03  0.50000000000E+03  0.00000000000E+00 0. -1.
        -11    1    1    2    0    0 -0.50592726680E+02 -0.20403300283E+02  0.49526908978E+03  0.49826437756E+03  0.00000000000E+00 0. -1.
         11    1    1    2    0    0  0.31232279446E+02  0.53602267714E+01 -0.85395523727E+02  0.91085579446E+02  0.00000000000E+00 0. -1.
        -15    1    1    2    0    0  0.15059640106E+02  0.12633158952E+02 -0.29716887492E+03  0.29782358438E+03  0.17770000000E+01 0. -1.
         15    1    1    2    0    0  0.43008071279E+01  0.24099145597E+01 -0.11270469113E+03  0.11282645861E+03  0.17770000000E+01 0. -1.
</event>
<event>
 6    1  0.1460437E-005  0.5015559E+03  0.7546771E-02  0.9396335E-01
        -11   -1    0    0    0    0  0.00000000000E+00  0.00000000000E+00  0.50000000000E+03  0.50000000000E+03  0.00000000000E+00 0. -1.
         11   -1    0    0    0    0 -0.00000000000E+00 -0.00000000000E+00 -0.50000000000E+03  0.50000000000E+03  0.00000000000E+00 0.  1.
        -11    1    1    2    0    0 -0.40401578932E+02  0.30283077795E+02  0.49588024051E+03  0.49844414462E+03  0.00000000000E+00 0. -1.
         11    1    1    2    0    0  0.45943265081E+02 -0.24807250446E+02 -0.25081929237E+03  0.25619621524E+03  0.00000000000E+00 0.  1.
        -15    1    1    2    0    0 -0.76888272353E+01 -0.32517099887E+01 -0.17493512356E+03  0.17514321815E+03  0.17770000000E+01 0.  1.
         15    1    1    2    0    0  0.21471410867E+01 -0.22241173610E+01 -0.70125824587E+02  0.70216421982E+02  0.17770000000E+01 0.  1.
</event>
<event>
 6    1  0.1460437E-005  0.5029431E+03  0.7546771E-02  0.9393248E-01
        -11   -1    0    0    0    0  0.00000000000E+00  0.00000000000E+00  0.50000000000E+03  0.50000000000E+03  0.00000000000E+00 0.  1.
         11   -1    0    0    0    0 -0.00000000000E+00 -0.00000000000E+00 -0.50000000000E+03  0.50000000000E+03  0.00000000000E+00 0.  1.
        -11    1    1    2    0    0 -0.14004145371E+02 -0.43151591332E+02  0.49498225069E+03  0.49705694284E+03  0.00000000000E+00 0.  1.
         11    1    1    2    0    0  0.11438225778E+02 -0.44019031807E+01 -0.19387714004E+03  0.19426413769E+03  0.00000000000E+00 0.  1.
        -15    1    1    2    0    0  0.17098311949E+02  0.37245779003E+02 -0.26725561640E+03  0.27038550729E+03  0.17770000000E+01 0.  1.
         15    1    1    2    0    0 -0.14532392357E+02  0.10307715509E+02 -0.33849494252E+02  0.38293412184E+02  0.17770000000E+01 0. -1.
</event>
<event>
 6    1  0.1460437E-005  0.5365513E+03  0.7546771E-02  0.9321544E-01
        -11   -1    0    0    0    0  0.00000000000E+00  0.00000000000E+00  0.50000000000E+03  0.50000000000E+03  0.00000000000E+00 0. -1.
         11   -1    0    0    0    0 -0.00000000000E+00 -0.00000000000E+00 -0.50000000000E+03  0.50000000000E+03  0.00000000000E+00 0.  1.
        -11    1    1    2    0    0  0.64386667448E+02  0.68926592048E+01  0.45890255488E+03  0.46344870976E+03  0.00000000000E+00 0. -1.
         11    1    1    2    0    0 -0.20103959946E+02 -0.13487745791E+03 -0.20089705160E+03  0.24280799657E+03  0.00000000000E+00 0.  1.
        -15    1    1    2    0    0 -0.23784068808E+02  0.81894879149E+02 -0.12362018419E+03  0.15019174687E+03  0.17770000000E+01 0. -1.
         15    1    1    2    0    0 -0.20498638694E+02  0.46089919552E+02 -0.13438531909E+03  0.14355154680E+03  0.17770000000E+01 0.  1.
</event>
<event>
 6    1  0.1460437E-005  0.3507596E+03  0.7546771E-02  0.9814241E-01
        -11   -1    0    0    0    0  0.00000000000E+00  0.00000000000E+00  0.50000000000E+03  0.50000000000E+03  0.00000000000E+00 0.  1.
         11   -1    0    0    0    0 -0.00000000000E+00 -0.00000000000E+00 -0.50000000000E+03  0.50000000000E+03  0.00000000000E+00 0. -1.
        -11    1    1    2    0    0 -0.12639984428E+03  0.74475067449E+02  0.28785529809E+03  0.32308532765E+03  0.00000000000E+00 0.  1.
         11    1    1    2    0    0  0.28260485794E+02 -0.24756883802E+03 -0.32166959092E+03  0.40689103005E+03  0.00000000000E+00 0. -1.
        -15    1    1    2    0    0  0.10293959891E+03  0.82226276899E+02  0.93164143372E+02  0.16137049599E+03  0.17770000000E+01 0.  1.
         15    1    1    2    0    0 -0.48002404195E+01  0.90867493675E+02 -0.59349850541E+02  0.10865314631E+03  0.17770000000E+01 0. -1.
</event>
<event>
 6    1  0.1460437E-005  0.5095053E+03  0.7546771E-02  0.9378788E-01
        -11   -1    0    0    0    0  0.00000000000E+00  0.00000000000E+00  0.50000000000E+03  0.50000000000E+03  0.00000000000E+00 0.  1.
         11   -1    0    0    0    0 -0.00000000000E+00 -0.00000000000E+00 -0.50000000000E+03  0.50000000000E+03  0.00000000000E+00 0. -1.
        -11    1    1    2    0    0  0.83262496447E+02  0.11729117464E+03  0.46892981112E+03  0.49049467960E+03  0.00000000000E+00 0.  1.
         11    1    1    2    0    0 -0.85258358538E+02 -0.11948548341E+03 -0.24597979596E+03  0.28644690340E+03  0.00000000000E+00 0. -1.
        -15    1    1    2    0    0  0.15881609084E+01 -0.81052979036E+00 -0.42699948370E+02  0.42774087172E+02  0.17770000000E+01 0.  1.
         15    1    1    2    0    0  0.40770118280E+00  0.30048385596E+01 -0.18025006679E+03  0.18028432982E+03  0.17770000000E+01 0. -1.
</event>
<event>
 6    1  0.1460437E-005  0.5049030E+03  0.7546771E-02  0.9388905E-01
        -11   -1    0    0    0    0  0.00000000000E+00  0.00000000000E+00  0.50000000000E+03  0.50000000000E+03  0.00000000000E+00 0.  1.
         11   -1    0    0    0    0 -0.00000000000E+00 -0.00000000000E+00 -0.50000000000E+03  0.50000000000E+03  0.00000000000E+00 0. -1.
        -11    1    1    2    0    0  0.21833763393E+03 -0.16774809090E+02  0.44403637811E+03  0.49509698212E+03  0.00000000000E+00 0.  1.
         11    1    1    2    0    0 -0.22114083126E+03  0.24786340890E+02 -0.38423146318E+03  0.44401739520E+03  0.00000000000E+00 0. -1.
        -15    1    1    2    0    0  0.19371582534E+01 -0.88762924552E+01 -0.47735437159E+02  0.48624796550E+02  0.17770000000E+01 0.  1.
         15    1    1    2    0    0  0.86603907106E+00  0.86476065490E+00 -0.12069477780E+02  0.12260826137E+02  0.17770000000E+01 0. -1.
</event>
<event>
 6    1  0.1460437E-005  0.4801154E+03  0.7546771E-02  0.9445436E-01
        -11   -1    0    0    0    0  0.00000000000E+00  0.00000000000E+00  0.50000000000E+03  0.50000000000E+03  0.00000000000E+00 0.  1.
         11   -1    0    0    0    0 -0.00000000000E+00 -0.00000000000E+00 -0.50000000000E+03  0.50000000000E+03  0.00000000000E+00 0. -1.
        -11    1    1    2    0    0  0.27468629301E+03 -0.30271232327E+03  0.25386021297E+03  0.48117805224E+03  0.00000000000E+00 0.  1.
         11    1    1    2    0    0 -0.26286731770E+03  0.28503903399E+03 -0.28245107619E+03  0.47971354791E+03  0.00000000000E+00 0. -1.
        -15    1    1    2    0    0 -0.14430119880E+01  0.64013207922E+00  0.14329275237E+02  0.14525078674E+02  0.17770000000E+01 0. -1.
         15    1    1    2    0    0 -0.10375963324E+02  0.17033157207E+02  0.14261587981E+02  0.24583321177E+02  0.17770000000E+01 0.  1.
</event>
