<event>
 6    1  0.1178788E-005  0.1844957E+03  0.7546771E-02  0.1066877E+00
        -11   -1    0    0    0    0  0.00000000000E+00  0.00000000000E+00  0.18250000000E+03  0.18250000000E+03  0.00000000000E+00 0. -1.
         11   -1    0    0    0    0 -0.00000000000E+00 -0.00000000000E+00 -0.18250000000E+03  0.18250000000E+03  0.00000000000E+00 0.  1.
        -11    1    1    2    0    0  0.14748933779E+03 -0.61981442818E+02 -0.83588239114E+02  0.18050428730E+03  0.00000000000E+00 0.  1.
         11    1    1    2    0    0 -0.10944556720E+03  0.39062276636E+02  0.72261880004E+02  0.13684287682E+03  0.00000000000E+00 0. -1.
        -15    1    1    2    0    0 -0.96654760508E+01  0.81116624977E+00 -0.11612829198E+00  0.98615735435E+01  0.17770000000E+01 0. -1.
         15    1    1    2    0    0 -0.28378294536E+02  0.22107999933E+02  0.11442487402E+02  0.37791262334E+02  0.17770000000E+01 0.  1.
</event>
<event>
 6    1  0.1178788E-005  0.1735132E+03  0.7546771E-02  0.1075842E+00
        -11   -1    0    0    0    0  0.00000000000E+00  0.00000000000E+00  0.18250000000E+03  0.18250000000E+03  0.00000000000E+00 0. -1.
         11   -1    0    0    0    0 -0.00000000000E+00 -0.00000000000E+00 -0.18250000000E+03  0.18250000000E+03  0.00000000000E+00 0. -1.
        -11    1    1    2    0    0  0.15224081483E+03  0.60014772678E+02 -0.51430783260E+02  0.17153473148E+03  0.00000000000E+00 0. -1.
         11    1    1    2    0    0 -0.15051195750E+03 -0.63647547928E+02  0.64731146161E+02  0.17576968166E+03  0.00000000000E+00 0. -1.
        -15    1    1    2    0    0 -0.55268622492E+01  0.45536601092E+01 -0.84885426416E+01  0.11247004574E+02  0.17770000000E+01 0.  1.
         15    1    1    2    0    0  0.37980049198E+01 -0.92088485963E+00 -0.48118202590E+01  0.64485822860E+01  0.17770000000E+01 0. -1.
</event>
<event>
 6    1  0.1178788E-005  0.1904446E+03  0.7546771E-02  0.1062301E+00
        -11   -1    0    0    0    0  0.00000000000E+00  0.00000000000E+00  0.18250000000E+03  0.18250000000E+03  0.00000000000E+00 0.  1.
         11   -1    0    0    0    0 -0.00000000000E+00 -0.00000000000E+00 -0.18250000000E+03  0.18250000000E+03  0.00000000000E+00 0. -1.
        -11    1    1    2    0    0 -0.97183127507E+02  0.60136201684E+01  0.14487530531E+03  0.17455537227E+03  0.00000000000E+00 0.  1.
         11    1    1    2    0    0  0.93117869101E+02  0.15994157950E+01 -0.77710197199E+02  0.12129456058E+03  0.00000000000E+00 0. -1.
        -15    1    1    2    0    0 -0.55719949282E+00 -0.10001394218E+02 -0.52749516372E+02  0.53721574474E+02  0.17770000000E+01 0.  1.
         15    1    1    2    0    0  0.46224578984E+01  0.23883582546E+01 -0.14415591739E+02  0.15428492680E+02  0.17770000000E+01 0. -1.
</event>
<event>
 6    1  0.1178788E-005  0.1491703E+03  0.7546771E-02  0.1098594E+00
        -11   -1    0    0    0    0  0.00000000000E+00  0.00000000000E+00  0.18250000000E+03  0.18250000000E+03  0.00000000000E+00 0. -1.
         11   -1    0    0    0    0 -0.00000000000E+00 -0.00000000000E+00 -0.18250000000E+03  0.18250000000E+03  0.00000000000E+00 0. -1.
        -11    1    1    2    0    0 -0.11975190147E+03 -0.33972075966E+02  0.10392686996E+03  0.16215860800E+03  0.00000000000E+00 0. -1.
         11    1    1    2    0    0  0.13157286933E+03  0.29475060663E+02 -0.45124665041E+02  0.14218450879E+03  0.00000000000E+00 0. -1.
        -15    1    1    2    0    0 -0.96335591830E+01  0.34898582492E+01 -0.54046367073E+02  0.55037733383E+02  0.17770000000E+01 0. -1.
         15    1    1    2    0    0 -0.21874086858E+01  0.10071570538E+01 -0.47558378448E+01  0.56191498196E+01  0.17770000000E+01 0. -1.
</event>
<event>
 6    1  0.1178788E-005  0.1679624E+03  0.7546771E-02  0.1080654E+00
        -11   -1    0    0    0    0  0.00000000000E+00  0.00000000000E+00  0.18250000000E+03  0.18250000000E+03  0.00000000000E+00 0. -1.
         11   -1    0    0    0    0 -0.00000000000E+00 -0.00000000000E+00 -0.18250000000E+03  0.18250000000E+03  0.00000000000E+00 0. -1.
        -11    1    1    2    0    0  0.17426124045E+02 -0.25467830481E+02  0.17179811425E+03  0.17454762172E+03  0.00000000000E+00 0. -1.
         11    1    1    2    0    0 -0.15238987312E+02  0.21608731208E+02 -0.10308271788E+02  0.28380001162E+02  0.00000000000E+00 0. -1.
        -15    1    1    2    0    0 -0.51128347936E+01  0.20773317366E+01 -0.31741174241E+02  0.32266333197E+02  0.17770000000E+01 0.  1.
         15    1    1    2    0    0  0.29256980610E+01  0.17817675362E+01 -0.12974866822E+03  0.12980604392E+03  0.17770000000E+01 0. -1.
</event>
<event>
 6    1  0.1178788E-005  0.1448277E+03  0.7546771E-02  0.1103156E+00
        -11   -1    0    0    0    0  0.00000000000E+00  0.00000000000E+00  0.18250000000E+03  0.18250000000E+03  0.00000000000E+00 0. -1.
         11   -1    0    0    0    0 -0.00000000000E+00 -0.00000000000E+00 -0.18250000000E+03  0.18250000000E+03  0.00000000000E+00 0. -1.
        -11    1    1    2    0    0  0.46887149761E+02 -0.43431652071E+02  0.13836574780E+03  0.15241323230E+03  0.00000000000E+00 0. -1.
         11    1    1    2    0    0 -0.13067725557E+02 -0.50784426354E+02 -0.50164119544E+02  0.72569017501E+02  0.00000000000E+00 0. -1.
        -15    1    1    2    0    0 -0.38376095384E+02  0.45788951563E+02 -0.53765889094E+02  0.80394535518E+02  0.17770000000E+01 0.  1.
         15    1    1    2    0    0  0.45566711798E+01  0.48427126863E+02 -0.34435739164E+02  0.59623214684E+02  0.17770000000E+01 0. -1.
</event>
<event>
 6    1  0.1178788E-005  0.1908725E+03  0.7546771E-02  0.1061979E+00
        -11   -1    0    0    0    0  0.00000000000E+00  0.00000000000E+00  0.18250000000E+03  0.18250000000E+03  0.00000000000E+00 0.  1.
         11   -1    0    0    0    0 -0.00000000000E+00 -0.00000000000E+00 -0.18250000000E+03  0.18250000000E+03  0.00000000000E+00 0.  1.
        -11    1    1    2    0    0 -0.10866781495E+02 -0.41246247117E+02  0.16882252382E+03  0.17412749464E+03  0.00000000000E+00 0.  1.
         11    1    1    2    0    0  0.38209692196E+02  0.41911424379E+02 -0.13685010702E+03  0.14813676067E+03  0.00000000000E+00 0.  1.
        -15    1    1    2    0    0 -0.22482290219E+02 -0.23279603134E+01 -0.23375613343E+02  0.32564548222E+02  0.17770000000E+01 0.  1.
         15    1    1    2    0    0 -0.48606204816E+01  0.16627830511E+01 -0.85968034573E+01  0.10171196470E+02  0.17770000000E+01 0. -1.
</event>
<event>
 6    1  0.1324130E-005  0.1880189E+03  0.7546771E-02  0.1064145E+00
        -11   -1    0    0    0    0  0.00000000000E+00  0.00000000000E+00  0.18250000000E+03  0.18250000000E+03  0.00000000000E+00 0. -1.
         11   -1    0    0    0    0 -0.00000000000E+00 -0.00000000000E+00 -0.18250000000E+03  0.18250000000E+03  0.00000000000E+00 0.  1.
        -11    1    1    2    0    0 -0.60691547798E+02 -0.46620739120E+02  0.76593931072E+02  0.10827551693E+03  0.00000000000E+00 0. -1.
         11    1    1    2    0    0  0.71374827333E+02  0.45657892690E+02 -0.15538112944E+03  0.17698108522E+03  0.00000000000E+00 0.  1.
        -15    1    1    2    0    0 -0.51632730264E+01 -0.13618748821E+01  0.47992205618E+02  0.48321047388E+02  0.17770000000E+01 0.  1.
         15    1    1    2    0    0 -0.55200065088E+01  0.23247213122E+01  0.30794992746E+02  0.31422350457E+02  0.17770000000E+01 0. -1.
</event>
<event>
 6    1  0.1178788E-005  0.1856913E+03  0.7546771E-02  0.1065943E+00
        -11   -1    0    0    0    0  0.00000000000E+00  0.00000000000E+00  0.18250000000E+03  0.18250000000E+03  0.00000000000E+00 0.  1.
         11   -1    0    0    0    0 -0.00000000000E+00 -0.00000000000E+00 -0.18250000000E+03  0.18250000000E+03  0.00000000000E+00 0.  1.
        -11    1    1    2    0    0 -0.62745277530E+02  0.15811860484E+03  0.56684492785E+02  0.17930865783E+03  0.00000000000E+00 0.  1.
         11    1    1    2    0    0  0.67927761124E+02 -0.14862030273E+03 -0.46883451972E+02  0.17000068584E+03  0.00000000000E+00 0.  1.
        -15    1    1    2    0    0 -0.33945583540E+00 -0.47302284689E+01 -0.28646569461E+01  0.58184430951E+01  0.17770000000E+01 0. -1.
         15    1    1    2    0    0 -0.48430277588E+01 -0.47680736399E+01 -0.69363838668E+01  0.98722132400E+01  0.17770000000E+01 0. -1.
</event>
<event>
 6    1  0.1178788E-005  0.1337027E+03  0.7546771E-02  0.1115693E+00
        -11   -1    0    0    0    0  0.00000000000E+00  0.00000000000E+00  0.18250000000E+03  0.18250000000E+03  0.00000000000E+00 0.  1.
         11   -1    0    0    0    0 -0.00000000000E+00 -0.00000000000E+00 -0.18250000000E+03  0.18250000000E+03  0.00000000000E+00 0. -1.
        -11    1    1    2    0    0 -0.40321845964E+02 -0.87940135140E+02  0.11396936741E+03  0.14949359631E+03  0.00000000000E+00 0.  1.
         11    1    1    2    0    0  0.56556413902E+02  0.10729334084E+03 -0.42382228851E+02  0.12847856733E+03  0.00000000000E+00 0. -1.
        -15    1    1    2    0    0 -0.30775461043E+02 -0.12998006878E+02 -0.50517510131E+02  0.60590871789E+02  0.17770000000E+01 0. -1.
         15    1    1    2    0    0  0.14540893106E+02 -0.63551988184E+01 -0.21069628429E+02  0.26436964566E+02  0.17770000000E+01 0.  1.
</event>
<event>
 6    1  0.1178788E-005  0.1926282E+03  0.7546771E-02  0.1060667E+00
        -11   -1    0    0    0    0  0.00000000000E+00  0.00000000000E+00  0.18250000000E+03  0.18250000000E+03  0.00000000000E+00 0. -1.
         11   -1    0    0    0    0 -0.00000000000E+00 -0.00000000000E+00 -0.18250000000E+03  0.18250000000E+03  0.00000000000E+00 0. -1.
        -11    1    1    2    0    0 -0.99963966582E+00 -0.25711136668E+02  0.17044048372E+03  0.17237175035E+03  0.00000000000E+00 0. -1.
         11    1    1    2    0    0 -0.26539213167E+02 -0.13844376606E+01 -0.12048474347E+03  0.12338079232E+03  0.00000000000E+00 0. -1.
        -15    1    1    2    0    0  0.11424309788E+02  0.10522455002E+02 -0.17176548011E+01  0.15727205105E+02  0.17770000000E+01 0. -1.
         15    1    1    2    0    0  0.16114543045E+02  0.16573119327E+02 -0.48238085448E+02  0.53520252227E+02  0.17770000000E+01 0.  1.
</event>
<event>
 6    1  0.1178788E-005  0.1688223E+03  0.7546771E-02  0.1079895E+00
        -11   -1    0    0    0    0  0.00000000000E+00  0.00000000000E+00  0.18250000000E+03  0.18250000000E+03  0.00000000000E+00 0.  1.
         11   -1    0    0    0    0 -0.00000000000E+00 -0.00000000000E+00 -0.18250000000E+03  0.18250000000E+03  0.00000000000E+00 0. -1.
        -11    1    1    2    0    0  0.15277138779E+03  0.44127050311E+02  0.70931484005E+02  0.17411940995E+03  0.00000000000E+00 0.  1.
         11    1    1    2    0    0 -0.15203043826E+03 -0.21596437634E+02 -0.58964378923E+02  0.16448847455E+03  0.00000000000E+00 0. -1.
        -15    1    1    2    0    0 -0.16621308177E-01 -0.23096370938E+01 -0.30209038768E+01  0.41974145621E+01  0.17770000000E+01 0.  1.
         15    1    1    2    0    0 -0.72432822143E+00 -0.20220975583E+02 -0.89462012050E+01  0.22194700942E+02  0.17770000000E+01 0.  1.
</event>
<event>
 6    1  0.1178788E-005  0.1851582E+03  0.7546771E-02  0.1066358E+00
        -11   -1    0    0    0    0  0.00000000000E+00  0.00000000000E+00  0.18250000000E+03  0.18250000000E+03  0.00000000000E+00 0. -1.
         11   -1    0    0    0    0 -0.00000000000E+00 -0.00000000000E+00 -0.18250000000E+03  0.18250000000E+03  0.00000000000E+00 0. -1.
        -11    1    1    2    0    0  0.16895443348E+02  0.15725914830E+03  0.68543195061E+02  0.17237768220E+03  0.00000000000E+00 0. -1.
         11    1    1    2    0    0 -0.14348720829E+02 -0.16048816108E+03 -0.79879538129E+02  0.17984180896E+03  0.00000000000E+00 0. -1.
        -15    1    1    2    0    0  0.63598105475E-01  0.12768016607E+01  0.42239488539E+01  0.47574930499E+01  0.17770000000E+01 0.  1.
         15    1    1    2    0    0 -0.26103206246E+01  0.19522111219E+01  0.71123942148E+01  0.80230157980E+01  0.17770000000E+01 0. -1.
</event>
<event>
 6    1  0.1178788E-005  0.1769747E+03  0.7546771E-02  0.1072940E+00
        -11   -1    0    0    0    0  0.00000000000E+00  0.00000000000E+00  0.18250000000E+03  0.18250000000E+03  0.00000000000E+00 0. -1.
         11   -1    0    0    0    0 -0.00000000000E+00 -0.00000000000E+00 -0.18250000000E+03  0.18250000000E+03  0.00000000000E+00 0. -1.
        -11    1    1    2    0    0 -0.43208136208E+02  0.15029014502E+03  0.80971534904E+02  0.17609787105E+03  0.00000000000E+00 0. -1.
         11    1    1    2    0    0  0.36121689124E+02 -0.15304317464E+03 -0.83282090181E+02  0.17794071000E+03  0.00000000000E+00 0. -1.
        -15    1    1    2    0    0 -0.75621645512E+00 -0.47513505337E-01  0.14246087611E+01  0.24002833129E+01  0.17770000000E+01 0. -1.
         15    1    1    2    0    0  0.78426635393E+01  0.28005431318E+01  0.88594651557E+00  0.85611356403E+01  0.17770000000E+01 0. -1.
</event>
<event>
 6    1  0.1178788E-005  0.1912326E+03  0.7546771E-02  0.1061709E+00
        -11   -1    0    0    0    0  0.00000000000E+00  0.00000000000E+00  0.18250000000E+03  0.18250000000E+03  0.00000000000E+00 0.  1.
         11   -1    0    0    0    0 -0.00000000000E+00 -0.00000000000E+00 -0.18250000000E+03  0.18250000000E+03  0.00000000000E+00 0.  1.
        -11    1    1    2    0    0 -0.58522858454E+02 -0.44691724054E+02  0.15739393241E+03  0.17376744551E+03  0.00000000000E+00 0.  1.
         11    1    1    2    0    0  0.56768571525E+02  0.43058881440E+02 -0.58781833234E+02  0.92369052730E+02  0.00000000000E+00 0.  1.
        -15    1    1    2    0    0  0.25862275658E+01  0.27659716678E+01 -0.80750181193E+02  0.80858448316E+02  0.17770000000E+01 0. -1.
         15    1    1    2    0    0 -0.83194063721E+00 -0.11331290536E+01 -0.17861917979E+02  0.18005053445E+02  0.17770000000E+01 0.  1.
</event>
<event>
 6    1  0.1178788E-005  0.1672598E+03  0.7546771E-02  0.1081278E+00
        -11   -1    0    0    0    0  0.00000000000E+00  0.00000000000E+00  0.18250000000E+03  0.18250000000E+03  0.00000000000E+00 0.  1.
         11   -1    0    0    0    0 -0.00000000000E+00 -0.00000000000E+00 -0.18250000000E+03  0.18250000000E+03  0.00000000000E+00 0. -1.
        -11    1    1    2    0    0  0.11979521299E+03  0.33623795706E+02  0.10753903902E+03  0.16445697798E+03  0.00000000000E+00 0.  1.
         11    1    1    2    0    0 -0.11971079183E+03 -0.61285556830E+02 -0.10595116341E+03  0.17120818375E+03  0.00000000000E+00 0. -1.
        -15    1    1    2    0    0  0.35379420111E+01  0.69057306381E+01  0.10392903803E+01  0.80277022126E+01  0.17770000000E+01 0.  1.
         15    1    1    2    0    0 -0.36223631705E+01  0.20756030486E+02 -0.26271659952E+01  0.21307136049E+02  0.17770000000E+01 0. -1.
</event>
<event>
 6    1  0.1178788E-005  0.1253947E+03  0.7546771E-02  0.1125969E+00
        -11   -1    0    0    0    0  0.00000000000E+00  0.00000000000E+00  0.18250000000E+03  0.18250000000E+03  0.00000000000E+00 0.  1.
         11   -1    0    0    0    0 -0.00000000000E+00 -0.00000000000E+00 -0.18250000000E+03  0.18250000000E+03  0.00000000000E+00 0.  1.
        -11    1    1    2    0    0 -0.69365538584E+02 -0.11030314368E+03  0.10587150119E+03  0.16789025050E+03  0.00000000000E+00 0.  1.
         11    1    1    2    0    0  0.27958602651E+02  0.91478391763E+02 -0.21295486216E+02  0.97997333407E+02  0.00000000000E+00 0.  1.
        -15    1    1    2    0    0  0.29547969785E+02  0.19296471799E+02 -0.77513900854E+02  0.85188020854E+02  0.17770000000E+01 0.  1.
         15    1    1    2    0    0  0.11858966149E+02 -0.47171987956E+00 -0.70621141245E+01  0.13924395235E+02  0.17770000000E+01 0. -1.
</event>
<event>
 6    1  0.1178788E-005  0.1844271E+03  0.7546771E-02  0.1066931E+00
        -11   -1    0    0    0    0  0.00000000000E+00  0.00000000000E+00  0.18250000000E+03  0.18250000000E+03  0.00000000000E+00 0.  1.
         11   -1    0    0    0    0 -0.00000000000E+00 -0.00000000000E+00 -0.18250000000E+03  0.18250000000E+03  0.00000000000E+00 0. -1.
        -11    1    1    2    0    0 -0.30053069603E+02 -0.26975369288E+02  0.17599921028E+03  0.18057292034E+03  0.00000000000E+00 0.  1.
         11    1    1    2    0    0  0.36560629087E+02  0.27476677848E+02 -0.15772436941E+03  0.16422126577E+03  0.00000000000E+00 0. -1.
        -15    1    1    2    0    0 -0.51670092767E+01 -0.21218551864E+01 -0.12105637284E+02  0.13450072020E+02  0.17770000000E+01 0. -1.
         15    1    1    2    0    0 -0.13405502077E+01  0.16205466260E+01 -0.61692035891E+01  0.67557418653E+01  0.17770000000E+01 0. -1.
</event>
<event>
 6    1  0.1178788E-005  0.1278279E+03  0.7546771E-02  0.1122871E+00
        -11   -1    0    0    0    0  0.00000000000E+00  0.00000000000E+00  0.18250000000E+03  0.18250000000E+03  0.00000000000E+00 0.  1.
         11   -1    0    0    0    0 -0.00000000000E+00 -0.00000000000E+00 -0.18250000000E+03  0.18250000000E+03  0.00000000000E+00 0.  1.
        -11    1    1    2    0    0  0.17659411252E+02  0.52930443612E+02  0.97910198725E+02  0.11269380498E+03  0.00000000000E+00 0.  1.
         11    1    1    2    0    0  0.42924594866E+01 -0.72715778103E+02  0.58145808938E+02  0.93203780453E+02  0.00000000000E+00 0.  1.
        -15    1    1    2    0    0 -0.21638676131E+02  0.16866999364E+02 -0.13535890322E+03  0.13812283801E+03  0.17770000000E+01 0.  1.
         15    1    1    2    0    0 -0.31319460776E+00  0.29183351271E+01 -0.20697104447E+02  0.20979576551E+02  0.17770000000E+01 0.  1.
</event>
<event>
 6    1  0.1178788E-005  0.1838364E+03  0.7546771E-02  0.1067396E+00
        -11   -1    0    0    0    0  0.00000000000E+00  0.00000000000E+00  0.18250000000E+03  0.18250000000E+03  0.00000000000E+00 0.  1.
         11   -1    0    0    0    0 -0.00000000000E+00 -0.00000000000E+00 -0.18250000000E+03  0.18250000000E+03  0.00000000000E+00 0. -1.
        -11    1    1    2    0    0 -0.75477686135E+02 -0.11151612476E+02  0.16431374066E+03  0.18116358612E+03  0.00000000000E+00 0.  1.
         11    1    1    2    0    0  0.72765620087E+02  0.15459546141E+02 -0.14598186666E+03  0.16384302984E+03  0.00000000000E+00 0. -1.
        -15    1    1    2    0    0  0.26041963590E+01 -0.50817153422E+01 -0.14812799084E+02  0.15974430043E+02  0.17770000000E+01 0.  1.
         15    1    1    2    0    0  0.10786968895E+00  0.77378167688E+00 -0.35190749224E+01  0.40189540011E+01  0.17770000000E+01 0.  1.
</event>
<event>
 6    1  0.1178788E-005  0.1838108E+03  0.7546771E-02  0.1067416E+00
        -11   -1    0    0    0    0  0.00000000000E+00  0.00000000000E+00  0.18250000000E+03  0.18250000000E+03  0.00000000000E+00 0. -1.
         11   -1    0    0    0    0 -0.00000000000E+00 -0.00000000000E+00 -0.18250000000E+03  0.18250000000E+03  0.00000000000E+00 0.  1.
        -11    1    1    2    0    0  0.10712735037E+02 -0.62233325789E+01  0.18076517795E+03  0.18118924394E+03  0.00000000000E+00 0. -1.
         11    1    1    2    0    0 -0.30875695691E+01  0.79344917369E+01 -0.15539553863E+02  0.17719113388E+02  0.00000000000E+00 0.  1.
        -15    1    1    2    0    0 -0.61029081172E+01 -0.71773081188E+01 -0.66549989063E+02  0.67237028582E+02  0.17770000000E+01 0. -1.
         15    1    1    2    0    0 -0.15222573504E+01  0.54661489608E+01 -0.98675635020E+02  0.98854614093E+02  0.17770000000E+01 0.  1.
</event>
<event>
 6    1  0.1178788E-005  0.1909608E+03  0.7546771E-02  0.1061913E+00
        -11   -1    0    0    0    0  0.00000000000E+00  0.00000000000E+00  0.18250000000E+03  0.18250000000E+03  0.00000000000E+00 0. -1.
         11   -1    0    0    0    0 -0.00000000000E+00 -0.00000000000E+00 -0.18250000000E+03  0.18250000000E+03  0.00000000000E+00 0. -1.
        -11    1    1    2    0    0  0.12647729872E+03  0.85478023277E+02 -0.25807242999E+02  0.15481929255E+03  0.00000000000E+00 0. -1.
         11    1    1    2    0    0 -0.14334953543E+03 -0.86616366704E+02  0.47309353242E+02  0.17403924613E+03  0.00000000000E+00 0. -1.
        -15    1    1    2    0    0  0.16173159588E+02 -0.31503221143E+01 -0.25202930748E+02  0.30163571867E+02  0.17770000000E+01 0.  1.
         15    1    1    2    0    0  0.69907712230E+00  0.42886655411E+01  0.37008205049E+01  0.59778894567E+01  0.17770000000E+01 0. -1.
</event>
<event>
 6    1  0.1178788E-005  0.1613436E+03  0.7546771E-02  0.1086665E+00
        -11   -1    0    0    0    0  0.00000000000E+00  0.00000000000E+00  0.18250000000E+03  0.18250000000E+03  0.00000000000E+00 0.  1.
         11   -1    0    0    0    0 -0.00000000000E+00 -0.00000000000E+00 -0.18250000000E+03  0.18250000000E+03  0.00000000000E+00 0. -1.
        -11    1    1    2    0    0  0.13685986960E+03 -0.83956646394E+02  0.59535383742E+02  0.17124194666E+03  0.00000000000E+00 0.  1.
         11    1    1    2    0    0 -0.13153642960E+03  0.76947840497E+02 -0.21105326068E+02  0.15384484801E+03  0.00000000000E+00 0. -1.
        -15    1    1    2    0    0 -0.18288543461E+00  0.19053451094E+01 -0.47853076581E+01  0.54516681347E+01  0.17770000000E+01 0. -1.
         15    1    1    2    0    0 -0.51405545613E+01  0.51034607873E+01 -0.33644750017E+02  0.34461537196E+02  0.17770000000E+01 0. -1.
</event>
<event>
 6    1  0.1178788E-005  0.1921708E+03  0.7546771E-02  0.1061007E+00
        -11   -1    0    0    0    0  0.00000000000E+00  0.00000000000E+00  0.18250000000E+03  0.18250000000E+03  0.00000000000E+00 0.  1.
         11   -1    0    0    0    0 -0.00000000000E+00 -0.00000000000E+00 -0.18250000000E+03  0.18250000000E+03  0.00000000000E+00 0.  1.
        -11    1    1    2    0    0  0.13721884189E+03 -0.97985537983E+02 -0.37944258133E+02  0.17282923060E+03  0.00000000000E+00 0.  1.
         11    1    1    2    0    0 -0.94236869280E+02  0.10228693058E+03  0.90173552005E+01  0.13937186371E+03  0.00000000000E+00 0.  1.
        -15    1    1    2    0    0 -0.38513382639E+02 -0.59790749170E+01  0.26445914326E+02  0.47133577126E+02  0.17770000000E+01 0. -1.
         15    1    1    2    0    0 -0.44685899708E+01  0.16776823165E+01  0.24809886072E+01  0.56653285652E+01  0.17770000000E+01 0.  1.
</event>
<event>
 6    1  0.1178788E-005  0.1837389E+03  0.7546771E-02  0.1067473E+00
        -11   -1    0    0    0    0  0.00000000000E+00  0.00000000000E+00  0.18250000000E+03  0.18250000000E+03  0.00000000000E+00 0.  1.
         11   -1    0    0    0    0 -0.00000000000E+00 -0.00000000000E+00 -0.18250000000E+03  0.18250000000E+03  0.00000000000E+00 0. -1.
        -11    1    1    2    0    0 -0.50833540448E+01 -0.48667922049E+02  0.17453135414E+03  0.18126113953E+03  0.00000000000E+00 0.  1.
         11    1    1    2    0    0  0.52725506092E+01  0.43288016267E+02 -0.10415582590E+03  0.11291628851E+03  0.00000000000E+00 0. -1.
        -15    1    1    2    0    0  0.11801995836E+01  0.57261542726E-01 -0.22070797958E+02  0.22173723220E+02  0.17770000000E+01 0. -1.
         15    1    1    2    0    0 -0.13693961480E+01  0.53226442398E+01 -0.48304730281E+02  0.48648848743E+02  0.17770000000E+01 0. -1.
</event>
<event>
 6    1  0.1178788E-005  0.1216745E+03  0.7546771E-02  0.1130860E+00
        -11   -1    0    0    0    0  0.00000000000E+00  0.00000000000E+00  0.18250000000E+03  0.18250000000E+03  0.00000000000E+00 0.  1.
         11   -1    0    0    0    0 -0.00000000000E+00 -0.00000000000E+00 -0.18250000000E+03  0.18250000000E+03  0.00000000000E+00 0.  1.
        -11    1    1    2    0    0 -0.69551365932E+02 -0.89175506893E+00  0.74036018987E+02  0.10158503747E+03  0.00000000000E+00 0.  1.
         11    1    1    2    0    0  0.73883007445E+02 -0.52951699088E+01  0.79955798837E+02  0.10899388690E+03  0.00000000000E+00 0.  1.
        -15    1    1    2    0    0 -0.68690774190E+00  0.37408746028E+01 -0.25597792260E+02  0.25939751013E+02  0.17770000000E+01 0.  1.
         15    1    1    2    0    0 -0.36447337711E+01  0.24460503749E+01 -0.12839402556E+03  0.12848132462E+03  0.17770000000E+01 0.  1.
</event>
<event>
 6    1  0.1178788E-005  0.1846410E+03  0.7546771E-02  0.1066763E+00
        -11   -1    0    0    0    0  0.00000000000E+00  0.00000000000E+00  0.18250000000E+03  0.18250000000E+03  0.00000000000E+00 0.  1.
         11   -1    0    0    0    0 -0.00000000000E+00 -0.00000000000E+00 -0.18250000000E+03  0.18250000000E+03  0.00000000000E+00 0.  1.
        -11    1    1    2    0    0  0.85396959487E+02  0.43494482115E+02  0.15279051855E+03  0.18035895659E+03  0.00000000000E+00 0.  1.
         11    1    1    2    0    0 -0.69381879884E+02 -0.35895613962E+02 -0.96666116930E+02  0.12428466728E+03  0.00000000000E+00 0.  1.
        -15    1    1    2    0    0  0.88599404744E+00  0.51445104760E+00 -0.14824310418E+02  0.14965545553E+02  0.17770000000E+01 0.  1.
         15    1    1    2    0    0 -0.16901073651E+02 -0.81133192004E+01 -0.41300091198E+02  0.45390830582E+02  0.17770000000E+01 0.  1.
</event>
<event>
 6    1  0.1178788E-005  0.1416489E+03  0.7546771E-02  0.1106608E+00
        -11   -1    0    0    0    0  0.00000000000E+00  0.00000000000E+00  0.18250000000E+03  0.18250000000E+03  0.00000000000E+00 0. -1.
         11   -1    0    0    0    0 -0.00000000000E+00 -0.00000000000E+00 -0.18250000000E+03  0.18250000000E+03  0.00000000000E+00 0. -1.
        -11    1    1    2    0    0 -0.51471342455E+02  0.11801948428E+03  0.21735365780E+02  0.13057688880E+03  0.00000000000E+00 0. -1.
         11    1    1    2    0    0  0.53292280494E+02 -0.12102380098E+03 -0.92704930832E+02  0.16149622833E+03  0.00000000000E+00 0. -1.
        -15    1    1    2    0    0  0.13019601437E+01 -0.53952604101E+01  0.45434739414E+02  0.45806955910E+02  0.17770000000E+01 0. -1.
         15    1    1    2    0    0 -0.31228981826E+01  0.83995771178E+01  0.25534825638E+02  0.27119926958E+02  0.17770000000E+01 0.  1.
</event>
<event>
 6    1  0.1178788E-005  0.1898672E+03  0.7546771E-02  0.1062737E+00
        -11   -1    0    0    0    0  0.00000000000E+00  0.00000000000E+00  0.18250000000E+03  0.18250000000E+03  0.00000000000E+00 0.  1.
         11   -1    0    0    0    0 -0.00000000000E+00 -0.00000000000E+00 -0.18250000000E+03  0.18250000000E+03  0.00000000000E+00 0. -1.
        -11    1    1    2    0    0  0.16606392864E+02  0.26851153825E+02  0.17226361173E+03  0.17513283151E+03  0.00000000000E+00 0.  1.
         11    1    1    2    0    0 -0.14910298250E+02 -0.36160708376E+01 -0.14903721894E+03  0.14982484971E+03  0.00000000000E+00 0. -1.
        -15    1    1    2    0    0 -0.13260638528E+01 -0.76112660293E+01  0.37851860716E+01  0.87849404384E+01  0.17770000000E+01 0.  1.
         15    1    1    2    0    0 -0.37003076180E+00 -0.15623816958E+02 -0.27011578865E+02  0.31257378343E+02  0.17770000000E+01 0. -1.
</event>
<event>
 6    1  0.1178788E-005  0.1863431E+03  0.7546771E-02  0.1065436E+00
        -11   -1    0    0    0    0  0.00000000000E+00  0.00000000000E+00  0.18250000000E+03  0.18250000000E+03  0.00000000000E+00 0.  1.
         11   -1    0    0    0    0 -0.00000000000E+00 -0.00000000000E+00 -0.18250000000E+03  0.18250000000E+03  0.00000000000E+00 0. -1.
        -11    1    1    2    0    0 -0.81075396431E+02  0.85086794647E+02  0.13455590717E+03  0.17865686296E+03  0.00000000000E+00 0.  1.
         11    1    1    2    0    0  0.75636851681E+02 -0.67406874327E+02 -0.11807436005E+03  0.15558333632E+03  0.00000000000E+00 0. -1.
        -15    1    1    2    0    0  0.84104578870E+01 -0.13934804031E+01 -0.26180995024E+01  0.90933911995E+01  0.17770000000E+01 0.  1.
         15    1    1    2    0    0 -0.29719131368E+01 -0.16286439917E+02 -0.13863447611E+02  0.21666409521E+02  0.17770000000E+01 0. -1.
</event>
<event>
 6    1  0.1178788E-005  0.1882849E+03  0.7546771E-02  0.1063941E+00
        -11   -1    0    0    0    0  0.00000000000E+00  0.00000000000E+00  0.18250000000E+03  0.18250000000E+03  0.00000000000E+00 0. -1.
         11   -1    0    0    0    0 -0.00000000000E+00 -0.00000000000E+00 -0.18250000000E+03  0.18250000000E+03  0.00000000000E+00 0.  1.
        -11    1    1    2    0    0  0.12517051840E+02 -0.35216385280E+02  0.17271759136E+03  0.17671512880E+03  0.00000000000E+00 0. -1.
         11    1    1    2    0    0 -0.27571389179E+02  0.16542924257E+02 -0.34445827375E+02  0.47120747742E+02  0.00000000000E+00 0.  1.
        -15    1    1    2    0    0  0.56085596279E+01  0.17379367905E+02 -0.10088686724E+03  0.10254177724E+03  0.17770000000E+01 0.  1.
         15    1    1    2    0    0  0.94457777106E+01  0.12940931179E+01 -0.37384896747E+02  0.38622346218E+02  0.17770000000E+01 0. -1.
</event>
<event>
 6    1  0.1178788E-005  0.1851728E+03  0.7546771E-02  0.1066347E+00
        -11   -1    0    0    0    0  0.00000000000E+00  0.00000000000E+00  0.18250000000E+03  0.18250000000E+03  0.00000000000E+00 0.  1.
         11   -1    0    0    0    0 -0.00000000000E+00 -0.00000000000E+00 -0.18250000000E+03  0.18250000000E+03  0.00000000000E+00 0.  1.
        -11    1    1    2    0    0  0.78601216657E+01 -0.15649675529E+02  0.15443582610E+02  0.23349477523E+02  0.00000000000E+00 0.  1.
         11    1    1    2    0    0 -0.58625081805E+01  0.51906220425E+02 -0.17207323554E+03  0.17982720348E+03  0.00000000000E+00 0.  1.
        -15    1    1    2    0    0  0.67339095881E+01 -0.17462673620E+02  0.92975664898E+02  0.94857379790E+02  0.17770000000E+01 0. -1.
         15    1    1    2    0    0 -0.87315230733E+01 -0.18793871276E+02  0.63653988034E+02  0.66965939210E+02  0.17770000000E+01 0.  1.
</event>
<event>
 6    1  0.1178788E-005  0.1847502E+03  0.7546771E-02  0.1066678E+00
        -11   -1    0    0    0    0  0.00000000000E+00  0.00000000000E+00  0.18250000000E+03  0.18250000000E+03  0.00000000000E+00 0.  1.
         11   -1    0    0    0    0 -0.00000000000E+00 -0.00000000000E+00 -0.18250000000E+03  0.18250000000E+03  0.00000000000E+00 0.  1.
        -11    1    1    2    0    0 -0.13746984470E+03  0.55190619762E+02 -0.41687092627E+02  0.15388884431E+03  0.00000000000E+00 0.  1.
         11    1    1    2    0    0  0.16320755741E+03 -0.54519948232E+02  0.53673676440E+02  0.18024981302E+03  0.00000000000E+00 0.  1.
        -15    1    1    2    0    0 -0.25607514486E+01  0.21607844814E+01  0.12113389433E+01  0.39813953072E+01  0.17770000000E+01 0.  1.
         15    1    1    2    0    0 -0.23176961255E+02 -0.28314560114E+01 -0.13197922757E+02  0.26879947363E+02  0.17770000000E+01 0. -1.
</event>
<event>
 6    1  0.1178788E-005  0.1612721E+03  0.7546771E-02  0.1086732E+00
        -11   -1    0    0    0    0  0.00000000000E+00  0.00000000000E+00  0.18250000000E+03  0.18250000000E+03  0.00000000000E+00 0. -1.
         11   -1    0    0    0    0 -0.00000000000E+00 -0.00000000000E+00 -0.18250000000E+03  0.18250000000E+03  0.00000000000E+00 0.  1.
        -11    1    1    2    0    0 -0.18234821785E+02  0.33393687202E+02  0.12825750906E+02  0.40151549867E+02  0.00000000000E+00 0. -1.
         11    1    1    2    0    0  0.34876011743E+02 -0.41478566695E+02 -0.16380787673E+03  0.17253935252E+03  0.00000000000E+00 0.  1.
        -15    1    1    2    0    0 -0.11947916346E+02  0.74493022097E+01  0.89382504810E+02  0.90502125409E+02  0.17770000000E+01 0. -1.
         15    1    1    2    0    0 -0.46932736124E+01  0.63557728363E+00  0.61599621010E+02  0.61806972206E+02  0.17770000000E+01 0.  1.
</event>
<event>
 6    1  0.1178788E-005  0.1307513E+03  0.7546771E-02  0.1119247E+00
        -11   -1    0    0    0    0  0.00000000000E+00  0.00000000000E+00  0.18250000000E+03  0.18250000000E+03  0.00000000000E+00 0. -1.
         11   -1    0    0    0    0 -0.00000000000E+00 -0.00000000000E+00 -0.18250000000E+03  0.18250000000E+03  0.00000000000E+00 0.  1.
        -11    1    1    2    0    0 -0.24095675709E+02  0.13533025094E+03  0.93812294104E+02  0.16642002563E+03  0.00000000000E+00 0. -1.
         11    1    1    2    0    0  0.40311921473E+02 -0.10095529226E+03 -0.14039065233E+02  0.10960892938E+03  0.00000000000E+00 0.  1.
        -15    1    1    2    0    0 -0.99135931406E+01 -0.25736170298E+02 -0.65138440037E+02  0.70758772531E+02  0.17770000000E+01 0.  1.
         15    1    1    2    0    0 -0.63026526232E+01 -0.86387883772E+01 -0.14634788833E+02  0.18212272453E+02  0.17770000000E+01 0.  1.
</event>
<event>
 6    1  0.1178788E-005  0.1483210E+03  0.7546771E-02  0.1099472E+00
        -11   -1    0    0    0    0  0.00000000000E+00  0.00000000000E+00  0.18250000000E+03  0.18250000000E+03  0.00000000000E+00 0.  1.
         11   -1    0    0    0    0 -0.00000000000E+00 -0.00000000000E+00 -0.18250000000E+03  0.18250000000E+03  0.00000000000E+00 0.  1.
        -11    1    1    2    0    0  0.17808225251E+02 -0.96244731011E+02  0.13738537816E+03  0.16868587157E+03  0.00000000000E+00 0.  1.
         11    1    1    2    0    0 -0.12063688452E+02  0.60588465431E+02 -0.92109881946E+01  0.62460683841E+02  0.00000000000E+00 0.  1.
        -15    1    1    2    0    0  0.13754141169E+01  0.31350678253E+01 -0.54204313592E+01  0.66527602829E+01  0.17770000000E+01 0. -1.
         15    1    1    2    0    0 -0.71199509153E+01  0.32521197755E+02 -0.12275395861E+03  0.12720068431E+03  0.17770000000E+01 0.  1.
</event>
<event>
 6    1  0.1178788E-005  0.1873483E+03  0.7546771E-02  0.1064660E+00
        -11   -1    0    0    0    0  0.00000000000E+00  0.00000000000E+00  0.18250000000E+03  0.18250000000E+03  0.00000000000E+00 0.  1.
         11   -1    0    0    0    0 -0.00000000000E+00 -0.00000000000E+00 -0.18250000000E+03  0.18250000000E+03  0.00000000000E+00 0. -1.
        -11    1    1    2    0    0 -0.80938653908E+02 -0.81349008836E+02  0.13561493809E+03  0.17765173337E+03  0.00000000000E+00 0.  1.
         11    1    1    2    0    0  0.20532504721E+02  0.59395406438E+02 -0.63343652394E+02  0.89229010723E+02  0.00000000000E+00 0. -1.
        -15    1    1    2    0    0  0.57309894971E+02  0.18344633194E+02 -0.70584450339E+02  0.92769995080E+02  0.17770000000E+01 0. -1.
         15    1    1    2    0    0  0.30962542160E+01  0.36089692043E+01 -0.16868353583E+01  0.53492608287E+01  0.17770000000E+01 0.  1.
</event>
<event>
 6    1  0.1178788E-005  0.1892234E+03  0.7546771E-02  0.1063226E+00
        -11   -1    0    0    0    0  0.00000000000E+00  0.00000000000E+00  0.18250000000E+03  0.18250000000E+03  0.00000000000E+00 0. -1.
         11   -1    0    0    0    0 -0.00000000000E+00 -0.00000000000E+00 -0.18250000000E+03  0.18250000000E+03  0.00000000000E+00 0. -1.
        -11    1    1    2    0    0  0.30229262422E+02  0.20660515220E+02  0.17192080782E+03  0.17577664622E+03  0.00000000000E+00 0. -1.
         11    1    1    2    0    0 -0.26911801450E+02  0.70878768958E+01 -0.19328687047E+02  0.33883346929E+02  0.00000000000E+00 0. -1.
        -15    1    1    2    0    0  0.57147908714E+00 -0.17639139285E+02 -0.81711282297E+02  0.83614336132E+02  0.17770000000E+01 0. -1.
         15    1    1    2    0    0 -0.38889400597E+01 -0.10109252831E+02 -0.70880838476E+02  0.71725670716E+02  0.17770000000E+01 0.  1.
</event>
<event>
 6    1  0.1178788E-005  0.1278169E+03  0.7546771E-02  0.1122884E+00
        -11   -1    0    0    0    0  0.00000000000E+00  0.00000000000E+00  0.18250000000E+03  0.18250000000E+03  0.00000000000E+00 0.  1.
         11   -1    0    0    0    0 -0.00000000000E+00 -0.00000000000E+00 -0.18250000000E+03  0.18250000000E+03  0.00000000000E+00 0.  1.
        -11    1    1    2    0    0 -0.10498515623E+03  0.43435333491E+02  0.20777698702E+02  0.11549988739E+03  0.00000000000E+00 0.  1.
         11    1    1    2    0    0  0.97285381917E+02 -0.46793421972E+02 -0.11328978275E+03  0.15648848121E+03  0.00000000000E+00 0.  1.
        -15    1    1    2    0    0  0.48863068192E+01  0.26002791925E+01  0.44451543110E+02  0.44830066474E+02  0.17770000000E+01 0.  1.
         15    1    1    2    0    0  0.28134674924E+01  0.75780928857E+00  0.48060540941E+02  0.48181564927E+02  0.17770000000E+01 0. -1.
</event>
<event>
 6    1  0.1178788E-005  0.1860270E+03  0.7546771E-02  0.1065681E+00
        -11   -1    0    0    0    0  0.00000000000E+00  0.00000000000E+00  0.18250000000E+03  0.18250000000E+03  0.00000000000E+00 0.  1.
         11   -1    0    0    0    0 -0.00000000000E+00 -0.00000000000E+00 -0.18250000000E+03  0.18250000000E+03  0.00000000000E+00 0. -1.
        -11    1    1    2    0    0  0.57926714768E+02 -0.85107873029E+01  0.11585330450E+03  0.12980726462E+03  0.00000000000E+00 0.  1.
         11    1    1    2    0    0 -0.84771651680E+02  0.54639335258E+01 -0.15752857595E+03  0.17897301400E+03  0.00000000000E+00 0. -1.
        -15    1    1    2    0    0  0.16519452558E+02  0.74334133823E+01  0.40979439574E+02  0.44839939163E+02  0.17770000000E+01 0.  1.
         15    1    1    2    0    0  0.10325484354E+02 -0.43865596052E+01  0.69583187325E+00  0.11379782217E+02  0.17770000000E+01 0. -1.
</event>
<event>
 6    1  0.1178788E-005  0.1855282E+03  0.7546771E-02  0.1066070E+00
        -11   -1    0    0    0    0  0.00000000000E+00  0.00000000000E+00  0.18250000000E+03  0.18250000000E+03  0.00000000000E+00 0.  1.
         11   -1    0    0    0    0 -0.00000000000E+00 -0.00000000000E+00 -0.18250000000E+03  0.18250000000E+03  0.00000000000E+00 0. -1.
        -11    1    1    2    0    0 -0.37359299556E+02 -0.38454602703E+02  0.14437029583E+03  0.15400407803E+03  0.00000000000E+00 0.  1.
         11    1    1    2    0    0  0.57097422917E+02  0.36535798454E+02 -0.16617801485E+03  0.17947176071E+03  0.00000000000E+00 0. -1.
        -15    1    1    2    0    0 -0.11369635253E+02  0.13260743028E+01  0.19436835357E+02  0.22626872884E+02  0.17770000000E+01 0. -1.
         15    1    1    2    0    0 -0.83684881079E+01  0.59272994553E+00  0.23708836662E+01  0.88972883711E+01  0.17770000000E+01 0.  1.
</event>
<event>
 6    1  0.1178788E-005  0.1908261E+03  0.7546771E-02  0.1062014E+00
        -11   -1    0    0    0    0  0.00000000000E+00  0.00000000000E+00  0.18250000000E+03  0.18250000000E+03  0.00000000000E+00 0. -1.
         11   -1    0    0    0    0 -0.00000000000E+00 -0.00000000000E+00 -0.18250000000E+03  0.18250000000E+03  0.00000000000E+00 0.  1.
        -11    1    1    2    0    0  0.43065682580E+02  0.30228390148E+02  0.49900444216E+02  0.72515259911E+02  0.00000000000E+00 0. -1.
         11    1    1    2    0    0 -0.36367483167E+02 -0.31297818479E+02 -0.16743479232E+03  0.17417392730E+03  0.00000000000E+00 0.  1.
        -15    1    1    2    0    0 -0.46615081085E+01 -0.39720735647E+01  0.87796331579E+02  0.88027612679E+02  0.17770000000E+01 0.  1.
         15    1    1    2    0    0 -0.20366913046E+01  0.50415018954E+01  0.29738016524E+02  0.30283200106E+02  0.17770000000E+01 0. -1.
</event>
<event>
 6    1  0.1178788E-005  0.1904069E+03  0.7546771E-02  0.1062330E+00
        -11   -1    0    0    0    0  0.00000000000E+00  0.00000000000E+00  0.18250000000E+03  0.18250000000E+03  0.00000000000E+00 0.  1.
         11   -1    0    0    0    0 -0.00000000000E+00 -0.00000000000E+00 -0.18250000000E+03  0.18250000000E+03  0.00000000000E+00 0. -1.
        -11    1    1    2    0    0 -0.13050987944E+03 -0.23615433919E+02  0.11354398621E+03  0.17459311027E+03  0.00000000000E+00 0.  1.
         11    1    1    2    0    0  0.11423699254E+03  0.42712790074E+02 -0.77695104335E+02  0.14460636964E+03  0.00000000000E+00 0. -1.
        -15    1    1    2    0    0  0.49635072669E-01 -0.34473248697E+01 -0.60320574135E+00  0.39253150910E+01  0.17770000000E+01 0.  1.
         15    1    1    2    0    0  0.16223251826E+02 -0.15650031285E+02 -0.35245676129E+02  0.41875205000E+02  0.17770000000E+01 0. -1.
</event>
