<event>
 6    1  0.1599106E-003  0.4863627E+03  0.7546771E-02  0.9430852E-01
        -11   -1    0    0    0    0  0.00000000000E+00  0.00000000000E+00  0.50000000000E+03  0.50000000000E+03  0.00000000000E+00 0. -1.
         11   -1    0    0    0    0 -0.00000000000E+00 -0.00000000000E+00 -0.50000000000E+03  0.50000000000E+03  0.00000000000E+00 0. -1.
        -11    1    1    2    0    0  0.83480676596E+01  0.77447877338E+01  0.48584691265E+03  0.48598034374E+03  0.00000000000E+00 0. -1.
         11    1    1    2    0    0 -0.49700995112E+01  0.58441942623E+01 -0.48678579876E+03  0.48684624921E+03  0.00000000000E+00 0. -1.
        -15    1    1    2    0    0  0.78740652194E+01 -0.12269329295E+02  0.41555415478E+01  0.15263145121E+02  0.17770000000E+01 0. -1.
         15    1    1    2    0    0 -0.11252033368E+02 -0.13196527016E+01 -0.32166554378E+01  0.11910261935E+02  0.17770000000E+01 0.  1.
</event>
<event>
 6    1  0.1599106E-003  0.5001268E+03  0.7546771E-02  0.9399526E-01
        -11   -1    0    0    0    0  0.00000000000E+00  0.00000000000E+00  0.50000000000E+03  0.50000000000E+03  0.00000000000E+00 0. -1.
         11   -1    0    0    0    0 -0.00000000000E+00 -0.00000000000E+00 -0.50000000000E+03  0.50000000000E+03  0.00000000000E+00 0.  1.
        -11    1    1    2    0    0 -0.88600521194E+01  0.14303733056E+01  0.49979267015E+03  0.49987324356E+03  0.00000000000E+00 0. -1.
         11    1    1    2    0    0  0.64693366666E+01  0.33199345455E+01 -0.36431650401E+03  0.36438906319E+03  0.00000000000E+00 0.  1.
        -15    1    1    2    0    0  0.17423168400E+01 -0.18565279315E+01 -0.23025060586E+02  0.23233456651E+02  0.17770000000E+01 0. -1.
         15    1    1    2    0    0  0.64839861284E+00 -0.28937799196E+01 -0.11245110555E+03  0.11250423660E+03  0.17770000000E+01 0.  1.
</event>
<event>
 6    1  0.1599106E-003  0.5074934E+03  0.7546771E-02  0.9383197E-01
        -11   -1    0    0    0    0  0.00000000000E+00  0.00000000000E+00  0.50000000000E+03  0.50000000000E+03  0.00000000000E+00 0. -1.
         11   -1    0    0    0    0 -0.00000000000E+00 -0.00000000000E+00 -0.50000000000E+03  0.50000000000E+03  0.00000000000E+00 0. -1.
        -11    1    1    2    0    0 -0.56814025031E+01 -0.80761958921E+01  0.44221700375E+03  0.44232723371E+03  0.00000000000E+00 0. -1.
         11    1    1    2    0    0 -0.10745213405E+02 -0.47284812028E+01 -0.49236666091E+03  0.49250659581E+03  0.00000000000E+00 0. -1.
        -15    1    1    2    0    0 -0.99094902727E+00 -0.80329776022E+00  0.41193184717E+02  0.41251223780E+02  0.17770000000E+01 0. -1.
         15    1    1    2    0    0  0.17417564936E+02  0.13607974855E+02  0.89564724384E+01  0.23914946696E+02  0.17770000000E+01 0.  1.
</event>
<event>
 6    1  0.1599106E-003  0.5027398E+03  0.7546771E-02  0.9393700E-01
        -11   -1    0    0    0    0  0.00000000000E+00  0.00000000000E+00  0.50000000000E+03  0.50000000000E+03  0.00000000000E+00 0. -1.
         11   -1    0    0    0    0 -0.00000000000E+00 -0.00000000000E+00 -0.50000000000E+03  0.50000000000E+03  0.00000000000E+00 0.  1.
        -11    1    1    2    0    0  0.22073256849E+01 -0.13554481529E+02  0.49707052373E+03  0.49726019529E+03  0.00000000000E+00 0. -1.
         11    1    1    2    0    0  0.55657228017E+01 -0.71520438372E+00 -0.38379412978E+03  0.38383515061E+03  0.00000000000E+00 0.  1.
        -15    1    1    2    0    0 -0.84388112701E+01  0.10074628913E+02 -0.13161942249E+02  0.18684382146E+02  0.17770000000E+01 0. -1.
         15    1    1    2    0    0  0.66576278345E+00  0.41950569992E+01 -0.10011445170E+03  0.10022027196E+03  0.17770000000E+01 0.  1.
</event>
<event>
 6    1  0.1599106E-003  0.5088667E+03  0.7546771E-02  0.9380186E-01
        -11   -1    0    0    0    0  0.00000000000E+00  0.00000000000E+00  0.50000000000E+03  0.50000000000E+03  0.00000000000E+00 0.  1.
         11   -1    0    0    0    0 -0.00000000000E+00 -0.00000000000E+00 -0.50000000000E+03  0.50000000000E+03  0.00000000000E+00 0.  1.
        -11    1    1    2    0    0  0.34308011328E+01 -0.73883422329E+01  0.49106578084E+03  0.49113334147E+03  0.00000000000E+00 0.  1.
         11    1    1    2    0    0  0.71758596519E+01  0.74974266814E+01 -0.48296104529E+03  0.48307253662E+03  0.00000000000E+00 0.  1.
        -15    1    1    2    0    0 -0.52995986947E+01  0.43929611366E+01  0.64272827185E+01  0.95839212233E+01  0.17770000000E+01 0.  1.
         15    1    1    2    0    0 -0.53070620900E+01 -0.45020455851E+01 -0.14532018268E+02  0.16210200690E+02  0.17770000000E+01 0. -1.
</event>
<event>
 6    1  0.1599106E-003  0.5010946E+03  0.7546771E-02  0.9397364E-01
        -11   -1    0    0    0    0  0.00000000000E+00  0.00000000000E+00  0.50000000000E+03  0.50000000000E+03  0.00000000000E+00 0. -1.
         11   -1    0    0    0    0 -0.00000000000E+00 -0.00000000000E+00 -0.50000000000E+03  0.50000000000E+03  0.00000000000E+00 0. -1.
        -11    1    1    2    0    0  0.62912505866E+01 -0.95820879521E+01  0.49877372467E+03  0.49890542657E+03  0.00000000000E+00 0. -1.
         11    1    1    2    0    0 -0.12971920930E+01 -0.85207980734E+01 -0.38856246749E+03  0.38865804745E+03  0.00000000000E+00 0. -1.
        -15    1    1    2    0    0 -0.80306711752E+01  0.12714879003E+02 -0.88700396268E+02  0.89983764395E+02  0.17770000000E+01 0. -1.
         15    1    1    2    0    0  0.30366126816E+01  0.53880070225E+01 -0.21510860911E+02  0.22452761575E+02  0.17770000000E+01 0.  1.
</event>
<event>
 6    1  0.1599106E-003  0.5050635E+03  0.7546771E-02  0.9388550E-01
        -11   -1    0    0    0    0  0.00000000000E+00  0.00000000000E+00  0.50000000000E+03  0.50000000000E+03  0.00000000000E+00 0. -1.
         11   -1    0    0    0    0 -0.00000000000E+00 -0.00000000000E+00 -0.50000000000E+03  0.50000000000E+03  0.00000000000E+00 0.  1.
        -11    1    1    2    0    0  0.76195841342E+01 -0.11652045978E+02  0.43607043698E+03  0.43629262456E+03  0.00000000000E+00 0. -1.
         11    1    1    2    0    0  0.54873025484E+01 -0.43698696106E+01 -0.49488678020E+03  0.49493649236E+03  0.00000000000E+00 0.  1.
        -15    1    1    2    0    0 -0.96703335967E+01  0.13680467789E+02  0.61326684262E+02  0.63598667301E+02  0.17770000000E+01 0. -1.
         15    1    1    2    0    0 -0.34365530859E+01  0.23414478002E+01 -0.25103410415E+01  0.51722157783E+01  0.17770000000E+01 0.  1.
</event>
<event>
 6    1  0.1599106E-003  0.5005345E+03  0.7546771E-02  0.9398615E-01
        -11   -1    0    0    0    0  0.00000000000E+00  0.00000000000E+00  0.50000000000E+03  0.50000000000E+03  0.00000000000E+00 0.  1.
         11   -1    0    0    0    0 -0.00000000000E+00 -0.00000000000E+00 -0.50000000000E+03  0.50000000000E+03  0.00000000000E+00 0. -1.
        -11    1    1    2    0    0 -0.53939451692E+01  0.68908879169E+01  0.49938885444E+03  0.49946552126E+03  0.00000000000E+00 0.  1.
         11    1    1    2    0    0  0.10436491516E+02 -0.33215323347E+00 -0.41428565395E+03  0.41441722184E+03  0.00000000000E+00 0. -1.
        -15    1    1    2    0    0 -0.45073814746E+01 -0.11827546437E+01 -0.15511493969E+02  0.16293543827E+02  0.17770000000E+01 0. -1.
         15    1    1    2    0    0 -0.53516487213E+00 -0.53759800397E+01 -0.69591706521E+02  0.69823713081E+02  0.17770000000E+01 0.  1.
</event>
<event>
 6    1  0.1599106E-003  0.5007235E+03  0.7546771E-02  0.9398192E-01
        -11   -1    0    0    0    0  0.00000000000E+00  0.00000000000E+00  0.50000000000E+03  0.50000000000E+03  0.00000000000E+00 0. -1.
         11   -1    0    0    0    0 -0.00000000000E+00 -0.00000000000E+00 -0.50000000000E+03  0.50000000000E+03  0.00000000000E+00 0. -1.
        -11    1    1    2    0    0  0.49268606070E+01  0.88783749791E+01  0.49917325159E+03  0.49927651116E+03  0.00000000000E+00 0. -1.
         11    1    1    2    0    0 -0.67772397533E+01  0.26948946403E+01 -0.20919928402E+03  0.20932638121E+03  0.00000000000E+00 0. -1.
        -15    1    1    2    0    0 -0.10816416087E+02 -0.57337957190E+01 -0.19453627863E+03  0.19492919920E+03  0.17770000000E+01 0. -1.
         15    1    1    2    0    0  0.12666795233E+02 -0.58394739004E+01 -0.95437688935E+02  0.96467908421E+02  0.17770000000E+01 0.  1.
</event>
<event>
 6    1  0.1599106E-003  0.5122700E+03  0.7546771E-02  0.9372766E-01
        -11   -1    0    0    0    0  0.00000000000E+00  0.00000000000E+00  0.50000000000E+03  0.50000000000E+03  0.00000000000E+00 0. -1.
         11   -1    0    0    0    0 -0.00000000000E+00 -0.00000000000E+00 -0.50000000000E+03  0.50000000000E+03  0.00000000000E+00 0.  1.
        -11    1    1    2    0    0  0.12125116119E+02  0.12918587560E+02  0.48740807536E+03  0.48772998706E+03  0.00000000000E+00 0. -1.
         11    1    1    2    0    0 -0.87953621189E+01  0.11155311091E+01 -0.40231872109E+03  0.40241639647E+03  0.00000000000E+00 0.  1.
        -15    1    1    2    0    0 -0.18644026909E+02  0.10257348480E+02 -0.14482427532E+01  0.21402524928E+02  0.17770000000E+01 0. -1.
         15    1    1    2    0    0  0.15314272909E+02 -0.24291467149E+02 -0.83641111519E+02  0.88451091548E+02  0.17770000000E+01 0.  1.
</event>
<event>
 6    1  0.1599106E-003  0.5128073E+03  0.7546771E-02  0.9371600E-01
        -11   -1    0    0    0    0  0.00000000000E+00  0.00000000000E+00  0.50000000000E+03  0.50000000000E+03  0.00000000000E+00 0.  1.
         11   -1    0    0    0    0 -0.00000000000E+00 -0.00000000000E+00 -0.50000000000E+03  0.50000000000E+03  0.00000000000E+00 0.  1.
        -11    1    1    2    0    0  0.68122639816E+00  0.77500655242E+01  0.46369317228E+03  0.46375843453E+03  0.00000000000E+00 0.  1.
         11    1    1    2    0    0 -0.58003164892E+01  0.34092103884E+01 -0.48714624225E+03  0.48719270081E+03  0.00000000000E+00 0.  1.
        -15    1    1    2    0    0  0.90944145933E+01 -0.16228272287E+02 -0.53840097635E+01  0.19447634518E+02  0.17770000000E+01 0.  1.
         15    1    1    2    0    0 -0.39753245023E+01  0.50689963747E+01  0.28837079735E+02  0.29601230140E+02  0.17770000000E+01 0. -1.
</event>
<event>
 6    1  0.1599106E-003  0.5001392E+03  0.7546771E-02  0.9399498E-01
        -11   -1    0    0    0    0  0.00000000000E+00  0.00000000000E+00  0.50000000000E+03  0.50000000000E+03  0.00000000000E+00 0. -1.
         11   -1    0    0    0    0 -0.00000000000E+00 -0.00000000000E+00 -0.50000000000E+03  0.50000000000E+03  0.00000000000E+00 0.  1.
        -11    1    1    2    0    0 -0.71395447656E+01 -0.40935274000E+01  0.49979307298E+03  0.49986082649E+03  0.00000000000E+00 0. -1.
         11    1    1    2    0    0  0.11184822583E+01  0.25020265614E+00 -0.23960537520E+02  0.23987933679E+02  0.00000000000E+00 0.  1.
        -15    1    1    2    0    0 -0.81691881541E+00 -0.49413757899E+01 -0.22867209148E+03  0.22873383594E+03  0.17770000000E+01 0.  1.
         15    1    1    2    0    0  0.68379813227E+01  0.87847005338E+01 -0.24716044398E+03  0.24741740389E+03  0.17770000000E+01 0. -1.
</event>
<event>
 6    1  0.1599106E-003  0.5001266E+03  0.7546771E-02  0.9399527E-01
        -11   -1    0    0    0    0  0.00000000000E+00  0.00000000000E+00  0.50000000000E+03  0.50000000000E+03  0.00000000000E+00 0.  1.
         11   -1    0    0    0    0 -0.00000000000E+00 -0.00000000000E+00 -0.50000000000E+03  0.50000000000E+03  0.00000000000E+00 0.  1.
        -11    1    1    2    0    0 -0.43068087817E+01  0.71711856228E+00  0.73971028751E+02  0.74099770279E+02  0.00000000000E+00 0.  1.
         11    1    1    2    0    0  0.21915358201E+02  0.10998502509E+02 -0.49927165806E+03  0.49987342250E+03  0.00000000000E+00 0.  1.
        -15    1    1    2    0    0 -0.12154802582E+02 -0.83861849140E+01  0.17275384208E+03  0.17339294970E+03  0.17770000000E+01 0. -1.
         15    1    1    2    0    0 -0.54537468383E+01 -0.33294361574E+01  0.25254678723E+03  0.25263385753E+03  0.17770000000E+01 0.  1.
</event>
<event>
 6    1  0.1599106E-003  0.5011566E+03  0.7546771E-02  0.9397226E-01
        -11   -1    0    0    0    0  0.00000000000E+00  0.00000000000E+00  0.50000000000E+03  0.50000000000E+03  0.00000000000E+00 0. -1.
         11   -1    0    0    0    0 -0.00000000000E+00 -0.00000000000E+00 -0.50000000000E+03  0.50000000000E+03  0.00000000000E+00 0.  1.
        -11    1    1    2    0    0 -0.45899041171E+01  0.82482477565E+01  0.49875413408E+03  0.49884344946E+03  0.00000000000E+00 0. -1.
         11    1    1    2    0    0  0.29142059653E+01  0.67506139439E+01 -0.29528176461E+03  0.29537329584E+03  0.00000000000E+00 0.  1.
        -15    1    1    2    0    0  0.35601692040E+01 -0.97542005480E+01 -0.23936389347E+02  0.26152011339E+02  0.17770000000E+01 0.  1.
         15    1    1    2    0    0 -0.18844710522E+01 -0.52446611524E+01 -0.17953598012E+03  0.17963124335E+03  0.17770000000E+01 0. -1.
</event>
<event>
 6    1  0.1599106E-003  0.5008603E+03  0.7546771E-02  0.9397887E-01
        -11   -1    0    0    0    0  0.00000000000E+00  0.00000000000E+00  0.50000000000E+03  0.50000000000E+03  0.00000000000E+00 0. -1.
         11   -1    0    0    0    0 -0.00000000000E+00 -0.00000000000E+00 -0.50000000000E+03  0.50000000000E+03  0.00000000000E+00 0. -1.
        -11    1    1    2    0    0 -0.37836672398E+01 -0.20794711927E+01  0.29996209284E+03  0.29999316238E+03  0.00000000000E+00 0. -1.
         11    1    1    2    0    0 -0.76629908838E+01  0.35084408180E+01 -0.49906856501E+03  0.49913972309E+03  0.00000000000E+00 0. -1.
        -15    1    1    2    0    0  0.34464651774E+01 -0.13902485374E+00  0.39589307268E+01  0.55433123337E+01  0.17770000000E+01 0.  1.
         15    1    1    2    0    0  0.80001929462E+01 -0.12899447716E+01  0.19514754144E+03  0.19532380220E+03  0.17770000000E+01 0. -1.
</event>
<event>
 6    1  0.1599106E-003  0.5085312E+03  0.7546771E-02  0.9380920E-01
        -11   -1    0    0    0    0  0.00000000000E+00  0.00000000000E+00  0.50000000000E+03  0.50000000000E+03  0.00000000000E+00 0. -1.
         11   -1    0    0    0    0 -0.00000000000E+00 -0.00000000000E+00 -0.50000000000E+03  0.50000000000E+03  0.00000000000E+00 0. -1.
        -11    1    1    2    0    0 -0.38524743579E+01 -0.17775348603E+02  0.49113211679E+03  0.49146877899E+03  0.00000000000E+00 0. -1.
         11    1    1    2    0    0  0.64325356458E+01 -0.11955070858E+02 -0.42523231657E+03  0.42544896790E+03  0.00000000000E+00 0. -1.
        -15    1    1    2    0    0 -0.57618945556E+01  0.95767818614E+01 -0.60977199839E+02  0.62018471514E+02  0.17770000000E+01 0.  1.
         15    1    1    2    0    0  0.31818332677E+01  0.20153637599E+02 -0.49226003828E+01  0.21063781592E+02  0.17770000000E+01 0. -1.
</event>
<event>
 6    1  0.1599106E-003  0.5216892E+03  0.7546771E-02  0.9352545E-01
        -11   -1    0    0    0    0  0.00000000000E+00  0.00000000000E+00  0.50000000000E+03  0.50000000000E+03  0.00000000000E+00 0.  1.
         11   -1    0    0    0    0 -0.00000000000E+00 -0.00000000000E+00 -0.50000000000E+03  0.50000000000E+03  0.00000000000E+00 0. -1.
        -11    1    1    2    0    0 -0.51782202867E+02 -0.35947074906E+01  0.47548595048E+03  0.47831078553E+03  0.00000000000E+00 0.  1.
         11    1    1    2    0    0  0.94865361091E+01  0.11577308519E+02 -0.30727219317E+03  0.30763652113E+03  0.00000000000E+00 0. -1.
        -15    1    1    2    0    0 -0.16520065087E+02  0.60976572639E+01 -0.14975300724E+03  0.15079527473E+03  0.17770000000E+01 0.  1.
         15    1    1    2    0    0  0.58815731845E+02 -0.14080258293E+02 -0.18460750065E+02  0.63257418601E+02  0.17770000000E+01 0. -1.
</event>
<event>
 6    1  0.1599106E-003  0.4859912E+03  0.7546771E-02  0.9431713E-01
        -11   -1    0    0    0    0  0.00000000000E+00  0.00000000000E+00  0.50000000000E+03  0.50000000000E+03  0.00000000000E+00 0. -1.
         11   -1    0    0    0    0 -0.00000000000E+00 -0.00000000000E+00 -0.50000000000E+03  0.50000000000E+03  0.00000000000E+00 0. -1.
        -11    1    1    2    0    0 -0.64191117865E+01 -0.18026703088E+01  0.48375548114E+03  0.48380142636E+03  0.00000000000E+00 0. -1.
         11    1    1    2    0    0 -0.24173206786E+01  0.61306659825E+01 -0.48819639113E+03  0.48824086763E+03  0.00000000000E+00 0. -1.
        -15    1    1    2    0    0  0.57955175388E+01 -0.30826318065E+01  0.15155051898E+02  0.16610959317E+02  0.17770000000E+01 0. -1.
         15    1    1    2    0    0  0.30409149263E+01 -0.12453638673E+01 -0.10714141905E+02  0.11346746693E+02  0.17770000000E+01 0.  1.
</event>
<event>
 6    1  0.1599106E-003  0.4595993E+03  0.7546771E-02  0.9495043E-01
        -11   -1    0    0    0    0  0.00000000000E+00  0.00000000000E+00  0.50000000000E+03  0.50000000000E+03  0.00000000000E+00 0.  1.
         11   -1    0    0    0    0 -0.00000000000E+00 -0.00000000000E+00 -0.50000000000E+03  0.50000000000E+03  0.00000000000E+00 0. -1.
        -11    1    1    2    0    0 -0.12557487727E+02  0.48410432052E+01  0.45990264104E+03  0.46009951688E+03  0.00000000000E+00 0.  1.
         11    1    1    2    0    0  0.84648051392E+01  0.75558410951E+01 -0.45905201769E+03  0.45919222403E+03  0.00000000000E+00 0. -1.
        -15    1    1    2    0    0 -0.66313963133E+01 -0.13623030622E+02 -0.38547432366E+02  0.41456298091E+02  0.17770000000E+01 0. -1.
         15    1    1    2    0    0  0.10724078901E+02  0.12261463216E+01  0.37696809024E+02  0.39251961004E+02  0.17770000000E+01 0.  1.
</event>
<event>
 6    1  0.1599106E-003  0.5030981E+03  0.7546771E-02  0.9392904E-01
        -11   -1    0    0    0    0  0.00000000000E+00  0.00000000000E+00  0.50000000000E+03  0.50000000000E+03  0.00000000000E+00 0.  1.
         11   -1    0    0    0    0 -0.00000000000E+00 -0.00000000000E+00 -0.50000000000E+03  0.50000000000E+03  0.00000000000E+00 0.  1.
        -11    1    1    2    0    0 -0.30365786208E+02  0.45663160030E+01  0.15703588450E+03  0.16001000355E+03  0.00000000000E+00 0.  1.
         11    1    1    2    0    0 -0.10565895420E+02  0.17572392022E+01 -0.49678646495E+03  0.49690191969E+03  0.00000000000E+00 0.  1.
        -15    1    1    2    0    0  0.41282477571E+02 -0.48431554690E+01  0.33661386800E+03  0.33917510665E+03  0.17770000000E+01 0.  1.
         15    1    1    2    0    0 -0.35079594336E+00 -0.14803997362E+01  0.31367124396E+01  0.39129701125E+01  0.17770000000E+01 0. -1.
</event>
<event>
 6    1  0.1599106E-003  0.5038612E+03  0.7546771E-02  0.9391211E-01
        -11   -1    0    0    0    0  0.00000000000E+00  0.00000000000E+00  0.50000000000E+03  0.50000000000E+03  0.00000000000E+00 0.  1.
         11   -1    0    0    0    0 -0.00000000000E+00 -0.00000000000E+00 -0.50000000000E+03  0.50000000000E+03  0.00000000000E+00 0.  1.
        -11    1    1    2    0    0 -0.54293012700E+01 -0.95519616679E+01  0.49601710273E+03  0.49613877442E+03  0.00000000000E+00 0.  1.
         11    1    1    2    0    0 -0.58863230182E+01  0.62448965893E+01 -0.44159307118E+03  0.44167645177E+03  0.00000000000E+00 0.  1.
        -15    1    1    2    0    0  0.12487341541E+02  0.13137895681E+02 -0.44372617145E+02  0.47964829646E+02  0.17770000000E+01 0. -1.
         15    1    1    2    0    0 -0.11717172532E+01 -0.98308306024E+01 -0.10051414401E+02  0.14219944167E+02  0.17770000000E+01 0.  1.
</event>
<event>
 6    1  0.1599106E-003  0.5024769E+03  0.7546771E-02  0.9394284E-01
        -11   -1    0    0    0    0  0.00000000000E+00  0.00000000000E+00  0.50000000000E+03  0.50000000000E+03  0.00000000000E+00 0.  1.
         11   -1    0    0    0    0 -0.00000000000E+00 -0.00000000000E+00 -0.50000000000E+03  0.50000000000E+03  0.00000000000E+00 0.  1.
        -11    1    1    2    0    0 -0.42551615525E+01  0.76282971160E+01  0.49744643455E+03  0.49752311762E+03  0.00000000000E+00 0.  1.
         11    1    1    2    0    0 -0.65635360960E+01  0.20277674899E+01 -0.33942276646E+03  0.33949227715E+03  0.00000000000E+00 0.  1.
        -15    1    1    2    0    0  0.56651039284E+01  0.10847440685E+02 -0.21338553153E+02  0.24662764476E+02  0.17770000000E+01 0. -1.
         15    1    1    2    0    0  0.51535937201E+01 -0.20503505291E+02 -0.13668511493E+03  0.13832184076E+03  0.17770000000E+01 0.  1.
</event>
<event>
 6    1  0.1599106E-003  0.5008033E+03  0.7546771E-02  0.9398014E-01
        -11   -1    0    0    0    0  0.00000000000E+00  0.00000000000E+00  0.50000000000E+03  0.50000000000E+03  0.00000000000E+00 0. -1.
         11   -1    0    0    0    0 -0.00000000000E+00 -0.00000000000E+00 -0.50000000000E+03  0.50000000000E+03  0.00000000000E+00 0.  1.
        -11    1    1    2    0    0  0.11961027126E+00  0.34879185695E+01  0.85900987641E+02  0.85971853302E+02  0.00000000000E+00 0. -1.
         11    1    1    2    0    0 -0.18330511483E+02 -0.45620751605E+00 -0.49885981625E+03  0.49919668673E+03  0.00000000000E+00 0.  1.
        -15    1    1    2    0    0  0.18539168760E+02  0.19634542934E+01  0.95000363858E+02  0.96828625898E+02  0.17770000000E+01 0. -1.
         15    1    1    2    0    0 -0.32826754873E+00 -0.49951653468E+01  0.31795846475E+03  0.31800283406E+03  0.17770000000E+01 0. -1.
</event>
<event>
 6    1  0.1599106E-003  0.5071916E+03  0.7546771E-02  0.9383860E-01
        -11   -1    0    0    0    0  0.00000000000E+00  0.00000000000E+00  0.50000000000E+03  0.50000000000E+03  0.00000000000E+00 0. -1.
         11   -1    0    0    0    0 -0.00000000000E+00 -0.00000000000E+00 -0.50000000000E+03  0.50000000000E+03  0.00000000000E+00 0.  1.
        -11    1    1    2    0    0  0.50609285122E+01 -0.40644276386E+01  0.44523181635E+03  0.44527912915E+03  0.00000000000E+00 0. -1.
         11    1    1    2    0    0 -0.25395544766E+01 -0.69687470049E+01 -0.49275262482E+03  0.49280844355E+03  0.00000000000E+00 0.  1.
        -15    1    1    2    0    0 -0.74765093910E+01  0.10932168919E+01  0.49829204473E+02  0.50430156288E+02  0.17770000000E+01 0. -1.
         15    1    1    2    0    0  0.49551353555E+01  0.99399577516E+01 -0.23083960028E+01  0.11482271012E+02  0.17770000000E+01 0. -1.
</event>
<event>
 6    1  0.1599106E-003  0.4917577E+03  0.7546771E-02  0.9418444E-01
        -11   -1    0    0    0    0  0.00000000000E+00  0.00000000000E+00  0.50000000000E+03  0.50000000000E+03  0.00000000000E+00 0. -1.
         11   -1    0    0    0    0 -0.00000000000E+00 -0.00000000000E+00 -0.50000000000E+03  0.50000000000E+03  0.00000000000E+00 0. -1.
        -11    1    1    2    0    0  0.50194891511E+01 -0.67446802540E+01  0.48930880192E+03  0.48938102703E+03  0.00000000000E+00 0. -1.
         11    1    1    2    0    0 -0.53047106200E+01 -0.59214787496E+01 -0.49416391809E+03  0.49422786426E+03  0.00000000000E+00 0. -1.
        -15    1    1    2    0    0  0.13423405448E+01  0.10098095979E+02  0.69733285285E+01  0.12472307738E+02  0.17770000000E+01 0.  1.
         15    1    1    2    0    0 -0.10571190758E+01  0.25680630248E+01 -0.21182123577E+01  0.39188009687E+01  0.17770000000E+01 0.  1.
</event>
<event>
 6    1  0.1599106E-003  0.5002447E+03  0.7546771E-02  0.9399262E-01
        -11   -1    0    0    0    0  0.00000000000E+00  0.00000000000E+00  0.50000000000E+03  0.50000000000E+03  0.00000000000E+00 0. -1.
         11   -1    0    0    0    0 -0.00000000000E+00 -0.00000000000E+00 -0.50000000000E+03  0.50000000000E+03  0.00000000000E+00 0.  1.
        -11    1    1    2    0    0 -0.35793562616E+01 -0.30126421701E+01  0.20684294223E+03  0.20689584470E+03  0.00000000000E+00 0. -1.
         11    1    1    2    0    0 -0.31843477041E+01 -0.73143840034E+01 -0.49969163523E+03  0.49975531073E+03  0.00000000000E+00 0.  1.
        -15    1    1    2    0    0  0.15255423900E+01  0.11005580177E+02  0.21984248677E+03  0.22013024961E+03  0.17770000000E+01 0. -1.
         15    1    1    2    0    0  0.52381615758E+01 -0.67855400375E+00  0.73006206227E+02  0.73218594967E+02  0.17770000000E+01 0.  1.
</event>
<event>
 6    1  0.1599106E-003  0.5025442E+03  0.7546771E-02  0.9394135E-01
        -11   -1    0    0    0    0  0.00000000000E+00  0.00000000000E+00  0.50000000000E+03  0.50000000000E+03  0.00000000000E+00 0. -1.
         11   -1    0    0    0    0 -0.00000000000E+00 -0.00000000000E+00 -0.50000000000E+03  0.50000000000E+03  0.00000000000E+00 0.  1.
        -11    1    1    2    0    0 -0.66444793766E+01  0.26456180990E+01  0.49740437019E+03  0.49745578285E+03  0.00000000000E+00 0. -1.
         11    1    1    2    0    0 -0.61396907112E+01  0.84952565054E+00 -0.44946988768E+03  0.44951262210E+03  0.00000000000E+00 0.  1.
        -15    1    1    2    0    0  0.76537023424E+01  0.52087643553E+01 -0.10035601281E+02  0.13768856442E+02  0.17770000000E+01 0.  1.
         15    1    1    2    0    0  0.51304677454E+01 -0.87039081048E+01 -0.37898881233E+02  0.39262738612E+02  0.17770000000E+01 0. -1.
</event>
<event>
 6    1  0.1599106E-003  0.5071234E+03  0.7546771E-02  0.9384010E-01
        -11   -1    0    0    0    0  0.00000000000E+00  0.00000000000E+00  0.50000000000E+03  0.50000000000E+03  0.00000000000E+00 0. -1.
         11   -1    0    0    0    0 -0.00000000000E+00 -0.00000000000E+00 -0.50000000000E+03  0.50000000000E+03  0.00000000000E+00 0. -1.
        -11    1    1    2    0    0  0.63838065296E+01  0.29003326551E+01  0.49282668504E+03  0.49287656304E+03  0.00000000000E+00 0. -1.
         11    1    1    2    0    0 -0.21450781940E+02 -0.31493231756E+01 -0.43568995422E+03  0.43622905736E+03  0.00000000000E+00 0. -1.
        -15    1    1    2    0    0  0.11442225088E+02  0.18823955258E+02 -0.37750480487E+02  0.43743825993E+02  0.17770000000E+01 0. -1.
         15    1    1    2    0    0  0.36247503222E+01 -0.18574964738E+02 -0.19386250332E+02  0.27150553601E+02  0.17770000000E+01 0.  1.
</event>
<event>
 6    1  0.1599106E-003  0.5044243E+03  0.7546771E-02  0.9389964E-01
        -11   -1    0    0    0    0  0.00000000000E+00  0.00000000000E+00  0.50000000000E+03  0.50000000000E+03  0.00000000000E+00 0. -1.
         11   -1    0    0    0    0 -0.00000000000E+00 -0.00000000000E+00 -0.50000000000E+03  0.50000000000E+03  0.00000000000E+00 0.  1.
        -11    1    1    2    0    0  0.14030573765E+01  0.13782489586E+02  0.49538198708E+03  0.49557566396E+03  0.00000000000E+00 0. -1.
         11    1    1    2    0    0 -0.30763402587E+01 -0.10643536468E+02 -0.24681714324E+03  0.24706568142E+03  0.00000000000E+00 0.  1.
        -15    1    1    2    0    0  0.25129942979E+01  0.50342819946E+01 -0.24887670858E+03  0.24894664677E+03  0.17770000000E+01 0. -1.
         15    1    1    2    0    0 -0.83971141568E+00 -0.81732351130E+01  0.31186474552E+00  0.84120078515E+01  0.17770000000E+01 0.  1.
</event>
<event>
 6    1  0.1599106E-003  0.5032811E+03  0.7546771E-02  0.9392498E-01
        -11   -1    0    0    0    0  0.00000000000E+00  0.00000000000E+00  0.50000000000E+03  0.50000000000E+03  0.00000000000E+00 0. -1.
         11   -1    0    0    0    0 -0.00000000000E+00 -0.00000000000E+00 -0.50000000000E+03  0.50000000000E+03  0.00000000000E+00 0.  1.
        -11    1    1    2    0    0  0.73105819590E+01  0.39185444296E+01  0.49664968816E+03  0.49671894704E+03  0.00000000000E+00 0. -1.
         11    1    1    2    0    0  0.20989195704E+02  0.16419252715E+01 -0.36949197826E+03  0.37009129179E+03  0.00000000000E+00 0.  1.
        -15    1    1    2    0    0 -0.33493816948E+02 -0.35452969408E+01 -0.11069725097E+03  0.11572140686E+03  0.17770000000E+01 0. -1.
         15    1    1    2    0    0  0.51940392846E+01 -0.20151727602E+01 -0.16460458924E+02  0.17468354311E+02  0.17770000000E+01 0.  1.
</event>
<event>
 6    1  0.1599106E-003  0.5013239E+03  0.7546771E-02  0.9396852E-01
        -11   -1    0    0    0    0  0.00000000000E+00  0.00000000000E+00  0.50000000000E+03  0.50000000000E+03  0.00000000000E+00 0. -1.
         11   -1    0    0    0    0 -0.00000000000E+00 -0.00000000000E+00 -0.50000000000E+03  0.50000000000E+03  0.00000000000E+00 0. -1.
        -11    1    1    2    0    0 -0.86380154956E+01  0.51473936056E+01  0.49857467746E+03  0.49867606718E+03  0.00000000000E+00 0. -1.
         11    1    1    2    0    0  0.81725217839E+01  0.32236960148E+01 -0.41263002549E+03  0.41272353975E+03  0.00000000000E+00 0. -1.
        -15    1    1    2    0    0  0.79494213966E+01 -0.73476842928E+01 -0.26942649040E+02  0.29090304765E+02  0.17770000000E+01 0.  1.
         15    1    1    2    0    0 -0.74839276849E+01 -0.10234053275E+01 -0.59002002926E+02  0.59510088308E+02  0.17770000000E+01 0. -1.
</event>
<event>
 6    1  0.1599106E-003  0.5727452E+03  0.7546771E-02  0.9250302E-01
        -11   -1    0    0    0    0  0.00000000000E+00  0.00000000000E+00  0.50000000000E+03  0.50000000000E+03  0.00000000000E+00 0.  1.
         11   -1    0    0    0    0 -0.00000000000E+00 -0.00000000000E+00 -0.50000000000E+03  0.50000000000E+03  0.00000000000E+00 0.  1.
        -11    1    1    2    0    0 -0.12324005530E+02 -0.26861293516E+01  0.34740762927E+03  0.34763653041E+03  0.00000000000E+00 0.  1.
         11    1    1    2    0    0 -0.10659959416E+02 -0.40651222626E+02 -0.42518289500E+03  0.42725478445E+03  0.00000000000E+00 0.  1.
        -15    1    1    2    0    0 -0.14862805609E+01  0.48572609152E+02 -0.64422404799E+02  0.80715000829E+02  0.17770000000E+01 0. -1.
         15    1    1    2    0    0  0.24470245506E+02 -0.52352571749E+01  0.14219767053E+03  0.14439368430E+03  0.17770000000E+01 0.  1.
</event>
<event>
 6    1  0.1599106E-003  0.5051846E+03  0.7546771E-02  0.9388283E-01
        -11   -1    0    0    0    0  0.00000000000E+00  0.00000000000E+00  0.50000000000E+03  0.50000000000E+03  0.00000000000E+00 0.  1.
         11   -1    0    0    0    0 -0.00000000000E+00 -0.00000000000E+00 -0.50000000000E+03  0.50000000000E+03  0.00000000000E+00 0.  1.
        -11    1    1    2    0    0  0.83961655059E+01  0.45350777398E+01  0.39491918957E+03  0.39503446536E+03  0.00000000000E+00 0.  1.
         11    1    1    2    0    0  0.18103467824E+02 -0.10060424599E+01 -0.49448313010E+03  0.49481543390E+03  0.00000000000E+00 0.  1.
        -15    1    1    2    0    0 -0.27528025128E+02  0.12171932882E+02  0.75975370810E+02  0.81739603720E+02  0.17770000000E+01 0.  1.
         15    1    1    2    0    0  0.10283917986E+01 -0.15700968162E+02  0.23588569717E+02  0.28410497025E+02  0.17770000000E+01 0. -1.
</event>
<event>
 6    1  0.1599106E-003  0.5013333E+03  0.7546771E-02  0.9396831E-01
        -11   -1    0    0    0    0  0.00000000000E+00  0.00000000000E+00  0.50000000000E+03  0.50000000000E+03  0.00000000000E+00 0. -1.
         11   -1    0    0    0    0 -0.00000000000E+00 -0.00000000000E+00 -0.50000000000E+03  0.50000000000E+03  0.00000000000E+00 0.  1.
        -11    1    1    2    0    0  0.40959121109E+01  0.47555755985E+01  0.38988598704E+03  0.38993650109E+03  0.00000000000E+00 0. -1.
         11    1    1    2    0    0 -0.77628118910E+01  0.52094143397E+01 -0.49857904774E+03  0.49866668837E+03  0.00000000000E+00 0.  1.
        -15    1    1    2    0    0  0.84595183724E+01 -0.99731132379E+01  0.33144185498E+02  0.35675218290E+02  0.17770000000E+01 0.  1.
         15    1    1    2    0    0 -0.47926185923E+01  0.81232997034E-02  0.75548875202E+02  0.75721592245E+02  0.17770000000E+01 0. -1.
</event>
<event>
 6    1  0.1599106E-003  0.5014531E+03  0.7546771E-02  0.9396564E-01
        -11   -1    0    0    0    0  0.00000000000E+00  0.00000000000E+00  0.50000000000E+03  0.50000000000E+03  0.00000000000E+00 0.  1.
         11   -1    0    0    0    0 -0.00000000000E+00 -0.00000000000E+00 -0.50000000000E+03  0.50000000000E+03  0.00000000000E+00 0.  1.
        -11    1    1    2    0    0 -0.11554023658E+02 -0.64409461757E+01  0.35020324969E+03  0.35045298878E+03  0.00000000000E+00 0.  1.
         11    1    1    2    0    0  0.13392764739E+02 -0.19021656320E+02 -0.49800380150E+03  0.49854686426E+03  0.00000000000E+00 0.  1.
        -15    1    1    2    0    0  0.41189344813E+01 -0.58387668316E-01  0.27672805935E+02  0.28034103297E+02  0.17770000000E+01 0.  1.
         15    1    1    2    0    0 -0.59576755626E+01  0.25520990164E+02  0.12012774588E+03  0.12296604367E+03  0.17770000000E+01 0. -1.
</event>
<event>
 6    1  0.1599106E-003  0.5000549E+03  0.7546771E-02  0.9399687E-01
        -11   -1    0    0    0    0  0.00000000000E+00  0.00000000000E+00  0.50000000000E+03  0.50000000000E+03  0.00000000000E+00 0. -1.
         11   -1    0    0    0    0 -0.00000000000E+00 -0.00000000000E+00 -0.50000000000E+03  0.50000000000E+03  0.00000000000E+00 0. -1.
        -11    1    1    2    0    0  0.65850243817E+00 -0.27905781258E+00  0.44431978400E+02  0.44437734002E+02  0.00000000000E+00 0. -1.
         11    1    1    2    0    0  0.14977134518E+01 -0.77668655192E+01 -0.49988252739E+03  0.49994510552E+03  0.00000000000E+00 0. -1.
        -15    1    1    2    0    0 -0.81312528199E+00  0.20756416875E+01  0.34258594042E+02  0.34377004754E+02  0.17770000000E+01 0. -1.
         15    1    1    2    0    0 -0.13430906080E+01  0.59702816443E+01  0.42119195495E+03  0.42124015572E+03  0.17770000000E+01 0. -1.
</event>
<event>
 6    1  0.1599106E-003  0.4825036E+03  0.7546771E-02  0.9439833E-01
        -11   -1    0    0    0    0  0.00000000000E+00  0.00000000000E+00  0.50000000000E+03  0.50000000000E+03  0.00000000000E+00 0. -1.
         11   -1    0    0    0    0 -0.00000000000E+00 -0.00000000000E+00 -0.50000000000E+03  0.50000000000E+03  0.00000000000E+00 0. -1.
        -11    1    1    2    0    0  0.14784608595E+02 -0.79310269851E+00  0.47806853913E+03  0.47829775430E+03  0.00000000000E+00 0. -1.
         11    1    1    2    0    0  0.63853310048E+01 -0.86126241376E+01 -0.48690984069E+03  0.48702786646E+03  0.00000000000E+00 0. -1.
        -15    1    1    2    0    0 -0.12554278955E+02 -0.10698805208E+00 -0.67801939362E+01  0.14378808203E+02  0.17770000000E+01 0.  1.
         15    1    1    2    0    0 -0.86156606446E+01  0.95127148882E+01  0.15621495501E+02  0.20295571034E+02  0.17770000000E+01 0. -1.
</event>
<event>
 6    1  0.1599106E-003  0.5057379E+03  0.7546771E-02  0.9387061E-01
        -11   -1    0    0    0    0  0.00000000000E+00  0.00000000000E+00  0.50000000000E+03  0.50000000000E+03  0.00000000000E+00 0.  1.
         11   -1    0    0    0    0 -0.00000000000E+00 -0.00000000000E+00 -0.50000000000E+03  0.50000000000E+03  0.00000000000E+00 0. -1.
        -11    1    1    2    0    0  0.65209119929E+01 -0.81184364447E+00  0.42447473944E+03  0.42452560089E+03  0.00000000000E+00 0.  1.
         11    1    1    2    0    0 -0.75359298450E+01 -0.32847694221E+01 -0.49419371879E+03  0.49426208801E+03  0.00000000000E+00 0. -1.
        -15    1    1    2    0    0 -0.27017247571E+01 -0.15169010476E+00  0.73897262823E+02  0.73968138467E+02  0.17770000000E+01 0. -1.
         15    1    1    2    0    0  0.37167426091E+01  0.42483031713E+01 -0.41782834758E+01  0.72441726416E+01  0.17770000000E+01 0.  1.
</event>
<event>
 6    1  0.1599106E-003  0.5075944E+03  0.7546771E-02  0.9382975E-01
        -11   -1    0    0    0    0  0.00000000000E+00  0.00000000000E+00  0.50000000000E+03  0.50000000000E+03  0.00000000000E+00 0. -1.
         11   -1    0    0    0    0 -0.00000000000E+00 -0.00000000000E+00 -0.50000000000E+03  0.50000000000E+03  0.00000000000E+00 0.  1.
        -11    1    1    2    0    0 -0.68014470611E+01  0.31965186571E+01  0.47094462407E+03  0.47100458210E+03  0.00000000000E+00 0. -1.
         11    1    1    2    0    0 -0.10486765327E+02 -0.10829919834E+02 -0.49217477494E+03  0.49240559349E+03  0.00000000000E+00 0.  1.
        -15    1    1    2    0    0  0.51630749825E+01 -0.55906346788E+01  0.16017518767E+02  0.17822210184E+02  0.17770000000E+01 0.  1.
         15    1    1    2    0    0  0.12125137405E+02  0.13224035856E+02  0.52126321019E+01  0.18767614229E+02  0.17770000000E+01 0. -1.
</event>
<event>
 6    1  0.1599106E-003  0.5004939E+03  0.7546771E-02  0.9398705E-01
        -11   -1    0    0    0    0  0.00000000000E+00  0.00000000000E+00  0.50000000000E+03  0.50000000000E+03  0.00000000000E+00 0.  1.
         11   -1    0    0    0    0 -0.00000000000E+00 -0.00000000000E+00 -0.50000000000E+03  0.50000000000E+03  0.00000000000E+00 0.  1.
        -11    1    1    2    0    0  0.83933435193E+01  0.96951165823E+01  0.49934143341E+03  0.49950606665E+03  0.00000000000E+00 0.  1.
         11    1    1    2    0    0 -0.26319679562E+01 -0.38880456007E+01 -0.29338039659E+03  0.29341796342E+03  0.00000000000E+00 0.  1.
        -15    1    1    2    0    0 -0.10487278917E+02 -0.46656561042E+01 -0.18865883188E+03  0.18901604149E+03  0.17770000000E+01 0.  1.
         15    1    1    2    0    0  0.47259033544E+01 -0.11414148773E+01 -0.17302204946E+02  0.18059928444E+02  0.17770000000E+01 0. -1.
</event>
<event>
 6    1  0.1599106E-003  0.5051556E+03  0.7546771E-02  0.9388347E-01
        -11   -1    0    0    0    0  0.00000000000E+00  0.00000000000E+00  0.50000000000E+03  0.50000000000E+03  0.00000000000E+00 0.  1.
         11   -1    0    0    0    0 -0.00000000000E+00 -0.00000000000E+00 -0.50000000000E+03  0.50000000000E+03  0.00000000000E+00 0.  1.
        -11    1    1    2    0    0 -0.23265588096E+02 -0.16108499152E+01  0.49429451215E+03  0.49484436662E+03  0.00000000000E+00 0.  1.
         11    1    1    2    0    0 -0.51823262258E+01  0.10231267683E+01 -0.22899929402E+03  0.22906021033E+03  0.00000000000E+00 0.  1.
        -15    1    1    2    0    0  0.36502776815E+02 -0.18117746188E+02 -0.24061420868E+03  0.24404725073E+03  0.17770000000E+01 0.  1.
         15    1    1    2    0    0 -0.80548624933E+01  0.18705469335E+02 -0.24681009451E+02  0.32048172324E+02  0.17770000000E+01 0. -1.
</event>
<event>
 6    1  0.1599106E-003  0.5006793E+03  0.7546771E-02  0.9398291E-01
        -11   -1    0    0    0    0  0.00000000000E+00  0.00000000000E+00  0.50000000000E+03  0.50000000000E+03  0.00000000000E+00 0.  1.
         11   -1    0    0    0    0 -0.00000000000E+00 -0.00000000000E+00 -0.50000000000E+03  0.50000000000E+03  0.00000000000E+00 0. -1.
        -11    1    1    2    0    0 -0.26974328041E+01  0.63625200700E+01  0.34502805080E+03  0.34509725244E+03  0.00000000000E+00 0.  1.
         11    1    1    2    0    0  0.12056250974E+02  0.77066212102E+01 -0.49911563284E+03  0.49932069869E+03  0.00000000000E+00 0. -1.
        -15    1    1    2    0    0 -0.11975276179E+02 -0.90181657396E+01  0.12350840148E+03  0.12442755931E+03  0.17770000000E+01 0.  1.
         15    1    1    2    0    0  0.26164580089E+01 -0.50509755406E+01  0.30579180563E+02  0.31154489553E+02  0.17770000000E+01 0. -1.
</event>
<event>
 6    1  0.1599106E-003  0.5002129E+03  0.7546771E-02  0.9399334E-01
        -11   -1    0    0    0    0  0.00000000000E+00  0.00000000000E+00  0.50000000000E+03  0.50000000000E+03  0.00000000000E+00 0. -1.
         11   -1    0    0    0    0 -0.00000000000E+00 -0.00000000000E+00 -0.50000000000E+03  0.50000000000E+03  0.00000000000E+00 0. -1.
        -11    1    1    2    0    0 -0.90195885790E+01  0.93892649873E+01  0.49961752729E+03  0.49978713954E+03  0.00000000000E+00 0. -1.
         11    1    1    2    0    0  0.51385997476E+00  0.27612526322E+01 -0.15181591692E+03  0.15184189540E+03  0.00000000000E+00 0. -1.
        -15    1    1    2    0    0  0.34690622937E+01 -0.18253951035E+01 -0.21991349247E+03  0.21995560543E+03  0.17770000000E+01 0. -1.
         15    1    1    2    0    0  0.50366663105E+01 -0.10325122516E+02 -0.12788811789E+03  0.12841535963E+03  0.17770000000E+01 0. -1.
</event>
<event>
 6    1  0.1599106E-003  0.5044730E+03  0.7546771E-02  0.9389856E-01
        -11   -1    0    0    0    0  0.00000000000E+00  0.00000000000E+00  0.50000000000E+03  0.50000000000E+03  0.00000000000E+00 0.  1.
         11   -1    0    0    0    0 -0.00000000000E+00 -0.00000000000E+00 -0.50000000000E+03  0.50000000000E+03  0.00000000000E+00 0. -1.
        -11    1    1    2    0    0  0.74409658688E+01  0.52930517454E+01  0.49544281089E+03  0.49552695510E+03  0.00000000000E+00 0.  1.
         11    1    1    2    0    0  0.12924559652E+00  0.79567901281E+01 -0.47459509512E+03  0.47466180753E+03  0.00000000000E+00 0. -1.
        -15    1    1    2    0    0 -0.19319258180E+01 -0.57937896346E+01  0.55882722153E+00  0.63851666040E+01  0.17770000000E+01 0. -1.
         15    1    1    2    0    0 -0.56382856473E+01 -0.74560522389E+01 -0.21406542987E+02  0.23426070769E+02  0.17770000000E+01 0.  1.
</event>
<event>
 6    1  0.1599106E-003  0.5013926E+03  0.7546771E-02  0.9396699E-01
        -11   -1    0    0    0    0  0.00000000000E+00  0.00000000000E+00  0.50000000000E+03  0.50000000000E+03  0.00000000000E+00 0.  1.
         11   -1    0    0    0    0 -0.00000000000E+00 -0.00000000000E+00 -0.50000000000E+03  0.50000000000E+03  0.00000000000E+00 0.  1.
        -11    1    1    2    0    0 -0.16188387839E+01 -0.90832769821E+01  0.49852201607E+03  0.49860738770E+03  0.00000000000E+00 0.  1.
         11    1    1    2    0    0 -0.31899011244E+01  0.56033075224E+01 -0.44219689339E+03  0.44224389770E+03  0.00000000000E+00 0.  1.
        -15    1    1    2    0    0 -0.35550026365E+01  0.75709127163E+01 -0.25088511576E+02  0.26505620257E+02  0.17770000000E+01 0. -1.
         15    1    1    2    0    0  0.83637425448E+01 -0.40909432567E+01 -0.31236611104E+02  0.32643094343E+02  0.17770000000E+01 0.  1.
</event>
<event>
 6    1  0.1599106E-003  0.5002538E+03  0.7546771E-02  0.9399242E-01
        -11   -1    0    0    0    0  0.00000000000E+00  0.00000000000E+00  0.50000000000E+03  0.50000000000E+03  0.00000000000E+00 0. -1.
         11   -1    0    0    0    0 -0.00000000000E+00 -0.00000000000E+00 -0.50000000000E+03  0.50000000000E+03  0.00000000000E+00 0.  1.
        -11    1    1    2    0    0 -0.11951882539E+01 -0.16173113140E+01  0.92122637871E+02  0.92144585186E+02  0.00000000000E+00 0. -1.
         11    1    1    2    0    0 -0.59179132126E+01  0.75557414661E+01 -0.49965401959E+03  0.49974618580E+03  0.00000000000E+00 0.  1.
        -15    1    1    2    0    0 -0.38809364920E+00 -0.97690435481E+01  0.32031020253E+03  0.32046430130E+03  0.17770000000E+01 0. -1.
         15    1    1    2    0    0  0.75011951158E+01  0.38306133960E+01  0.87221179188E+02  0.87644927720E+02  0.17770000000E+01 0.  1.
</event>
<event>
 6    1  0.1599106E-003  0.4828430E+03  0.7546771E-02  0.9439040E-01
        -11   -1    0    0    0    0  0.00000000000E+00  0.00000000000E+00  0.50000000000E+03  0.50000000000E+03  0.00000000000E+00 0. -1.
         11   -1    0    0    0    0 -0.00000000000E+00 -0.00000000000E+00 -0.50000000000E+03  0.50000000000E+03  0.00000000000E+00 0.  1.
        -11    1    1    2    0    0 -0.35233746839E+01 -0.15499715025E+02  0.48420040848E+03  0.48446123778E+03  0.00000000000E+00 0. -1.
         11    1    1    2    0    0  0.12352299449E+02  0.22104075414E+00 -0.48123189800E+03  0.48139045256E+03  0.00000000000E+00 0.  1.
        -15    1    1    2    0    0  0.13388459459E+01  0.19858279644E+02  0.46627024417E+01  0.20519315338E+02  0.17770000000E+01 0. -1.
         15    1    1    2    0    0 -0.10167770711E+02 -0.45796053732E+01 -0.76312129247E+01  0.13628994325E+02  0.17770000000E+01 0.  1.
</event>
<event>
 6    1  0.1599106E-003  0.5177948E+03  0.7546771E-02  0.9360850E-01
        -11   -1    0    0    0    0  0.00000000000E+00  0.00000000000E+00  0.50000000000E+03  0.50000000000E+03  0.00000000000E+00 0.  1.
         11   -1    0    0    0    0 -0.00000000000E+00 -0.00000000000E+00 -0.50000000000E+03  0.50000000000E+03  0.00000000000E+00 0.  1.
        -11    1    1    2    0    0  0.23713833881E+01 -0.10005922766E+02  0.48209558646E+03  0.48220524306E+03  0.00000000000E+00 0.  1.
         11    1    1    2    0    0 -0.35166811348E+01  0.58660442694E+01 -0.47717042094E+03  0.47721943396E+03  0.00000000000E+00 0.  1.
        -15    1    1    2    0    0 -0.38903259096E+01  0.61565389394E+01  0.16648994004E+02  0.18258815343E+02  0.17770000000E+01 0. -1.
         15    1    1    2    0    0  0.50356236563E+01 -0.20166604427E+01 -0.21574159525E+02  0.22316507638E+02  0.17770000000E+01 0.  1.
</event>
<event>
 6    1  0.1599106E-003  0.5026809E+03  0.7546771E-02  0.9393831E-01
        -11   -1    0    0    0    0  0.00000000000E+00  0.00000000000E+00  0.50000000000E+03  0.50000000000E+03  0.00000000000E+00 0. -1.
         11   -1    0    0    0    0 -0.00000000000E+00 -0.00000000000E+00 -0.50000000000E+03  0.50000000000E+03  0.00000000000E+00 0.  1.
        -11    1    1    2    0    0  0.32501345790E+01 -0.13513847854E+01  0.10714587012E+03  0.10720367111E+03  0.00000000000E+00 0. -1.
         11    1    1    2    0    0  0.56861745373E+01  0.10251550596E+02 -0.49718095103E+03  0.49731913792E+03  0.00000000000E+00 0.  1.
        -15    1    1    2    0    0 -0.65133519703E+01  0.23998674445E+01  0.38000326274E+03  0.38007080990E+03  0.17770000000E+01 0. -1.
         15    1    1    2    0    0 -0.24229571460E+01 -0.11300033255E+02  0.10031818176E+02  0.15406381075E+02  0.17770000000E+01 0.  1.
</event>
<event>
 6    1  0.1599106E-003  0.5101966E+03  0.7546771E-02  0.9377279E-01
        -11   -1    0    0    0    0  0.00000000000E+00  0.00000000000E+00  0.50000000000E+03  0.50000000000E+03  0.00000000000E+00 0. -1.
         11   -1    0    0    0    0 -0.00000000000E+00 -0.00000000000E+00 -0.50000000000E+03  0.50000000000E+03  0.00000000000E+00 0.  1.
        -11    1    1    2    0    0  0.55913194951E+01  0.29306487788E+01  0.39229022525E+03  0.39234101542E+03  0.00000000000E+00 0. -1.
         11    1    1    2    0    0  0.16323791809E+02  0.28708717191E+02 -0.48868878940E+03  0.48980341925E+03  0.00000000000E+00 0.  1.
        -15    1    1    2    0    0  0.25030363786E+01 -0.19282689481E+02  0.86536462987E+02  0.88711918365E+02  0.17770000000E+01 0. -1.
         15    1    1    2    0    0 -0.24418147682E+02 -0.12356676488E+02  0.98621011687E+01  0.29143646967E+02  0.17770000000E+01 0.  1.
</event>
<event>
 6    1  0.1599106E-003  0.5026733E+03  0.7546771E-02  0.9393848E-01
        -11   -1    0    0    0    0  0.00000000000E+00  0.00000000000E+00  0.50000000000E+03  0.50000000000E+03  0.00000000000E+00 0.  1.
         11   -1    0    0    0    0 -0.00000000000E+00 -0.00000000000E+00 -0.50000000000E+03  0.50000000000E+03  0.00000000000E+00 0.  1.
        -11    1    1    2    0    0 -0.12463608678E+02 -0.20725454028E+02  0.49673828775E+03  0.49732666578E+03  0.00000000000E+00 0.  1.
         11    1    1    2    0    0 -0.40507834988E+01  0.18686037564E+01 -0.28920324737E+03  0.28923765110E+03  0.00000000000E+00 0.  1.
        -15    1    1    2    0    0  0.15075940617E+02  0.21761962385E+02 -0.57192030923E+02  0.63047229300E+02  0.17770000000E+01 0. -1.
         15    1    1    2    0    0  0.14384515600E+01 -0.29051121131E+01 -0.15034300946E+03  0.15038845382E+03  0.17770000000E+01 0.  1.
</event>
<event>
 6    1  0.1599106E-003  0.5160656E+03  0.7546771E-02  0.9364562E-01
        -11   -1    0    0    0    0  0.00000000000E+00  0.00000000000E+00  0.50000000000E+03  0.50000000000E+03  0.00000000000E+00 0.  1.
         11   -1    0    0    0    0 -0.00000000000E+00 -0.00000000000E+00 -0.50000000000E+03  0.50000000000E+03  0.00000000000E+00 0.  1.
        -11    1    1    2    0    0  0.49966244564E+01 -0.41832053686E+01  0.46197471688E+03  0.46202067540E+03  0.00000000000E+00 0.  1.
         11    1    1    2    0    0  0.67925013424E+00  0.80968338649E+01 -0.48386616546E+03  0.48393438210E+03  0.00000000000E+00 0.  1.
        -15    1    1    2    0    0 -0.13498991007E+02 -0.49292949972E+01  0.35430236654E+02  0.38275058533E+02  0.17770000000E+01 0. -1.
         15    1    1    2    0    0  0.78231164163E+01  0.10156665009E+01 -0.13538788075E+02  0.15769883970E+02  0.17770000000E+01 0.  1.
</event>
<event>
 6    1  0.1599106E-003  0.5022531E+03  0.7546771E-02  0.9394782E-01
        -11   -1    0    0    0    0  0.00000000000E+00  0.00000000000E+00  0.50000000000E+03  0.50000000000E+03  0.00000000000E+00 0. -1.
         11   -1    0    0    0    0 -0.00000000000E+00 -0.00000000000E+00 -0.50000000000E+03  0.50000000000E+03  0.00000000000E+00 0.  1.
        -11    1    1    2    0    0  0.21021122976E+01 -0.79672208243E+01  0.14264567015E+03  0.14288345844E+03  0.00000000000E+00 0. -1.
         11    1    1    2    0    0 -0.12035924989E+02 -0.16864668205E+01 -0.49759854686E+03  0.49774694524E+03  0.00000000000E+00 0.  1.
        -15    1    1    2    0    0 -0.85049405184E+00  0.88445842886E+01  0.34312527346E+03  0.34324489949E+03  0.17770000000E+01 0. -1.
         15    1    1    2    0    0  0.10784306743E+02  0.80910335625E+00  0.11827603251E+02  0.16124696829E+02  0.17770000000E+01 0.  1.
</event>
<event>
 6    1  0.1599106E-003  0.5063116E+03  0.7546771E-02  0.9385797E-01
        -11   -1    0    0    0    0  0.00000000000E+00  0.00000000000E+00  0.50000000000E+03  0.50000000000E+03  0.00000000000E+00 0.  1.
         11   -1    0    0    0    0 -0.00000000000E+00 -0.00000000000E+00 -0.50000000000E+03  0.50000000000E+03  0.00000000000E+00 0.  1.
        -11    1    1    2    0    0 -0.20174449005E+02  0.45309068648E+02  0.49119075130E+03  0.49368843845E+03  0.00000000000E+00 0.  1.
         11    1    1    2    0    0 -0.50818011270E+01  0.18888837791E+01 -0.27860103604E+03  0.27865378137E+03  0.00000000000E+00 0.  1.
        -15    1    1    2    0    0  0.45526753802E+02 -0.30958113224E+02 -0.15360398439E+03  0.16318220441E+03  0.17770000000E+01 0. -1.
         15    1    1    2    0    0 -0.20270503669E+02 -0.16239839204E+02 -0.58985730866E+02  0.64475575773E+02  0.17770000000E+01 0.  1.
</event>
<event>
 6    1  0.1599106E-003  0.5030912E+03  0.7546771E-02  0.9392919E-01
        -11   -1    0    0    0    0  0.00000000000E+00  0.00000000000E+00  0.50000000000E+03  0.50000000000E+03  0.00000000000E+00 0. -1.
         11   -1    0    0    0    0 -0.00000000000E+00 -0.00000000000E+00 -0.50000000000E+03  0.50000000000E+03  0.00000000000E+00 0.  1.
        -11    1    1    2    0    0  0.25553151293E+01 -0.27586336222E+01  0.24698395566E+03  0.24701257872E+03  0.00000000000E+00 0. -1.
         11    1    1    2    0    0  0.19265571573E+02  0.10495176092E+02 -0.49642422239E+03  0.49690876380E+03  0.00000000000E+00 0.  1.
        -15    1    1    2    0    0 -0.32742142312E+02  0.20034399408E+01  0.87414323257E+02  0.93383527960E+02  0.17770000000E+01 0.  1.
         15    1    1    2    0    0  0.10921255610E+02 -0.97399824108E+01  0.16202594347E+03  0.16269512952E+03  0.17770000000E+01 0. -1.
</event>
<event>
 6    1  0.1599106E-003  0.5002410E+03  0.7546771E-02  0.9399271E-01
        -11   -1    0    0    0    0  0.00000000000E+00  0.00000000000E+00  0.50000000000E+03  0.50000000000E+03  0.00000000000E+00 0.  1.
         11   -1    0    0    0    0 -0.00000000000E+00 -0.00000000000E+00 -0.50000000000E+03  0.50000000000E+03  0.00000000000E+00 0. -1.
        -11    1    1    2    0    0 -0.68617328033E+01 -0.15368164530E+00  0.21698497016E+03  0.21709349201E+03  0.00000000000E+00 0.  1.
         11    1    1    2    0    0  0.18753266217E+02  0.28694349103E+01 -0.49939877486E+03  0.49975899690E+03  0.00000000000E+00 0. -1.
        -15    1    1    2    0    0 -0.37593828879E+01 -0.83290413169E+01  0.18063317534E+03  0.18087290469E+03  0.17770000000E+01 0.  1.
         15    1    1    2    0    0 -0.81321505261E+01  0.56132880519E+01  0.10178062936E+03  0.10227460641E+03  0.17770000000E+01 0. -1.
</event>
<event>
 6    1  0.1599106E-003  0.5020919E+03  0.7546771E-02  0.9395141E-01
        -11   -1    0    0    0    0  0.00000000000E+00  0.00000000000E+00  0.50000000000E+03  0.50000000000E+03  0.00000000000E+00 0. -1.
         11   -1    0    0    0    0 -0.00000000000E+00 -0.00000000000E+00 -0.50000000000E+03  0.50000000000E+03  0.00000000000E+00 0. -1.
        -11    1    1    2    0    0 -0.55832251082E+01 -0.56842417962E+01  0.49784431204E+03  0.49790806585E+03  0.00000000000E+00 0. -1.
         11    1    1    2    0    0  0.37400644087E+01  0.68570300109E+01 -0.47314849791E+03  0.47321296265E+03  0.00000000000E+00 0. -1.
        -15    1    1    2    0    0  0.62327296523E+01  0.32103284568E+01 -0.70909241478E+01  0.10128773963E+02  0.17770000000E+01 0. -1.
         15    1    1    2    0    0 -0.43895689528E+01 -0.43831166716E+01 -0.17604889980E+02  0.18750197534E+02  0.17770000000E+01 0.  1.
</event>
<event>
 6    1  0.1599106E-003  0.4831505E+03  0.7546771E-02  0.9438322E-01
        -11   -1    0    0    0    0  0.00000000000E+00  0.00000000000E+00  0.50000000000E+03  0.50000000000E+03  0.00000000000E+00 0. -1.
         11   -1    0    0    0    0 -0.00000000000E+00 -0.00000000000E+00 -0.50000000000E+03  0.50000000000E+03  0.00000000000E+00 0.  1.
        -11    1    1    2    0    0  0.10127510964E+02 -0.61560860166E+01  0.48256253782E+03  0.48270805543E+03  0.00000000000E+00 0. -1.
         11    1    1    2    0    0  0.39666914901E+01 -0.66979864217E+01 -0.48371923223E+03  0.48378186541E+03  0.00000000000E+00 0.  1.
        -15    1    1    2    0    0  0.68315510503E+01  0.78071629819E+00  0.53939917311E+01  0.89180986474E+01  0.17770000000E+01 0. -1.
         15    1    1    2    0    0 -0.20925753504E+02  0.12073356140E+02 -0.42372973117E+01  0.24591980516E+02  0.17770000000E+01 0.  1.
</event>
<event>
 6    1  0.1599106E-003  0.5013013E+03  0.7546771E-02  0.9396903E-01
        -11   -1    0    0    0    0  0.00000000000E+00  0.00000000000E+00  0.50000000000E+03  0.50000000000E+03  0.00000000000E+00 0.  1.
         11   -1    0    0    0    0 -0.00000000000E+00 -0.00000000000E+00 -0.50000000000E+03  0.50000000000E+03  0.00000000000E+00 0.  1.
        -11    1    1    2    0    0 -0.23055727230E+01 -0.49135814458E+01  0.36892929842E+03  0.36896922119E+03  0.00000000000E+00 0.  1.
         11    1    1    2    0    0  0.99874194376E+00 -0.10013347058E+02 -0.49859713996E+03  0.49869867914E+03  0.00000000000E+00 0.  1.
        -15    1    1    2    0    0  0.49448411321E+01  0.17824375829E+02  0.68941918237E+02  0.71402420454E+02  0.17770000000E+01 0.  1.
         15    1    1    2    0    0 -0.36380103528E+01 -0.28974473249E+01  0.60725923296E+02  0.60929679217E+02  0.17770000000E+01 0. -1.
</event>
<event>
 6    1  0.1599106E-003  0.5139285E+03  0.7546771E-02  0.9369172E-01
        -11   -1    0    0    0    0  0.00000000000E+00  0.00000000000E+00  0.50000000000E+03  0.50000000000E+03  0.00000000000E+00 0.  1.
         11   -1    0    0    0    0 -0.00000000000E+00 -0.00000000000E+00 -0.50000000000E+03  0.50000000000E+03  0.00000000000E+00 0.  1.
        -11    1    1    2    0    0 -0.13364567095E+02 -0.80479248458E+01  0.46233560656E+03  0.46259873956E+03  0.00000000000E+00 0.  1.
         11    1    1    2    0    0 -0.57984047093E+01 -0.76395649846E+01 -0.48597691621E+03  0.48607154570E+03  0.00000000000E+00 0.  1.
        -15    1    1    2    0    0  0.14068578427E+02  0.10493872158E+02 -0.75962788149E+01  0.19206963130E+02  0.17770000000E+01 0. -1.
         15    1    1    2    0    0  0.50943933768E+01  0.51936176720E+01  0.31237588469E+02  0.32122751606E+02  0.17770000000E+01 0.  1.
</event>
<event>
 6    1  0.1599106E-003  0.5035259E+03  0.7546771E-02  0.9391955E-01
        -11   -1    0    0    0    0  0.00000000000E+00  0.00000000000E+00  0.50000000000E+03  0.50000000000E+03  0.00000000000E+00 0.  1.
         11   -1    0    0    0    0 -0.00000000000E+00 -0.00000000000E+00 -0.50000000000E+03  0.50000000000E+03  0.00000000000E+00 0. -1.
        -11    1    1    2    0    0  0.60215529230E+01 -0.22097017385E+01  0.46540515638E+03  0.46544935436E+03  0.00000000000E+00 0.  1.
         11    1    1    2    0    0  0.65990810445E+01 -0.84113303036E+01 -0.49635895014E+03  0.49647407358E+03  0.00000000000E+00 0. -1.
        -15    1    1    2    0    0 -0.10328807598E+01  0.23558564468E+01  0.19421854358E+02  0.19671884963E+02  0.17770000000E+01 0.  1.
         15    1    1    2    0    0 -0.11587753208E+02  0.82651755953E+01  0.11531939400E+02  0.18404687103E+02  0.17770000000E+01 0. -1.
</event>
<event>
 6    1  0.1599106E-003  0.5089269E+03  0.7546771E-02  0.9380054E-01
        -11   -1    0    0    0    0  0.00000000000E+00  0.00000000000E+00  0.50000000000E+03  0.50000000000E+03  0.00000000000E+00 0.  1.
         11   -1    0    0    0    0 -0.00000000000E+00 -0.00000000000E+00 -0.50000000000E+03  0.50000000000E+03  0.00000000000E+00 0. -1.
        -11    1    1    2    0    0  0.21047279750E+02 -0.36128192962E+01  0.39481616685E+03  0.39539328024E+03  0.00000000000E+00 0.  1.
         11    1    1    2    0    0 -0.37904021207E+01  0.14583366385E+02 -0.49084184738E+03  0.49107307080E+03  0.00000000000E+00 0. -1.
        -15    1    1    2    0    0 -0.23970787192E+01 -0.13338500454E+02 -0.24612396925E+01  0.13888016797E+02  0.17770000000E+01 0. -1.
         15    1    1    2    0    0 -0.14859798910E+02  0.23679533650E+01  0.98486920221E+02  0.99645632169E+02  0.17770000000E+01 0.  1.
</event>
<event>
 6    1  0.1599106E-003  0.5010913E+03  0.7546771E-02  0.9397371E-01
        -11   -1    0    0    0    0  0.00000000000E+00  0.00000000000E+00  0.50000000000E+03  0.50000000000E+03  0.00000000000E+00 0.  1.
         11   -1    0    0    0    0 -0.00000000000E+00 -0.00000000000E+00 -0.50000000000E+03  0.50000000000E+03  0.00000000000E+00 0.  1.
        -11    1    1    2    0    0 -0.63123566419E+01  0.34135108238E+01  0.49885708929E+03  0.49890870250E+03  0.00000000000E+00 0.  1.
         11    1    1    2    0    0  0.76773428437E+01 -0.24337925592E+01 -0.34890799140E+03  0.34900093324E+03  0.00000000000E+00 0.  1.
        -15    1    1    2    0    0  0.12196207491E+01  0.49230838124E+00 -0.14818653294E+03  0.14820302330E+03  0.17770000000E+01 0. -1.
         15    1    1    2    0    0 -0.25846069509E+01 -0.14720266458E+01 -0.17625649552E+01  0.38873409624E+01  0.17770000000E+01 0.  1.
</event>
<event>
 6    1  0.1599106E-003  0.5114316E+03  0.7546771E-02  0.9374588E-01
        -11   -1    0    0    0    0  0.00000000000E+00  0.00000000000E+00  0.50000000000E+03  0.50000000000E+03  0.00000000000E+00 0.  1.
         11   -1    0    0    0    0 -0.00000000000E+00 -0.00000000000E+00 -0.50000000000E+03  0.50000000000E+03  0.00000000000E+00 0.  1.
        -11    1    1    2    0    0 -0.56618785368E+00 -0.55877433012E+01  0.32362288508E+03  0.32367161629E+03  0.00000000000E+00 0.  1.
         11    1    1    2    0    0 -0.21215158176E+01  0.11585115088E+02 -0.48842641913E+03  0.48856840117E+03  0.00000000000E+00 0.  1.
        -15    1    1    2    0    0  0.28941301301E+01 -0.13822311711E+02 -0.69356666025E+01  0.15833303208E+02  0.17770000000E+01 0. -1.
         15    1    1    2    0    0 -0.20642645883E+00  0.78249399244E+01  0.17173920065E+03  0.17192667933E+03  0.17770000000E+01 0.  1.
</event>
<event>
 6    1  0.1599106E-003  0.5017113E+03  0.7546771E-02  0.9395989E-01
        -11   -1    0    0    0    0  0.00000000000E+00  0.00000000000E+00  0.50000000000E+03  0.50000000000E+03  0.00000000000E+00 0. -1.
         11   -1    0    0    0    0 -0.00000000000E+00 -0.00000000000E+00 -0.50000000000E+03  0.50000000000E+03  0.00000000000E+00 0. -1.
        -11    1    1    2    0    0  0.44204721450E+01 -0.80556216140E+01  0.41664674682E+03  0.41674805968E+03  0.00000000000E+00 0. -1.
         11    1    1    2    0    0  0.10465342201E+02  0.29902272004E+01 -0.49816981024E+03  0.49828869612E+03  0.00000000000E+00 0. -1.
        -15    1    1    2    0    0 -0.13234016780E+02  0.10425951510E+02  0.70049071623E+02  0.72068507889E+02  0.17770000000E+01 0. -1.
         15    1    1    2    0    0 -0.16517975663E+01 -0.53605570960E+01  0.11473991801E+02  0.12894736307E+02  0.17770000000E+01 0.  1.
</event>
<event>
 6    1  0.1599106E-003  0.5090631E+03  0.7546771E-02  0.9379756E-01
        -11   -1    0    0    0    0  0.00000000000E+00  0.00000000000E+00  0.50000000000E+03  0.50000000000E+03  0.00000000000E+00 0.  1.
         11   -1    0    0    0    0 -0.00000000000E+00 -0.00000000000E+00 -0.50000000000E+03  0.50000000000E+03  0.00000000000E+00 0.  1.
        -11    1    1    2    0    0 -0.84758597157E+01  0.50382728763E+01  0.49083783420E+03  0.49093686343E+03  0.00000000000E+00 0.  1.
         11    1    1    2    0    0  0.98461511078E+00 -0.56608743272E+01 -0.34439874065E+03  0.34444666862E+03  0.00000000000E+00 0.  1.
        -15    1    1    2    0    0 -0.46198654607E+01  0.32467495534E+02 -0.10956139257E+03  0.11437804813E+03  0.17770000000E+01 0.  1.
         15    1    1    2    0    0  0.12111110066E+02 -0.31844894083E+02 -0.36877700981E+02  0.50238419808E+02  0.17770000000E+01 0. -1.
</event>
<event>
 6    1  0.1599106E-003  0.5152787E+03  0.7546771E-02  0.9366257E-01
        -11   -1    0    0    0    0  0.00000000000E+00  0.00000000000E+00  0.50000000000E+03  0.50000000000E+03  0.00000000000E+00 0. -1.
         11   -1    0    0    0    0 -0.00000000000E+00 -0.00000000000E+00 -0.50000000000E+03  0.50000000000E+03  0.00000000000E+00 0.  1.
        -11    1    1    2    0    0  0.68374447226E+01  0.53236519152E+01  0.47867782434E+03  0.47875625473E+03  0.00000000000E+00 0. -1.
         11    1    1    2    0    0 -0.99217521885E+01 -0.93053616329E+00 -0.48461883984E+03  0.48472128795E+03  0.00000000000E+00 0.  1.
        -15    1    1    2    0    0 -0.52247182886E+01 -0.71538566170E+01  0.18803516092E+02  0.20861574536E+02  0.17770000000E+01 0. -1.
         15    1    1    2    0    0  0.83090257545E+01  0.27607408650E+01 -0.12862500598E+02  0.15660882790E+02  0.17770000000E+01 0. -1.
</event>
<event>
 6    1  0.1599106E-003  0.5076550E+03  0.7546771E-02  0.9382842E-01
        -11   -1    0    0    0    0  0.00000000000E+00  0.00000000000E+00  0.50000000000E+03  0.50000000000E+03  0.00000000000E+00 0. -1.
         11   -1    0    0    0    0 -0.00000000000E+00 -0.00000000000E+00 -0.50000000000E+03  0.50000000000E+03  0.00000000000E+00 0.  1.
        -11    1    1    2    0    0 -0.11710844756E+02 -0.13806589384E+02  0.49201205712E+03  0.49234503160E+03  0.00000000000E+00 0. -1.
         11    1    1    2    0    0  0.60788543306E+01 -0.14090021941E+02 -0.45202242855E+03  0.45228282866E+03  0.00000000000E+00 0.  1.
        -15    1    1    2    0    0 -0.59454545755E+01 -0.16770517193E+01 -0.79597471078E+01  0.10231140484E+02  0.17770000000E+01 0. -1.
         15    1    1    2    0    0  0.11577445001E+02  0.29573663044E+02 -0.32029881457E+02  0.45140999255E+02  0.17770000000E+01 0.  1.
</event>
<event>
 6    1  0.1599106E-003  0.5032816E+03  0.7546771E-02  0.9392497E-01
        -11   -1    0    0    0    0  0.00000000000E+00  0.00000000000E+00  0.50000000000E+03  0.50000000000E+03  0.00000000000E+00 0.  1.
         11   -1    0    0    0    0 -0.00000000000E+00 -0.00000000000E+00 -0.50000000000E+03  0.50000000000E+03  0.00000000000E+00 0.  1.
        -11    1    1    2    0    0  0.10224170206E+02  0.60971248082E+01  0.49657574366E+03  0.49671840893E+03  0.00000000000E+00 0.  1.
         11    1    1    2    0    0 -0.12760743155E+02  0.87614867210E+01 -0.40694441361E+03  0.40723869657E+03  0.00000000000E+00 0.  1.
        -15    1    1    2    0    0 -0.97111167810E+01  0.30206224514E+01 -0.14309251356E+02  0.17644895933E+02  0.17770000000E+01 0. -1.
         15    1    1    2    0    0  0.12247689730E+02 -0.17879233981E+02 -0.75322078686E+02  0.78397998559E+02  0.17770000000E+01 0.  1.
</event>
<event>
 6    1  0.1599106E-003  0.4906160E+03  0.7546771E-02  0.9421055E-01
        -11   -1    0    0    0    0  0.00000000000E+00  0.00000000000E+00  0.50000000000E+03  0.50000000000E+03  0.00000000000E+00 0. -1.
         11   -1    0    0    0    0 -0.00000000000E+00 -0.00000000000E+00 -0.50000000000E+03  0.50000000000E+03  0.00000000000E+00 0.  1.
        -11    1    1    2    0    0  0.65235749312E+01  0.76880861727E+01  0.49413755970E+03  0.49424041883E+03  0.00000000000E+00 0. -1.
         11    1    1    2    0    0  0.67292475226E+01 -0.26620495083E+00 -0.48708796805E+03  0.48713452173E+03  0.00000000000E+00 0.  1.
        -15    1    1    2    0    0 -0.10145704055E+02 -0.63932623039E+01 -0.19016668828E+01  0.12271233825E+02  0.17770000000E+01 0. -1.
         15    1    1    2    0    0 -0.31071183988E+01 -0.10286189180E+01 -0.51479247611E+01  0.63538256168E+01  0.17770000000E+01 0.  1.
</event>
<event>
 6    1  0.1599106E-003  0.5117849E+03  0.7546771E-02  0.9373819E-01
        -11   -1    0    0    0    0  0.00000000000E+00  0.00000000000E+00  0.50000000000E+03  0.50000000000E+03  0.00000000000E+00 0.  1.
         11   -1    0    0    0    0 -0.00000000000E+00 -0.00000000000E+00 -0.50000000000E+03  0.50000000000E+03  0.00000000000E+00 0. -1.
        -11    1    1    2    0    0 -0.13074257286E+02 -0.34201539152E+02  0.48684011271E+03  0.48821509279E+03  0.00000000000E+00 0.  1.
         11    1    1    2    0    0  0.12937964046E+02 -0.18563984356E+02 -0.41053878850E+03  0.41116190156E+03  0.00000000000E+00 0. -1.
        -15    1    1    2    0    0  0.33458034653E+01  0.43736504446E+02 -0.79115249341E+02  0.90479039724E+02  0.17770000000E+01 0. -1.
         15    1    1    2    0    0 -0.32095102253E+01  0.90290190626E+01  0.28139251298E+01  0.10143965928E+02  0.17770000000E+01 0.  1.
</event>
<event>
 6    1  0.1599106E-003  0.5094199E+03  0.7546771E-02  0.9378975E-01
        -11   -1    0    0    0    0  0.00000000000E+00  0.00000000000E+00  0.50000000000E+03  0.50000000000E+03  0.00000000000E+00 0.  1.
         11   -1    0    0    0    0 -0.00000000000E+00 -0.00000000000E+00 -0.50000000000E+03  0.50000000000E+03  0.00000000000E+00 0. -1.
        -11    1    1    2    0    0 -0.69287961386E+01  0.27417670220E+02  0.48976429040E+03  0.49058006177E+03  0.00000000000E+00 0.  1.
         11    1    1    2    0    0  0.17744352038E+02  0.25145048336E+02 -0.24138089201E+03  0.24333489374E+03  0.00000000000E+00 0. -1.
        -15    1    1    2    0    0 -0.44637377176E+02 -0.27536216268E+02 -0.12004365877E+03  0.13101288634E+03  0.17770000000E+01 0.  1.
         15    1    1    2    0    0  0.33821821277E+02 -0.25026502289E+02 -0.12833973962E+03  0.13507215815E+03  0.17770000000E+01 0. -1.
</event>
<event>
 6    1  0.1599106E-003  0.5044448E+03  0.7546771E-02  0.9389919E-01
        -11   -1    0    0    0    0  0.00000000000E+00  0.00000000000E+00  0.50000000000E+03  0.50000000000E+03  0.00000000000E+00 0.  1.
         11   -1    0    0    0    0 -0.00000000000E+00 -0.00000000000E+00 -0.50000000000E+03  0.50000000000E+03  0.00000000000E+00 0.  1.
        -11    1    1    2    0    0 -0.95281214935E+01  0.69751011787E+01  0.33437791723E+03  0.33458635458E+03  0.00000000000E+00 0.  1.
         11    1    1    2    0    0  0.19488009574E+02 -0.99798067540E+01 -0.49507126349E+03  0.49555517856E+03  0.00000000000E+00 0.  1.
        -15    1    1    2    0    0  0.17428791406E+02 -0.65358423513E+01  0.10869962651E+03  0.11029617644E+03  0.17770000000E+01 0. -1.
         15    1    1    2    0    0 -0.27388679486E+02  0.95405479267E+01  0.51993719744E+02  0.59562290424E+02  0.17770000000E+01 0.  1.
</event>
<event>
 6    1  0.1599106E-003  0.5894427E+03  0.7546771E-02  0.9219291E-01
        -11   -1    0    0    0    0  0.00000000000E+00  0.00000000000E+00  0.50000000000E+03  0.50000000000E+03  0.00000000000E+00 0.  1.
         11   -1    0    0    0    0 -0.00000000000E+00 -0.00000000000E+00 -0.50000000000E+03  0.50000000000E+03  0.00000000000E+00 0. -1.
        -11    1    1    2    0    0  0.73989508587E+01 -0.94858598217E+01  0.33468584269E+03  0.33490198463E+03  0.00000000000E+00 0.  1.
         11    1    1    2    0    0 -0.44268527168E+02  0.27091130556E+01 -0.40815465086E+03  0.41055725644E+03  0.00000000000E+00 0. -1.
        -15    1    1    2    0    0  0.19453256398E+02 -0.10289998603E+03  0.95004818939E+02  0.14140689396E+03  0.17770000000E+01 0.  1.
         15    1    1    2    0    0  0.17416319912E+02  0.10967673279E+03 -0.21536010765E+02  0.11313386498E+03  0.17770000000E+01 0. -1.
</event>
<event>
 6    1  0.1599106E-003  0.5064597E+03  0.7546771E-02  0.9385470E-01
        -11   -1    0    0    0    0  0.00000000000E+00  0.00000000000E+00  0.50000000000E+03  0.50000000000E+03  0.00000000000E+00 0. -1.
         11   -1    0    0    0    0 -0.00000000000E+00 -0.00000000000E+00 -0.50000000000E+03  0.50000000000E+03  0.00000000000E+00 0. -1.
        -11    1    1    2    0    0  0.20372802954E+02  0.20957658788E+01  0.49311515662E+03  0.49354027295E+03  0.00000000000E+00 0. -1.
         11    1    1    2    0    0  0.69554742561E+01  0.30729039724E+01 -0.43316992656E+03  0.43323666355E+03  0.00000000000E+00 0. -1.
        -15    1    1    2    0    0 -0.45566575473E+01 -0.83267338295E+00  0.32203831065E+01  0.59148177756E+01  0.17770000000E+01 0.  1.
         15    1    1    2    0    0 -0.22771619662E+02 -0.43359964683E+01 -0.63165613164E+02  0.67308245727E+02  0.17770000000E+01 0. -1.
</event>
<event>
 6    1  0.1599106E-003  0.5078291E+03  0.7546771E-02  0.9382460E-01
        -11   -1    0    0    0    0  0.00000000000E+00  0.00000000000E+00  0.50000000000E+03  0.50000000000E+03  0.00000000000E+00 0. -1.
         11   -1    0    0    0    0 -0.00000000000E+00 -0.00000000000E+00 -0.50000000000E+03  0.50000000000E+03  0.00000000000E+00 0.  1.
        -11    1    1    2    0    0 -0.68107905905E+01 -0.83837004468E+01  0.49205235107E+03  0.49217089460E+03  0.00000000000E+00 0. -1.
         11    1    1    2    0    0  0.13547840238E+02 -0.27417659976E+01 -0.33947337259E+03  0.33975466436E+03  0.00000000000E+00 0.  1.
        -15    1    1    2    0    0 -0.10275951502E+01  0.14975578321E+02 -0.15825497605E+03  0.15897521527E+03  0.17770000000E+01 0. -1.
         15    1    1    2    0    0 -0.57094544969E+01 -0.38501118765E+01  0.56759975727E+01  0.90992257670E+01  0.17770000000E+01 0.  1.
</event>
<event>
 6    1  0.1599106E-003  0.5025043E+03  0.7546771E-02  0.9394223E-01
        -11   -1    0    0    0    0  0.00000000000E+00  0.00000000000E+00  0.50000000000E+03  0.50000000000E+03  0.00000000000E+00 0. -1.
         11   -1    0    0    0    0 -0.00000000000E+00 -0.00000000000E+00 -0.50000000000E+03  0.50000000000E+03  0.00000000000E+00 0.  1.
        -11    1    1    2    0    0 -0.86364542723E+01 -0.10647674994E+02  0.49730671604E+03  0.49749565942E+03  0.00000000000E+00 0. -1.
         11    1    1    2    0    0 -0.13296975376E+02 -0.18732337034E+01 -0.30230533467E+03  0.30260342683E+03  0.00000000000E+00 0.  1.
        -15    1    1    2    0    0  0.21240194301E+02  0.23892181884E+01 -0.18222880738E+03  0.18348664852E+03  0.17770000000E+01 0.  1.
         15    1    1    2    0    0  0.69323534731E+00  0.10131690509E+02 -0.12772573988E+02  0.16414265232E+02  0.17770000000E+01 0. -1.
</event>
<event>
 6    1  0.1599106E-003  0.5012583E+03  0.7546771E-02  0.9396999E-01
        -11   -1    0    0    0    0  0.00000000000E+00  0.00000000000E+00  0.50000000000E+03  0.50000000000E+03  0.00000000000E+00 0.  1.
         11   -1    0    0    0    0 -0.00000000000E+00 -0.00000000000E+00 -0.50000000000E+03  0.50000000000E+03  0.00000000000E+00 0. -1.
        -11    1    1    2    0    0 -0.59204892585E+01 -0.73022308884E+01  0.40287531196E+03  0.40298497708E+03  0.00000000000E+00 0.  1.
         11    1    1    2    0    0 -0.11141659275E+02  0.58288272433E+00 -0.49861688045E+03  0.49874168644E+03  0.00000000000E+00 0. -1.
        -15    1    1    2    0    0  0.50298369511E+01 -0.25674392233E+01  0.15637474276E+02  0.16720626025E+02  0.17770000000E+01 0. -1.
         15    1    1    2    0    0  0.12032311583E+02  0.92867873873E+01  0.80104094218E+02  0.81552710449E+02  0.17770000000E+01 0.  1.
</event>
<event>
 6    1  0.1599106E-003  0.5092343E+03  0.7546771E-02  0.9379381E-01
        -11   -1    0    0    0    0  0.00000000000E+00  0.00000000000E+00  0.50000000000E+03  0.50000000000E+03  0.00000000000E+00 0. -1.
         11   -1    0    0    0    0 -0.00000000000E+00 -0.00000000000E+00 -0.50000000000E+03  0.50000000000E+03  0.00000000000E+00 0.  1.
        -11    1    1    2    0    0 -0.42514309058E+01  0.66674279707E+01  0.44973365389E+03  0.44980316662E+03  0.00000000000E+00 0. -1.
         11    1    1    2    0    0 -0.45723727245E+01  0.68042839835E+01 -0.49069724736E+03  0.49076572154E+03  0.00000000000E+00 0.  1.
        -15    1    1    2    0    0  0.14569426468E+02 -0.59890936207E+01  0.45954104222E+02  0.48611468337E+02  0.17770000000E+01 0. -1.
         15    1    1    2    0    0 -0.57456228376E+01 -0.74826183334E+01 -0.49905107476E+01  0.10819643499E+02  0.17770000000E+01 0.  1.
</event>
<event>
 6    1  0.1599106E-003  0.5012447E+03  0.7546771E-02  0.9397029E-01
        -11   -1    0    0    0    0  0.00000000000E+00  0.00000000000E+00  0.50000000000E+03  0.50000000000E+03  0.00000000000E+00 0. -1.
         11   -1    0    0    0    0 -0.00000000000E+00 -0.00000000000E+00 -0.50000000000E+03  0.50000000000E+03  0.00000000000E+00 0.  1.
        -11    1    1    2    0    0 -0.10295217696E+02  0.52170863335E+01  0.49862169353E+03  0.49875525336E+03  0.00000000000E+00 0. -1.
         11    1    1    2    0    0  0.11972884681E+01  0.40111795837E+01 -0.12068165323E+03  0.12075423176E+03  0.00000000000E+00 0.  1.
        -15    1    1    2    0    0  0.76668872716E+01 -0.45491117089E+01 -0.15183797846E+02  0.17696921309E+02  0.17770000000E+01 0. -1.
         15    1    1    2    0    0  0.14310419558E+01 -0.46791542083E+01 -0.36275624246E+03  0.36279359357E+03  0.17770000000E+01 0.  1.
</event>
<event>
 6    1  0.1599106E-003  0.5015469E+03  0.7546771E-02  0.9396355E-01
        -11   -1    0    0    0    0  0.00000000000E+00  0.00000000000E+00  0.50000000000E+03  0.50000000000E+03  0.00000000000E+00 0. -1.
         11   -1    0    0    0    0 -0.00000000000E+00 -0.00000000000E+00 -0.50000000000E+03  0.50000000000E+03  0.00000000000E+00 0. -1.
        -11    1    1    2    0    0 -0.23618037852E+01  0.71978870374E+01  0.49839548212E+03  0.49845305124E+03  0.00000000000E+00 0. -1.
         11    1    1    2    0    0  0.42312802836E+01 -0.25589113671E+01 -0.32626090538E+03  0.32629837593E+03  0.00000000000E+00 0. -1.
        -15    1    1    2    0    0  0.42571513215E+01 -0.11360346454E+01 -0.16496221299E+03  0.16503061339E+03  0.17770000000E+01 0. -1.
         15    1    1    2    0    0 -0.61266278198E+01 -0.35029410248E+01 -0.71723637558E+01  0.10217959440E+02  0.17770000000E+01 0.  1.
</event>
<event>
 6    1  0.1599106E-003  0.5026467E+03  0.7546771E-02  0.9393907E-01
        -11   -1    0    0    0    0  0.00000000000E+00  0.00000000000E+00  0.50000000000E+03  0.50000000000E+03  0.00000000000E+00 0. -1.
         11   -1    0    0    0    0 -0.00000000000E+00 -0.00000000000E+00 -0.50000000000E+03  0.50000000000E+03  0.00000000000E+00 0.  1.
        -11    1    1    2    0    0 -0.11836400843E+02  0.12591065797E+02  0.49705302505E+03  0.49735334023E+03  0.00000000000E+00 0. -1.
         11    1    1    2    0    0  0.45116328413E+01  0.23536329965E+01 -0.30855227553E+03  0.30859423383E+03  0.00000000000E+00 0.  1.
        -15    1    1    2    0    0 -0.19819944952E+01 -0.68565812389E+01 -0.27008878096E+01  0.78354025056E+01  0.17770000000E+01 0. -1.
         15    1    1    2    0    0  0.93067624974E+01 -0.80881175548E+01 -0.18579986171E+03  0.18621702343E+03  0.17770000000E+01 0.  1.
</event>
<event>
 6    1  0.1599106E-003  0.4357182E+03  0.7546771E-02  0.9556380E-01
        -11   -1    0    0    0    0  0.00000000000E+00  0.00000000000E+00  0.50000000000E+03  0.50000000000E+03  0.00000000000E+00 0. -1.
         11   -1    0    0    0    0 -0.00000000000E+00 -0.00000000000E+00 -0.50000000000E+03  0.50000000000E+03  0.00000000000E+00 0.  1.
        -11    1    1    2    0    0  0.56533973461E+01  0.47994157606E+02  0.45965199409E+03  0.46218541273E+03  0.00000000000E+00 0. -1.
         11    1    1    2    0    0 -0.45669329503E+02  0.36356421859E+02 -0.41144247130E+03  0.41556273203E+03  0.00000000000E+00 0.  1.
        -15    1    1    2    0    0 -0.70488400674E+01 -0.23760304698E+02  0.91110610025E+01  0.26465210886E+02  0.17770000000E+01 0.  1.
         15    1    1    2    0    0  0.47064772225E+02 -0.60590274767E+02 -0.57320583795E+02  0.95786644354E+02  0.17770000000E+01 0. -1.
</event>
<event>
 6    1  0.1599106E-003  0.5249729E+03  0.7546771E-02  0.9345602E-01
        -11   -1    0    0    0    0  0.00000000000E+00  0.00000000000E+00  0.50000000000E+03  0.50000000000E+03  0.00000000000E+00 0.  1.
         11   -1    0    0    0    0 -0.00000000000E+00 -0.00000000000E+00 -0.50000000000E+03  0.50000000000E+03  0.00000000000E+00 0. -1.
        -11    1    1    2    0    0  0.25943191311E+01 -0.10907081947E+02  0.47489479006E+03  0.47502711139E+03  0.00000000000E+00 0.  1.
         11    1    1    2    0    0  0.10982734103E+01 -0.29300692289E+02 -0.40336922028E+03  0.40443351078E+03  0.00000000000E+00 0. -1.
        -15    1    1    2    0    0  0.44870199004E+01  0.39721319206E+02 -0.90960773788E+02  0.99372715794E+02  0.17770000000E+01 0. -1.
         15    1    1    2    0    0 -0.81796124417E+01  0.48645502941E+00  0.19435204007E+02  0.21166662042E+02  0.17770000000E+01 0.  1.
</event>
<event>
 6    1  0.1599106E-003  0.5022927E+03  0.7546771E-02  0.9394694E-01
        -11   -1    0    0    0    0  0.00000000000E+00  0.00000000000E+00  0.50000000000E+03  0.50000000000E+03  0.00000000000E+00 0.  1.
         11   -1    0    0    0    0 -0.00000000000E+00 -0.00000000000E+00 -0.50000000000E+03  0.50000000000E+03  0.00000000000E+00 0. -1.
        -11    1    1    2    0    0  0.14189672785E+02 -0.52471629901E+01  0.49747734239E+03  0.49770732939E+03  0.00000000000E+00 0.  1.
         11    1    1    2    0    0 -0.12709402899E+02  0.11841677590E+02 -0.37700707878E+03  0.37740706366E+03  0.00000000000E+00 0. -1.
        -15    1    1    2    0    0  0.11445622996E+02 -0.10722044191E+02 -0.35916524981E+02  0.39231607323E+02  0.17770000000E+01 0.  1.
         15    1    1    2    0    0 -0.12925892882E+02  0.41275295913E+01 -0.84553738628E+02  0.85653999628E+02  0.17770000000E+01 0. -1.
</event>
<event>
 6    1  0.1599106E-003  0.5025512E+03  0.7546771E-02  0.9394119E-01
        -11   -1    0    0    0    0  0.00000000000E+00  0.00000000000E+00  0.50000000000E+03  0.50000000000E+03  0.00000000000E+00 0. -1.
         11   -1    0    0    0    0 -0.00000000000E+00 -0.00000000000E+00 -0.50000000000E+03  0.50000000000E+03  0.00000000000E+00 0.  1.
        -11    1    1    2    0    0  0.36328594649E+01  0.83870533631E+01  0.37326055208E+03  0.37337244150E+03  0.00000000000E+00 0. -1.
         11    1    1    2    0    0  0.77708085679E+01  0.36793965696E+00 -0.49738799837E+03  0.49744883331E+03  0.00000000000E+00 0.  1.
        -15    1    1    2    0    0 -0.50627168813E+01  0.11963266231E+02  0.61597851018E+02  0.62977804186E+02  0.17770000000E+01 0.  1.
         15    1    1    2    0    0 -0.63409511515E+01 -0.20718259251E+02  0.62529595273E+02  0.66200921005E+02  0.17770000000E+01 0. -1.
</event>
<event>
 6    1  0.1599106E-003  0.5038028E+03  0.7546771E-02  0.9391341E-01
        -11   -1    0    0    0    0  0.00000000000E+00  0.00000000000E+00  0.50000000000E+03  0.50000000000E+03  0.00000000000E+00 0. -1.
         11   -1    0    0    0    0 -0.00000000000E+00 -0.00000000000E+00 -0.50000000000E+03  0.50000000000E+03  0.00000000000E+00 0.  1.
        -11    1    1    2    0    0 -0.50185886673E+01 -0.52983202104E+01  0.48364292173E+03  0.48369797825E+03  0.00000000000E+00 0. -1.
         11    1    1    2    0    0  0.85314926270E+01  0.52404054636E+01 -0.49609620935E+03  0.49619723613E+03  0.00000000000E+00 0.  1.
        -15    1    1    2    0    0  0.26710207118E+01  0.50413809255E+01  0.99208260284E+01  0.11581467582E+02  0.17770000000E+01 0.  1.
         15    1    1    2    0    0 -0.61839246715E+01 -0.49834661787E+01  0.25324615943E+01  0.85233180291E+01  0.17770000000E+01 0. -1.
</event>
<event>
 6    1  0.1599106E-003  0.4798462E+03  0.7546771E-02  0.9446070E-01
        -11   -1    0    0    0    0  0.00000000000E+00  0.00000000000E+00  0.50000000000E+03  0.50000000000E+03  0.00000000000E+00 0.  1.
         11   -1    0    0    0    0 -0.00000000000E+00 -0.00000000000E+00 -0.50000000000E+03  0.50000000000E+03  0.00000000000E+00 0. -1.
        -11    1    1    2    0    0 -0.53951962016E+01 -0.58570246449E+01  0.47824302669E+03  0.47830931985E+03  0.00000000000E+00 0.  1.
         11    1    1    2    0    0 -0.19106187535E+02  0.76936057100E+00 -0.48133454313E+03  0.48171421064E+03  0.00000000000E+00 0. -1.
        -15    1    1    2    0    0  0.84413550247E+01  0.26089643485E+01  0.16521789222E+02  0.18819947336E+02  0.17770000000E+01 0.  1.
         15    1    1    2    0    0  0.16060028712E+02  0.24786997254E+01 -0.13430272781E+02  0.21156522175E+02  0.17770000000E+01 0. -1.
</event>
<event>
 6    1  0.1599106E-003  0.5026087E+03  0.7546771E-02  0.9393991E-01
        -11   -1    0    0    0    0  0.00000000000E+00  0.00000000000E+00  0.50000000000E+03  0.50000000000E+03  0.00000000000E+00 0.  1.
         11   -1    0    0    0    0 -0.00000000000E+00 -0.00000000000E+00 -0.50000000000E+03  0.50000000000E+03  0.00000000000E+00 0.  1.
        -11    1    1    2    0    0 -0.85515270028E+01  0.14106396854E+02  0.49711769497E+03  0.49739131647E+03  0.00000000000E+00 0.  1.
         11    1    1    2    0    0  0.19662394605E+01 -0.58359668915E+01 -0.23764294890E+03  0.23772272876E+03  0.00000000000E+00 0.  1.
        -15    1    1    2    0    0 -0.11956262526E+02 -0.72752219216E+00 -0.13674425272E+02  0.18265517722E+02  0.17770000000E+01 0. -1.
         15    1    1    2    0    0  0.18541550068E+02 -0.75429077707E+01 -0.24580032080E+03  0.24662043705E+03  0.17770000000E+01 0.  1.
</event>
<event>
 6    1  0.1599106E-003  0.5001353E+03  0.7546771E-02  0.9399507E-01
        -11   -1    0    0    0    0  0.00000000000E+00  0.00000000000E+00  0.50000000000E+03  0.50000000000E+03  0.00000000000E+00 0.  1.
         11   -1    0    0    0    0 -0.00000000000E+00 -0.00000000000E+00 -0.50000000000E+03  0.50000000000E+03  0.00000000000E+00 0.  1.
        -11    1    1    2    0    0 -0.49363881186E+01  0.86868239620E+01  0.49976487395E+03  0.49986473977E+03  0.00000000000E+00 0.  1.
         11    1    1    2    0    0  0.89346558689E+00 -0.40061676754E+01 -0.27837717008E+03  0.27840742893E+03  0.00000000000E+00 0.  1.
        -15    1    1    2    0    0  0.53345255493E+01  0.40097964372E+00 -0.65585718752E+02  0.65827518416E+02  0.17770000000E+01 0. -1.
         15    1    1    2    0    0 -0.12916030176E+01 -0.50816359303E+01 -0.15580198512E+03  0.15590031288E+03  0.17770000000E+01 0.  1.
</event>
<event>
 6    1  0.1599106E-003  0.5013892E+03  0.7546771E-02  0.9396707E-01
        -11   -1    0    0    0    0  0.00000000000E+00  0.00000000000E+00  0.50000000000E+03  0.50000000000E+03  0.00000000000E+00 0. -1.
         11   -1    0    0    0    0 -0.00000000000E+00 -0.00000000000E+00 -0.50000000000E+03  0.50000000000E+03  0.00000000000E+00 0.  1.
        -11    1    1    2    0    0 -0.77423944864E+01  0.14793918207E+02  0.49833110868E+03  0.49861076860E+03  0.00000000000E+00 0. -1.
         11    1    1    2    0    0  0.22240517827E+01 -0.76162197473E+01 -0.45299894707E+03  0.45306842668E+03  0.00000000000E+00 0.  1.
        -15    1    1    2    0    0  0.16019345025E+01 -0.66710581563E+01 -0.77967728031E+01  0.10536441820E+02  0.17770000000E+01 0. -1.
         15    1    1    2    0    0  0.39164082011E+01 -0.50664030302E+00 -0.37535388805E+02  0.37784362894E+02  0.17770000000E+01 0.  1.
</event>
<event>
 6    1  0.1599106E-003  0.5002393E+03  0.7546771E-02  0.9399274E-01
        -11   -1    0    0    0    0  0.00000000000E+00  0.00000000000E+00  0.50000000000E+03  0.50000000000E+03  0.00000000000E+00 0. -1.
         11   -1    0    0    0    0 -0.00000000000E+00 -0.00000000000E+00 -0.50000000000E+03  0.50000000000E+03  0.00000000000E+00 0. -1.
        -11    1    1    2    0    0  0.70911722588E+01  0.75849150740E+01  0.49965284992E+03  0.49976072884E+03  0.00000000000E+00 0. -1.
         11    1    1    2    0    0  0.18562152998E+01 -0.54088039654E+01 -0.20499328240E+03  0.20507302730E+03  0.00000000000E+00 0. -1.
        -15    1    1    2    0    0 -0.11329696588E+01 -0.74177859361E+01 -0.13110498346E+03  0.13133157117E+03  0.17770000000E+01 0. -1.
         15    1    1    2    0    0 -0.78144178998E+01  0.52416748275E+01 -0.16355458406E+03  0.16383467270E+03  0.17770000000E+01 0.  1.
</event>
<event>
 6    1  0.1599106E-003  0.5315314E+03  0.7546771E-02  0.9331894E-01
        -11   -1    0    0    0    0  0.00000000000E+00  0.00000000000E+00  0.50000000000E+03  0.50000000000E+03  0.00000000000E+00 0. -1.
         11   -1    0    0    0    0 -0.00000000000E+00 -0.00000000000E+00 -0.50000000000E+03  0.50000000000E+03  0.00000000000E+00 0.  1.
        -11    1    1    2    0    0  0.41451613813E+02 -0.21173542317E+02  0.46615048312E+03  0.46846859884E+03  0.00000000000E+00 0. -1.
         11    1    1    2    0    0  0.14235730512E+02  0.29656969076E+02 -0.39220502213E+03  0.39358222930E+03  0.00000000000E+00 0.  1.
        -15    1    1    2    0    0  0.17464628275E+02 -0.33934110537E+02 -0.32077686531E+02  0.49886599412E+02  0.17770000000E+01 0. -1.
         15    1    1    2    0    0 -0.73151972599E+02  0.25450683778E+02 -0.41867774462E+02  0.88062572455E+02  0.17770000000E+01 0.  1.
</event>
<event>
 6    1  0.1599106E-003  0.5015698E+03  0.7546771E-02  0.9396304E-01
        -11   -1    0    0    0    0  0.00000000000E+00  0.00000000000E+00  0.50000000000E+03  0.50000000000E+03  0.00000000000E+00 0.  1.
         11   -1    0    0    0    0 -0.00000000000E+00 -0.00000000000E+00 -0.50000000000E+03  0.50000000000E+03  0.00000000000E+00 0. -1.
        -11    1    1    2    0    0 -0.90240574321E+01  0.63337688762E+01  0.28192298556E+03  0.28213847669E+03  0.00000000000E+00 0.  1.
         11    1    1    2    0    0  0.12086217935E+01 -0.16063447812E+02 -0.49816986505E+03  0.49843024544E+03  0.00000000000E+00 0. -1.
        -15    1    1    2    0    0  0.51055061931E+01 -0.99345482790E+01  0.29010661668E+02  0.31137399737E+02  0.17770000000E+01 0. -1.
         15    1    1    2    0    0  0.27099294455E+01  0.19664227215E+02  0.18723621782E+03  0.18829387814E+03  0.17770000000E+01 0.  1.
</event>
<event>
 6    1  0.1599106E-003  0.5009980E+03  0.7546771E-02  0.9397579E-01
        -11   -1    0    0    0    0  0.00000000000E+00  0.00000000000E+00  0.50000000000E+03  0.50000000000E+03  0.00000000000E+00 0. -1.
         11   -1    0    0    0    0 -0.00000000000E+00 -0.00000000000E+00 -0.50000000000E+03  0.50000000000E+03  0.00000000000E+00 0. -1.
        -11    1    1    2    0    0 -0.14294769615E+00 -0.53260028690E+01  0.38525845379E+03  0.38529529319E+03  0.00000000000E+00 0. -1.
         11    1    1    2    0    0  0.63523992473E+01 -0.87255508832E+01 -0.49888526695E+03  0.49900200180E+03  0.00000000000E+00 0. -1.
        -15    1    1    2    0    0 -0.23542642718E+01  0.51773063138E+01  0.88774645721E+02  0.88974392455E+02  0.17770000000E+01 0. -1.
         15    1    1    2    0    0 -0.38551872793E+01  0.88742474384E+01  0.24852167445E+02  0.26728312560E+02  0.17770000000E+01 0.  1.
</event>
<event>
 6    1  0.1599106E-003  0.5065133E+03  0.7546771E-02  0.9385352E-01
        -11   -1    0    0    0    0  0.00000000000E+00  0.00000000000E+00  0.50000000000E+03  0.50000000000E+03  0.00000000000E+00 0.  1.
         11   -1    0    0    0    0 -0.00000000000E+00 -0.00000000000E+00 -0.50000000000E+03  0.50000000000E+03  0.00000000000E+00 0.  1.
        -11    1    1    2    0    0 -0.52442378686E+01  0.46221550871E+01  0.44849437613E+03  0.44854885104E+03  0.00000000000E+00 0.  1.
         11    1    1    2    0    0 -0.12829223701E+02 -0.92769772669E+01 -0.49323266378E+03  0.49348668868E+03  0.00000000000E+00 0.  1.
        -15    1    1    2    0    0  0.44012464226E-01  0.14339564604E+02  0.98833671814E+01  0.17506105391E+02  0.17770000000E+01 0. -1.
         15    1    1    2    0    0  0.18029449106E+02 -0.96847424243E+01  0.34854920462E+02  0.40458354889E+02  0.17770000000E+01 0.  1.
</event>
<event>
 6    1  0.1599106E-003  0.5033654E+03  0.7546771E-02  0.9392311E-01
        -11   -1    0    0    0    0  0.00000000000E+00  0.00000000000E+00  0.50000000000E+03  0.50000000000E+03  0.00000000000E+00 0.  1.
         11   -1    0    0    0    0 -0.00000000000E+00 -0.00000000000E+00 -0.50000000000E+03  0.50000000000E+03  0.00000000000E+00 0. -1.
        -11    1    1    2    0    0 -0.20618232215E+00  0.47825658644E+01  0.33858921407E+03  0.33862305198E+03  0.00000000000E+00 0.  1.
         11    1    1    2    0    0  0.67371381182E+01 -0.72755343093E+01 -0.49653563598E+03  0.49663463455E+03  0.00000000000E+00 0. -1.
        -15    1    1    2    0    0 -0.63734210888E+01 -0.10848333573E+02  0.14656658984E+03  0.14711638190E+03  0.17770000000E+01 0.  1.
         15    1    1    2    0    0 -0.15753470725E+00  0.13341302018E+02  0.11379832072E+02  0.17625931570E+02  0.17770000000E+01 0. -1.
</event>
<event>
 6    1  0.1599106E-003  0.4517765E+03  0.7546771E-02  0.9514690E-01
        -11   -1    0    0    0    0  0.00000000000E+00  0.00000000000E+00  0.50000000000E+03  0.50000000000E+03  0.00000000000E+00 0. -1.
         11   -1    0    0    0    0 -0.00000000000E+00 -0.00000000000E+00 -0.50000000000E+03  0.50000000000E+03  0.00000000000E+00 0. -1.
        -11    1    1    2    0    0 -0.89270091516E+01  0.15363772312E+02  0.44678937737E+03  0.44714257762E+03  0.00000000000E+00 0. -1.
         11    1    1    2    0    0 -0.57835684817E+01 -0.22659170895E+01 -0.45663654777E+03  0.45667879391E+03  0.00000000000E+00 0. -1.
        -15    1    1    2    0    0 -0.11920356271E+02 -0.13317781051E+02  0.47066946081E+02  0.50377706658E+02  0.17770000000E+01 0.  1.
         15    1    1    2    0    0  0.26630933905E+02  0.21992582940E+00 -0.37219775682E+02  0.45800921812E+02  0.17770000000E+01 0. -1.
</event>
<event>
 6    1  0.1599106E-003  0.5024042E+03  0.7546771E-02  0.9394446E-01
        -11   -1    0    0    0    0  0.00000000000E+00  0.00000000000E+00  0.50000000000E+03  0.50000000000E+03  0.00000000000E+00 0.  1.
         11   -1    0    0    0    0 -0.00000000000E+00 -0.00000000000E+00 -0.50000000000E+03  0.50000000000E+03  0.00000000000E+00 0. -1.
        -11    1    1    2    0    0 -0.10737026443E+02  0.15733657261E+02  0.49723110403E+03  0.49759582246E+03  0.00000000000E+00 0.  1.
         11    1    1    2    0    0  0.73123438093E+01  0.35493727101E+01 -0.41056854451E+03  0.41064899630E+03  0.00000000000E+00 0. -1.
        -15    1    1    2    0    0  0.56476961772E+00  0.26217677677E+01 -0.39655191753E+02  0.39785482188E+02  0.17770000000E+01 0.  1.
         15    1    1    2    0    0  0.28599130162E+01 -0.21904797739E+02 -0.47007367770E+02  0.51969699057E+02  0.17770000000E+01 0. -1.
</event>
<event>
 6    1  0.1599106E-003  0.5051483E+03  0.7546771E-02  0.9388363E-01
        -11   -1    0    0    0    0  0.00000000000E+00  0.00000000000E+00  0.50000000000E+03  0.50000000000E+03  0.00000000000E+00 0.  1.
         11   -1    0    0    0    0 -0.00000000000E+00 -0.00000000000E+00 -0.50000000000E+03  0.50000000000E+03  0.00000000000E+00 0.  1.
        -11    1    1    2    0    0  0.74174402218E+01 -0.29756801249E+01  0.49478714338E+03  0.49485168520E+03  0.00000000000E+00 0.  1.
         11    1    1    2    0    0 -0.76828414460E+00 -0.65370840722E+01 -0.45260669651E+03  0.45265455422E+03  0.00000000000E+00 0.  1.
        -15    1    1    2    0    0 -0.10187565696E+02  0.34746446642E+01 -0.43762556939E+02  0.45101871017E+02  0.17770000000E+01 0. -1.
         15    1    1    2    0    0  0.35384096188E+01  0.60381195328E+01  0.15821100686E+01  0.73918895685E+01  0.17770000000E+01 0.  1.
</event>
<event>
 6    1  0.1599106E-003  0.5034898E+03  0.7546771E-02  0.9392035E-01
        -11   -1    0    0    0    0  0.00000000000E+00  0.00000000000E+00  0.50000000000E+03  0.50000000000E+03  0.00000000000E+00 0.  1.
         11   -1    0    0    0    0 -0.00000000000E+00 -0.00000000000E+00 -0.50000000000E+03  0.50000000000E+03  0.00000000000E+00 0.  1.
        -11    1    1    2    0    0 -0.83953842203E+01 -0.14717410403E+01  0.49643707924E+03  0.49651024375E+03  0.00000000000E+00 0.  1.
         11    1    1    2    0    0 -0.35062653801E+00  0.10608428629E+02 -0.30197035574E+03  0.30215684246E+03  0.00000000000E+00 0.  1.
        -15    1    1    2    0    0  0.48944898470E+01 -0.13235989248E+02 -0.19489989061E+03  0.19541819908E+03  0.17770000000E+01 0. -1.
         15    1    1    2    0    0  0.38515209113E+01  0.40993016598E+01  0.43316711269E+00  0.59147147164E+01  0.17770000000E+01 0.  1.
</event>
<event>
 6    1  0.1599106E-003  0.4990610E+03  0.7546771E-02  0.9401913E-01
        -11   -1    0    0    0    0  0.00000000000E+00  0.00000000000E+00  0.50000000000E+03  0.50000000000E+03  0.00000000000E+00 0. -1.
         11   -1    0    0    0    0 -0.00000000000E+00 -0.00000000000E+00 -0.50000000000E+03  0.50000000000E+03  0.00000000000E+00 0.  1.
        -11    1    1    2    0    0  0.19224307415E+02  0.68812418787E-01  0.49949662941E+03  0.49986644369E+03  0.00000000000E+00 0. -1.
         11    1    1    2    0    0 -0.56142560737E+00 -0.10266262614E+00 -0.20028677090E+01  0.20825987101E+01  0.00000000000E+00 0.  1.
        -15    1    1    2    0    0 -0.15306656408E+01  0.23444240088E+01 -0.22872828629E+02  0.23111972649E+02  0.17770000000E+01 0. -1.
         15    1    1    2    0    0 -0.17132216166E+02 -0.23105738015E+01 -0.47462093308E+03  0.47493898495E+03  0.17770000000E+01 0.  1.
</event>
<event>
 6    1  0.1599106E-003  0.5409729E+03  0.7546771E-02  0.9312526E-01
        -11   -1    0    0    0    0  0.00000000000E+00  0.00000000000E+00  0.50000000000E+03  0.50000000000E+03  0.00000000000E+00 0. -1.
         11   -1    0    0    0    0 -0.00000000000E+00 -0.00000000000E+00 -0.50000000000E+03  0.50000000000E+03  0.00000000000E+00 0.  1.
        -11    1    1    2    0    0 -0.77955246606E+01  0.68049307321E+02  0.45388805359E+03  0.45902706197E+03  0.00000000000E+00 0. -1.
         11    1    1    2    0    0  0.91966401777E+01 -0.46120202899E+02 -0.27466377164E+03  0.27866079516E+03  0.00000000000E+00 0.  1.
        -15    1    1    2    0    0  0.36305184504E+02 -0.92004763569E+02 -0.14532179861E+03  0.17579683109E+03  0.17770000000E+01 0.  1.
         15    1    1    2    0    0 -0.37706300021E+02  0.70075659146E+02 -0.33902483341E+02  0.86515311776E+02  0.17770000000E+01 0. -1.
</event>
<event>
 6    1  0.1599106E-003  0.5169613E+03  0.7546771E-02  0.9362637E-01
        -11   -1    0    0    0    0  0.00000000000E+00  0.00000000000E+00  0.50000000000E+03  0.50000000000E+03  0.00000000000E+00 0.  1.
         11   -1    0    0    0    0 -0.00000000000E+00 -0.00000000000E+00 -0.50000000000E+03  0.50000000000E+03  0.00000000000E+00 0. -1.
        -11    1    1    2    0    0 -0.38584621056E+01  0.46383783577E+01  0.41504493069E+03  0.41508878180E+03  0.00000000000E+00 0.  1.
         11    1    1    2    0    0 -0.54993352314E+01  0.51365000744E+01 -0.48298004885E+03  0.48303866710E+03  0.00000000000E+00 0. -1.
        -15    1    1    2    0    0  0.14762484809E+01 -0.34108329604E+01  0.83289816195E+02  0.83391632086E+02  0.17770000000E+01 0. -1.
         15    1    1    2    0    0  0.78815488562E+01 -0.63640454717E+01 -0.15354698032E+02  0.18480919019E+02  0.17770000000E+01 0.  1.
</event>
<event>
 6    1  0.1599106E-003  0.5061237E+03  0.7546771E-02  0.9386211E-01
        -11   -1    0    0    0    0  0.00000000000E+00  0.00000000000E+00  0.50000000000E+03  0.50000000000E+03  0.00000000000E+00 0.  1.
         11   -1    0    0    0    0 -0.00000000000E+00 -0.00000000000E+00 -0.50000000000E+03  0.50000000000E+03  0.00000000000E+00 0. -1.
        -11    1    1    2    0    0  0.12853929171E+01  0.14314526121E+02  0.49366711611E+03  0.49387627947E+03  0.00000000000E+00 0.  1.
         11    1    1    2    0    0  0.11333576427E+02 -0.90679078153E+01 -0.47279585387E+03  0.47301860042E+03  0.00000000000E+00 0. -1.
        -15    1    1    2    0    0 -0.63688637022E+01  0.66497883541E+01 -0.16290384291E+02  0.18796714057E+02  0.17770000000E+01 0. -1.
         15    1    1    2    0    0 -0.62501056414E+01 -0.11896406660E+02 -0.45808779492E+01  0.14308406051E+02  0.17770000000E+01 0.  1.
</event>
<event>
 6    1  0.1599106E-003  0.5044949E+03  0.7546771E-02  0.9389808E-01
        -11   -1    0    0    0    0  0.00000000000E+00  0.00000000000E+00  0.50000000000E+03  0.50000000000E+03  0.00000000000E+00 0.  1.
         11   -1    0    0    0    0 -0.00000000000E+00 -0.00000000000E+00 -0.50000000000E+03  0.50000000000E+03  0.00000000000E+00 0. -1.
        -11    1    1    2    0    0 -0.81680922808E+01 -0.18090660628E+01  0.45542874931E+03  0.45550558301E+03  0.00000000000E+00 0.  1.
         11    1    1    2    0    0 -0.22385647423E+01  0.10068948916E+02 -0.49539776849E+03  0.49550514017E+03  0.00000000000E+00 0. -1.
        -15    1    1    2    0    0 -0.13926685202E+01 -0.26533530022E+01 -0.26502873390E+01  0.43773918880E+01  0.17770000000E+01 0. -1.
         15    1    1    2    0    0  0.11799325543E+02 -0.56065298506E+01  0.42619306522E+02  0.44611884937E+02  0.17770000000E+01 0.  1.
</event>
<event>
 6    1  0.1599106E-003  0.5258301E+03  0.7546771E-02  0.9343798E-01
        -11   -1    0    0    0    0  0.00000000000E+00  0.00000000000E+00  0.50000000000E+03  0.50000000000E+03  0.00000000000E+00 0. -1.
         11   -1    0    0    0    0 -0.00000000000E+00 -0.00000000000E+00 -0.50000000000E+03  0.50000000000E+03  0.00000000000E+00 0.  1.
        -11    1    1    2    0    0  0.11224350261E+02  0.86633217058E+01  0.47395781712E+03  0.47416985521E+03  0.00000000000E+00 0. -1.
         11    1    1    2    0    0  0.24581200919E+02 -0.59598978571E+02 -0.27882442881E+03  0.28618059995E+03  0.00000000000E+00 0.  1.
        -15    1    1    2    0    0 -0.22221345112E+02  0.50036035443E+02 -0.21138950371E+03  0.21837141075E+03  0.17770000000E+01 0. -1.
         15    1    1    2    0    0 -0.13584206069E+02  0.89962142279E+00  0.16256115409E+02  0.21278134092E+02  0.17770000000E+01 0.  1.
</event>
<event>
 6    1  0.1599106E-003  0.5002277E+03  0.7546771E-02  0.9399300E-01
        -11   -1    0    0    0    0  0.00000000000E+00  0.00000000000E+00  0.50000000000E+03  0.50000000000E+03  0.00000000000E+00 0. -1.
         11   -1    0    0    0    0 -0.00000000000E+00 -0.00000000000E+00 -0.50000000000E+03  0.50000000000E+03  0.00000000000E+00 0. -1.
        -11    1    1    2    0    0 -0.64646532968E+00  0.26578527590E+01  0.15840194014E+03  0.15842555582E+03  0.00000000000E+00 0. -1.
         11    1    1    2    0    0 -0.10355857807E+02  0.40828606227E+01 -0.49964835057E+03  0.49977233594E+03  0.00000000000E+00 0. -1.
        -15    1    1    2    0    0  0.10425434230E+02 -0.28468289478E+01  0.11637606947E+03  0.11689029638E+03  0.17770000000E+01 0. -1.
         15    1    1    2    0    0  0.57688890689E+00 -0.38938844338E+01  0.22487034097E+03  0.22491181186E+03  0.17770000000E+01 0. -1.
</event>
<event>
 6    1  0.1599106E-003  0.5113273E+03  0.7546771E-02  0.9374815E-01
        -11   -1    0    0    0    0  0.00000000000E+00  0.00000000000E+00  0.50000000000E+03  0.50000000000E+03  0.00000000000E+00 0. -1.
         11   -1    0    0    0    0 -0.00000000000E+00 -0.00000000000E+00 -0.50000000000E+03  0.50000000000E+03  0.00000000000E+00 0.  1.
        -11    1    1    2    0    0  0.33304781349E+01 -0.99490026866E+01  0.48856009587E+03  0.48867273509E+03  0.00000000000E+00 0. -1.
         11    1    1    2    0    0 -0.29732618517E+02  0.23934619853E+02 -0.36166572830E+03  0.36367429612E+03  0.00000000000E+00 0.  1.
        -15    1    1    2    0    0 -0.16264348728E+02  0.18993148439E+01 -0.45319042605E+01  0.17083100470E+02  0.17770000000E+01 0. -1.
         15    1    1    2    0    0  0.42666489111E+02 -0.15884932011E+02 -0.12236246331E+03  0.13056986832E+03  0.17770000000E+01 0.  1.
</event>
<event>
 6    1  0.1599106E-003  0.5036297E+03  0.7546771E-02  0.9391724E-01
        -11   -1    0    0    0    0  0.00000000000E+00  0.00000000000E+00  0.50000000000E+03  0.50000000000E+03  0.00000000000E+00 0.  1.
         11   -1    0    0    0    0 -0.00000000000E+00 -0.00000000000E+00 -0.50000000000E+03  0.50000000000E+03  0.00000000000E+00 0.  1.
        -11    1    1    2    0    0  0.46261528357E+01 -0.63252480397E+01  0.49630846227E+03  0.49637032523E+03  0.00000000000E+00 0.  1.
         11    1    1    2    0    0  0.76958591926E+01  0.53400995616E+01 -0.48185786303E+03  0.48194890090E+03  0.00000000000E+00 0.  1.
        -15    1    1    2    0    0 -0.47587363755E+01 -0.30926888821E+01 -0.10479974859E+02  0.12049809063E+02  0.17770000000E+01 0. -1.
         15    1    1    2    0    0 -0.75632756528E+01  0.40778373602E+01 -0.39706243758E+01  0.96309648047E+01  0.17770000000E+01 0.  1.
</event>
<event>
 6    1  0.1599106E-003  0.5006452E+03  0.7546771E-02  0.9398367E-01
        -11   -1    0    0    0    0  0.00000000000E+00  0.00000000000E+00  0.50000000000E+03  0.50000000000E+03  0.00000000000E+00 0. -1.
         11   -1    0    0    0    0 -0.00000000000E+00 -0.00000000000E+00 -0.50000000000E+03  0.50000000000E+03  0.00000000000E+00 0.  1.
        -11    1    1    2    0    0 -0.45731869167E+01  0.18600100899E+01  0.12687069660E+03  0.12696671742E+03  0.00000000000E+00 0. -1.
         11    1    1    2    0    0  0.52020031407E+01 -0.11177837137E+02 -0.49920253078E+03  0.49935475528E+03  0.00000000000E+00 0.  1.
        -15    1    1    2    0    0 -0.14143380473E+02  0.88019320364E+01  0.15094352964E+03  0.15187039240E+03  0.17770000000E+01 0. -1.
         15    1    1    2    0    0  0.13514564249E+02  0.51589501023E+00  0.22138830454E+03  0.22180813491E+03  0.17770000000E+01 0.  1.
</event>
<event>
 6    1  0.1599106E-003  0.5002852E+03  0.7546771E-02  0.9399172E-01
        -11   -1    0    0    0    0  0.00000000000E+00  0.00000000000E+00  0.50000000000E+03  0.50000000000E+03  0.00000000000E+00 0.  1.
         11   -1    0    0    0    0 -0.00000000000E+00 -0.00000000000E+00 -0.50000000000E+03  0.50000000000E+03  0.00000000000E+00 0.  1.
        -11    1    1    2    0    0 -0.62831717544E+01  0.21937464883E+01  0.30124400049E+03  0.30131750464E+03  0.00000000000E+00 0.  1.
         11    1    1    2    0    0  0.66344811410E+01  0.50639874731E+01 -0.49964513546E+03  0.49971484039E+03  0.00000000000E+00 0.  1.
        -15    1    1    2    0    0 -0.17476578628E+01 -0.40662480238E+01  0.18349823844E+03  0.18356020789E+03  0.17770000000E+01 0.  1.
         15    1    1    2    0    0  0.13963484761E+01 -0.31914859376E+01  0.14902896530E+02  0.15407447081E+02  0.17770000000E+01 0. -1.
</event>
<event>
 6    1  0.1599106E-003  0.5005246E+03  0.7546771E-02  0.9398637E-01
        -11   -1    0    0    0    0  0.00000000000E+00  0.00000000000E+00  0.50000000000E+03  0.50000000000E+03  0.00000000000E+00 0.  1.
         11   -1    0    0    0    0 -0.00000000000E+00 -0.00000000000E+00 -0.50000000000E+03  0.50000000000E+03  0.00000000000E+00 0.  1.
        -11    1    1    2    0    0 -0.10586230242E+01 -0.76809713822E+01  0.39652492293E+03  0.39660072177E+03  0.00000000000E+00 0.  1.
         11    1    1    2    0    0 -0.23177440088E+01  0.64523897122E+01 -0.49942832891E+03  0.49947538576E+03  0.00000000000E+00 0.  1.
        -15    1    1    2    0    0  0.33357518289E+00  0.39462763719E+01  0.92586556006E+02  0.92688254119E+02  0.17770000000E+01 0.  1.
         15    1    1    2    0    0  0.30427918501E+01 -0.27176947018E+01  0.10316849973E+02  0.11235638349E+02  0.17770000000E+01 0. -1.
</event>
<event>
 6    1  0.1599106E-003  0.5194661E+03  0.7546771E-02  0.9357276E-01
        -11   -1    0    0    0    0  0.00000000000E+00  0.00000000000E+00  0.50000000000E+03  0.50000000000E+03  0.00000000000E+00 0.  1.
         11   -1    0    0    0    0 -0.00000000000E+00 -0.00000000000E+00 -0.50000000000E+03  0.50000000000E+03  0.00000000000E+00 0. -1.
        -11    1    1    2    0    0 -0.22218275804E+02 -0.32031223342E+01  0.38974643250E+03  0.39039235830E+03  0.00000000000E+00 0.  1.
         11    1    1    2    0    0  0.27414065157E+01 -0.95153454533E+01 -0.48043185755E+03  0.48053389771E+03  0.00000000000E+00 0. -1.
        -15    1    1    2    0    0  0.39600450746E+02  0.26147699929E+02  0.93285256754E+02  0.10467661997E+03  0.17770000000E+01 0. -1.
         15    1    1    2    0    0 -0.20123581458E+02 -0.13429232141E+02 -0.25998317071E+01  0.24397124021E+02  0.17770000000E+01 0.  1.
</event>
<event>
 6    1  0.1599106E-003  0.5022848E+03  0.7546771E-02  0.9394712E-01
        -11   -1    0    0    0    0  0.00000000000E+00  0.00000000000E+00  0.50000000000E+03  0.50000000000E+03  0.00000000000E+00 0.  1.
         11   -1    0    0    0    0 -0.00000000000E+00 -0.00000000000E+00 -0.50000000000E+03  0.50000000000E+03  0.00000000000E+00 0. -1.
        -11    1    1    2    0    0 -0.87078737962E+01 -0.25514653763E+01  0.49763243944E+03  0.49771516134E+03  0.00000000000E+00 0.  1.
         11    1    1    2    0    0  0.10894085105E+02  0.10416608533E+02 -0.99909837828E+02  0.10104040043E+03  0.00000000000E+00 0. -1.
        -15    1    1    2    0    0 -0.40519366264E+01 -0.85139664194E+01 -0.39838949765E+03  0.39850502554E+03  0.17770000000E+01 0.  1.
         15    1    1    2    0    0  0.18657253174E+01  0.64882326305E+00  0.66689603179E+00  0.27394126932E+01  0.17770000000E+01 0. -1.
</event>
<event>
 6    1  0.1599106E-003  0.5013451E+03  0.7546771E-02  0.9396805E-01
        -11   -1    0    0    0    0  0.00000000000E+00  0.00000000000E+00  0.50000000000E+03  0.50000000000E+03  0.00000000000E+00 0. -1.
         11   -1    0    0    0    0 -0.00000000000E+00 -0.00000000000E+00 -0.50000000000E+03  0.50000000000E+03  0.00000000000E+00 0. -1.
        -11    1    1    2    0    0 -0.23734534728E+01  0.76203737078E+01  0.49859106671E+03  0.49865494601E+03  0.00000000000E+00 0. -1.
         11    1    1    2    0    0  0.43442688118E+01  0.10395222984E+01 -0.21738775352E+03  0.21743364197E+03  0.00000000000E+00 0. -1.
        -15    1    1    2    0    0  0.27609749611E+00  0.13007909710E+02 -0.17445710887E+03  0.17495062878E+03  0.17770000000E+01 0.  1.
         15    1    1    2    0    0 -0.22469128351E+01 -0.21667805716E+02 -0.10674620431E+03  0.10896078325E+03  0.17770000000E+01 0. -1.
</event>
<event>
 6    1  0.1599106E-003  0.5070471E+03  0.7546771E-02  0.9384178E-01
        -11   -1    0    0    0    0  0.00000000000E+00  0.00000000000E+00  0.50000000000E+03  0.50000000000E+03  0.00000000000E+00 0. -1.
         11   -1    0    0    0    0 -0.00000000000E+00 -0.00000000000E+00 -0.50000000000E+03  0.50000000000E+03  0.00000000000E+00 0. -1.
        -11    1    1    2    0    0 -0.58233319590E+01  0.35378659477E+01  0.49290576179E+03  0.49295285545E+03  0.00000000000E+00 0. -1.
         11    1    1    2    0    0  0.52744033635E+01  0.75869083352E+01 -0.43063533526E+03  0.43073445705E+03  0.00000000000E+00 0. -1.
        -15    1    1    2    0    0  0.60803395305E+01 -0.12243590793E+02 -0.23587605656E-01  0.13785293965E+02  0.17770000000E+01 0.  1.
         15    1    1    2    0    0 -0.55314109350E+01  0.11188165104E+01 -0.62246838924E+02  0.62527393536E+02  0.17770000000E+01 0. -1.
</event>
<event>
 6    1  0.1599106E-003  0.5013755E+03  0.7546771E-02  0.9396737E-01
        -11   -1    0    0    0    0  0.00000000000E+00  0.00000000000E+00  0.50000000000E+03  0.50000000000E+03  0.00000000000E+00 0. -1.
         11   -1    0    0    0    0 -0.00000000000E+00 -0.00000000000E+00 -0.50000000000E+03  0.50000000000E+03  0.00000000000E+00 0.  1.
        -11    1    1    2    0    0 -0.64926011983E+01 -0.49899568191E+01  0.49855723990E+03  0.49862448295E+03  0.00000000000E+00 0. -1.
         11    1    1    2    0    0  0.41686157130E+01 -0.29821806817E+01 -0.28909853871E+03  0.28914397079E+03  0.00000000000E+00 0.  1.
        -15    1    1    2    0    0  0.10278074721E+02 -0.11447917778E+01 -0.21999104553E+02  0.24373504022E+02  0.17770000000E+01 0. -1.
         15    1    1    2    0    0 -0.79540892352E+01  0.91169292786E+01 -0.18745959664E+03  0.18785804224E+03  0.17770000000E+01 0.  1.
</event>
<event>
 6    1  0.1599106E-003  0.4865296E+03  0.7546771E-02  0.9430466E-01
        -11   -1    0    0    0    0  0.00000000000E+00  0.00000000000E+00  0.50000000000E+03  0.50000000000E+03  0.00000000000E+00 0. -1.
         11   -1    0    0    0    0 -0.00000000000E+00 -0.00000000000E+00 -0.50000000000E+03  0.50000000000E+03  0.00000000000E+00 0.  1.
        -11    1    1    2    0    0  0.58589994013E+01  0.10943423454E+02  0.48358805560E+03  0.48374734512E+03  0.00000000000E+00 0. -1.
         11    1    1    2    0    0  0.95134428778E+00  0.80923223780E+01 -0.48947181183E+03  0.48953962589E+03  0.00000000000E+00 0.  1.
        -15    1    1    2    0    0 -0.48908398082E+01 -0.11189735485E+02 -0.47661017600E+01  0.13228905822E+02  0.17770000000E+01 0. -1.
         15    1    1    2    0    0 -0.19195038809E+01 -0.78460103462E+01  0.10649857994E+02  0.13484123175E+02  0.17770000000E+01 0.  1.
</event>
<event>
 6    1  0.1599106E-003  0.5033232E+03  0.7546771E-02  0.9392404E-01
        -11   -1    0    0    0    0  0.00000000000E+00  0.00000000000E+00  0.50000000000E+03  0.50000000000E+03  0.00000000000E+00 0.  1.
         11   -1    0    0    0    0 -0.00000000000E+00 -0.00000000000E+00 -0.50000000000E+03  0.50000000000E+03  0.00000000000E+00 0.  1.
        -11    1    1    2    0    0 -0.74756846816E+01 -0.16589240939E+01  0.49661774918E+03  0.49667678292E+03  0.00000000000E+00 0.  1.
         11    1    1    2    0    0 -0.91381293686E+01 -0.76218128897E+00 -0.46724982076E+03  0.46733979216E+03  0.00000000000E+00 0.  1.
        -15    1    1    2    0    0 -0.96076367543E+00  0.15638385898E+01 -0.14558630364E+01  0.29403952380E+01  0.17770000000E+01 0. -1.
         15    1    1    2    0    0  0.17574577726E+02  0.85726679300E+00 -0.27912065377E+02  0.33043029691E+02  0.17770000000E+01 0. -1.
</event>
<event>
 6    1  0.1599106E-003  0.5055603E+03  0.7546771E-02  0.9387453E-01
        -11   -1    0    0    0    0  0.00000000000E+00  0.00000000000E+00  0.50000000000E+03  0.50000000000E+03  0.00000000000E+00 0. -1.
         11   -1    0    0    0    0 -0.00000000000E+00 -0.00000000000E+00 -0.50000000000E+03  0.50000000000E+03  0.00000000000E+00 0. -1.
        -11    1    1    2    0    0  0.32376493631E+01 -0.25445172382E+02  0.49377386997E+03  0.49443965641E+03  0.00000000000E+00 0. -1.
         11    1    1    2    0    0 -0.43308416842E+01  0.35576871104E+01 -0.39111509608E+03  0.39115525269E+03  0.00000000000E+00 0. -1.
        -15    1    1    2    0    0 -0.17983433273E+02  0.14491653445E+00 -0.20725459265E+02  0.27497768343E+02  0.17770000000E+01 0. -1.
         15    1    1    2    0    0  0.19076625594E+02  0.21742568737E+02 -0.81933314619E+02  0.86907322550E+02  0.17770000000E+01 0.  1.
</event>
<event>
 6    1  0.1599106E-003  0.5821019E+03  0.7546771E-02  0.9232789E-01
        -11   -1    0    0    0    0  0.00000000000E+00  0.00000000000E+00  0.50000000000E+03  0.50000000000E+03  0.00000000000E+00 0.  1.
         11   -1    0    0    0    0 -0.00000000000E+00 -0.00000000000E+00 -0.50000000000E+03  0.50000000000E+03  0.00000000000E+00 0. -1.
        -11    1    1    2    0    0 -0.45945879032E+02 -0.35019247683E+02  0.41388583719E+03  0.41789814278E+03  0.00000000000E+00 0.  1.
         11    1    1    2    0    0 -0.57801168743E+01  0.18516802458E+02 -0.23824386458E+03  0.23903225877E+03  0.00000000000E+00 0. -1.
        -15    1    1    2    0    0  0.54756378480E+02  0.22994331436E+02 -0.25578113206E+03  0.26259121370E+03  0.17770000000E+01 0. -1.
         15    1    1    2    0    0 -0.30303825744E+01 -0.64918862112E+01  0.80139159453E+02  0.80478384750E+02  0.17770000000E+01 0.  1.
</event>
<event>
 6    1  0.1599106E-003  0.5183101E+03  0.7546771E-02  0.9359746E-01
        -11   -1    0    0    0    0  0.00000000000E+00  0.00000000000E+00  0.50000000000E+03  0.50000000000E+03  0.00000000000E+00 0. -1.
         11   -1    0    0    0    0 -0.00000000000E+00 -0.00000000000E+00 -0.50000000000E+03  0.50000000000E+03  0.00000000000E+00 0.  1.
        -11    1    1    2    0    0  0.18340871644E+02  0.77765488977E+01  0.48127779506E+03  0.48168991924E+03  0.00000000000E+00 0. -1.
         11    1    1    2    0    0  0.37609838604E+00  0.62867230363E+01 -0.38337160709E+03  0.38342333453E+03  0.00000000000E+00 0.  1.
        -15    1    1    2    0    0  0.14462364283E+01 -0.65127178839E+01 -0.10994062411E+03  0.11015718612E+03  0.17770000000E+01 0.  1.
         15    1    1    2    0    0 -0.20163206459E+02 -0.75505540501E+01  0.12034436146E+02  0.24729560116E+02  0.17770000000E+01 0. -1.
</event>
<event>
 6    1  0.1599106E-003  0.5052988E+03  0.7546771E-02  0.9388031E-01
        -11   -1    0    0    0    0  0.00000000000E+00  0.00000000000E+00  0.50000000000E+03  0.50000000000E+03  0.00000000000E+00 0. -1.
         11   -1    0    0    0    0 -0.00000000000E+00 -0.00000000000E+00 -0.50000000000E+03  0.50000000000E+03  0.00000000000E+00 0.  1.
        -11    1    1    2    0    0  0.17311837624E+02 -0.28856446497E+01  0.49438981128E+03  0.49470123525E+03  0.00000000000E+00 0. -1.
         11    1    1    2    0    0  0.50059210224E+01  0.40106312394E+01 -0.44721005669E+03  0.44725605554E+03  0.00000000000E+00 0.  1.
        -15    1    1    2    0    0 -0.63933922188E+01 -0.10448711921E+01  0.14231619244E+01  0.68666104254E+01  0.17770000000E+01 0. -1.
         15    1    1    2    0    0 -0.15924366428E+02 -0.80115397569E-01 -0.48602916509E+02  0.51176098784E+02  0.17770000000E+01 0.  1.
</event>
<event>
 6    1  0.1599106E-003  0.5106750E+03  0.7546771E-02  0.9376235E-01
        -11   -1    0    0    0    0  0.00000000000E+00  0.00000000000E+00  0.50000000000E+03  0.50000000000E+03  0.00000000000E+00 0. -1.
         11   -1    0    0    0    0 -0.00000000000E+00 -0.00000000000E+00 -0.50000000000E+03  0.50000000000E+03  0.00000000000E+00 0. -1.
        -11    1    1    2    0    0  0.13042590274E+01 -0.10869543695E+02  0.47301847716E+03  0.47314514455E+03  0.00000000000E+00 0. -1.
         11    1    1    2    0    0  0.56926083841E+01 -0.73018890071E+01 -0.48923736818E+03  0.48932496952E+03  0.00000000000E+00 0. -1.
        -15    1    1    2    0    0 -0.13919535355E+02  0.19647698606E+02  0.17881622613E+02  0.30044894429E+02  0.17770000000E+01 0. -1.
         15    1    1    2    0    0  0.69226679435E+01 -0.14762659038E+01 -0.16627315996E+01  0.74849915062E+01  0.17770000000E+01 0.  1.
</event>
<event>
 6    1  0.1599106E-003  0.5000800E+03  0.7546771E-02  0.9399631E-01
        -11   -1    0    0    0    0  0.00000000000E+00  0.00000000000E+00  0.50000000000E+03  0.50000000000E+03  0.00000000000E+00 0.  1.
         11   -1    0    0    0    0 -0.00000000000E+00 -0.00000000000E+00 -0.50000000000E+03  0.50000000000E+03  0.00000000000E+00 0.  1.
        -11    1    1    2    0    0 -0.10349893651E+01 -0.19433750745E+01  0.68296724589E+02  0.68332206895E+02  0.00000000000E+00 0.  1.
         11    1    1    2    0    0 -0.59789515193E+01  0.55046040283E+01 -0.49985395680E+03  0.49992002026E+03  0.00000000000E+00 0.  1.
        -15    1    1    2    0    0  0.52434975070E+01 -0.34137658227E+01  0.40888362220E+03  0.40893535222E+03  0.17770000000E+01 0.  1.
         15    1    1    2    0    0  0.17704433775E+01 -0.14746313104E+00  0.22673610010E+02  0.22812420630E+02  0.17770000000E+01 0. -1.
</event>
<event>
 6    1  0.1599106E-003  0.5006295E+03  0.7546771E-02  0.9398402E-01
        -11   -1    0    0    0    0  0.00000000000E+00  0.00000000000E+00  0.50000000000E+03  0.50000000000E+03  0.00000000000E+00 0. -1.
         11   -1    0    0    0    0 -0.00000000000E+00 -0.00000000000E+00 -0.50000000000E+03  0.50000000000E+03  0.00000000000E+00 0.  1.
        -11    1    1    2    0    0 -0.30140374063E+01 -0.68250173115E+01  0.29654036517E+03  0.29663420817E+03  0.00000000000E+00 0. -1.
         11    1    1    2    0    0  0.54408868843E+01  0.48407519448E+01 -0.49931736505E+03  0.49937047086E+03  0.00000000000E+00 0.  1.
        -15    1    1    2    0    0  0.83218935628E+01 -0.26579860165E+01  0.12549299107E+03  0.12580924981E+03  0.17770000000E+01 0. -1.
         15    1    1    2    0    0 -0.10748743041E+02  0.46422513832E+01  0.77284008812E+02  0.78186071150E+02  0.17770000000E+01 0.  1.
</event>
<event>
 6    1  0.1599106E-003  0.5014903E+03  0.7546771E-02  0.9396481E-01
        -11   -1    0    0    0    0  0.00000000000E+00  0.00000000000E+00  0.50000000000E+03  0.50000000000E+03  0.00000000000E+00 0.  1.
         11   -1    0    0    0    0 -0.00000000000E+00 -0.00000000000E+00 -0.50000000000E+03  0.50000000000E+03  0.00000000000E+00 0.  1.
        -11    1    1    2    0    0 -0.10932071533E+02 -0.22676738975E+01  0.49838463720E+03  0.49850967807E+03  0.00000000000E+00 0.  1.
         11    1    1    2    0    0  0.55711991165E+01  0.32013091271E+01 -0.39038655267E+03  0.39043942827E+03  0.00000000000E+00 0.  1.
        -15    1    1    2    0    0  0.21206707693E+01  0.48713239246E+01 -0.10127687557E+03  0.10143170261E+03  0.17770000000E+01 0. -1.
         15    1    1    2    0    0  0.32402016467E+01 -0.58049591542E+01 -0.67212089591E+01  0.96191910453E+01  0.17770000000E+01 0.  1.
</event>
<event>
 6    1  0.1599106E-003  0.5012756E+03  0.7546771E-02  0.9396960E-01
        -11   -1    0    0    0    0  0.00000000000E+00  0.00000000000E+00  0.50000000000E+03  0.50000000000E+03  0.00000000000E+00 0. -1.
         11   -1    0    0    0    0 -0.00000000000E+00 -0.00000000000E+00 -0.50000000000E+03  0.50000000000E+03  0.00000000000E+00 0. -1.
        -11    1    1    2    0    0  0.83371680757E+00 -0.13306791056E+02  0.49854613905E+03  0.49872439135E+03  0.00000000000E+00 0. -1.
         11    1    1    2    0    0 -0.16544446326E+01  0.63390099503E+01 -0.36606315647E+03  0.36612177586E+03  0.00000000000E+00 0. -1.
        -15    1    1    2    0    0  0.87846744189E+01 -0.63762930101E+01 -0.49160095595E+02  0.50375592752E+02  0.17770000000E+01 0. -1.
         15    1    1    2    0    0 -0.79639465938E+01  0.13344074115E+02 -0.83322886984E+02  0.84778240037E+02  0.17770000000E+01 0.  1.
</event>
<event>
 6    1  0.1599106E-003  0.5016030E+03  0.7546771E-02  0.9396230E-01
        -11   -1    0    0    0    0  0.00000000000E+00  0.00000000000E+00  0.50000000000E+03  0.50000000000E+03  0.00000000000E+00 0. -1.
         11   -1    0    0    0    0 -0.00000000000E+00 -0.00000000000E+00 -0.50000000000E+03  0.50000000000E+03  0.00000000000E+00 0.  1.
        -11    1    1    2    0    0  0.10648851462E+01 -0.85830453266E+01  0.49832192301E+03  0.49839697190E+03  0.00000000000E+00 0. -1.
         11    1    1    2    0    0  0.12021338485E+02 -0.25734096323E+01 -0.12215655586E+03  0.12277360936E+03  0.00000000000E+00 0.  1.
        -15    1    1    2    0    0 -0.11970417543E+02  0.16506078867E+02 -0.36934211468E+03  0.36990876840E+03  0.17770000000E+01 0.  1.
         15    1    1    2    0    0 -0.11158060879E+01 -0.53496239081E+01 -0.68232524703E+01  0.89206503382E+01  0.17770000000E+01 0. -1.
</event>
<event>
 6    1  0.1599106E-003  0.5026842E+03  0.7546771E-02  0.9393824E-01
        -11   -1    0    0    0    0  0.00000000000E+00  0.00000000000E+00  0.50000000000E+03  0.50000000000E+03  0.00000000000E+00 0.  1.
         11   -1    0    0    0    0 -0.00000000000E+00 -0.00000000000E+00 -0.50000000000E+03  0.50000000000E+03  0.00000000000E+00 0.  1.
        -11    1    1    2    0    0 -0.46387947587E+00  0.41015187135E+01  0.17666166634E+03  0.17670988086E+03  0.00000000000E+00 0.  1.
         11    1    1    2    0    0  0.41773483534E+01 -0.66812901768E+01 -0.49725338469E+03  0.49731581361E+03  0.00000000000E+00 0.  1.
        -15    1    1    2    0    0  0.60077708156E+01 -0.56792386357E+01  0.30747659267E+03  0.30759284750E+03  0.17770000000E+01 0. -1.
         15    1    1    2    0    0 -0.97212396931E+01  0.82590100990E+01  0.13115125674E+02  0.18381458033E+02  0.17770000000E+01 0.  1.
</event>
<event>
 6    1  0.1599106E-003  0.5027219E+03  0.7546771E-02  0.9393740E-01
        -11   -1    0    0    0    0  0.00000000000E+00  0.00000000000E+00  0.50000000000E+03  0.50000000000E+03  0.00000000000E+00 0. -1.
         11   -1    0    0    0    0 -0.00000000000E+00 -0.00000000000E+00 -0.50000000000E+03  0.50000000000E+03  0.00000000000E+00 0.  1.
        -11    1    1    2    0    0 -0.88894249672E+01 -0.62485336418E+00  0.49719829127E+03  0.49727814467E+03  0.00000000000E+00 0. -1.
         11    1    1    2    0    0 -0.61611859174E+01 -0.53646946758E+01 -0.43258487910E+03  0.43266201334E+03  0.00000000000E+00 0.  1.
        -15    1    1    2    0    0  0.19053326815E+02  0.19161104632E-01 -0.39732557589E+02  0.44100606475E+02  0.17770000000E+01 0.  1.
         15    1    1    2    0    0 -0.40027159305E+01  0.59703869353E+01 -0.24880854583E+02  0.25959235519E+02  0.17770000000E+01 0. -1.
</event>
<event>
 6    1  0.1599106E-003  0.5114786E+03  0.7546771E-02  0.9374486E-01
        -11   -1    0    0    0    0  0.00000000000E+00  0.00000000000E+00  0.50000000000E+03  0.50000000000E+03  0.00000000000E+00 0.  1.
         11   -1    0    0    0    0 -0.00000000000E+00 -0.00000000000E+00 -0.50000000000E+03  0.50000000000E+03  0.00000000000E+00 0.  1.
        -11    1    1    2    0    0 -0.16841094052E+01 -0.12649558398E+02  0.46535300063E+03  0.46552793981E+03  0.00000000000E+00 0.  1.
         11    1    1    2    0    0  0.78146612938E+01 -0.23610726247E+01 -0.48845323421E+03  0.48852144846E+03  0.00000000000E+00 0.  1.
        -15    1    1    2    0    0 -0.67838137196E+01  0.10966792730E+01 -0.86762665925E+01  0.11209735278E+02  0.17770000000E+01 0.  1.
         15    1    1    2    0    0  0.65326183093E+00  0.13913951750E+02  0.31776500173E+02  0.34740876450E+02  0.17770000000E+01 0. -1.
</event>
<event>
 6    1  0.1599106E-003  0.5007494E+03  0.7546771E-02  0.9398134E-01
        -11   -1    0    0    0    0  0.00000000000E+00  0.00000000000E+00  0.50000000000E+03  0.50000000000E+03  0.00000000000E+00 0. -1.
         11   -1    0    0    0    0 -0.00000000000E+00 -0.00000000000E+00 -0.50000000000E+03  0.50000000000E+03  0.00000000000E+00 0. -1.
        -11    1    1    2    0    0 -0.83517219901E+00  0.16578809327E+01  0.11229615770E+03  0.11231150037E+03  0.00000000000E+00 0. -1.
         11    1    1    2    0    0 -0.15009325479E+02 -0.99882530097E+01 -0.49892497850E+03  0.49925061765E+03  0.00000000000E+00 0. -1.
        -15    1    1    2    0    0  0.11207421024E+02  0.15866208198E+02  0.35529995641E+03  0.35583501740E+03  0.17770000000E+01 0. -1.
         15    1    1    2    0    0  0.46370766542E+01 -0.75358361211E+01  0.31328864387E+02  0.32602864578E+02  0.17770000000E+01 0.  1.
</event>
<event>
 6    1  0.1599106E-003  0.5004758E+03  0.7546771E-02  0.9398746E-01
        -11   -1    0    0    0    0  0.00000000000E+00  0.00000000000E+00  0.50000000000E+03  0.50000000000E+03  0.00000000000E+00 0. -1.
         11   -1    0    0    0    0 -0.00000000000E+00 -0.00000000000E+00 -0.50000000000E+03  0.50000000000E+03  0.00000000000E+00 0. -1.
        -11    1    1    2    0    0 -0.33117606108E+00  0.72849753009E+01  0.49947092813E+03  0.49952416217E+03  0.00000000000E+00 0. -1.
         11    1    1    2    0    0 -0.26938047891E+01 -0.38650886724E+01 -0.32263165308E+03  0.32266604882E+03  0.00000000000E+00 0. -1.
        -15    1    1    2    0    0 -0.43118736682E+01 -0.51938500993E+01 -0.13946120070E+03  0.13963578540E+03  0.17770000000E+01 0. -1.
         15    1    1    2    0    0  0.73368545184E+01  0.17739634707E+01 -0.37378074353E+02  0.38174003615E+02  0.17770000000E+01 0.  1.
</event>
<event>
 6    1  0.1599106E-003  0.5034577E+03  0.7546771E-02  0.9392106E-01
        -11   -1    0    0    0    0  0.00000000000E+00  0.00000000000E+00  0.50000000000E+03  0.50000000000E+03  0.00000000000E+00 0.  1.
         11   -1    0    0    0    0 -0.00000000000E+00 -0.00000000000E+00 -0.50000000000E+03  0.50000000000E+03  0.00000000000E+00 0. -1.
        -11    1    1    2    0    0  0.86245066343E+01  0.48192194368E+01  0.40616033338E+03  0.40628047381E+03  0.00000000000E+00 0.  1.
         11    1    1    2    0    0  0.14137301524E+02 -0.75738205538E+01 -0.49628325757E+03  0.49654234240E+03  0.00000000000E+00 0. -1.
        -15    1    1    2    0    0 -0.16201193534E+02  0.32382491394E+01  0.17124835590E+02  0.23861740347E+02  0.17770000000E+01 0.  1.
         15    1    1    2    0    0 -0.65606146248E+01 -0.48364802244E+00  0.72998088598E+02  0.73315443445E+02  0.17770000000E+01 0. -1.
</event>
<event>
 6    1  0.1599106E-003  0.5094513E+03  0.7546771E-02  0.9378907E-01
        -11   -1    0    0    0    0  0.00000000000E+00  0.00000000000E+00  0.50000000000E+03  0.50000000000E+03  0.00000000000E+00 0.  1.
         11   -1    0    0    0    0 -0.00000000000E+00 -0.00000000000E+00 -0.50000000000E+03  0.50000000000E+03  0.00000000000E+00 0. -1.
        -11    1    1    2    0    0 -0.54928496376E+01  0.69992806516E+01  0.46443780605E+03  0.46452302097E+03  0.00000000000E+00 0.  1.
         11    1    1    2    0    0  0.31282888547E+01  0.13267791393E+02 -0.49035927145E+03  0.49054870867E+03  0.00000000000E+00 0. -1.
        -15    1    1    2    0    0  0.99223653660E+01 -0.18791649332E+02  0.29378828935E+02  0.36302241497E+02  0.17770000000E+01 0. -1.
         15    1    1    2    0    0 -0.75578045831E+01 -0.14754227124E+01 -0.34573635362E+01  0.86260288614E+01  0.17770000000E+01 0.  1.
</event>
<event>
 6    1  0.1599106E-003  0.5129619E+03  0.7546771E-02  0.9371265E-01
        -11   -1    0    0    0    0  0.00000000000E+00  0.00000000000E+00  0.50000000000E+03  0.50000000000E+03  0.00000000000E+00 0.  1.
         11   -1    0    0    0    0 -0.00000000000E+00 -0.00000000000E+00 -0.50000000000E+03  0.50000000000E+03  0.00000000000E+00 0. -1.
        -11    1    1    2    0    0  0.25867155938E+02 -0.14719054938E+02  0.48612793496E+03  0.48703811913E+03  0.00000000000E+00 0.  1.
         11    1    1    2    0    0 -0.10803917232E+02 -0.22745388017E+01 -0.46424634382E+03  0.46437761133E+03  0.00000000000E+00 0. -1.
        -15    1    1    2    0    0 -0.26751664513E+02  0.82957174690E+01 -0.10327233084E+02  0.29904513952E+02  0.17770000000E+01 0. -1.
         15    1    1    2    0    0  0.11688425808E+02  0.86978762703E+01 -0.11554358057E+02  0.18679755581E+02  0.17770000000E+01 0.  1.
</event>
<event>
 6    1  0.1599106E-003  0.5186945E+03  0.7546771E-02  0.9358924E-01
        -11   -1    0    0    0    0  0.00000000000E+00  0.00000000000E+00  0.50000000000E+03  0.50000000000E+03  0.00000000000E+00 0. -1.
         11   -1    0    0    0    0 -0.00000000000E+00 -0.00000000000E+00 -0.50000000000E+03  0.50000000000E+03  0.00000000000E+00 0.  1.
        -11    1    1    2    0    0 -0.94330754119E+01 -0.33092243612E+01  0.48120164061E+03  0.48130546725E+03  0.00000000000E+00 0. -1.
         11    1    1    2    0    0  0.24241673905E+02 -0.13071490451E+02 -0.42489639696E+03  0.42578805850E+03  0.00000000000E+00 0.  1.
        -15    1    1    2    0    0 -0.33984096186E+02  0.13785075205E+01 -0.28942339807E+01  0.34181184823E+02  0.17770000000E+01 0. -1.
         15    1    1    2    0    0  0.19175497693E+02  0.15002207292E+02 -0.53411009671E+02  0.58725289429E+02  0.17770000000E+01 0.  1.
</event>
<event>
 6    1  0.1599106E-003  0.5027074E+03  0.7546771E-02  0.9393772E-01
        -11   -1    0    0    0    0  0.00000000000E+00  0.00000000000E+00  0.50000000000E+03  0.50000000000E+03  0.00000000000E+00 0.  1.
         11   -1    0    0    0    0 -0.00000000000E+00 -0.00000000000E+00 -0.50000000000E+03  0.50000000000E+03  0.00000000000E+00 0.  1.
        -11    1    1    2    0    0  0.35620726468E+01  0.58789820120E+01  0.49724504074E+03  0.49729255105E+03  0.00000000000E+00 0.  1.
         11    1    1    2    0    0  0.78175191192E+01 -0.75589769572E+00 -0.45661418463E+03  0.45668172571E+03  0.00000000000E+00 0.  1.
        -15    1    1    2    0    0 -0.70570467189E+01 -0.75073477416E+01 -0.39224214935E+02  0.40593828900E+02  0.17770000000E+01 0. -1.
         15    1    1    2    0    0 -0.43225450471E+01  0.23842634254E+01 -0.14066411703E+01  0.54318943425E+01  0.17770000000E+01 0.  1.
</event>
<event>
 6    1  0.1599106E-003  0.5453047E+03  0.7546771E-02  0.9303779E-01
        -11   -1    0    0    0    0  0.00000000000E+00  0.00000000000E+00  0.50000000000E+03  0.50000000000E+03  0.00000000000E+00 0.  1.
         11   -1    0    0    0    0 -0.00000000000E+00 -0.00000000000E+00 -0.50000000000E+03  0.50000000000E+03  0.00000000000E+00 0. -1.
        -11    1    1    2    0    0  0.37021792978E+01 -0.95279089230E+01  0.45458039481E+03  0.45469530735E+03  0.00000000000E+00 0.  1.
         11    1    1    2    0    0 -0.12144923846E+02 -0.28224468076E+02 -0.41480221808E+03  0.41593869728E+03  0.00000000000E+00 0. -1.
        -15    1    1    2    0    0 -0.33373525562E+02  0.11101015546E+02 -0.64832975981E+02  0.73780060031E+02  0.17770000000E+01 0. -1.
         15    1    1    2    0    0  0.41816270110E+02  0.26651361453E+02  0.25054799244E+02  0.55585935338E+02  0.17770000000E+01 0.  1.
</event>
<event>
 6    1  0.1599106E-003  0.5015292E+03  0.7546771E-02  0.9396395E-01
        -11   -1    0    0    0    0  0.00000000000E+00  0.00000000000E+00  0.50000000000E+03  0.50000000000E+03  0.00000000000E+00 0. -1.
         11   -1    0    0    0    0 -0.00000000000E+00 -0.00000000000E+00 -0.50000000000E+03  0.50000000000E+03  0.00000000000E+00 0. -1.
        -11    1    1    2    0    0 -0.27258887615E+01 -0.66232689169E+01  0.43010646469E+03  0.43016609482E+03  0.00000000000E+00 0. -1.
         11    1    1    2    0    0  0.59707052066E+01  0.88360329315E+01 -0.49835674803E+03  0.49847083476E+03  0.00000000000E+00 0. -1.
        -15    1    1    2    0    0  0.12739087342E+01  0.85600149920E+01  0.24466076484E+02  0.26012368743E+02  0.17770000000E+01 0.  1.
         15    1    1    2    0    0 -0.45187251793E+01 -0.10772779007E+02  0.43784206851E+02  0.45350701686E+02  0.17770000000E+01 0. -1.
</event>
<event>
 6    1  0.1599106E-003  0.5354338E+03  0.7546771E-02  0.9323838E-01
        -11   -1    0    0    0    0  0.00000000000E+00  0.00000000000E+00  0.50000000000E+03  0.50000000000E+03  0.00000000000E+00 0.  1.
         11   -1    0    0    0    0 -0.00000000000E+00 -0.00000000000E+00 -0.50000000000E+03  0.50000000000E+03  0.00000000000E+00 0.  1.
        -11    1    1    2    0    0 -0.78782729424E+01 -0.14908771032E+02  0.43511902872E+03  0.43544564275E+03  0.00000000000E+00 0.  1.
         11    1    1    2    0    0 -0.17659071644E+01  0.15770318655E+02 -0.46429509976E+03  0.46456620738E+03  0.00000000000E+00 0.  1.
        -15    1    1    2    0    0  0.29497795306E+02 -0.72733053658E+01 -0.26594817767E+02  0.40416122524E+02  0.17770000000E+01 0.  1.
         15    1    1    2    0    0 -0.19853615199E+02  0.64117577426E+01  0.55770888814E+02  0.59572027344E+02  0.17770000000E+01 0. -1.
</event>
<event>
 6    1  0.1599106E-003  0.5025148E+03  0.7546771E-02  0.9394200E-01
        -11   -1    0    0    0    0  0.00000000000E+00  0.00000000000E+00  0.50000000000E+03  0.50000000000E+03  0.00000000000E+00 0. -1.
         11   -1    0    0    0    0 -0.00000000000E+00 -0.00000000000E+00 -0.50000000000E+03  0.50000000000E+03  0.00000000000E+00 0. -1.
        -11    1    1    2    0    0 -0.12144420878E+02  0.62259785953E+01  0.40258070638E+03  0.40281195975E+03  0.00000000000E+00 0. -1.
         11    1    1    2    0    0  0.52927704922E+01  0.44108790756E+01 -0.49743751299E+03  0.49748522450E+03  0.00000000000E+00 0. -1.
        -15    1    1    2    0    0  0.36749854021E+01 -0.53928245011E+01  0.92727101129E+02  0.92973442911E+02  0.17770000000E+01 0. -1.
         15    1    1    2    0    0  0.31766649840E+01 -0.52440331698E+01  0.21297054718E+01  0.67293728313E+01  0.17770000000E+01 0.  1.
</event>
<event>
 6    1  0.1599106E-003  0.5039492E+03  0.7546771E-02  0.9391016E-01
        -11   -1    0    0    0    0  0.00000000000E+00  0.00000000000E+00  0.50000000000E+03  0.50000000000E+03  0.00000000000E+00 0. -1.
         11   -1    0    0    0    0 -0.00000000000E+00 -0.00000000000E+00 -0.50000000000E+03  0.50000000000E+03  0.00000000000E+00 0. -1.
        -11    1    1    2    0    0  0.13219961614E+02  0.75872791990E+01  0.49581652113E+03  0.49605076032E+03  0.00000000000E+00 0. -1.
         11    1    1    2    0    0  0.26093727497E+01  0.92016472916E+01 -0.21586516562E+03  0.21607695126E+03  0.00000000000E+00 0. -1.
        -15    1    1    2    0    0 -0.10889348737E+02  0.13075926679E+01 -0.48443868522E+01  0.12120789062E+02  0.17770000000E+01 0. -1.
         15    1    1    2    0    0 -0.49399856264E+01 -0.18096519159E+02 -0.27510696866E+03  0.27575149936E+03  0.17770000000E+01 0.  1.
</event>
<event>
 6    1  0.1599106E-003  0.5084854E+03  0.7546771E-02  0.9381021E-01
        -11   -1    0    0    0    0  0.00000000000E+00  0.00000000000E+00  0.50000000000E+03  0.50000000000E+03  0.00000000000E+00 0. -1.
         11   -1    0    0    0    0 -0.00000000000E+00 -0.00000000000E+00 -0.50000000000E+03  0.50000000000E+03  0.00000000000E+00 0. -1.
        -11    1    1    2    0    0 -0.13289794401E+02 -0.10476295963E+02  0.49122323373E+03  0.49151463536E+03  0.00000000000E+00 0. -1.
         11    1    1    2    0    0 -0.20001739307E+02 -0.50112387727E+01 -0.41815578466E+03  0.41866387751E+03  0.00000000000E+00 0. -1.
        -15    1    1    2    0    0 -0.40162086388E+00  0.15989922243E+02 -0.37431052934E+02  0.40744083809E+02  0.17770000000E+01 0. -1.
         15    1    1    2    0    0  0.33693154572E+02 -0.50238750751E+00 -0.35636396137E+02  0.49077403322E+02  0.17770000000E+01 0.  1.
</event>
<event>
 6    1  0.1599106E-003  0.5010225E+03  0.7546771E-02  0.9397525E-01
        -11   -1    0    0    0    0  0.00000000000E+00  0.00000000000E+00  0.50000000000E+03  0.50000000000E+03  0.00000000000E+00 0. -1.
         11   -1    0    0    0    0 -0.00000000000E+00 -0.00000000000E+00 -0.50000000000E+03  0.50000000000E+03  0.00000000000E+00 0. -1.
        -11    1    1    2    0    0  0.19157452691E+00 -0.11012627690E+02  0.49885591626E+03  0.49897749433E+03  0.00000000000E+00 0. -1.
         11    1    1    2    0    0 -0.44986916226E+01 -0.57250824297E+01 -0.37664047624E+03  0.37671084818E+03  0.00000000000E+00 0. -1.
        -15    1    1    2    0    0  0.68667364818E+01  0.13948321722E+02 -0.61753770536E+02  0.63705522941E+02  0.17770000000E+01 0. -1.
         15    1    1    2    0    0 -0.25596193861E+01  0.27893883968E+01 -0.60461669482E+02  0.60606134546E+02  0.17770000000E+01 0.  1.
</event>
<event>
 6    1  0.1599106E-003  0.5032887E+03  0.7546771E-02  0.9392481E-01
        -11   -1    0    0    0    0  0.00000000000E+00  0.00000000000E+00  0.50000000000E+03  0.50000000000E+03  0.00000000000E+00 0.  1.
         11   -1    0    0    0    0 -0.00000000000E+00 -0.00000000000E+00 -0.50000000000E+03  0.50000000000E+03  0.00000000000E+00 0.  1.
        -11    1    1    2    0    0 -0.46566442402E+01  0.52825093880E+01  0.49666134842E+03  0.49671126850E+03  0.00000000000E+00 0.  1.
         11    1    1    2    0    0 -0.14551839814E+02 -0.53858068212E+01 -0.40656464895E+03  0.40686063552E+03  0.00000000000E+00 0.  1.
        -15    1    1    2    0    0  0.79448827900E+01  0.38967649478E+01 -0.46738474582E+01  0.10164079824E+02  0.17770000000E+01 0. -1.
         15    1    1    2    0    0  0.11263601264E+02 -0.37934675145E+01 -0.85422852009E+02  0.86264016157E+02  0.17770000000E+01 0.  1.
</event>
<event>
 6    1  0.1599106E-003  0.5052318E+03  0.7546771E-02  0.9388179E-01
        -11   -1    0    0    0    0  0.00000000000E+00  0.00000000000E+00  0.50000000000E+03  0.50000000000E+03  0.00000000000E+00 0.  1.
         11   -1    0    0    0    0 -0.00000000000E+00 -0.00000000000E+00 -0.50000000000E+03  0.50000000000E+03  0.00000000000E+00 0. -1.
        -11    1    1    2    0    0  0.59433898110E+01 -0.36625266856E+01  0.36806900182E+03  0.36813520354E+03  0.00000000000E+00 0.  1.
         11    1    1    2    0    0  0.47601828909E+01  0.96160689406E+01 -0.49465187141E+03  0.49476823060E+03  0.00000000000E+00 0. -1.
        -15    1    1    2    0    0 -0.22365702532E+01 -0.10826641449E+02  0.12667274077E+03  0.12716665991E+03  0.17770000000E+01 0. -1.
         15    1    1    2    0    0 -0.84670024488E+01  0.48730991938E+01 -0.89871176734E-01  0.99299059436E+01  0.17770000000E+01 0.  1.
</event>
<event>
 6    1  0.1599106E-003  0.5075066E+03  0.7546771E-02  0.9383168E-01
        -11   -1    0    0    0    0  0.00000000000E+00  0.00000000000E+00  0.50000000000E+03  0.50000000000E+03  0.00000000000E+00 0. -1.
         11   -1    0    0    0    0 -0.00000000000E+00 -0.00000000000E+00 -0.50000000000E+03  0.50000000000E+03  0.00000000000E+00 0. -1.
        -11    1    1    2    0    0  0.59674130467E+01  0.97209088503E+01  0.48031798497E+03  0.48045340333E+03  0.00000000000E+00 0. -1.
         11    1    1    2    0    0  0.36105501293E+01  0.62762836390E+01 -0.49244018278E+03  0.49249341257E+03  0.00000000000E+00 0. -1.
        -15    1    1    2    0    0  0.94079443413E+00 -0.34884388230E+01 -0.27569026743E+01  0.48798095193E+01  0.17770000000E+01 0. -1.
         15    1    1    2    0    0 -0.10518757610E+02 -0.12508753666E+02  0.14879100483E+02  0.22173374577E+02  0.17770000000E+01 0.  1.
</event>
<event>
 6    1  0.1599106E-003  0.5078408E+03  0.7546771E-02  0.9382434E-01
        -11   -1    0    0    0    0  0.00000000000E+00  0.00000000000E+00  0.50000000000E+03  0.50000000000E+03  0.00000000000E+00 0. -1.
         11   -1    0    0    0    0 -0.00000000000E+00 -0.00000000000E+00 -0.50000000000E+03  0.50000000000E+03  0.00000000000E+00 0. -1.
        -11    1    1    2    0    0  0.42966333136E+01  0.52244613496E+01  0.49211268991E+03  0.49215917712E+03  0.00000000000E+00 0. -1.
         11    1    1    2    0    0  0.96673586370E+01  0.85257449673E+01 -0.42123592335E+03  0.42143308991E+03  0.00000000000E+00 0. -1.
        -15    1    1    2    0    0 -0.92978627990E+01 -0.13614858339E+02 -0.76851516759E+02  0.78620149945E+02  0.17770000000E+01 0. -1.
         15    1    1    2    0    0 -0.46661291516E+01 -0.13534797811E+00  0.59747502025E+01  0.77875830215E+01  0.17770000000E+01 0.  1.
</event>
<event>
 6    1  0.1599106E-003  0.5196813E+03  0.7546771E-02  0.9356817E-01
        -11   -1    0    0    0    0  0.00000000000E+00  0.00000000000E+00  0.50000000000E+03  0.50000000000E+03  0.00000000000E+00 0. -1.
         11   -1    0    0    0    0 -0.00000000000E+00 -0.00000000000E+00 -0.50000000000E+03  0.50000000000E+03  0.00000000000E+00 0.  1.
        -11    1    1    2    0    0  0.25791704849E+02 -0.18069938019E+02  0.35148407917E+03  0.35289204101E+03  0.00000000000E+00 0. -1.
         11    1    1    2    0    0  0.14497668182E+02  0.33584053091E+00 -0.48009970642E+03  0.48031866847E+03  0.00000000000E+00 0.  1.
        -15    1    1    2    0    0  0.14811579272E+02 -0.15325267759E+02 -0.17276597842E+01  0.21456683102E+02  0.17770000000E+01 0. -1.
         15    1    1    2    0    0 -0.55100952304E+02  0.33059365247E+02  0.13034328704E+03  0.14533260742E+03  0.17770000000E+01 0.  1.
</event>
<event>
 6    1  0.1599106E-003  0.5001661E+03  0.7546771E-02  0.9399438E-01
        -11   -1    0    0    0    0  0.00000000000E+00  0.00000000000E+00  0.50000000000E+03  0.50000000000E+03  0.00000000000E+00 0.  1.
         11   -1    0    0    0    0 -0.00000000000E+00 -0.00000000000E+00 -0.50000000000E+03  0.50000000000E+03  0.00000000000E+00 0.  1.
        -11    1    1    2    0    0 -0.13719712894E+00  0.10757443233E+01  0.51123008261E+02  0.51134509116E+02  0.00000000000E+00 0.  1.
         11    1    1    2    0    0  0.11083558926E+02 -0.32919637349E+01 -0.49970010888E+03  0.49983385351E+03  0.00000000000E+00 0.  1.
        -15    1    1    2    0    0 -0.52058201102E+01 -0.27249712851E+00  0.39799033012E+03  0.39802843544E+03  0.17770000000E+01 0.  1.
         15    1    1    2    0    0 -0.57405416869E+01  0.24887165401E+01  0.50586770501E+02  0.51003201935E+02  0.17770000000E+01 0. -1.
</event>
<event>
 6    1  0.1599106E-003  0.5046026E+03  0.7546771E-02  0.9389570E-01
        -11   -1    0    0    0    0  0.00000000000E+00  0.00000000000E+00  0.50000000000E+03  0.50000000000E+03  0.00000000000E+00 0. -1.
         11   -1    0    0    0    0 -0.00000000000E+00 -0.00000000000E+00 -0.50000000000E+03  0.50000000000E+03  0.00000000000E+00 0.  1.
        -11    1    1    2    0    0 -0.13673190217E+01 -0.66848477957E+01  0.49535044421E+03  0.49539743573E+03  0.00000000000E+00 0. -1.
         11    1    1    2    0    0  0.68436425126E+01  0.20942428794E+01 -0.47629605690E+03  0.47634982430E+03  0.00000000000E+00 0.  1.
        -15    1    1    2    0    0  0.12916678301E+01  0.48581904941E+01  0.22797760077E+01  0.57987523059E+01  0.17770000000E+01 0. -1.
         15    1    1    2    0    0 -0.67679913210E+01 -0.26758557774E+00 -0.21334163317E+02  0.22453987664E+02  0.17770000000E+01 0. -1.
</event>
<event>
 6    1  0.1599106E-003  0.5075108E+03  0.7546771E-02  0.9383159E-01
        -11   -1    0    0    0    0  0.00000000000E+00  0.00000000000E+00  0.50000000000E+03  0.50000000000E+03  0.00000000000E+00 0. -1.
         11   -1    0    0    0    0 -0.00000000000E+00 -0.00000000000E+00 -0.50000000000E+03  0.50000000000E+03  0.00000000000E+00 0. -1.
        -11    1    1    2    0    0  0.17193897506E+02  0.23201106330E+01  0.49218347810E+03  0.49248917667E+03  0.00000000000E+00 0. -1.
         11    1    1    2    0    0  0.10433436963E+02  0.36120259945E+00 -0.46344877308E+03  0.46356634082E+03  0.00000000000E+00 0. -1.
        -15    1    1    2    0    0 -0.27439569212E+02 -0.33985645718E+01 -0.18003377814E+02  0.33041784779E+02  0.17770000000E+01 0. -1.
         15    1    1    2    0    0 -0.18776525733E+00  0.71725133933E+00 -0.10731327205E+02  0.10902697733E+02  0.17770000000E+01 0. -1.
</event>
<event>
 6    1  0.1599106E-003  0.5014305E+03  0.7546771E-02  0.9396615E-01
        -11   -1    0    0    0    0  0.00000000000E+00  0.00000000000E+00  0.50000000000E+03  0.50000000000E+03  0.00000000000E+00 0.  1.
         11   -1    0    0    0    0 -0.00000000000E+00 -0.00000000000E+00 -0.50000000000E+03  0.50000000000E+03  0.00000000000E+00 0. -1.
        -11    1    1    2    0    0  0.51884128483E+01  0.43906560198E+01  0.49852320517E+03  0.49856953736E+03  0.00000000000E+00 0.  1.
         11    1    1    2    0    0 -0.55876340291E+01  0.46665530201E+01 -0.48248416360E+03  0.48253908287E+03  0.00000000000E+00 0. -1.
        -15    1    1    2    0    0 -0.84793604371E+00 -0.35063521907E+01 -0.64734386335E+01  0.76208029735E+01  0.17770000000E+01 0.  1.
         15    1    1    2    0    0  0.12471572245E+01 -0.55508568493E+01 -0.95656029328E+01  0.11270576799E+02  0.17770000000E+01 0. -1.
</event>
<event>
 6    1  0.1599106E-003  0.5004665E+03  0.7546771E-02  0.9398767E-01
        -11   -1    0    0    0    0  0.00000000000E+00  0.00000000000E+00  0.50000000000E+03  0.50000000000E+03  0.00000000000E+00 0.  1.
         11   -1    0    0    0    0 -0.00000000000E+00 -0.00000000000E+00 -0.50000000000E+03  0.50000000000E+03  0.00000000000E+00 0. -1.
        -11    1    1    2    0    0  0.94641272031E+01  0.31535423869E+00  0.49944375162E+03  0.49953351257E+03  0.00000000000E+00 0.  1.
         11    1    1    2    0    0 -0.32219519732E+01  0.38605619147E+01 -0.25033362207E+03  0.25038411941E+03  0.00000000000E+00 0. -1.
        -15    1    1    2    0    0 -0.13774634095E+01  0.42470249735E+01 -0.19604465685E+03  0.19610354366E+03  0.17770000000E+01 0.  1.
         15    1    1    2    0    0 -0.48647118205E+01 -0.84229411269E+01 -0.53065472696E+02  0.53978824365E+02  0.17770000000E+01 0.  1.
</event>
<event>
 6    1  0.1599106E-003  0.5107858E+03  0.7546771E-02  0.9375994E-01
        -11   -1    0    0    0    0  0.00000000000E+00  0.00000000000E+00  0.50000000000E+03  0.50000000000E+03  0.00000000000E+00 0.  1.
         11   -1    0    0    0    0 -0.00000000000E+00 -0.00000000000E+00 -0.50000000000E+03  0.50000000000E+03  0.00000000000E+00 0.  1.
        -11    1    1    2    0    0  0.32929002303E+01 -0.64746720465E+01  0.48916023976E+03  0.48921417062E+03  0.00000000000E+00 0.  1.
         11    1    1    2    0    0  0.77601900111E+01  0.19233954290E+02 -0.47578862179E+03  0.47624046255E+03  0.00000000000E+00 0.  1.
        -15    1    1    2    0    0 -0.28010612152E+01  0.81520730856E+01 -0.65964801335E+01  0.10998796238E+02  0.17770000000E+01 0. -1.
         15    1    1    2    0    0 -0.82520290262E+01 -0.20911355329E+02 -0.67751378380E+01  0.23546570589E+02  0.17770000000E+01 0.  1.
</event>
<event>
 6    1  0.1599106E-003  0.5082809E+03  0.7546771E-02  0.9381469E-01
        -11   -1    0    0    0    0  0.00000000000E+00  0.00000000000E+00  0.50000000000E+03  0.50000000000E+03  0.00000000000E+00 0. -1.
         11   -1    0    0    0    0 -0.00000000000E+00 -0.00000000000E+00 -0.50000000000E+03  0.50000000000E+03  0.00000000000E+00 0.  1.
        -11    1    1    2    0    0  0.10151086125E+02 -0.15803920447E+02  0.49136017021E+03  0.49171905121E+03  0.00000000000E+00 0. -1.
         11    1    1    2    0    0  0.44092187887E+01  0.68788956835E+01 -0.44190843316E+03  0.44198396319E+03  0.00000000000E+00 0.  1.
        -15    1    1    2    0    0  0.26130522363E+01  0.79078104198E+00 -0.46933361121E+02  0.47046269690E+02  0.17770000000E+01 0. -1.
         15    1    1    2    0    0 -0.17173357150E+02  0.81342437218E+01 -0.25183759272E+01  0.19250715910E+02  0.17770000000E+01 0.  1.
</event>
<event>
 6    1  0.1599106E-003  0.5048122E+03  0.7546771E-02  0.9389106E-01
        -11   -1    0    0    0    0  0.00000000000E+00  0.00000000000E+00  0.50000000000E+03  0.50000000000E+03  0.00000000000E+00 0. -1.
         11   -1    0    0    0    0 -0.00000000000E+00 -0.00000000000E+00 -0.50000000000E+03  0.50000000000E+03  0.00000000000E+00 0.  1.
        -11    1    1    2    0    0 -0.63572506838E+01  0.11576825081E+01  0.45707210028E+03  0.45711777445E+03  0.00000000000E+00 0. -1.
         11    1    1    2    0    0 -0.63685749606E+01 -0.55196152669E+01 -0.49511606263E+03  0.49518778294E+03  0.00000000000E+00 0.  1.
        -15    1    1    2    0    0  0.16898537751E+02  0.38552010827E+01  0.39276211355E+02  0.42967448853E+02  0.17770000000E+01 0. -1.
         15    1    1    2    0    0 -0.41727121069E+01  0.50673167613E+00 -0.12322490055E+01  0.47269937518E+01  0.17770000000E+01 0.  1.
</event>
<event>
 6    1  0.1599106E-003  0.5026079E+03  0.7546771E-02  0.9393993E-01
        -11   -1    0    0    0    0  0.00000000000E+00  0.00000000000E+00  0.50000000000E+03  0.50000000000E+03  0.00000000000E+00 0.  1.
         11   -1    0    0    0    0 -0.00000000000E+00 -0.00000000000E+00 -0.50000000000E+03  0.50000000000E+03  0.00000000000E+00 0.  1.
        -11    1    1    2    0    0 -0.98746636064E+01 -0.12921912541E+02  0.49712612894E+03  0.49739207159E+03  0.00000000000E+00 0.  1.
         11    1    1    2    0    0 -0.85083956486E+01 -0.15226370840E+01 -0.34221959632E+03  0.34232873575E+03  0.00000000000E+00 0.  1.
        -15    1    1    2    0    0  0.17532610732E+02  0.22795260763E+02 -0.82922250824E+02  0.87785384678E+02  0.17770000000E+01 0. -1.
         15    1    1    2    0    0  0.85044852310E+00 -0.83507111379E+01 -0.71984281802E+02  0.72493807975E+02  0.17770000000E+01 0.  1.
</event>
<event>
 6    1  0.1599106E-003  0.4630273E+03  0.7546771E-02  0.9486565E-01
        -11   -1    0    0    0    0  0.00000000000E+00  0.00000000000E+00  0.50000000000E+03  0.50000000000E+03  0.00000000000E+00 0. -1.
         11   -1    0    0    0    0 -0.00000000000E+00 -0.00000000000E+00 -0.50000000000E+03  0.50000000000E+03  0.00000000000E+00 0. -1.
        -11    1    1    2    0    0 -0.24276591901E+02 -0.86952581643E+01  0.75173964378E+02  0.79473802911E+02  0.00000000000E+00 0. -1.
         11    1    1    2    0    0  0.18869173862E+02 -0.59711662409E+02 -0.48816538886E+03  0.49216559736E+03  0.00000000000E+00 0. -1.
        -15    1    1    2    0    0  0.32234932856E+02  0.64161908891E+02  0.18026161956E+03  0.19404445538E+03  0.17770000000E+01 0.  1.
         15    1    1    2    0    0 -0.26827514817E+02  0.42450116822E+01  0.23272980492E+03  0.23431614435E+03  0.17770000000E+01 0. -1.
</event>
<event>
 6    1  0.1599106E-003  0.5013504E+03  0.7546771E-02  0.9396793E-01
        -11   -1    0    0    0    0  0.00000000000E+00  0.00000000000E+00  0.50000000000E+03  0.50000000000E+03  0.00000000000E+00 0. -1.
         11   -1    0    0    0    0 -0.00000000000E+00 -0.00000000000E+00 -0.50000000000E+03  0.50000000000E+03  0.00000000000E+00 0.  1.
        -11    1    1    2    0    0 -0.62481448672E+01  0.52159592162E+01  0.49858317883E+03  0.49864960820E+03  0.00000000000E+00 0. -1.
         11    1    1    2    0    0 -0.62512536369E+01  0.98327795980E+01 -0.20323080198E+03  0.20356453670E+03  0.00000000000E+00 0.  1.
        -15    1    1    2    0    0  0.22057807427E+02 -0.50788250131E+01 -0.21901575826E+03  0.22018946711E+03  0.17770000000E+01 0.  1.
         15    1    1    2    0    0 -0.95584089234E+01 -0.99699138010E+01 -0.76336618587E+02  0.77596387987E+02  0.17770000000E+01 0. -1.
</event>
<event>
 6    1  0.1599106E-003  0.5044545E+03  0.7546771E-02  0.9389897E-01
        -11   -1    0    0    0    0  0.00000000000E+00  0.00000000000E+00  0.50000000000E+03  0.50000000000E+03  0.00000000000E+00 0.  1.
         11   -1    0    0    0    0 -0.00000000000E+00 -0.00000000000E+00 -0.50000000000E+03  0.50000000000E+03  0.00000000000E+00 0. -1.
        -11    1    1    2    0    0 -0.20519652975E+00 -0.84618065783E+01  0.49547324613E+03  0.49554553969E+03  0.00000000000E+00 0.  1.
         11    1    1    2    0    0 -0.72641078272E+01  0.74775826650E+01 -0.48739178521E+03  0.48750326542E+03  0.00000000000E+00 0. -1.
        -15    1    1    2    0    0  0.26208860442E+01 -0.35507499042E+01 -0.88380343886E+01  0.10037203266E+02  0.17770000000E+01 0. -1.
         15    1    1    2    0    0  0.48484183128E+01  0.45349738175E+01  0.75657346690E+00  0.69139916164E+01  0.17770000000E+01 0.  1.
</event>
<event>
 6    1  0.1599106E-003  0.5233971E+03  0.7546771E-02  0.9348927E-01
        -11   -1    0    0    0    0  0.00000000000E+00  0.00000000000E+00  0.50000000000E+03  0.50000000000E+03  0.00000000000E+00 0.  1.
         11   -1    0    0    0    0 -0.00000000000E+00 -0.00000000000E+00 -0.50000000000E+03  0.50000000000E+03  0.00000000000E+00 0. -1.
        -11    1    1    2    0    0  0.21680587536E+02 -0.14192173708E+01  0.42474462619E+03  0.42529996418E+03  0.00000000000E+00 0.  1.
         11    1    1    2    0    0 -0.15247876374E+01  0.10143162400E+02 -0.47649249039E+03  0.47660287674E+03  0.00000000000E+00 0. -1.
        -15    1    1    2    0    0 -0.20578199078E+02  0.28258679899E+02  0.49992268400E+02  0.61027861634E+02  0.17770000000E+01 0. -1.
         15    1    1    2    0    0  0.42239917878E+00 -0.36982624928E+02  0.17555957950E+01  0.37069297447E+02  0.17770000000E+01 0.  1.
</event>
<event>
 6    1  0.1599106E-003  0.5015208E+03  0.7546771E-02  0.9396413E-01
        -11   -1    0    0    0    0  0.00000000000E+00  0.00000000000E+00  0.50000000000E+03  0.50000000000E+03  0.00000000000E+00 0. -1.
         11   -1    0    0    0    0 -0.00000000000E+00 -0.00000000000E+00 -0.50000000000E+03  0.50000000000E+03  0.00000000000E+00 0. -1.
        -11    1    1    2    0    0  0.12482924610E+02 -0.15198487012E+02  0.49809108705E+03  0.49847923569E+03  0.00000000000E+00 0. -1.
         11    1    1    2    0    0  0.76421482138E+01 -0.43806413565E+01 -0.36752161340E+03  0.36762716000E+03  0.00000000000E+00 0. -1.
        -15    1    1    2    0    0 -0.70589213193E+00  0.11430092411E+00 -0.54632839255E+01  0.57893478608E+01  0.17770000000E+01 0. -1.
         15    1    1    2    0    0 -0.19419180692E+02  0.19464827444E+02 -0.12510618972E+03  0.12810425645E+03  0.17770000000E+01 0. -1.
</event>
<event>
 6    1  0.1599106E-003  0.2285328E+03  0.7546771E-02  0.1036768E+00
        -11   -1    0    0    0    0  0.00000000000E+00  0.00000000000E+00  0.50000000000E+03  0.50000000000E+03  0.00000000000E+00 0. -1.
         11   -1    0    0    0    0 -0.00000000000E+00 -0.00000000000E+00 -0.50000000000E+03  0.50000000000E+03  0.00000000000E+00 0. -1.
        -11    1    1    2    0    0  0.25415839688E+02  0.99457704720E+01  0.22687545257E+03  0.22851116874E+03  0.00000000000E+00 0. -1.
         11    1    1    2    0    0 -0.33259851138E+02  0.47199183690E+02 -0.36840542989E+03  0.37290285788E+03  0.00000000000E+00 0. -1.
        -15    1    1    2    0    0  0.12951407462E+03 -0.15979245763E+03  0.39367966903E+02  0.20942903234E+03  0.17770000000E+01 0.  1.
         15    1    1    2    0    0 -0.12167006317E+03  0.10264750347E+03  0.10216201042E+03  0.18915694104E+03  0.17770000000E+01 0. -1.
</event>
<event>
 6    1  0.1599106E-003  0.5001862E+03  0.7546771E-02  0.9399393E-01
        -11   -1    0    0    0    0  0.00000000000E+00  0.00000000000E+00  0.50000000000E+03  0.50000000000E+03  0.00000000000E+00 0.  1.
         11   -1    0    0    0    0 -0.00000000000E+00 -0.00000000000E+00 -0.50000000000E+03  0.50000000000E+03  0.00000000000E+00 0.  1.
        -11    1    1    2    0    0  0.28844263775E+01  0.31766341631E+00  0.20204600143E+03  0.20206683923E+03  0.00000000000E+00 0.  1.
         11    1    1    2    0    0 -0.14829448175E+01  0.10337065791E+02 -0.49970464996E+03  0.49981375656E+03  0.00000000000E+00 0.  1.
        -15    1    1    2    0    0 -0.30469032126E+01 -0.83637324571E+01  0.28010239936E+03  0.28024943799E+03  0.17770000000E+01 0. -1.
         15    1    1    2    0    0  0.16454216526E+01 -0.22909967503E+01  0.17556249174E+02  0.17869966216E+02  0.17770000000E+01 0.  1.
</event>
<event>
 6    1  0.1599106E-003  0.5399392E+03  0.7546771E-02  0.9314626E-01
        -11   -1    0    0    0    0  0.00000000000E+00  0.00000000000E+00  0.50000000000E+03  0.50000000000E+03  0.00000000000E+00 0.  1.
         11   -1    0    0    0    0 -0.00000000000E+00 -0.00000000000E+00 -0.50000000000E+03  0.50000000000E+03  0.00000000000E+00 0. -1.
        -11    1    1    2    0    0 -0.40260954340E+01  0.73523221250E+01  0.45998447724E+03  0.46006084965E+03  0.00000000000E+00 0.  1.
         11    1    1    2    0    0 -0.13935807935E+02  0.19542155543E+02 -0.35552927256E+03  0.35633855564E+03  0.00000000000E+00 0. -1.
        -15    1    1    2    0    0  0.46714178080E+01 -0.99342988604E+01  0.37959069224E+02  0.39554533287E+02  0.17770000000E+01 0. -1.
         15    1    1    2    0    0  0.13290485561E+02 -0.16960178808E+02 -0.14241427390E+03  0.14404606142E+03  0.17770000000E+01 0.  1.
</event>
<event>
 6    1  0.1599106E-003  0.4765399E+03  0.7546771E-02  0.9453890E-01
        -11   -1    0    0    0    0  0.00000000000E+00  0.00000000000E+00  0.50000000000E+03  0.50000000000E+03  0.00000000000E+00 0. -1.
         11   -1    0    0    0    0 -0.00000000000E+00 -0.00000000000E+00 -0.50000000000E+03  0.50000000000E+03  0.00000000000E+00 0.  1.
        -11    1    1    2    0    0 -0.17859547511E+02 -0.11695203609E+02  0.47085468484E+03  0.47133838743E+03  0.00000000000E+00 0. -1.
         11    1    1    2    0    0  0.57540030863E+01 -0.91603085212E+01 -0.48198998216E+03  0.48211135924E+03  0.00000000000E+00 0.  1.
        -15    1    1    2    0    0  0.17694400928E+02  0.16149673732E+02 -0.85338252932E+01  0.25492894873E+02  0.17770000000E+01 0.  1.
         15    1    1    2    0    0 -0.55888565032E+01  0.47058383981E+01  0.19669122612E+02  0.21057358462E+02  0.17770000000E+01 0. -1.
</event>
<event>
 6    1  0.1599106E-003  0.5014328E+03  0.7546771E-02  0.9396609E-01
        -11   -1    0    0    0    0  0.00000000000E+00  0.00000000000E+00  0.50000000000E+03  0.50000000000E+03  0.00000000000E+00 0.  1.
         11   -1    0    0    0    0 -0.00000000000E+00 -0.00000000000E+00 -0.50000000000E+03  0.50000000000E+03  0.00000000000E+00 0.  1.
        -11    1    1    2    0    0  0.19513009500E+02 -0.13235891513E+01  0.27924805768E+03  0.27993211167E+03  0.00000000000E+00 0.  1.
         11    1    1    2    0    0  0.78959250818E+01  0.26806343808E+01 -0.49849743649E+03  0.49856717262E+03  0.00000000000E+00 0.  1.
        -15    1    1    2    0    0 -0.69958363962E+01 -0.56135311714E+01  0.10105800970E+03  0.10147084563E+03  0.17770000000E+01 0. -1.
         15    1    1    2    0    0 -0.20413098185E+02  0.42564859419E+01  0.11819136911E+03  0.12002987008E+03  0.17770000000E+01 0.  1.
</event>
<event>
 6    1  0.1599106E-003  0.5023512E+03  0.7546771E-02  0.9394564E-01
        -11   -1    0    0    0    0  0.00000000000E+00  0.00000000000E+00  0.50000000000E+03  0.50000000000E+03  0.00000000000E+00 0. -1.
         11   -1    0    0    0    0 -0.00000000000E+00 -0.00000000000E+00 -0.50000000000E+03  0.50000000000E+03  0.00000000000E+00 0.  1.
        -11    1    1    2    0    0 -0.26416726008E+02  0.39943338229E+01  0.49693107168E+03  0.49764875979E+03  0.00000000000E+00 0. -1.
         11    1    1    2    0    0 -0.25289217793E+01  0.10119305189E+02 -0.34316314596E+03  0.34332162841E+03  0.00000000000E+00 0.  1.
        -15    1    1    2    0    0  0.12747814143E+02 -0.94518177718E+01 -0.12183961345E+03  0.12288162092E+03  0.17770000000E+01 0.  1.
         15    1    1    2    0    0  0.16197833644E+02 -0.46618212399E+01 -0.31928312269E+02  0.36147990890E+02  0.17770000000E+01 0. -1.
</event>
<event>
 6    1  0.1599106E-003  0.5032932E+03  0.7546771E-02  0.9392471E-01
        -11   -1    0    0    0    0  0.00000000000E+00  0.00000000000E+00  0.50000000000E+03  0.50000000000E+03  0.00000000000E+00 0. -1.
         11   -1    0    0    0    0 -0.00000000000E+00 -0.00000000000E+00 -0.50000000000E+03  0.50000000000E+03  0.00000000000E+00 0. -1.
        -11    1    1    2    0    0 -0.24158270468E+01 -0.11555635412E+02  0.39134784073E+03  0.39152586297E+03  0.00000000000E+00 0. -1.
         11    1    1    2    0    0  0.69349721267E+01  0.21919830997E+01 -0.49665359037E+03  0.49670684257E+03  0.00000000000E+00 0. -1.
        -15    1    1    2    0    0 -0.50397893729E+01 -0.23294118872E+01  0.31649427772E-01  0.58296112520E+01  0.17770000000E+01 0. -1.
         15    1    1    2    0    0  0.52064429305E+00  0.11693064200E+02  0.10527410021E+03  0.10593768321E+03  0.17770000000E+01 0.  1.
</event>
<event>
 6    1  0.1599106E-003  0.5001705E+03  0.7546771E-02  0.9399428E-01
        -11   -1    0    0    0    0  0.00000000000E+00  0.00000000000E+00  0.50000000000E+03  0.50000000000E+03  0.00000000000E+00 0.  1.
         11   -1    0    0    0    0 -0.00000000000E+00 -0.00000000000E+00 -0.50000000000E+03  0.50000000000E+03  0.00000000000E+00 0.  1.
        -11    1    1    2    0    0 -0.12592310532E+01  0.23381303860E+01  0.67737345834E+02  0.67789383662E+02  0.00000000000E+00 0.  1.
         11    1    1    2    0    0 -0.38763543376E+01  0.78406981670E+01 -0.49975294982E+03  0.49982948445E+03  0.00000000000E+00 0.  1.
        -15    1    1    2    0    0  0.37541935635E+01  0.98070545085E-01  0.26603921856E+03  0.26607165788E+03  0.17770000000E+01 0. -1.
         15    1    1    2    0    0  0.13813918273E+01 -0.10276899098E+02  0.16597638542E+03  0.16630947401E+03  0.17770000000E+01 0.  1.
</event>
<event>
 6    1  0.1599106E-003  0.5031176E+03  0.7546771E-02  0.9392861E-01
        -11   -1    0    0    0    0  0.00000000000E+00  0.00000000000E+00  0.50000000000E+03  0.50000000000E+03  0.00000000000E+00 0. -1.
         11   -1    0    0    0    0 -0.00000000000E+00 -0.00000000000E+00 -0.50000000000E+03  0.50000000000E+03  0.00000000000E+00 0.  1.
        -11    1    1    2    0    0 -0.14224633684E+02  0.35799640200E+01  0.49666584342E+03  0.49688239692E+03  0.00000000000E+00 0. -1.
         11    1    1    2    0    0 -0.92533143680E+01 -0.10477516649E+02 -0.11063547216E+03  0.11151506572E+03  0.00000000000E+00 0.  1.
        -15    1    1    2    0    0  0.33938166620E+02 -0.14579452767E+02 -0.30097239631E+03  0.30323571799E+03  0.17770000000E+01 0.  1.
         15    1    1    2    0    0 -0.10460218568E+02  0.21477005396E+02 -0.85057974958E+02  0.88366819374E+02  0.17770000000E+01 0. -1.
</event>
<event>
 6    1  0.1599106E-003  0.4875558E+03  0.7546771E-02  0.9428093E-01
        -11   -1    0    0    0    0  0.00000000000E+00  0.00000000000E+00  0.50000000000E+03  0.50000000000E+03  0.00000000000E+00 0. -1.
         11   -1    0    0    0    0 -0.00000000000E+00 -0.00000000000E+00 -0.50000000000E+03  0.50000000000E+03  0.00000000000E+00 0. -1.
        -11    1    1    2    0    0  0.75741919935E+01 -0.43128240296E+01  0.47831153798E+03  0.47839094494E+03  0.00000000000E+00 0. -1.
         11    1    1    2    0    0 -0.49175110936E+00 -0.68795243359E+00 -0.27856150378E+01  0.29111421888E+01  0.00000000000E+00 0. -1.
        -15    1    1    2    0    0  0.28372960799E+01  0.34105099614E+01  0.21268459153E+02  0.21798782328E+02  0.17770000000E+01 0.  1.
         15    1    1    2    0    0 -0.99197369640E+01  0.15902665018E+01 -0.49679438209E+03  0.49689913055E+03  0.17770000000E+01 0. -1.
</event>
<event>
 6    1  0.1599106E-003  0.5004703E+03  0.7546771E-02  0.9398758E-01
        -11   -1    0    0    0    0  0.00000000000E+00  0.00000000000E+00  0.50000000000E+03  0.50000000000E+03  0.00000000000E+00 0. -1.
         11   -1    0    0    0    0 -0.00000000000E+00 -0.00000000000E+00 -0.50000000000E+03  0.50000000000E+03  0.00000000000E+00 0.  1.
        -11    1    1    2    0    0  0.14964763738E+01  0.65393997584E+01  0.20870892137E+03  0.20881670683E+03  0.00000000000E+00 0. -1.
         11    1    1    2    0    0 -0.16813009810E+02  0.43251101143E+01 -0.49922791088E+03  0.49952966966E+03  0.00000000000E+00 0.  1.
        -15    1    1    2    0    0  0.18270686739E+02 -0.12129298145E+02  0.25342814343E+03  0.25438144484E+03  0.17770000000E+01 0.  1.
         15    1    1    2    0    0 -0.29541533033E+01  0.12647882720E+01  0.37090846069E+02  0.37272178662E+02  0.17770000000E+01 0. -1.
</event>
<event>
 6    1  0.1654649E-003  0.5005950E+03  0.7546771E-02  0.9398479E-01
        -11   -1    0    0    0    0  0.00000000000E+00  0.00000000000E+00  0.50000000000E+03  0.50000000000E+03  0.00000000000E+00 0. -1.
         11   -1    0    0    0    0 -0.00000000000E+00 -0.00000000000E+00 -0.50000000000E+03  0.50000000000E+03  0.00000000000E+00 0.  1.
        -11    1    1    2    0    0  0.73825053086E+01 -0.25485693657E+01  0.49934397489E+03  0.49940504788E+03  0.00000000000E+00 0. -1.
         11    1    1    2    0    0 -0.28717820273E+01 -0.16812145964E+01 -0.21706638136E+03  0.21709188730E+03  0.00000000000E+00 0.  1.
        -15    1    1    2    0    0 -0.11559050760E+01  0.27713884115E+01 -0.44930631748E+01  0.56887657682E+01  0.17770000000E+01 0. -1.
         15    1    1    2    0    0 -0.33548182053E+01  0.14583955506E+01 -0.27778453035E+03  0.27781429905E+03  0.17770000000E+01 0.  1.
</event>
<event>
 6    1  0.1599106E-003  0.5002784E+03  0.7546771E-02  0.9399187E-01
        -11   -1    0    0    0    0  0.00000000000E+00  0.00000000000E+00  0.50000000000E+03  0.50000000000E+03  0.00000000000E+00 0. -1.
         11   -1    0    0    0    0 -0.00000000000E+00 -0.00000000000E+00 -0.50000000000E+03  0.50000000000E+03  0.00000000000E+00 0.  1.
        -11    1    1    2    0    0  0.67234416037E+01  0.10810750857E+01  0.49967517491E+03  0.49972157629E+03  0.00000000000E+00 0. -1.
         11    1    1    2    0    0 -0.33487156274E+01 -0.23051758577E+01 -0.23734841644E+03  0.23738323134E+03  0.00000000000E+00 0.  1.
        -15    1    1    2    0    0  0.44819026414E+01  0.29126227846E+01 -0.37774789228E+02  0.38192450209E+02  0.17770000000E+01 0.  1.
         15    1    1    2    0    0 -0.78566286178E+01 -0.16885220126E+01 -0.22455196924E+03  0.22470274216E+03  0.17770000000E+01 0.  1.
</event>
<event>
 6    1  0.1599106E-003  0.3361642E+03  0.7546771E-02  0.9866441E-01
        -11   -1    0    0    0    0  0.00000000000E+00  0.00000000000E+00  0.50000000000E+03  0.50000000000E+03  0.00000000000E+00 0. -1.
         11   -1    0    0    0    0 -0.00000000000E+00 -0.00000000000E+00 -0.50000000000E+03  0.50000000000E+03  0.00000000000E+00 0. -1.
        -11    1    1    2    0    0 -0.52869036141E+01  0.31564184650E+01  0.33036412801E+03  0.33042150566E+03  0.00000000000E+00 0. -1.
         11    1    1    2    0    0 -0.12919355246E+02  0.29027723175E+02 -0.34154109734E+03  0.34301580084E+03  0.00000000000E+00 0. -1.
        -15    1    1    2    0    0  0.13715688578E+02 -0.27332015275E+02 -0.15613463227E+03  0.15911109419E+03  0.17770000000E+01 0.  1.
         15    1    1    2    0    0  0.44905702823E+01 -0.48521263653E+01  0.16731160160E+03  0.16745159931E+03  0.17770000000E+01 0. -1.
</event>
<event>
 6    1  0.1599106E-003  0.5002582E+03  0.7546771E-02  0.9399232E-01
        -11   -1    0    0    0    0  0.00000000000E+00  0.00000000000E+00  0.50000000000E+03  0.50000000000E+03  0.00000000000E+00 0.  1.
         11   -1    0    0    0    0 -0.00000000000E+00 -0.00000000000E+00 -0.50000000000E+03  0.50000000000E+03  0.00000000000E+00 0.  1.
        -11    1    1    2    0    0  0.96968439799E+01  0.89050462533E+00  0.49964688879E+03  0.49974176858E+03  0.00000000000E+00 0.  1.
         11    1    1    2    0    0 -0.36943646301E+00  0.70999722389E+01 -0.27176238908E+03  0.27185537001E+03  0.00000000000E+00 0.  1.
        -15    1    1    2    0    0 -0.58379724805E+01 -0.76852392068E+01 -0.20028638969E+03  0.20052665770E+03  0.17770000000E+01 0. -1.
         15    1    1    2    0    0 -0.34894350364E+01 -0.30523765736E+00 -0.27598110030E+02  0.27876203708E+02  0.17770000000E+01 0.  1.
</event>
<event>
 6    1  0.3395964E-003  0.5316655E+03  0.7546771E-02  0.9331616E-01
        -11   -1    0    0    0    0  0.00000000000E+00  0.00000000000E+00  0.50000000000E+03  0.50000000000E+03  0.00000000000E+00 0. -1.
         11   -1    0    0    0    0 -0.00000000000E+00 -0.00000000000E+00 -0.50000000000E+03  0.50000000000E+03  0.00000000000E+00 0. -1.
        -11    1    1    2    0    0  0.21965496588E+00 -0.18685137652E+02  0.26732132135E+03  0.26797363950E+03  0.00000000000E+00 0. -1.
         11    1    1    2    0    0 -0.88297980319E+00 -0.70487600715E+01 -0.46828063287E+03  0.46833451271E+03  0.00000000000E+00 0. -1.
        -15    1    1    2    0    0 -0.28071827874E+01  0.64352902505E+01 -0.30524680395E+02  0.31372074812E+02  0.17770000000E+01 0.  1.
         15    1    1    2    0    0  0.34705076247E+01  0.19298607473E+02  0.23148399192E+03  0.23231977298E+03  0.17770000000E+01 0. -1.
</event>
<event>
 6    1  0.1599106E-003  0.5006585E+03  0.7546771E-02  0.9398338E-01
        -11   -1    0    0    0    0  0.00000000000E+00  0.00000000000E+00  0.50000000000E+03  0.50000000000E+03  0.00000000000E+00 0. -1.
         11   -1    0    0    0    0 -0.00000000000E+00 -0.00000000000E+00 -0.50000000000E+03  0.50000000000E+03  0.00000000000E+00 0. -1.
        -11    1    1    2    0    0 -0.35826951516E-01  0.19619620601E+01  0.12843823041E+03  0.12845321953E+03  0.00000000000E+00 0. -1.
         11    1    1    2    0    0 -0.16721561548E+02 -0.11689038537E+02 -0.49892458034E+03  0.49934154755E+03  0.00000000000E+00 0. -1.
        -15    1    1    2    0    0  0.47492978470E+00  0.74272864187E+01  0.21391920101E+02  0.22719201492E+02  0.17770000000E+01 0.  1.
         15    1    1    2    0    0  0.16282458715E+02  0.22997900583E+01  0.34909442983E+03  0.34948603143E+03  0.17770000000E+01 0. -1.
</event>
<event>
 6    1  0.1599106E-003  0.5049377E+03  0.7546771E-02  0.9388829E-01
        -11   -1    0    0    0    0  0.00000000000E+00  0.00000000000E+00  0.50000000000E+03  0.50000000000E+03  0.00000000000E+00 0.  1.
         11   -1    0    0    0    0 -0.00000000000E+00 -0.00000000000E+00 -0.50000000000E+03  0.50000000000E+03  0.00000000000E+00 0. -1.
        -11    1    1    2    0    0 -0.18629004877E+02  0.66701675039E+00  0.46059659625E+03  0.46097365349E+03  0.00000000000E+00 0.  1.
         11    1    1    2    0    0  0.98321089965E+00 -0.70204693183E+01 -0.49501157553E+03  0.49506233304E+03  0.00000000000E+00 0. -1.
        -15    1    1    2    0    0  0.39317279772E+01  0.11325927935E+02  0.11284122647E+02  0.16559718639E+02  0.17770000000E+01 0.  1.
         15    1    1    2    0    0  0.13714066000E+02 -0.49724753673E+01  0.23130856627E+02  0.27404294825E+02  0.17770000000E+01 0. -1.
</event>
<event>
 6    1  0.1599106E-003  0.4818902E+03  0.7546771E-02  0.9441269E-01
        -11   -1    0    0    0    0  0.00000000000E+00  0.00000000000E+00  0.50000000000E+03  0.50000000000E+03  0.00000000000E+00 0.  1.
         11   -1    0    0    0    0 -0.00000000000E+00 -0.00000000000E+00 -0.50000000000E+03  0.50000000000E+03  0.00000000000E+00 0.  1.
        -11    1    1    2    0    0  0.13655873087E+02  0.57975432898E+01  0.47736786692E+03  0.47759834040E+03  0.00000000000E+00 0.  1.
         11    1    1    2    0    0  0.83422327048E+01 -0.22748939130E+01 -0.48640497313E+03  0.48648182482E+03  0.00000000000E+00 0.  1.
        -15    1    1    2    0    0 -0.27161515550E+02  0.15632541474E+01  0.77773560846E+01  0.28352013811E+02  0.17770000000E+01 0. -1.
         15    1    1    2    0    0  0.51634097575E+01 -0.50859035242E+01  0.12597501233E+01  0.75678209780E+01  0.17770000000E+01 0.  1.
</event>
<event>
 6    1  0.1599106E-003  0.5041425E+03  0.7546771E-02  0.9390588E-01
        -11   -1    0    0    0    0  0.00000000000E+00  0.00000000000E+00  0.50000000000E+03  0.50000000000E+03  0.00000000000E+00 0.  1.
         11   -1    0    0    0    0 -0.00000000000E+00 -0.00000000000E+00 -0.50000000000E+03  0.50000000000E+03  0.00000000000E+00 0.  1.
        -11    1    1    2    0    0 -0.29614900655E+01 -0.12173185211E+02  0.12904326604E+03  0.12964999565E+03  0.00000000000E+00 0.  1.
         11    1    1    2    0    0 -0.93489555125E+01  0.54744258506E+01 -0.49573915834E+03  0.49585752532E+03  0.00000000000E+00 0.  1.
        -15    1    1    2    0    0 -0.17389534467E+02 -0.26284925864E+02  0.14708605535E+03  0.15043523073E+03  0.17770000000E+01 0. -1.
         15    1    1    2    0    0  0.29699980045E+02  0.32983685224E+02  0.21960983695E+03  0.22405724831E+03  0.17770000000E+01 0.  1.
</event>
<event>
 6    1  0.1599106E-003  0.5478194E+03  0.7546771E-02  0.9298741E-01
        -11   -1    0    0    0    0  0.00000000000E+00  0.00000000000E+00  0.50000000000E+03  0.50000000000E+03  0.00000000000E+00 0.  1.
         11   -1    0    0    0    0 -0.00000000000E+00 -0.00000000000E+00 -0.50000000000E+03  0.50000000000E+03  0.00000000000E+00 0.  1.
        -11    1    1    2    0    0 -0.24959715464E+02 -0.45315980099E+02  0.44921129500E+03  0.45218061989E+03  0.00000000000E+00 0.  1.
         11    1    1    2    0    0 -0.10935774879E+02 -0.76487821389E+01 -0.19813721276E+03  0.19858612772E+03  0.00000000000E+00 0.  1.
        -15    1    1    2    0    0  0.32560282621E+02  0.32435837582E+02 -0.29607534948E+03  0.29962647724E+03  0.17770000000E+01 0.  1.
         15    1    1    2    0    0  0.33352077222E+01  0.20528924656E+02  0.45001267249E+02  0.49606775153E+02  0.17770000000E+01 0. -1.
</event>
<event>
 6    1  0.1599106E-003  0.5006524E+03  0.7546771E-02  0.9398351E-01
        -11   -1    0    0    0    0  0.00000000000E+00  0.00000000000E+00  0.50000000000E+03  0.50000000000E+03  0.00000000000E+00 0. -1.
         11   -1    0    0    0    0 -0.00000000000E+00 -0.00000000000E+00 -0.50000000000E+03  0.50000000000E+03  0.00000000000E+00 0.  1.
        -11    1    1    2    0    0 -0.13505998536E+01 -0.89881250673E+01  0.31751465277E+03  0.31764471542E+03  0.00000000000E+00 0. -1.
         11    1    1    2    0    0  0.68703207773E+01  0.15229385484E+02 -0.49906797986E+03  0.49934755833E+03  0.00000000000E+00 0.  1.
        -15    1    1    2    0    0 -0.11483750870E+02 -0.90131711091E+01  0.89264581174E+02  0.90467878104E+02  0.17770000000E+01 0. -1.
         15    1    1    2    0    0  0.59640299466E+01  0.27719106924E+01  0.92288745916E+02  0.92539848140E+02  0.17770000000E+01 0.  1.
</event>
<event>
 6    1  0.1599106E-003  0.5045836E+03  0.7546771E-02  0.9389611E-01
        -11   -1    0    0    0    0  0.00000000000E+00  0.00000000000E+00  0.50000000000E+03  0.50000000000E+03  0.00000000000E+00 0.  1.
         11   -1    0    0    0    0 -0.00000000000E+00 -0.00000000000E+00 -0.50000000000E+03  0.50000000000E+03  0.00000000000E+00 0.  1.
        -11    1    1    2    0    0 -0.53136560088E+01 -0.69094106550E+01  0.49533968381E+03  0.49541636756E+03  0.00000000000E+00 0.  1.
         11    1    1    2    0    0  0.24755778226E+01  0.65481862245E+01 -0.28317565871E+02  0.29170049113E+02  0.00000000000E+00 0.  1.
        -15    1    1    2    0    0 -0.16912556628E+02  0.15266236866E+02 -0.30122538928E+02  0.37810284847E+02  0.17770000000E+01 0. -1.
         15    1    1    2    0    0  0.19750634814E+02 -0.14905012435E+02 -0.43689957901E+03  0.43760329848E+03  0.17770000000E+01 0.  1.
</event>
<event>
 6    1  0.1599106E-003  0.5007151E+03  0.7546771E-02  0.9398211E-01
        -11   -1    0    0    0    0  0.00000000000E+00  0.00000000000E+00  0.50000000000E+03  0.50000000000E+03  0.00000000000E+00 0. -1.
         11   -1    0    0    0    0 -0.00000000000E+00 -0.00000000000E+00 -0.50000000000E+03  0.50000000000E+03  0.00000000000E+00 0. -1.
        -11    1    1    2    0    0  0.74219724508E+01 -0.10069224685E+02  0.49912817525E+03  0.49928489892E+03  0.00000000000E+00 0. -1.
         11    1    1    2    0    0 -0.25789475447E+01 -0.60496322441E+01 -0.30608045442E+03  0.30615109603E+03  0.00000000000E+00 0. -1.
        -15    1    1    2    0    0  0.62058629205E+01  0.56320763196E+01 -0.54363342331E+02  0.55034205151E+02  0.17770000000E+01 0. -1.
         15    1    1    2    0    0 -0.11048887827E+02  0.10486780610E+02 -0.13868437850E+03  0.13952979990E+03  0.17770000000E+01 0.  1.
</event>
<event>
 6    1  0.1599106E-003  0.5326856E+03  0.7546771E-02  0.9329504E-01
        -11   -1    0    0    0    0  0.00000000000E+00  0.00000000000E+00  0.50000000000E+03  0.50000000000E+03  0.00000000000E+00 0.  1.
         11   -1    0    0    0    0 -0.00000000000E+00 -0.00000000000E+00 -0.50000000000E+03  0.50000000000E+03  0.00000000000E+00 0. -1.
        -11    1    1    2    0    0 -0.12398862327E+02 -0.61265049248E+01  0.41834373862E+03  0.41857227511E+03  0.00000000000E+00 0.  1.
         11    1    1    2    0    0 -0.15578535297E+02 -0.13284715437E+02 -0.46686571758E+03  0.46731442593E+03  0.00000000000E+00 0. -1.
        -15    1    1    2    0    0  0.26698806649E+01  0.11312413861E+02  0.75379317615E+02  0.76290879031E+02  0.17770000000E+01 0.  1.
         15    1    1    2    0    0  0.25307516959E+02  0.80988065006E+01 -0.26857338647E+02  0.37822419933E+02  0.17770000000E+01 0. -1.
</event>
<event>
 6    1  0.1599106E-003  0.3920965E+03  0.7546771E-02  0.9680046E-01
        -11   -1    0    0    0    0  0.00000000000E+00  0.00000000000E+00  0.50000000000E+03  0.50000000000E+03  0.00000000000E+00 0.  1.
         11   -1    0    0    0    0 -0.00000000000E+00 -0.00000000000E+00 -0.50000000000E+03  0.50000000000E+03  0.00000000000E+00 0. -1.
        -11    1    1    2    0    0  0.14823206536E+02  0.11919898235E+02  0.12994717667E+03  0.13133194642E+03  0.00000000000E+00 0.  1.
         11    1    1    2    0    0  0.44043211645E+02  0.23819018139E+02 -0.43197219551E+03  0.43486449362E+03  0.00000000000E+00 0. -1.
        -15    1    1    2    0    0 -0.19743360855E+01 -0.16372835399E+02  0.35396367167E+03  0.35435209373E+03  0.17770000000E+01 0.  1.
         15    1    1    2    0    0 -0.56892082096E+02 -0.19366080975E+02 -0.51938652835E+02  0.79451466222E+02  0.17770000000E+01 0. -1.
</event>
<event>
 6    1  0.1599106E-003  0.5017609E+03  0.7546771E-02  0.9395878E-01
        -11   -1    0    0    0    0  0.00000000000E+00  0.00000000000E+00  0.50000000000E+03  0.50000000000E+03  0.00000000000E+00 0.  1.
         11   -1    0    0    0    0 -0.00000000000E+00 -0.00000000000E+00 -0.50000000000E+03  0.50000000000E+03  0.00000000000E+00 0.  1.
        -11    1    1    2    0    0  0.45981295715E+01  0.92023388130E+00  0.24692691307E+03  0.24697143565E+03  0.00000000000E+00 0.  1.
         11    1    1    2    0    0 -0.20866956672E+01 -0.64131321570E+01 -0.49819348019E+03  0.49823912558E+03  0.00000000000E+00 0.  1.
        -15    1    1    2    0    0  0.30660391373E+01 -0.16852964905E+02  0.14636212497E+03  0.14737181676E+03  0.17770000000E+01 0. -1.
         15    1    1    2    0    0 -0.55774730417E+01  0.22345863181E+02  0.10490444214E+03  0.10741762201E+03  0.17770000000E+01 0.  1.
</event>
<event>
 6    1  0.1599106E-003  0.5242371E+03  0.7546771E-02  0.9347153E-01
        -11   -1    0    0    0    0  0.00000000000E+00  0.00000000000E+00  0.50000000000E+03  0.50000000000E+03  0.00000000000E+00 0. -1.
         11   -1    0    0    0    0 -0.00000000000E+00 -0.00000000000E+00 -0.50000000000E+03  0.50000000000E+03  0.00000000000E+00 0.  1.
        -11    1    1    2    0    0 -0.14884455749E+02 -0.28220987493E+01  0.47552159164E+03  0.47576285625E+03  0.00000000000E+00 0. -1.
         11    1    1    2    0    0 -0.65856720858E+01  0.30368612085E+01 -0.44774309304E+03  0.44780182109E+03  0.00000000000E+00 0.  1.
        -15    1    1    2    0    0  0.14563575719E+02 -0.14185479533E+02 -0.47228115433E+02  0.51448791858E+02  0.17770000000E+01 0.  1.
         15    1    1    2    0    0  0.69065521160E+01  0.13970717074E+02  0.19449616833E+02  0.24986530804E+02  0.17770000000E+01 0. -1.
</event>
<event>
 6    1  0.1599106E-003  0.4954963E+03  0.7546771E-02  0.9409944E-01
        -11   -1    0    0    0    0  0.00000000000E+00  0.00000000000E+00  0.50000000000E+03  0.50000000000E+03  0.00000000000E+00 0. -1.
         11   -1    0    0    0    0 -0.00000000000E+00 -0.00000000000E+00 -0.50000000000E+03  0.50000000000E+03  0.00000000000E+00 0. -1.
        -11    1    1    2    0    0  0.43010008409E+01 -0.59267606382E+01  0.49504476023E+03  0.49509891913E+03  0.00000000000E+00 0. -1.
         11    1    1    2    0    0 -0.78177884713E+00  0.71461982924E+01 -0.49584899299E+03  0.49590110221E+03  0.00000000000E+00 0. -1.
        -15    1    1    2    0    0 -0.28147402343E+01 -0.17628875230E+01  0.38352028650E+01  0.53755971781E+01  0.17770000000E+01 0. -1.
         15    1    1    2    0    0 -0.70448175951E+00  0.54344986881E+00 -0.30309701067E+01  0.36243814778E+01  0.17770000000E+01 0.  1.
</event>
<event>
 6    1  0.1599106E-003  0.4953834E+03  0.7546771E-02  0.9410199E-01
        -11   -1    0    0    0    0  0.00000000000E+00  0.00000000000E+00  0.50000000000E+03  0.50000000000E+03  0.00000000000E+00 0. -1.
         11   -1    0    0    0    0 -0.00000000000E+00 -0.00000000000E+00 -0.50000000000E+03  0.50000000000E+03  0.00000000000E+00 0. -1.
        -11    1    1    2    0    0  0.11740183137E+02  0.89407520204E+01  0.49469131027E+03  0.49491136722E+03  0.00000000000E+00 0. -1.
         11    1    1    2    0    0 -0.12367505256E+02 -0.64443646336E+01 -0.49566313259E+03  0.49585928048E+03  0.00000000000E+00 0. -1.
        -15    1    1    2    0    0  0.13094847617E+01 -0.10604028639E+01  0.44105926082E+01  0.50448251437E+01  0.17770000000E+01 0. -1.
         15    1    1    2    0    0 -0.68216264228E+00 -0.14359845228E+01 -0.34387702891E+01  0.41845271563E+01  0.17770000000E+01 0.  1.
</event>
<event>
 6    1  0.1599106E-003  0.5004270E+03  0.7546771E-02  0.9398855E-01
        -11   -1    0    0    0    0  0.00000000000E+00  0.00000000000E+00  0.50000000000E+03  0.50000000000E+03  0.00000000000E+00 0. -1.
         11   -1    0    0    0    0 -0.00000000000E+00 -0.00000000000E+00 -0.50000000000E+03  0.50000000000E+03  0.00000000000E+00 0. -1.
        -11    1    1    2    0    0 -0.24263480291E+01  0.33771811383E+01  0.19609840683E+03  0.19614249331E+03  0.00000000000E+00 0. -1.
         11    1    1    2    0    0  0.46406897243E+00  0.73353335698E+01 -0.49951895210E+03  0.49957302368E+03  0.00000000000E+00 0. -1.
        -15    1    1    2    0    0  0.35647926036E+01  0.53435781663E+01  0.83379586400E+02  0.83645530252E+02  0.17770000000E+01 0. -1.
         15    1    1    2    0    0 -0.16025135469E+01 -0.16056092874E+02  0.22004095887E+03  0.22063895276E+03  0.17770000000E+01 0.  1.
</event>
<event>
 6    1  0.1599106E-003  0.4831003E+03  0.7546771E-02  0.9438439E-01
        -11   -1    0    0    0    0  0.00000000000E+00  0.00000000000E+00  0.50000000000E+03  0.50000000000E+03  0.00000000000E+00 0.  1.
         11   -1    0    0    0    0 -0.00000000000E+00 -0.00000000000E+00 -0.50000000000E+03  0.50000000000E+03  0.00000000000E+00 0. -1.
        -11    1    1    2    0    0 -0.11212455658E+02  0.30037895806E+02  0.49807534197E+03  0.49910624182E+03  0.00000000000E+00 0.  1.
         11    1    1    2    0    0  0.14968350168E+01 -0.13662196472E+01 -0.34818603749E+02  0.34877531998E+02  0.00000000000E+00 0. -1.
        -15    1    1    2    0    0 -0.16280159242E+01 -0.32386616586E+02 -0.21231262292E+03  0.21478210110E+03  0.17770000000E+01 0.  1.
         15    1    1    2    0    0  0.11343636565E+02  0.37149404269E+01 -0.25094411530E+03  0.25123412508E+03  0.17770000000E+01 0. -1.
</event>
<event>
 6    1  0.1599106E-003  0.5013321E+03  0.7546771E-02  0.9396834E-01
        -11   -1    0    0    0    0  0.00000000000E+00  0.00000000000E+00  0.50000000000E+03  0.50000000000E+03  0.00000000000E+00 0. -1.
         11   -1    0    0    0    0 -0.00000000000E+00 -0.00000000000E+00 -0.50000000000E+03  0.50000000000E+03  0.00000000000E+00 0. -1.
        -11    1    1    2    0    0  0.17757862690E+01  0.33223051456E+01  0.22132790159E+03  0.22135995832E+03  0.00000000000E+00 0. -1.
         11    1    1    2    0    0 -0.10984181746E+02  0.11185505418E+02 -0.49842142465E+03  0.49866790987E+03  0.00000000000E+00 0. -1.
        -15    1    1    2    0    0  0.13674126493E+02 -0.12023879363E+01  0.37694090850E+02  0.40155070490E+02  0.17770000000E+01 0.  1.
         15    1    1    2    0    0 -0.44657310159E+01 -0.13305422627E+02  0.23939943222E+03  0.23981706132E+03  0.17770000000E+01 0. -1.
</event>
<event>
 6    1  0.1599106E-003  0.5007135E+03  0.7546771E-02  0.9398215E-01
        -11   -1    0    0    0    0  0.00000000000E+00  0.00000000000E+00  0.50000000000E+03  0.50000000000E+03  0.00000000000E+00 0. -1.
         11   -1    0    0    0    0 -0.00000000000E+00 -0.00000000000E+00 -0.50000000000E+03  0.50000000000E+03  0.00000000000E+00 0. -1.
        -11    1    1    2    0    0  0.86240108699E+01 -0.84608232439E+01  0.49914036005E+03  0.49928654912E+03  0.00000000000E+00 0. -1.
         11    1    1    2    0    0 -0.41389403107E+01  0.35565536139E+01 -0.38895546957E+03  0.38899374958E+03  0.00000000000E+00 0. -1.
        -15    1    1    2    0    0 -0.74653516028E+01  0.61817797260E+01 -0.32842331781E+02  0.34288808100E+02  0.17770000000E+01 0. -1.
         15    1    1    2    0    0  0.29802810436E+01 -0.12775100960E+01 -0.77342558704E+02  0.77430893208E+02  0.17770000000E+01 0.  1.
</event>
<event>
 6    1  0.1599106E-003  0.5030974E+03  0.7546771E-02  0.9392906E-01
        -11   -1    0    0    0    0  0.00000000000E+00  0.00000000000E+00  0.50000000000E+03  0.50000000000E+03  0.00000000000E+00 0.  1.
         11   -1    0    0    0    0 -0.00000000000E+00 -0.00000000000E+00 -0.50000000000E+03  0.50000000000E+03  0.00000000000E+00 0.  1.
        -11    1    1    2    0    0 -0.11826330327E+02 -0.66018244235E+01  0.41244900064E+03  0.41267132721E+03  0.00000000000E+00 0.  1.
         11    1    1    2    0    0 -0.28124894998E+01 -0.11148065169E+02 -0.49676954249E+03  0.49690257375E+03  0.00000000000E+00 0.  1.
        -15    1    1    2    0    0  0.74271196398E+01  0.14736758132E+02  0.21828712880E+02  0.27422337270E+02  0.17770000000E+01 0.  1.
         15    1    1    2    0    0  0.72117001873E+01  0.30131314608E+01  0.62491828967E+02  0.63003761772E+02  0.17770000000E+01 0. -1.
</event>
<event>
 6    1  0.1599106E-003  0.4603576E+03  0.7546771E-02  0.9493161E-01
        -11   -1    0    0    0    0  0.00000000000E+00  0.00000000000E+00  0.50000000000E+03  0.50000000000E+03  0.00000000000E+00 0. -1.
         11   -1    0    0    0    0 -0.00000000000E+00 -0.00000000000E+00 -0.50000000000E+03  0.50000000000E+03  0.00000000000E+00 0. -1.
        -11    1    1    2    0    0  0.11810846011E+02 -0.59599274454E+00  0.46590076775E+03  0.46605083058E+03  0.00000000000E+00 0. -1.
         11    1    1    2    0    0 -0.18278822993E+02 -0.41736485863E+02 -0.45346028165E+03  0.45574365235E+03  0.00000000000E+00 0. -1.
        -15    1    1    2    0    0  0.25510720957E+02  0.25825377637E+02 -0.30257562482E+02  0.47290853558E+02  0.17770000000E+01 0.  1.
         15    1    1    2    0    0 -0.19042743975E+02  0.16507100970E+02  0.17817076381E+02  0.30914663516E+02  0.17770000000E+01 0. -1.
</event>
<event>
 6    1  0.1599106E-003  0.5003634E+03  0.7546771E-02  0.9398997E-01
        -11   -1    0    0    0    0  0.00000000000E+00  0.00000000000E+00  0.50000000000E+03  0.50000000000E+03  0.00000000000E+00 0. -1.
         11   -1    0    0    0    0 -0.00000000000E+00 -0.00000000000E+00 -0.50000000000E+03  0.50000000000E+03  0.00000000000E+00 0.  1.
        -11    1    1    2    0    0 -0.21069328896E+01 -0.77461280148E+01  0.49957208122E+03  0.49963657392E+03  0.00000000000E+00 0. -1.
         11    1    1    2    0    0  0.30724928398E+01  0.22488106996E+01 -0.99977516117E+02  0.10004999296E+03  0.00000000000E+00 0.  1.
        -15    1    1    2    0    0 -0.22482343953E+01  0.52681320325E+01 -0.39632661443E+03  0.39637198540E+03  0.17770000000E+01 0.  1.
         15    1    1    2    0    0  0.12826744450E+01  0.22918528274E+00 -0.32679506654E+01  0.39414477260E+01  0.17770000000E+01 0. -1.
</event>
<event>
 6    1  0.1599106E-003  0.5014006E+03  0.7546771E-02  0.9396681E-01
        -11   -1    0    0    0    0  0.00000000000E+00  0.00000000000E+00  0.50000000000E+03  0.50000000000E+03  0.00000000000E+00 0. -1.
         11   -1    0    0    0    0 -0.00000000000E+00 -0.00000000000E+00 -0.50000000000E+03  0.50000000000E+03  0.00000000000E+00 0.  1.
        -11    1    1    2    0    0  0.12853220834E+02  0.82941478033E+01  0.49836470308E+03  0.49859941381E+03  0.00000000000E+00 0. -1.
         11    1    1    2    0    0  0.11771491891E+01 -0.63422529598E+01 -0.37727491198E+03  0.37733005322E+03  0.00000000000E+00 0.  1.
        -15    1    1    2    0    0  0.51781189547E+01 -0.36663489041E+01 -0.17788646767E+02  0.18969678780E+02  0.17770000000E+01 0. -1.
         15    1    1    2    0    0 -0.19208488977E+02  0.17144540606E+01 -0.10330114433E+03  0.10510085419E+03  0.17770000000E+01 0.  1.
</event>
<event>
 6    1  0.1599106E-003  0.5006427E+03  0.7546771E-02  0.9398373E-01
        -11   -1    0    0    0    0  0.00000000000E+00  0.00000000000E+00  0.50000000000E+03  0.50000000000E+03  0.00000000000E+00 0.  1.
         11   -1    0    0    0    0 -0.00000000000E+00 -0.00000000000E+00 -0.50000000000E+03  0.50000000000E+03  0.00000000000E+00 0.  1.
        -11    1    1    2    0    0 -0.19158564888E+01  0.18376116255E+01  0.17565861169E+03  0.17567867025E+03  0.00000000000E+00 0.  1.
         11    1    1    2    0    0  0.64786090637E+01 -0.14076176933E+02 -0.49911678001E+03  0.49935725810E+03  0.00000000000E+00 0.  1.
        -15    1    1    2    0    0 -0.73603574827E+01  0.74648841555E+01  0.31137039758E+03  0.31155189227E+03  0.17770000000E+01 0.  1.
         15    1    1    2    0    0  0.27976049078E+01  0.47736811525E+01  0.12087770747E+02  0.13412179375E+02  0.17770000000E+01 0.  1.
</event>
<event>
 6    1  0.1599106E-003  0.5102225E+03  0.7546771E-02  0.9377222E-01
        -11   -1    0    0    0    0  0.00000000000E+00  0.00000000000E+00  0.50000000000E+03  0.50000000000E+03  0.00000000000E+00 0.  1.
         11   -1    0    0    0    0 -0.00000000000E+00 -0.00000000000E+00 -0.50000000000E+03  0.50000000000E+03  0.00000000000E+00 0.  1.
        -11    1    1    2    0    0 -0.68716582974E+01 -0.18695522095E+01  0.48972575495E+03  0.48977753110E+03  0.00000000000E+00 0.  1.
         11    1    1    2    0    0  0.10125927413E+02 -0.70810096249E+01 -0.47518330305E+03  0.47534392454E+03  0.00000000000E+00 0.  1.
        -15    1    1    2    0    0 -0.30013519754E+01 -0.54749003255E+01  0.65761538340E+01  0.92404640307E+01  0.17770000000E+01 0. -1.
         15    1    1    2    0    0 -0.25291714071E+00  0.14425462160E+02 -0.21118605735E+02  0.25638080326E+02  0.17770000000E+01 0.  1.
</event>
<event>
 6    1  0.1599106E-003  0.5034904E+03  0.7546771E-02  0.9392033E-01
        -11   -1    0    0    0    0  0.00000000000E+00  0.00000000000E+00  0.50000000000E+03  0.50000000000E+03  0.00000000000E+00 0.  1.
         11   -1    0    0    0    0 -0.00000000000E+00 -0.00000000000E+00 -0.50000000000E+03  0.50000000000E+03  0.00000000000E+00 0.  1.
        -11    1    1    2    0    0 -0.59143515962E+01  0.60545723354E+01  0.49643747751E+03  0.49650962375E+03  0.00000000000E+00 0.  1.
         11    1    1    2    0    0  0.97553015508E+01 -0.19105461284E+01 -0.34657336647E+03  0.34671589875E+03  0.00000000000E+00 0.  1.
        -15    1    1    2    0    0 -0.83427349838E+01  0.26999423466E+01 -0.14789314831E+03  0.14816353115E+03  0.17770000000E+01 0.  1.
         15    1    1    2    0    0  0.45017850291E+01 -0.68439685536E+01 -0.19709627275E+01  0.86109463524E+01  0.17770000000E+01 0. -1.
</event>
<event>
 6    1  0.1599106E-003  0.5053735E+03  0.7546771E-02  0.9387866E-01
        -11   -1    0    0    0    0  0.00000000000E+00  0.00000000000E+00  0.50000000000E+03  0.50000000000E+03  0.00000000000E+00 0. -1.
         11   -1    0    0    0    0 -0.00000000000E+00 -0.00000000000E+00 -0.50000000000E+03  0.50000000000E+03  0.00000000000E+00 0. -1.
        -11    1    1    2    0    0 -0.71621710192E+01 -0.81201256256E+01  0.46995693142E+03  0.47008164240E+03  0.00000000000E+00 0. -1.
         11    1    1    2    0    0 -0.93926882172E+01  0.10910030942E+01 -0.49453609017E+03  0.49462648267E+03  0.00000000000E+00 0. -1.
        -15    1    1    2    0    0  0.18241625012E+02  0.27017432522E+01  0.12833582176E+02  0.22536966525E+02  0.17770000000E+01 0. -1.
         15    1    1    2    0    0 -0.16867657757E+01  0.43273792792E+01  0.11745576579E+02  0.12754908404E+02  0.17770000000E+01 0.  1.
</event>
<event>
 6    1  0.1599106E-003  0.5002723E+03  0.7546771E-02  0.9399201E-01
        -11   -1    0    0    0    0  0.00000000000E+00  0.00000000000E+00  0.50000000000E+03  0.50000000000E+03  0.00000000000E+00 0.  1.
         11   -1    0    0    0    0 -0.00000000000E+00 -0.00000000000E+00 -0.50000000000E+03  0.50000000000E+03  0.00000000000E+00 0.  1.
        -11    1    1    2    0    0  0.44437539093E+01  0.21897232277E+01  0.36148726432E+03  0.36152120837E+03  0.00000000000E+00 0.  1.
         11    1    1    2    0    0 -0.10163356969E+02  0.19505852686E+01 -0.49962048528E+03  0.49972765374E+03  0.00000000000E+00 0.  1.
        -15    1    1    2    0    0  0.44905236920E+01  0.19746350967E+01  0.93917854635E+02  0.94062666000E+02  0.17770000000E+01 0. -1.
         15    1    1    2    0    0  0.12290793673E+01 -0.61149435929E+01  0.44215366324E+02  0.44688471884E+02  0.17770000000E+01 0.  1.
</event>
<event>
 6    1  0.1599106E-003  0.5175984E+03  0.7546771E-02  0.9361271E-01
        -11   -1    0    0    0    0  0.00000000000E+00  0.00000000000E+00  0.50000000000E+03  0.50000000000E+03  0.00000000000E+00 0. -1.
         11   -1    0    0    0    0 -0.00000000000E+00 -0.00000000000E+00 -0.50000000000E+03  0.50000000000E+03  0.00000000000E+00 0. -1.
        -11    1    1    2    0    0 -0.16482180178E+02  0.75499626553E+01  0.48206083779E+03  0.48240161228E+03  0.00000000000E+00 0. -1.
         11    1    1    2    0    0 -0.61417113468E+01  0.61937602579E+01 -0.35037883269E+03  0.35048738876E+03  0.00000000000E+00 0. -1.
        -15    1    1    2    0    0  0.11066891808E+02 -0.48281820198E+02 -0.11830908391E+03  0.12827239501E+03  0.17770000000E+01 0.  1.
         15    1    1    2    0    0  0.11556999717E+02  0.34538097285E+02 -0.13372921197E+02  0.38838603951E+02  0.17770000000E+01 0. -1.
</event>
<event>
 6    1  0.1599106E-003  0.5290208E+03  0.7546771E-02  0.9337117E-01
        -11   -1    0    0    0    0  0.00000000000E+00  0.00000000000E+00  0.50000000000E+03  0.50000000000E+03  0.00000000000E+00 0.  1.
         11   -1    0    0    0    0 -0.00000000000E+00 -0.00000000000E+00 -0.50000000000E+03  0.50000000000E+03  0.00000000000E+00 0. -1.
        -11    1    1    2    0    0 -0.27058845988E+01 -0.74657696844E+01  0.47091224781E+03  0.47097919770E+03  0.00000000000E+00 0.  1.
         11    1    1    2    0    0  0.63711698515E+01 -0.22711385321E+01 -0.39983092474E+03  0.39988813217E+03  0.00000000000E+00 0. -1.
        -15    1    1    2    0    0  0.34839608862E+01  0.11319360698E+02  0.27640653467E+02  0.30123568234E+02  0.17770000000E+01 0. -1.
         15    1    1    2    0    0 -0.71492461389E+01 -0.15824524819E+01 -0.98721976542E+02  0.99009101892E+02  0.17770000000E+01 0.  1.
</event>
<event>
 6    1  0.1599106E-003  0.5005492E+03  0.7546771E-02  0.9398582E-01
        -11   -1    0    0    0    0  0.00000000000E+00  0.00000000000E+00  0.50000000000E+03  0.50000000000E+03  0.00000000000E+00 0.  1.
         11   -1    0    0    0    0 -0.00000000000E+00 -0.00000000000E+00 -0.50000000000E+03  0.50000000000E+03  0.00000000000E+00 0. -1.
        -11    1    1    2    0    0  0.28612319727E+00 -0.39431027706E+01  0.18970610397E+03  0.18974729461E+03  0.00000000000E+00 0.  1.
         11    1    1    2    0    0  0.68260804935E+01  0.71041175493E+00 -0.49940364833E+03  0.49945080241E+03  0.00000000000E+00 0. -1.
        -15    1    1    2    0    0 -0.18063541879E+01  0.38272252116E+01  0.29541802369E+03  0.29545367999E+03  0.17770000000E+01 0.  1.
         15    1    1    2    0    0 -0.53058495028E+01 -0.59453419593E+00  0.14279520663E+02  0.15348222999E+02  0.17770000000E+01 0. -1.
</event>
<event>
 6    1  0.1599106E-003  0.5011521E+03  0.7546771E-02  0.9397236E-01
        -11   -1    0    0    0    0  0.00000000000E+00  0.00000000000E+00  0.50000000000E+03  0.50000000000E+03  0.00000000000E+00 0. -1.
         11   -1    0    0    0    0 -0.00000000000E+00 -0.00000000000E+00 -0.50000000000E+03  0.50000000000E+03  0.00000000000E+00 0.  1.
        -11    1    1    2    0    0  0.99185627238E+00 -0.80633058241E+01  0.49878176635E+03  0.49884792384E+03  0.00000000000E+00 0. -1.
         11    1    1    2    0    0 -0.39424176696E+01  0.45427484526E+01 -0.40051582969E+03  0.40056099293E+03  0.00000000000E+00 0.  1.
        -15    1    1    2    0    0  0.47914826170E+01  0.90096916278E+01 -0.88469553800E+02  0.89073859956E+02  0.17770000000E+01 0.  1.
         15    1    1    2    0    0 -0.18409212198E+01 -0.54891342564E+01 -0.97963828594E+01  0.11517223274E+02  0.17770000000E+01 0.  1.
</event>
<event>
 6    1  0.1599106E-003  0.5052353E+03  0.7546771E-02  0.9388171E-01
        -11   -1    0    0    0    0  0.00000000000E+00  0.00000000000E+00  0.50000000000E+03  0.50000000000E+03  0.00000000000E+00 0. -1.
         11   -1    0    0    0    0 -0.00000000000E+00 -0.00000000000E+00 -0.50000000000E+03  0.50000000000E+03  0.00000000000E+00 0. -1.
        -11    1    1    2    0    0 -0.73804768501E+01 -0.17588348017E+02  0.49439687116E+03  0.49476467905E+03  0.00000000000E+00 0. -1.
         11    1    1    2    0    0 -0.26149089859E+02  0.24569228811E+01 -0.27102850006E+03  0.27229810726E+03  0.00000000000E+00 0. -1.
        -15    1    1    2    0    0  0.84461940735E+01 -0.36707122642E+01 -0.23091786907E+01  0.96593145761E+01  0.17770000000E+01 0.  1.
         15    1    1    2    0    0  0.25083372636E+02  0.18802137400E+02 -0.22105919241E+03  0.22327789911E+03  0.17770000000E+01 0. -1.
</event>
<event>
 6    1  0.1599106E-003  0.5304294E+03  0.7546771E-02  0.9334183E-01
        -11   -1    0    0    0    0  0.00000000000E+00  0.00000000000E+00  0.50000000000E+03  0.50000000000E+03  0.00000000000E+00 0. -1.
         11   -1    0    0    0    0 -0.00000000000E+00 -0.00000000000E+00 -0.50000000000E+03  0.50000000000E+03  0.00000000000E+00 0. -1.
        -11    1    1    2    0    0  0.81944328101E+00  0.43619245090E+01  0.22976945727E+03  0.22981231770E+03  0.00000000000E+00 0. -1.
         11    1    1    2    0    0  0.43056096227E+02  0.35637673349E+01 -0.46757891811E+03  0.46957062570E+03  0.00000000000E+00 0. -1.
        -15    1    1    2    0    0 -0.47855499049E+02 -0.20565380812E+01 -0.13029202872E+02  0.49671883340E+02  0.17770000000E+01 0.  1.
         15    1    1    2    0    0  0.39799595409E+01 -0.58691537627E+01  0.25083866371E+03  0.25094517326E+03  0.17770000000E+01 0. -1.
</event>
<event>
 6    1  0.1599106E-003  0.5077630E+03  0.7546771E-02  0.9382605E-01
        -11   -1    0    0    0    0  0.00000000000E+00  0.00000000000E+00  0.50000000000E+03  0.50000000000E+03  0.00000000000E+00 0. -1.
         11   -1    0    0    0    0 -0.00000000000E+00 -0.00000000000E+00 -0.50000000000E+03  0.50000000000E+03  0.00000000000E+00 0.  1.
        -11    1    1    2    0    0  0.24562836831E+02 -0.23359294244E+02  0.29439429563E+03  0.29633931713E+03  0.00000000000E+00 0. -1.
         11    1    1    2    0    0 -0.41053754666E+02  0.31702200582E+01 -0.49051176436E+03  0.49223698769E+03  0.00000000000E+00 0.  1.
        -15    1    1    2    0    0 -0.24042282320E+02  0.16183360437E+02  0.13408727064E+03  0.13719506686E+03  0.17770000000E+01 0.  1.
         15    1    1    2    0    0  0.40533200155E+02  0.40057137493E+01  0.62030198097E+02  0.74228628321E+02  0.17770000000E+01 0. -1.
</event>
<event>
 6    1  0.3396444E-003  0.5324189E+03  0.7546771E-02  0.9330056E-01
        -11   -1    0    0    0    0  0.00000000000E+00  0.00000000000E+00  0.50000000000E+03  0.50000000000E+03  0.00000000000E+00 0. -1.
         11   -1    0    0    0    0 -0.00000000000E+00 -0.00000000000E+00 -0.50000000000E+03  0.50000000000E+03  0.00000000000E+00 0.  1.
        -11    1    1    2    0    0 -0.78640186871E+01 -0.73673979133E+01  0.45233052714E+03  0.45245886788E+03  0.00000000000E+00 0. -1.
         11    1    1    2    0    0  0.78864184227E+01  0.80573394044E+00 -0.46751386918E+03  0.46758107604E+03  0.00000000000E+00 0.  1.
        -15    1    1    2    0    0 -0.54750765964E+01 -0.65650359859E+00 -0.31676500854E+02  0.32201954848E+02  0.17770000000E+01 0. -1.
         15    1    1    2    0    0  0.54526768607E+01  0.72181675714E+01  0.46859842891E+02  0.47758101227E+02  0.17770000000E+01 0.  1.
</event>
<event>
 6    1  0.1599106E-003  0.5113659E+03  0.7546771E-02  0.9374731E-01
        -11   -1    0    0    0    0  0.00000000000E+00  0.00000000000E+00  0.50000000000E+03  0.50000000000E+03  0.00000000000E+00 0. -1.
         11   -1    0    0    0    0 -0.00000000000E+00 -0.00000000000E+00 -0.50000000000E+03  0.50000000000E+03  0.00000000000E+00 0.  1.
        -11    1    1    2    0    0  0.40485206552E+00  0.12480566283E+02  0.46157749428E+03  0.46174637158E+03  0.00000000000E+00 0. -1.
         11    1    1    2    0    0  0.23120232497E+00 -0.77997420597E+01 -0.48857175417E+03  0.48863406390E+03  0.00000000000E+00 0.  1.
        -15    1    1    2    0    0  0.24739054586E+01 -0.18755367668E+01 -0.10890332535E+02  0.11462762237E+02  0.17770000000E+01 0.  1.
         15    1    1    2    0    0 -0.31099598491E+01 -0.28052874561E+01  0.37884592424E+02  0.38156802278E+02  0.17770000000E+01 0. -1.
</event>
<event>
 6    1  0.1599106E-003  0.4813259E+03  0.7546771E-02  0.9442592E-01
        -11   -1    0    0    0    0  0.00000000000E+00  0.00000000000E+00  0.50000000000E+03  0.50000000000E+03  0.00000000000E+00 0. -1.
         11   -1    0    0    0    0 -0.00000000000E+00 -0.00000000000E+00 -0.50000000000E+03  0.50000000000E+03  0.00000000000E+00 0.  1.
        -11    1    1    2    0    0 -0.74039832417E+01  0.49901498758E+01  0.47913826640E+03  0.47922145078E+03  0.00000000000E+00 0. -1.
         11    1    1    2    0    0 -0.14481440684E+02  0.10897273735E+02 -0.48348030842E+03  0.48381987488E+03  0.00000000000E+00 0.  1.
        -15    1    1    2    0    0  0.23327140462E+02 -0.20747733849E+02  0.29445775314E+01  0.31407836727E+02  0.17770000000E+01 0. -1.
         15    1    1    2    0    0 -0.14417165367E+01  0.48603102384E+01  0.13974644924E+01  0.55508376118E+01  0.17770000000E+01 0.  1.
</event>
<event>
 6    1  0.1599106E-003  0.5143804E+03  0.7546771E-02  0.9368195E-01
        -11   -1    0    0    0    0  0.00000000000E+00  0.00000000000E+00  0.50000000000E+03  0.50000000000E+03  0.00000000000E+00 0. -1.
         11   -1    0    0    0    0 -0.00000000000E+00 -0.00000000000E+00 -0.50000000000E+03  0.50000000000E+03  0.00000000000E+00 0.  1.
        -11    1    1    2    0    0 -0.26118290366E+02  0.38227047782E+02  0.40695790228E+03  0.40958296656E+03  0.00000000000E+00 0. -1.
         11    1    1    2    0    0 -0.68867570052E+01  0.80948506033E+01 -0.48550329530E+03  0.48561960810E+03  0.00000000000E+00 0.  1.
        -15    1    1    2    0    0  0.47606985222E+01  0.65620158258E+01  0.42878486994E+01  0.93417170577E+01  0.17770000000E+01 0. -1.
         15    1    1    2    0    0  0.28244348849E+02 -0.52883914211E+02  0.74257544323E+02  0.95455708274E+02  0.17770000000E+01 0.  1.
</event>
<event>
 6    1  0.1599106E-003  0.4774545E+03  0.7546771E-02  0.9451720E-01
        -11   -1    0    0    0    0  0.00000000000E+00  0.00000000000E+00  0.50000000000E+03  0.50000000000E+03  0.00000000000E+00 0. -1.
         11   -1    0    0    0    0 -0.00000000000E+00 -0.00000000000E+00 -0.50000000000E+03  0.50000000000E+03  0.00000000000E+00 0. -1.
        -11    1    1    2    0    0  0.11251260422E+02  0.75882245118E+01  0.47132603550E+03  0.47152137147E+03  0.00000000000E+00 0. -1.
         11    1    1    2    0    0  0.16311700688E+02  0.15044727518E+01 -0.48363060527E+03  0.48390794308E+03  0.00000000000E+00 0. -1.
        -15    1    1    2    0    0 -0.12844281014E+02 -0.71989369854E+01 -0.98804112732E+01  0.17820788547E+02  0.17770000000E+01 0.  1.
         15    1    1    2    0    0 -0.14718680095E+02 -0.18937602782E+01  0.22184981041E+02  0.26749896907E+02  0.17770000000E+01 0. -1.
</event>
<event>
 6    1  0.1599106E-003  0.5545424E+03  0.7546771E-02  0.9285411E-01
        -11   -1    0    0    0    0  0.00000000000E+00  0.00000000000E+00  0.50000000000E+03  0.50000000000E+03  0.00000000000E+00 0. -1.
         11   -1    0    0    0    0 -0.00000000000E+00 -0.00000000000E+00 -0.50000000000E+03  0.50000000000E+03  0.00000000000E+00 0. -1.
        -11    1    1    2    0    0  0.99798238555E+01 -0.44577812946E+00  0.44534552284E+03  0.44545755164E+03  0.00000000000E+00 0. -1.
         11    1    1    2    0    0  0.10955555473E+02 -0.38499785921E+02 -0.34738789827E+03  0.34968644466E+03  0.00000000000E+00 0. -1.
        -15    1    1    2    0    0 -0.83599393869E+02  0.26483437619E+02 -0.10908921182E+03  0.13997801608E+03  0.17770000000E+01 0. -1.
         15    1    1    2    0    0  0.62664014540E+02  0.12462126432E+02  0.11131587254E+02  0.64877987617E+02  0.17770000000E+01 0.  1.
</event>
<event>
 6    1  0.1599106E-003  0.5003126E+03  0.7546771E-02  0.9399110E-01
        -11   -1    0    0    0    0  0.00000000000E+00  0.00000000000E+00  0.50000000000E+03  0.50000000000E+03  0.00000000000E+00 0. -1.
         11   -1    0    0    0    0 -0.00000000000E+00 -0.00000000000E+00 -0.50000000000E+03  0.50000000000E+03  0.00000000000E+00 0. -1.
        -11    1    1    2    0    0 -0.43859414496E+01 -0.15357840634E+01  0.16371019131E+03  0.16377613334E+03  0.00000000000E+00 0. -1.
         11    1    1    2    0    0 -0.45646322730E+01  0.80088482244E+01 -0.49960234255E+03  0.49968738046E+03  0.00000000000E+00 0. -1.
        -15    1    1    2    0    0 -0.32457470429E+01 -0.57787044646E+01  0.64556244993E+02  0.64919910627E+02  0.17770000000E+01 0.  1.
         15    1    1    2    0    0  0.12196320766E+02 -0.69435969638E+00  0.27133590625E+03  0.27161657557E+03  0.17770000000E+01 0. -1.
</event>
<event>
 6    1  0.1599106E-003  0.4853830E+03  0.7546771E-02  0.9433124E-01
        -11   -1    0    0    0    0  0.00000000000E+00  0.00000000000E+00  0.50000000000E+03  0.50000000000E+03  0.00000000000E+00 0.  1.
         11   -1    0    0    0    0 -0.00000000000E+00 -0.00000000000E+00 -0.50000000000E+03  0.50000000000E+03  0.00000000000E+00 0.  1.
        -11    1    1    2    0    0  0.38228563919E+01  0.11655957615E+02  0.48675037620E+03  0.48690492328E+03  0.00000000000E+00 0.  1.
         11    1    1    2    0    0 -0.16300131764E+02  0.50047181682E+01 -0.48378831629E+03  0.48408870724E+03  0.00000000000E+00 0.  1.
        -15    1    1    2    0    0  0.97904217684E+01  0.73699028943E+00 -0.50629693324E+01  0.11188695212E+02  0.17770000000E+01 0. -1.
         15    1    1    2    0    0  0.26868536037E+01 -0.17397666073E+02  0.21009094152E+01  0.17817674271E+02  0.17770000000E+01 0.  1.
</event>
<event>
 6    1  0.1599106E-003  0.5425481E+03  0.7546771E-02  0.9309335E-01
        -11   -1    0    0    0    0  0.00000000000E+00  0.00000000000E+00  0.50000000000E+03  0.50000000000E+03  0.00000000000E+00 0. -1.
         11   -1    0    0    0    0 -0.00000000000E+00 -0.00000000000E+00 -0.50000000000E+03  0.50000000000E+03  0.00000000000E+00 0. -1.
        -11    1    1    2    0    0 -0.54621355847E+01  0.53546776630E+01  0.42307715121E+03  0.42314629075E+03  0.00000000000E+00 0. -1.
         11    1    1    2    0    0 -0.88470100287E+01  0.82268699576E+01 -0.45729235623E+03  0.45745191009E+03  0.00000000000E+00 0. -1.
        -15    1    1    2    0    0  0.10114545598E+02 -0.19807947071E+01  0.75528673115E+02  0.76249365714E+02  0.17770000000E+01 0. -1.
         15    1    1    2    0    0  0.41946000149E+01 -0.11600752914E+02 -0.41313468095E+02  0.43152433448E+02  0.17770000000E+01 0.  1.
</event>
<event>
 6    1  0.1599106E-003  0.5158717E+03  0.7546771E-02  0.9364980E-01
        -11   -1    0    0    0    0  0.00000000000E+00  0.00000000000E+00  0.50000000000E+03  0.50000000000E+03  0.00000000000E+00 0. -1.
         11   -1    0    0    0    0 -0.00000000000E+00 -0.00000000000E+00 -0.50000000000E+03  0.50000000000E+03  0.00000000000E+00 0. -1.
        -11    1    1    2    0    0  0.25232023370E+01 -0.63554657642E+01  0.46507377321E+03  0.46512404047E+03  0.00000000000E+00 0. -1.
         11    1    1    2    0    0  0.81900022816E+01 -0.32495424036E+01 -0.48404811238E+03  0.48412829989E+03  0.00000000000E+00 0. -1.
        -15    1    1    2    0    0 -0.38309783286E+00  0.20428055828E+01  0.32164480952E+02  0.32280510878E+02  0.17770000000E+01 0. -1.
         15    1    1    2    0    0 -0.10330106786E+02  0.75622025850E+01 -0.13190141782E+02  0.18467148762E+02  0.17770000000E+01 0.  1.
</event>
<event>
 6    1  0.1599106E-003  0.5009911E+03  0.7546771E-02  0.9397595E-01
        -11   -1    0    0    0    0  0.00000000000E+00  0.00000000000E+00  0.50000000000E+03  0.50000000000E+03  0.00000000000E+00 0.  1.
         11   -1    0    0    0    0 -0.00000000000E+00 -0.00000000000E+00 -0.50000000000E+03  0.50000000000E+03  0.00000000000E+00 0.  1.
        -11    1    1    2    0    0  0.43012687885E+01  0.47255772712E+01  0.44233595653E+03  0.44238210907E+03  0.00000000000E+00 0.  1.
         11    1    1    2    0    0  0.62344085425E+01  0.27051043449E+01 -0.49896257079E+03  0.49900885011E+03  0.00000000000E+00 0.  1.
        -15    1    1    2    0    0 -0.52529394029E+01 -0.44791323080E+01  0.43085712380E+02  0.43671413291E+02  0.17770000000E+01 0. -1.
         15    1    1    2    0    0 -0.52827379280E+01 -0.29515493081E+01  0.13540901882E+02  0.14937627526E+02  0.17770000000E+01 0.  1.
</event>
<event>
 6    1  0.1599106E-003  0.5654920E+03  0.7546771E-02  0.9264124E-01
        -11   -1    0    0    0    0  0.00000000000E+00  0.00000000000E+00  0.50000000000E+03  0.50000000000E+03  0.00000000000E+00 0.  1.
         11   -1    0    0    0    0 -0.00000000000E+00 -0.00000000000E+00 -0.50000000000E+03  0.50000000000E+03  0.00000000000E+00 0. -1.
        -11    1    1    2    0    0  0.15376523355E+02  0.75981264240E+01  0.43416940470E+03  0.43450804478E+03  0.00000000000E+00 0.  1.
         11    1    1    2    0    0 -0.27484749074E+01 -0.44783872132E+01 -0.31527222701E+03  0.31531601163E+03  0.00000000000E+00 0. -1.
        -15    1    1    2    0    0  0.89672349551E+01 -0.22745616804E+02 -0.18041076243E+03  0.18206860058E+03  0.17770000000E+01 0.  1.
         15    1    1    2    0    0 -0.21595283403E+02  0.19625877593E+02  0.61513584736E+02  0.68107343016E+02  0.17770000000E+01 0. -1.
</event>
<event>
 6    1  0.1599106E-003  0.5177608E+03  0.7546771E-02  0.9360923E-01
        -11   -1    0    0    0    0  0.00000000000E+00  0.00000000000E+00  0.50000000000E+03  0.50000000000E+03  0.00000000000E+00 0. -1.
         11   -1    0    0    0    0 -0.00000000000E+00 -0.00000000000E+00 -0.50000000000E+03  0.50000000000E+03  0.00000000000E+00 0. -1.
        -11    1    1    2    0    0  0.19414746822E+02  0.72056393645E+01  0.48179434700E+03  0.48223920044E+03  0.00000000000E+00 0. -1.
         11    1    1    2    0    0 -0.83770873483E+01  0.17479807858E+01 -0.44830701436E+03  0.44838868201E+03  0.00000000000E+00 0. -1.
        -15    1    1    2    0    0 -0.62363036805E+01 -0.18241613735E+02 -0.47792258605E+02  0.51564577637E+02  0.17770000000E+01 0.  1.
         15    1    1    2    0    0 -0.48013557933E+01  0.92879935844E+01  0.14304925959E+02  0.17807539919E+02  0.17770000000E+01 0. -1.
</event>
<event>
 6    1  0.1599106E-003  0.5055319E+03  0.7546771E-02  0.9387516E-01
        -11   -1    0    0    0    0  0.00000000000E+00  0.00000000000E+00  0.50000000000E+03  0.50000000000E+03  0.00000000000E+00 0. -1.
         11   -1    0    0    0    0 -0.00000000000E+00 -0.00000000000E+00 -0.50000000000E+03  0.50000000000E+03  0.00000000000E+00 0. -1.
        -11    1    1    2    0    0  0.64809847047E+01  0.30698724358E+01  0.49441611403E+03  0.49446811939E+03  0.00000000000E+00 0. -1.
         11    1    1    2    0    0 -0.97284161377E+01  0.31612841358E+01 -0.43605898257E+03  0.43617894502E+03  0.00000000000E+00 0. -1.
        -15    1    1    2    0    0  0.34611845696E+01 -0.24060516990E+01 -0.62948617980E+02  0.63114618893E+02  0.17770000000E+01 0.  1.
         15    1    1    2    0    0 -0.21375313664E+00 -0.38251048727E+01  0.45914865237E+01  0.62383166951E+01  0.17770000000E+01 0. -1.
</event>
<event>
 6    1  0.1599106E-003  0.5005198E+03  0.7546771E-02  0.9398647E-01
        -11   -1    0    0    0    0  0.00000000000E+00  0.00000000000E+00  0.50000000000E+03  0.50000000000E+03  0.00000000000E+00 0. -1.
         11   -1    0    0    0    0 -0.00000000000E+00 -0.00000000000E+00 -0.50000000000E+03  0.50000000000E+03  0.00000000000E+00 0. -1.
        -11    1    1    2    0    0  0.14923974590E+00 -0.29471259766E+01  0.16445036271E+03  0.16447683612E+03  0.00000000000E+00 0. -1.
         11    1    1    2    0    0 -0.13792797800E+02 -0.28634094516E+01 -0.49928154505E+03  0.49948023145E+03  0.00000000000E+00 0. -1.
        -15    1    1    2    0    0  0.16608973485E+02  0.37783194105E+01  0.32463627948E+03  0.32508768876E+03  0.17770000000E+01 0. -1.
         15    1    1    2    0    0 -0.29654154318E+01  0.20322160177E+01  0.10194902852E+02  0.10955243667E+02  0.17770000000E+01 0.  1.
</event>
<event>
 6    1  0.1599106E-003  0.5001435E+03  0.7546771E-02  0.9399489E-01
        -11   -1    0    0    0    0  0.00000000000E+00  0.00000000000E+00  0.50000000000E+03  0.50000000000E+03  0.00000000000E+00 0. -1.
         11   -1    0    0    0    0 -0.00000000000E+00 -0.00000000000E+00 -0.50000000000E+03  0.50000000000E+03  0.00000000000E+00 0.  1.
        -11    1    1    2    0    0 -0.18923973031E+01  0.11737163465E+02  0.49971514323E+03  0.49985654597E+03  0.00000000000E+00 0. -1.
         11    1    1    2    0    0 -0.20986989981E+01  0.63127848457E+00 -0.98575949994E+02  0.98600309164E+02  0.00000000000E+00 0.  1.
        -15    1    1    2    0    0 -0.75945053436E+00  0.19172410249E+01 -0.80095956753E+02  0.80142202337E+02  0.17770000000E+01 0.  1.
         15    1    1    2    0    0  0.47505468355E+01 -0.14285682974E+02 -0.32104323649E+03  0.32140094253E+03  0.17770000000E+01 0.  1.
</event>
<event>
 6    1  0.1599106E-003  0.4944802E+03  0.7546771E-02  0.9412246E-01
        -11   -1    0    0    0    0  0.00000000000E+00  0.00000000000E+00  0.50000000000E+03  0.50000000000E+03  0.00000000000E+00 0.  1.
         11   -1    0    0    0    0 -0.00000000000E+00 -0.00000000000E+00 -0.50000000000E+03  0.50000000000E+03  0.00000000000E+00 0. -1.
        -11    1    1    2    0    0  0.48704628721E+01 -0.14274247786E+02  0.23910872350E+02  0.28270220639E+02  0.00000000000E+00 0.  1.
         11    1    1    2    0    0  0.93249590977E+01 -0.39340313477E+01 -0.48844605596E+03  0.48855089914E+03  0.00000000000E+00 0. -1.
        -15    1    1    2    0    0 -0.34253962754E+02 -0.45375600953E+02  0.12757224657E+03  0.13967861307E+03  0.17770000000E+01 0. -1.
         15    1    1    2    0    0  0.20058540784E+02  0.63583880087E+02  0.33696293704E+03  0.34350026715E+03  0.17770000000E+01 0.  1.
</event>
<event>
 6    1  0.1599106E-003  0.5090254E+03  0.7546771E-02  0.9379838E-01
        -11   -1    0    0    0    0  0.00000000000E+00  0.00000000000E+00  0.50000000000E+03  0.50000000000E+03  0.00000000000E+00 0. -1.
         11   -1    0    0    0    0 -0.00000000000E+00 -0.00000000000E+00 -0.50000000000E+03  0.50000000000E+03  0.00000000000E+00 0. -1.
        -11    1    1    2    0    0 -0.25905710652E+02 -0.16855453904E+02  0.49000084756E+03  0.49097458466E+03  0.00000000000E+00 0. -1.
         11    1    1    2    0    0  0.38098291554E+01  0.14666640675E+02 -0.18148544838E+03  0.18211697647E+03  0.00000000000E+00 0. -1.
        -15    1    1    2    0    0  0.10859223269E+02  0.43816164307E+02 -0.62392015120E+02  0.77030515151E+02  0.17770000000E+01 0.  1.
         15    1    1    2    0    0  0.11236658228E+02 -0.41627351077E+02 -0.24612338407E+03  0.24987792371E+03  0.17770000000E+01 0. -1.
</event>
<event>
 6    1  0.1599106E-003  0.5113387E+03  0.7546771E-02  0.9374790E-01
        -11   -1    0    0    0    0  0.00000000000E+00  0.00000000000E+00  0.50000000000E+03  0.50000000000E+03  0.00000000000E+00 0. -1.
         11   -1    0    0    0    0 -0.00000000000E+00 -0.00000000000E+00 -0.50000000000E+03  0.50000000000E+03  0.00000000000E+00 0.  1.
        -11    1    1    2    0    0  0.13960561121E+02  0.27136708987E+01  0.48845427281E+03  0.48866127113E+03  0.00000000000E+00 0. -1.
         11    1    1    2    0    0  0.63576929409E+01  0.31098567609E+01 -0.37086218493E+03  0.37092971259E+03  0.00000000000E+00 0.  1.
        -15    1    1    2    0    0 -0.14987557736E+02  0.34390163991E+01 -0.12584281056E+03  0.12679126318E+03  0.17770000000E+01 0. -1.
         15    1    1    2    0    0 -0.53306963256E+01 -0.92625440588E+01  0.82507226834E+01  0.13617753102E+02  0.17770000000E+01 0.  1.
</event>
<event>
 6    1  0.1599106E-003  0.5020077E+03  0.7546771E-02  0.9395329E-01
        -11   -1    0    0    0    0  0.00000000000E+00  0.00000000000E+00  0.50000000000E+03  0.50000000000E+03  0.00000000000E+00 0. -1.
         11   -1    0    0    0    0 -0.00000000000E+00 -0.00000000000E+00 -0.50000000000E+03  0.50000000000E+03  0.00000000000E+00 0.  1.
        -11    1    1    2    0    0  0.80151097444E+01 -0.97560787951E+00  0.36134867107E+03  0.36143886880E+03  0.00000000000E+00 0. -1.
         11    1    1    2    0    0  0.12039658763E+02  0.19414131250E+02 -0.49746807985E+03  0.49799232157E+03  0.00000000000E+00 0.  1.
        -15    1    1    2    0    0 -0.16695514915E+02 -0.15537950286E+02  0.58672789941E+02  0.62974773726E+02  0.17770000000E+01 0.  1.
         15    1    1    2    0    0 -0.33592535920E+01 -0.29005730847E+01  0.77446618839E+02  0.77594035901E+02  0.17770000000E+01 0. -1.
</event>
<event>
 6    1  0.2735495E-003  0.5175870E+03  0.7546771E-02  0.9361295E-01
        -11   -1    0    0    0    0  0.00000000000E+00  0.00000000000E+00  0.50000000000E+03  0.50000000000E+03  0.00000000000E+00 0. -1.
         11   -1    0    0    0    0 -0.00000000000E+00 -0.00000000000E+00 -0.50000000000E+03  0.50000000000E+03  0.00000000000E+00 0.  1.
        -11    1    1    2    0    0  0.69653324789E+01 -0.28065958469E+01  0.48235454863E+03  0.48241300088E+03  0.00000000000E+00 0. -1.
         11    1    1    2    0    0 -0.54642864301E+02  0.24429313216E+02 -0.37212215733E+03  0.37690520551E+03  0.00000000000E+00 0.  1.
        -15    1    1    2    0    0 -0.26448707528E+00  0.63719432752E+01  0.78011941940E+01  0.10231714146E+02  0.17770000000E+01 0.  1.
         15    1    1    2    0    0  0.47942018898E+02 -0.27994660644E+02 -0.11803358549E+03  0.13045007947E+03  0.17770000000E+01 0.  1.
</event>
<event>
 6    1  0.1599106E-003  0.5010450E+03  0.7546771E-02  0.9397475E-01
        -11   -1    0    0    0    0  0.00000000000E+00  0.00000000000E+00  0.50000000000E+03  0.50000000000E+03  0.00000000000E+00 0.  1.
         11   -1    0    0    0    0 -0.00000000000E+00 -0.00000000000E+00 -0.50000000000E+03  0.50000000000E+03  0.00000000000E+00 0. -1.
        -11    1    1    2    0    0  0.40589821822E+01 -0.74517431416E+01  0.49888285227E+03  0.49895501210E+03  0.00000000000E+00 0.  1.
         11    1    1    2    0    0  0.56617632055E+01  0.65870118172E+01 -0.24452276992E+03  0.24467698971E+03  0.00000000000E+00 0. -1.
        -15    1    1    2    0    0 -0.19116817089E+01 -0.64879080778E+01 -0.22418559768E+03  0.22429464420E+03  0.17770000000E+01 0. -1.
         15    1    1    2    0    0 -0.78090636788E+01  0.73526394023E+01 -0.30174484670E+02  0.32073353985E+02  0.17770000000E+01 0. -1.
</event>
<event>
 6    1  0.1599106E-003  0.5012663E+03  0.7546771E-02  0.9396981E-01
        -11   -1    0    0    0    0  0.00000000000E+00  0.00000000000E+00  0.50000000000E+03  0.50000000000E+03  0.00000000000E+00 0. -1.
         11   -1    0    0    0    0 -0.00000000000E+00 -0.00000000000E+00 -0.50000000000E+03  0.50000000000E+03  0.00000000000E+00 0.  1.
        -11    1    1    2    0    0 -0.35440152552E+01  0.55500848916E+01  0.33254821426E+03  0.33261340666E+03  0.00000000000E+00 0. -1.
         11    1    1    2    0    0 -0.35369189021E+01  0.15919000893E+02 -0.49846700682E+03  0.49873367770E+03  0.00000000000E+00 0.  1.
        -15    1    1    2    0    0  0.12906432071E+02 -0.19467024755E+02  0.14042813934E+03  0.14236839919E+03  0.17770000000E+01 0. -1.
         15    1    1    2    0    0 -0.58254979140E+01 -0.20020610299E+01  0.25490653221E+02  0.26284516449E+02  0.17770000000E+01 0.  1.
</event>
<event>
 6    1  0.1599106E-003  0.5374644E+03  0.7546771E-02  0.9319674E-01
        -11   -1    0    0    0    0  0.00000000000E+00  0.00000000000E+00  0.50000000000E+03  0.50000000000E+03  0.00000000000E+00 0. -1.
         11   -1    0    0    0    0 -0.00000000000E+00 -0.00000000000E+00 -0.50000000000E+03  0.50000000000E+03  0.00000000000E+00 0. -1.
        -11    1    1    2    0    0 -0.31121718177E+02  0.30425367647E+01  0.31358310569E+03  0.31513835461E+03  0.00000000000E+00 0. -1.
         11    1    1    2    0    0  0.62453885729E+01 -0.21367771001E+02 -0.46199953562E+03  0.46253557423E+03  0.00000000000E+00 0. -1.
        -15    1    1    2    0    0 -0.80163005650E+01  0.29057684018E+02 -0.28816248902E+02  0.41738998611E+02  0.17770000000E+01 0.  1.
         15    1    1    2    0    0  0.32892630170E+02 -0.10732449782E+02  0.17723267883E+03  0.18058707255E+03  0.17770000000E+01 0. -1.
</event>
<event>
 6    1  0.1599106E-003  0.5077949E+03  0.7546771E-02  0.9382535E-01
        -11   -1    0    0    0    0  0.00000000000E+00  0.00000000000E+00  0.50000000000E+03  0.50000000000E+03  0.00000000000E+00 0. -1.
         11   -1    0    0    0    0 -0.00000000000E+00 -0.00000000000E+00 -0.50000000000E+03  0.50000000000E+03  0.00000000000E+00 0. -1.
        -11    1    1    2    0    0  0.42996212520E+01  0.14034633025E+02  0.49198620561E+03  0.49220512409E+03  0.00000000000E+00 0. -1.
         11    1    1    2    0    0  0.63496208998E+01  0.55067653187E+01 -0.46325020991E+03  0.46332644985E+03  0.00000000000E+00 0. -1.
        -15    1    1    2    0    0 -0.28655113518E+01 -0.31445088352E+01 -0.25540379955E+02  0.25953185322E+02  0.17770000000E+01 0.  1.
         15    1    1    2    0    0 -0.77837307999E+01 -0.16396889508E+02 -0.31956157494E+01  0.18515240742E+02  0.17770000000E+01 0. -1.
</event>
<event>
 6    1  0.1599106E-003  0.5030955E+03  0.7546771E-02  0.9392910E-01
        -11   -1    0    0    0    0  0.00000000000E+00  0.00000000000E+00  0.50000000000E+03  0.50000000000E+03  0.00000000000E+00 0. -1.
         11   -1    0    0    0    0 -0.00000000000E+00 -0.00000000000E+00 -0.50000000000E+03  0.50000000000E+03  0.00000000000E+00 0. -1.
        -11    1    1    2    0    0 -0.22542022976E+01  0.84346199670E+01  0.49682779701E+03  0.49690450201E+03  0.00000000000E+00 0. -1.
         11    1    1    2    0    0  0.44537937275E+01 -0.27089793346E+01 -0.23685474290E+03  0.23691210201E+03  0.00000000000E+00 0. -1.
        -15    1    1    2    0    0 -0.10054358133E+02  0.61132205311E+01 -0.24562533290E+03  0.24591344712E+03  0.17770000000E+01 0. -1.
         15    1    1    2    0    0  0.78547667034E+01 -0.11838861163E+02 -0.14347721214E+02  0.20269948857E+02  0.17770000000E+01 0.  1.
</event>
<event>
 6    1  0.1599106E-003  0.5066506E+03  0.7546771E-02  0.9385050E-01
        -11   -1    0    0    0    0  0.00000000000E+00  0.00000000000E+00  0.50000000000E+03  0.50000000000E+03  0.00000000000E+00 0. -1.
         11   -1    0    0    0    0 -0.00000000000E+00 -0.00000000000E+00 -0.50000000000E+03  0.50000000000E+03  0.00000000000E+00 0. -1.
        -11    1    1    2    0    0 -0.85275537581E+01 -0.43782334946E+01  0.49325625426E+03  0.49334938986E+03  0.00000000000E+00 0. -1.
         11    1    1    2    0    0  0.16944270969E+01  0.68099412510E+01 -0.46058857702E+03  0.46064203419E+03  0.00000000000E+00 0. -1.
        -15    1    1    2    0    0  0.88414189728E+01 -0.25940337549E+01  0.32950896827E+01  0.99456043352E+01  0.17770000000E+01 0. -1.
         15    1    1    2    0    0 -0.20082923116E+01  0.16232599851E+00 -0.35962766929E+02  0.36062971618E+02  0.17770000000E+01 0.  1.
</event>
<event>
 6    1  0.1599106E-003  0.5163752E+03  0.7546771E-02  0.9363896E-01
        -11   -1    0    0    0    0  0.00000000000E+00  0.00000000000E+00  0.50000000000E+03  0.50000000000E+03  0.00000000000E+00 0. -1.
         11   -1    0    0    0    0 -0.00000000000E+00 -0.00000000000E+00 -0.50000000000E+03  0.50000000000E+03  0.00000000000E+00 0.  1.
        -11    1    1    2    0    0 -0.23846018203E+02  0.76614984327E+01  0.45289203333E+03  0.45358408812E+03  0.00000000000E+00 0. -1.
         11    1    1    2    0    0  0.72541856716E+01 -0.11561678124E+01 -0.48356902301E+03  0.48362481321E+03  0.00000000000E+00 0.  1.
        -15    1    1    2    0    0  0.23483117588E+02 -0.88325004195E+01  0.42154049268E+02  0.49087589817E+02  0.17770000000E+01 0.  1.
         15    1    1    2    0    0 -0.68912850568E+01  0.23271697993E+01 -0.11477059592E+02  0.13703508853E+02  0.17770000000E+01 0.  1.
</event>
<event>
 6    1  0.1599106E-003  0.4899647E+03  0.7546771E-02  0.9422549E-01
        -11   -1    0    0    0    0  0.00000000000E+00  0.00000000000E+00  0.50000000000E+03  0.50000000000E+03  0.00000000000E+00 0. -1.
         11   -1    0    0    0    0 -0.00000000000E+00 -0.00000000000E+00 -0.50000000000E+03  0.50000000000E+03  0.00000000000E+00 0.  1.
        -11    1    1    2    0    0 -0.20309129787E+01 -0.76288970805E+01  0.49139572520E+03  0.49145913708E+03  0.00000000000E+00 0. -1.
         11    1    1    2    0    0 -0.12921689937E+01 -0.72008675133E+01 -0.48853751525E+03  0.48859229016E+03  0.00000000000E+00 0.  1.
        -15    1    1    2    0    0  0.41681794705E+01  0.90889329116E+00  0.20520434519E+01  0.50565223664E+01  0.17770000000E+01 0. -1.
         15    1    1    2    0    0 -0.84509749815E+00  0.13920871303E+02 -0.49102534000E+01  0.14892050398E+02  0.17770000000E+01 0.  1.
</event>
<event>
 6    1  0.1599106E-003  0.5518806E+03  0.7546771E-02  0.9290665E-01
        -11   -1    0    0    0    0  0.00000000000E+00  0.00000000000E+00  0.50000000000E+03  0.50000000000E+03  0.00000000000E+00 0. -1.
         11   -1    0    0    0    0 -0.00000000000E+00 -0.00000000000E+00 -0.50000000000E+03  0.50000000000E+03  0.00000000000E+00 0. -1.
        -11    1    1    2    0    0 -0.14350542315E+02  0.18547642777E+02  0.37341096166E+03  0.37414662822E+03  0.00000000000E+00 0. -1.
         11    1    1    2    0    0  0.20128295332E+02 -0.41567332727E+02 -0.44573310028E+03  0.44811939047E+03  0.00000000000E+00 0. -1.
        -15    1    1    2    0    0  0.21309360877E+02 -0.72951719138E+01 -0.46737721075E+02  0.51912240315E+02  0.17770000000E+01 0. -1.
         15    1    1    2    0    0 -0.27087113894E+02  0.30314861864E+02  0.11905985970E+03  0.12582174100E+03  0.17770000000E+01 0.  1.
</event>
<event>
 6    1  0.1599106E-003  0.5018892E+03  0.7546771E-02  0.9395592E-01
        -11   -1    0    0    0    0  0.00000000000E+00  0.00000000000E+00  0.50000000000E+03  0.50000000000E+03  0.00000000000E+00 0. -1.
         11   -1    0    0    0    0 -0.00000000000E+00 -0.00000000000E+00 -0.50000000000E+03  0.50000000000E+03  0.00000000000E+00 0.  1.
        -11    1    1    2    0    0 -0.14204761258E+01 -0.35494346539E+00  0.73760861230E-01  0.14660074871E+01  0.00000000000E+00 0. -1.
         11    1    1    2    0    0 -0.61422546831E+01  0.10506203809E+02 -0.49652577754E+03  0.49667489907E+03  0.00000000000E+00 0.  1.
        -15    1    1    2    0    0 -0.17964974487E+02 -0.19592072704E+02  0.76200407143E+02  0.80723289074E+02  0.17770000000E+01 0.  1.
         15    1    1    2    0    0  0.25527705296E+02  0.94408123604E+01  0.42025160953E+03  0.42113580437E+03  0.17770000000E+01 0. -1.
</event>
<event>
 6    1  0.1599106E-003  0.5163863E+03  0.7546771E-02  0.9363873E-01
        -11   -1    0    0    0    0  0.00000000000E+00  0.00000000000E+00  0.50000000000E+03  0.50000000000E+03  0.00000000000E+00 0.  1.
         11   -1    0    0    0    0 -0.00000000000E+00 -0.00000000000E+00 -0.50000000000E+03  0.50000000000E+03  0.00000000000E+00 0.  1.
        -11    1    1    2    0    0  0.38453610704E+02  0.42129819518E+01  0.19685428596E+03  0.20061913989E+03  0.00000000000E+00 0.  1.
         11    1    1    2    0    0 -0.79237776400E+00  0.16727770601E+02 -0.48332364481E+03  0.48361368034E+03  0.00000000000E+00 0.  1.
        -15    1    1    2    0    0 -0.64163861466E+01  0.10946398955E+02  0.26653554866E+03  0.26684330625E+03  0.17770000000E+01 0.  1.
         15    1    1    2    0    0 -0.31244846793E+02 -0.31887151507E+02  0.19933810200E+02  0.48923873523E+02  0.17770000000E+01 0. -1.
</event>
<event>
 6    1  0.1599106E-003  0.5349665E+03  0.7546771E-02  0.9324799E-01
        -11   -1    0    0    0    0  0.00000000000E+00  0.00000000000E+00  0.50000000000E+03  0.50000000000E+03  0.00000000000E+00 0. -1.
         11   -1    0    0    0    0 -0.00000000000E+00 -0.00000000000E+00 -0.50000000000E+03  0.50000000000E+03  0.00000000000E+00 0. -1.
        -11    1    1    2    0    0  0.62440187121E+01 -0.30782298316E+01  0.38052879857E+03  0.38059247209E+03  0.00000000000E+00 0. -1.
         11    1    1    2    0    0  0.22086891653E+01  0.91996460724E+01 -0.46493726654E+03  0.46503351880E+03  0.00000000000E+00 0. -1.
        -15    1    1    2    0    0 -0.23932711374E+01  0.61208871714E+01  0.11793323385E+03  0.11812958301E+03  0.17770000000E+01 0. -1.
         15    1    1    2    0    0 -0.60594367400E+01 -0.12242303412E+02 -0.33524765888E+02  0.36244426099E+02  0.17770000000E+01 0.  1.
</event>
<event>
 6    1  0.1599106E-003  0.5062506E+03  0.7546771E-02  0.9385931E-01
        -11   -1    0    0    0    0  0.00000000000E+00  0.00000000000E+00  0.50000000000E+03  0.50000000000E+03  0.00000000000E+00 0.  1.
         11   -1    0    0    0    0 -0.00000000000E+00 -0.00000000000E+00 -0.50000000000E+03  0.50000000000E+03  0.00000000000E+00 0. -1.
        -11    1    1    2    0    0  0.21980276918E+01 -0.96807555951E+01  0.49364957035E+03  0.49374937636E+03  0.00000000000E+00 0.  1.
         11    1    1    2    0    0  0.33914823412E+01 -0.31870464180E+01 -0.31729996400E+03  0.31733409299E+03  0.00000000000E+00 0. -1.
        -15    1    1    2    0    0  0.27432078342E+00  0.44381921790E+01 -0.17825780199E+03  0.17832210884E+03  0.17770000000E+01 0.  1.
         15    1    1    2    0    0 -0.58638308164E+01  0.84296098341E+01  0.19081956446E+01  0.10594421807E+02  0.17770000000E+01 0. -1.
</event>
<event>
 6    1  0.1599106E-003  0.5024199E+03  0.7546771E-02  0.9394411E-01
        -11   -1    0    0    0    0  0.00000000000E+00  0.00000000000E+00  0.50000000000E+03  0.50000000000E+03  0.00000000000E+00 0.  1.
         11   -1    0    0    0    0 -0.00000000000E+00 -0.00000000000E+00 -0.50000000000E+03  0.50000000000E+03  0.00000000000E+00 0. -1.
        -11    1    1    2    0    0 -0.11269963932E+02 -0.45906041972E+01  0.30821132866E+03  0.30845146919E+03  0.00000000000E+00 0.  1.
         11    1    1    2    0    0  0.75462746845E+01  0.84436796551E+01 -0.49745122487E+03  0.49758010723E+03  0.00000000000E+00 0. -1.
        -15    1    1    2    0    0  0.56408562300E+00 -0.47641906590E+01  0.44366882073E+00  0.51351997281E+01  0.17770000000E+01 0. -1.
         15    1    1    2    0    0  0.31596036245E+01  0.91111520102E+00  0.18879622739E+03  0.18883322385E+03  0.17770000000E+01 0.  1.
</event>
<event>
 6    1  0.1599106E-003  0.4789267E+03  0.7546771E-02  0.9448238E-01
        -11   -1    0    0    0    0  0.00000000000E+00  0.00000000000E+00  0.50000000000E+03  0.50000000000E+03  0.00000000000E+00 0. -1.
         11   -1    0    0    0    0 -0.00000000000E+00 -0.00000000000E+00 -0.50000000000E+03  0.50000000000E+03  0.00000000000E+00 0.  1.
        -11    1    1    2    0    0 -0.12528412302E+02  0.17285088434E+02  0.48295411441E+03  0.48342570476E+03  0.00000000000E+00 0. -1.
         11    1    1    2    0    0  0.24213108157E+01  0.83362534378E+01 -0.47477911063E+03  0.47485846286E+03  0.00000000000E+00 0.  1.
        -15    1    1    2    0    0  0.12213028467E+02 -0.18210732494E+02  0.82437070388E+01  0.23492664324E+02  0.17770000000E+01 0.  1.
         15    1    1    2    0    0 -0.21059269803E+01 -0.74106093774E+01 -0.16418710823E+02  0.18223168053E+02  0.17770000000E+01 0.  1.
</event>
<event>
 6    1  0.2615783E-003  0.5001932E+03  0.7546771E-02  0.9399378E-01
        -11   -1    0    0    0    0  0.00000000000E+00  0.00000000000E+00  0.50000000000E+03  0.50000000000E+03  0.00000000000E+00 0. -1.
         11   -1    0    0    0    0 -0.00000000000E+00 -0.00000000000E+00 -0.50000000000E+03  0.50000000000E+03  0.00000000000E+00 0.  1.
        -11    1    1    2    0    0  0.69131624552E+00 -0.69298612956E+01  0.49975832709E+03  0.49980684908E+03  0.00000000000E+00 0. -1.
         11    1    1    2    0    0  0.35323960290E+01 -0.10251664307E+01 -0.26856486550E+03  0.26859005150E+03  0.00000000000E+00 0.  1.
        -15    1    1    2    0    0 -0.17429561051E+01  0.54171938118E+01 -0.20703245576E+03  0.20711827382E+03  0.17770000000E+01 0.  1.
         15    1    1    2    0    0 -0.24807561693E+01  0.25378339146E+01 -0.24161005834E+02  0.24484825587E+02  0.17770000000E+01 0.  1.
</event>
<event>
 6    1  0.1599106E-003  0.5049557E+03  0.7546771E-02  0.9388789E-01
        -11   -1    0    0    0    0  0.00000000000E+00  0.00000000000E+00  0.50000000000E+03  0.50000000000E+03  0.00000000000E+00 0.  1.
         11   -1    0    0    0    0 -0.00000000000E+00 -0.00000000000E+00 -0.50000000000E+03  0.50000000000E+03  0.00000000000E+00 0. -1.
        -11    1    1    2    0    0 -0.62304303298E+01 -0.46156353373E+01  0.49498358495E+03  0.49504431289E+03  0.00000000000E+00 0.  1.
         11    1    1    2    0    0  0.66159663059E+00 -0.77233313656E+01 -0.48421336670E+03  0.48427540929E+03  0.00000000000E+00 0. -1.
        -15    1    1    2    0    0  0.17506705819E+01  0.73895690901E+01 -0.11755397621E+02  0.14107362654E+02  0.17770000000E+01 0.  1.
         15    1    1    2    0    0  0.38181631173E+01  0.49493976128E+01  0.98517936502E+00  0.65729151600E+01  0.17770000000E+01 0.  1.
</event>
<event>
 6    1  0.1599106E-003  0.5004757E+03  0.7546771E-02  0.9398746E-01
        -11   -1    0    0    0    0  0.00000000000E+00  0.00000000000E+00  0.50000000000E+03  0.50000000000E+03  0.00000000000E+00 0.  1.
         11   -1    0    0    0    0 -0.00000000000E+00 -0.00000000000E+00 -0.50000000000E+03  0.50000000000E+03  0.00000000000E+00 0.  1.
        -11    1    1    2    0    0  0.90741201807E+01 -0.21242619291E+01  0.49943732948E+03  0.49952427190E+03  0.00000000000E+00 0.  1.
         11    1    1    2    0    0  0.80044078704E+00  0.43111799053E+01 -0.22891654152E+03  0.22895853328E+03  0.00000000000E+00 0.  1.
        -15    1    1    2    0    0 -0.47075460650E+01 -0.84689177680E+01 -0.57793624662E+02  0.58627163829E+02  0.17770000000E+01 0. -1.
         15    1    1    2    0    0 -0.51670149027E+01  0.62819997919E+01 -0.21272716329E+03  0.21289003099E+03  0.17770000000E+01 0.  1.
</event>
<event>
 6    1  0.1599106E-003  0.4926236E+03  0.7546771E-02  0.9416468E-01
        -11   -1    0    0    0    0  0.00000000000E+00  0.00000000000E+00  0.50000000000E+03  0.50000000000E+03  0.00000000000E+00 0. -1.
         11   -1    0    0    0    0 -0.00000000000E+00 -0.00000000000E+00 -0.50000000000E+03  0.50000000000E+03  0.00000000000E+00 0.  1.
        -11    1    1    2    0    0  0.13639969762E+01 -0.12796924020E+01  0.15065805997E+02  0.15181456146E+02  0.00000000000E+00 0. -1.
         11    1    1    2    0    0  0.21996596777E+02 -0.42413043439E+01 -0.49911654711E+03  0.49961902139E+03  0.00000000000E+00 0.  1.
        -15    1    1    2    0    0 -0.17247175516E+02 -0.69244753351E+01  0.32491103418E+03  0.32544700226E+03  0.17770000000E+01 0. -1.
         15    1    1    2    0    0 -0.61134182377E+01  0.12445472081E+02  0.15913970694E+03  0.15975252020E+03  0.17770000000E+01 0.  1.
</event>
<event>
 6    1  0.1599106E-003  0.5108317E+03  0.7546771E-02  0.9375894E-01
        -11   -1    0    0    0    0  0.00000000000E+00  0.00000000000E+00  0.50000000000E+03  0.50000000000E+03  0.00000000000E+00 0. -1.
         11   -1    0    0    0    0 -0.00000000000E+00 -0.00000000000E+00 -0.50000000000E+03  0.50000000000E+03  0.00000000000E+00 0.  1.
        -11    1    1    2    0    0  0.33949613478E+01  0.77308906620E+01  0.48909545062E+03  0.48916832711E+03  0.00000000000E+00 0. -1.
         11    1    1    2    0    0  0.62115662793E+01  0.26096209827E+02 -0.39965101725E+03  0.40055028562E+03  0.00000000000E+00 0.  1.
        -15    1    1    2    0    0 -0.71329568112E+01 -0.44887812181E+02 -0.87540100531E+02  0.98652023219E+02  0.17770000000E+01 0. -1.
         15    1    1    2    0    0 -0.24735708159E+01  0.11060711692E+02 -0.19043328372E+01  0.11629364052E+02  0.17770000000E+01 0.  1.
</event>
<event>
 6    1  0.1599106E-003  0.5004010E+03  0.7546771E-02  0.9398913E-01
        -11   -1    0    0    0    0  0.00000000000E+00  0.00000000000E+00  0.50000000000E+03  0.50000000000E+03  0.00000000000E+00 0. -1.
         11   -1    0    0    0    0 -0.00000000000E+00 -0.00000000000E+00 -0.50000000000E+03  0.50000000000E+03  0.00000000000E+00 0. -1.
        -11    1    1    2    0    0 -0.78955359897E+01 -0.29376269550E+01  0.49952795931E+03  0.49959899046E+03  0.00000000000E+00 0. -1.
         11    1    1    2    0    0 -0.45523832850E+01 -0.10260321267E+01 -0.12253139994E+03  0.12262023041E+03  0.00000000000E+00 0. -1.
        -15    1    1    2    0    0  0.30184758519E+01 -0.29771885871E+01 -0.17640679893E+02  0.18229815260E+02  0.17770000000E+01 0.  1.
         15    1    1    2    0    0  0.94294434228E+01  0.69408476688E+01 -0.35935587948E+03  0.35955096387E+03  0.17770000000E+01 0. -1.
</event>
<event>
 6    1  0.1599106E-003  0.5060998E+03  0.7546771E-02  0.9386263E-01
        -11   -1    0    0    0    0  0.00000000000E+00  0.00000000000E+00  0.50000000000E+03  0.50000000000E+03  0.00000000000E+00 0. -1.
         11   -1    0    0    0    0 -0.00000000000E+00 -0.00000000000E+00 -0.50000000000E+03  0.50000000000E+03  0.00000000000E+00 0. -1.
        -11    1    1    2    0    0  0.24408990026E+02 -0.11853166961E+02  0.42237647641E+03  0.42324719040E+03  0.00000000000E+00 0. -1.
         11    1    1    2    0    0 -0.79050484901E+01 -0.18492683804E+01 -0.49383343200E+03  0.49390016010E+03  0.00000000000E+00 0. -1.
        -15    1    1    2    0    0 -0.21045182619E+01 -0.87283291355E+00  0.58445155751E+02  0.58516534366E+02  0.17770000000E+01 0. -1.
         15    1    1    2    0    0 -0.14399423274E+02  0.14575268255E+02  0.13011799844E+02  0.24336115128E+02  0.17770000000E+01 0.  1.
</event>
<event>
 6    1  0.1599106E-003  0.5014346E+03  0.7546771E-02  0.9396605E-01
        -11   -1    0    0    0    0  0.00000000000E+00  0.00000000000E+00  0.50000000000E+03  0.50000000000E+03  0.00000000000E+00 0.  1.
         11   -1    0    0    0    0 -0.00000000000E+00 -0.00000000000E+00 -0.50000000000E+03  0.50000000000E+03  0.00000000000E+00 0.  1.
        -11    1    1    2    0    0 -0.20218282117E+02 -0.15554793551E+02  0.49791239347E+03  0.49856542410E+03  0.00000000000E+00 0.  1.
         11    1    1    2    0    0 -0.18238068177E+01  0.53764491852E+01 -0.10222556035E+03  0.10238309268E+03  0.00000000000E+00 0.  1.
        -15    1    1    2    0    0 -0.17192230600E+00  0.57719433743E+01 -0.31933055379E+03  0.31938770359E+03  0.17770000000E+01 0.  1.
         15    1    1    2    0    0  0.22214011241E+02  0.44064009911E+01 -0.76356279324E+02  0.79663779638E+02  0.17770000000E+01 0. -1.
</event>
<event>
 6    1  0.1599106E-003  0.5125387E+03  0.7546771E-02  0.9372182E-01
        -11   -1    0    0    0    0  0.00000000000E+00  0.00000000000E+00  0.50000000000E+03  0.50000000000E+03  0.00000000000E+00 0. -1.
         11   -1    0    0    0    0 -0.00000000000E+00 -0.00000000000E+00 -0.50000000000E+03  0.50000000000E+03  0.00000000000E+00 0. -1.
        -11    1    1    2    0    0  0.14728319642E+01 -0.95897449419E+01  0.48736476824E+03  0.48746133156E+03  0.00000000000E+00 0. -1.
         11    1    1    2    0    0  0.14839973613E+02  0.97991334170E+01 -0.29319899734E+03  0.29373780805E+03  0.00000000000E+00 0. -1.
        -15    1    1    2    0    0 -0.21639068608E+02  0.14548721019E+02 -0.22452979962E+01  0.26231920738E+02  0.17770000000E+01 0.  1.
         15    1    1    2    0    0  0.53262630315E+01 -0.14758109494E+02 -0.19192047290E+03  0.19256893966E+03  0.17770000000E+01 0. -1.
</event>
<event>
 6    1  0.1599106E-003  0.5057582E+03  0.7546771E-02  0.9387017E-01
        -11   -1    0    0    0    0  0.00000000000E+00  0.00000000000E+00  0.50000000000E+03  0.50000000000E+03  0.00000000000E+00 0.  1.
         11   -1    0    0    0    0 -0.00000000000E+00 -0.00000000000E+00 -0.50000000000E+03  0.50000000000E+03  0.00000000000E+00 0. -1.
        -11    1    1    2    0    0  0.43251564610E+01 -0.13994159592E+02  0.47471129480E+03  0.47493721363E+03  0.00000000000E+00 0.  1.
         11    1    1    2    0    0  0.23799753951E+01  0.66774926970E+01 -0.49419094168E+03  0.49424178297E+03  0.00000000000E+00 0. -1.
        -15    1    1    2    0    0 -0.60776288116E+01  0.94483575702E+01  0.23376075667E+02  0.25996301185E+02  0.17770000000E+01 0. -1.
         15    1    1    2    0    0 -0.62750304445E+00 -0.21316906755E+01 -0.38964287840E+01  0.48247022162E+01  0.17770000000E+01 0.  1.
</event>
<event>
 6    1  0.1599106E-003  0.5093850E+03  0.7546771E-02  0.9379051E-01
        -11   -1    0    0    0    0  0.00000000000E+00  0.00000000000E+00  0.50000000000E+03  0.50000000000E+03  0.00000000000E+00 0.  1.
         11   -1    0    0    0    0 -0.00000000000E+00 -0.00000000000E+00 -0.50000000000E+03  0.50000000000E+03  0.00000000000E+00 0. -1.
        -11    1    1    2    0    0  0.75439748942E+01  0.98935360033E+01  0.49045721377E+03  0.49061499381E+03  0.00000000000E+00 0.  1.
         11    1    1    2    0    0 -0.47606168911E+01  0.39854632343E+01 -0.45860081485E+03  0.45864284010E+03  0.00000000000E+00 0. -1.
        -15    1    1    2    0    0 -0.14691066592E+02  0.59574643381E+01 -0.16291652435E+02  0.22801194859E+02  0.17770000000E+01 0.  1.
         15    1    1    2    0    0  0.11907708589E+02 -0.19836463576E+02 -0.15564746487E+02  0.27940971229E+02  0.17770000000E+01 0. -1.
</event>
<event>
 6    1  0.1599106E-003  0.5017820E+03  0.7546771E-02  0.9395831E-01
        -11   -1    0    0    0    0  0.00000000000E+00  0.00000000000E+00  0.50000000000E+03  0.50000000000E+03  0.00000000000E+00 0.  1.
         11   -1    0    0    0    0 -0.00000000000E+00 -0.00000000000E+00 -0.50000000000E+03  0.50000000000E+03  0.00000000000E+00 0.  1.
        -11    1    1    2    0    0  0.11691349468E+02 -0.15294043631E+01  0.49807842631E+03  0.49821796986E+03  0.00000000000E+00 0.  1.
         11    1    1    2    0    0  0.11085246582E+02  0.40295640138E+01 -0.40130040453E+03  0.40147370369E+03  0.00000000000E+00 0.  1.
        -15    1    1    2    0    0 -0.30561248443E+01 -0.14506619533E+01 -0.44063190888E+01  0.58324691237E+01  0.17770000000E+01 0.  1.
         15    1    1    2    0    0 -0.19720471205E+02 -0.10494976975E+01 -0.92371702693E+02  0.94475857325E+02  0.17770000000E+01 0.  1.
</event>
<event>
 6    1  0.1599106E-003  0.5105940E+03  0.7546771E-02  0.9376412E-01
        -11   -1    0    0    0    0  0.00000000000E+00  0.00000000000E+00  0.50000000000E+03  0.50000000000E+03  0.00000000000E+00 0. -1.
         11   -1    0    0    0    0 -0.00000000000E+00 -0.00000000000E+00 -0.50000000000E+03  0.50000000000E+03  0.00000000000E+00 0.  1.
        -11    1    1    2    0    0 -0.22440805864E+02 -0.13689768714E+02  0.40634173832E+03  0.40719111955E+03  0.00000000000E+00 0. -1.
         11    1    1    2    0    0 -0.78790619272E+01 -0.25496448651E+02 -0.48867793611E+03  0.48940604180E+03  0.00000000000E+00 0.  1.
        -15    1    1    2    0    0  0.29324970277E+02  0.20906061811E+02  0.75699975590E+02  0.83849038966E+02  0.17770000000E+01 0.  1.
         15    1    1    2    0    0  0.99489751353E+00  0.18280155553E+02  0.66362221978E+01  0.19553799686E+02  0.17770000000E+01 0. -1.
</event>
<event>
 6    1  0.1599106E-003  0.5031167E+03  0.7546771E-02  0.9392863E-01
        -11   -1    0    0    0    0  0.00000000000E+00  0.00000000000E+00  0.50000000000E+03  0.50000000000E+03  0.00000000000E+00 0. -1.
         11   -1    0    0    0    0 -0.00000000000E+00 -0.00000000000E+00 -0.50000000000E+03  0.50000000000E+03  0.00000000000E+00 0. -1.
        -11    1    1    2    0    0  0.10127276939E+02 -0.63084169128E+01  0.41372295884E+03  0.41389496800E+03  0.00000000000E+00 0. -1.
         11    1    1    2    0    0 -0.15693172489E+01 -0.88755745177E+01 -0.49680159512E+03  0.49688334998E+03  0.00000000000E+00 0. -1.
        -15    1    1    2    0    0  0.15233936230E+01  0.20004789064E+02  0.41476614037E+02  0.46108345823E+02  0.17770000000E+01 0.  1.
         15    1    1    2    0    0 -0.10081353313E+02 -0.48207976332E+01  0.41602022240E+02  0.43113336196E+02  0.17770000000E+01 0. -1.
</event>
<event>
 6    1  0.1599106E-003  0.4869846E+03  0.7546771E-02  0.9429413E-01
        -11   -1    0    0    0    0  0.00000000000E+00  0.00000000000E+00  0.50000000000E+03  0.50000000000E+03  0.00000000000E+00 0. -1.
         11   -1    0    0    0    0 -0.00000000000E+00 -0.00000000000E+00 -0.50000000000E+03  0.50000000000E+03  0.00000000000E+00 0. -1.
        -11    1    1    2    0    0  0.69537590267E+01 -0.44740758269E+01  0.48591708055E+03  0.48598742915E+03  0.00000000000E+00 0. -1.
         11    1    1    2    0    0  0.12311632083E+02 -0.72833224096E+01 -0.48803593902E+03  0.48824553336E+03  0.00000000000E+00 0. -1.
        -15    1    1    2    0    0 -0.12820665399E+00  0.43284297891E+01  0.21755625024E+01  0.51616414625E+01  0.17770000000E+01 0.  1.
         15    1    1    2    0    0 -0.19137184456E+02  0.74289684474E+01 -0.56704036072E-01  0.20605396027E+02  0.17770000000E+01 0. -1.
</event>
<event>
 6    1  0.1599106E-003  0.5060977E+03  0.7546771E-02  0.9386268E-01
        -11   -1    0    0    0    0  0.00000000000E+00  0.00000000000E+00  0.50000000000E+03  0.50000000000E+03  0.00000000000E+00 0. -1.
         11   -1    0    0    0    0 -0.00000000000E+00 -0.00000000000E+00 -0.50000000000E+03  0.50000000000E+03  0.00000000000E+00 0. -1.
        -11    1    1    2    0    0 -0.10900137949E+02  0.24214146891E+02  0.14016210624E+03  0.14265536773E+03  0.00000000000E+00 0. -1.
         11    1    1    2    0    0 -0.19047421481E+02 -0.23701149215E+01 -0.49352923063E+03  0.49390234176E+03  0.00000000000E+00 0. -1.
        -15    1    1    2    0    0 -0.95869770965E+01  0.11795522854E+02  0.21667461269E+03  0.21721438719E+03  0.17770000000E+01 0. -1.
         15    1    1    2    0    0  0.39534536527E+02 -0.33639554823E+02  0.13669251170E+03  0.14622790332E+03  0.17770000000E+01 0.  1.
</event>
<event>
 6    1  0.1599106E-003  0.5014097E+03  0.7546771E-02  0.9396661E-01
        -11   -1    0    0    0    0  0.00000000000E+00  0.00000000000E+00  0.50000000000E+03  0.50000000000E+03  0.00000000000E+00 0.  1.
         11   -1    0    0    0    0 -0.00000000000E+00 -0.00000000000E+00 -0.50000000000E+03  0.50000000000E+03  0.00000000000E+00 0. -1.
        -11    1    1    2    0    0  0.99445753388E+01  0.92522766395E+01  0.49840525130E+03  0.49859030648E+03  0.00000000000E+00 0.  1.
         11    1    1    2    0    0 -0.11579290565E+02  0.21921093151E+01 -0.34376049126E+03  0.34396244078E+03  0.00000000000E+00 0. -1.
        -15    1    1    2    0    0 -0.53751017090E+01 -0.12447003475E+02 -0.34945094243E+02  0.37525150960E+02  0.17770000000E+01 0. -1.
         15    1    1    2    0    0  0.70098169349E+01  0.10026175209E+01 -0.11969966579E+03  0.11992210178E+03  0.17770000000E+01 0.  1.
</event>
<event>
 6    1  0.1599106E-003  0.5049799E+03  0.7546771E-02  0.9388735E-01
        -11   -1    0    0    0    0  0.00000000000E+00  0.00000000000E+00  0.50000000000E+03  0.50000000000E+03  0.00000000000E+00 0. -1.
         11   -1    0    0    0    0 -0.00000000000E+00 -0.00000000000E+00 -0.50000000000E+03  0.50000000000E+03  0.00000000000E+00 0. -1.
        -11    1    1    2    0    0  0.72179444374E+01  0.24764015495E+01  0.42111369830E+03  0.42118283225E+03  0.00000000000E+00 0. -1.
         11    1    1    2    0    0 -0.11412727408E+02  0.11344806077E+02 -0.49475843387E+03  0.49502006308E+03  0.00000000000E+00 0. -1.
        -15    1    1    2    0    0  0.53720920200E+01 -0.65882521406E+01 -0.10274481265E+01  0.87451596665E+01  0.17770000000E+01 0. -1.
         15    1    1    2    0    0 -0.11773090498E+01 -0.72329554854E+01  0.74672183699E+02  0.75051945005E+02  0.17770000000E+01 0.  1.
</event>
<event>
 6    1  0.1599106E-003  0.5002259E+03  0.7546771E-02  0.9399304E-01
        -11   -1    0    0    0    0  0.00000000000E+00  0.00000000000E+00  0.50000000000E+03  0.50000000000E+03  0.00000000000E+00 0. -1.
         11   -1    0    0    0    0 -0.00000000000E+00 -0.00000000000E+00 -0.50000000000E+03  0.50000000000E+03  0.00000000000E+00 0. -1.
        -11    1    1    2    0    0 -0.34923665723E+01 -0.27415351403E+01  0.31449164589E+03  0.31452298481E+03  0.00000000000E+00 0. -1.
         11    1    1    2    0    0  0.65679285560E+01 -0.60755205194E+01 -0.49969400106E+03  0.49977409330E+03  0.00000000000E+00 0. -1.
        -15    1    1    2    0    0 -0.44571474602E+01  0.97884392937E+01  0.16338327916E+03  0.16374655216E+03  0.17770000000E+01 0.  1.
         15    1    1    2    0    0  0.13815854765E+01 -0.97138363394E+00  0.21819076020E+02  0.21956369735E+02  0.17770000000E+01 0. -1.
</event>
<event>
 6    1  0.1599106E-003  0.5032697E+03  0.7546771E-02  0.9392523E-01
        -11   -1    0    0    0    0  0.00000000000E+00  0.00000000000E+00  0.50000000000E+03  0.50000000000E+03  0.00000000000E+00 0. -1.
         11   -1    0    0    0    0 -0.00000000000E+00 -0.00000000000E+00 -0.50000000000E+03  0.50000000000E+03  0.00000000000E+00 0.  1.
        -11    1    1    2    0    0 -0.37531749728E+01 -0.70045064016E+01  0.36609915155E+03  0.36618538775E+03  0.00000000000E+00 0. -1.
         11    1    1    2    0    0 -0.71693478325E+01  0.11554923495E+02 -0.49654413903E+03  0.49673030692E+03  0.00000000000E+00 0.  1.
        -15    1    1    2    0    0 -0.43748587955E+01  0.14935199885E+02  0.33074800295E+02  0.36596444207E+02  0.17770000000E+01 0. -1.
         15    1    1    2    0    0  0.15297381601E+02 -0.19485616979E+02  0.97370187185E+02  0.10048786113E+03  0.17770000000E+01 0. -1.
</event>
<event>
 6    1  0.1599106E-003  0.5022429E+03  0.7546771E-02  0.9394805E-01
        -11   -1    0    0    0    0  0.00000000000E+00  0.00000000000E+00  0.50000000000E+03  0.50000000000E+03  0.00000000000E+00 0. -1.
         11   -1    0    0    0    0 -0.00000000000E+00 -0.00000000000E+00 -0.50000000000E+03  0.50000000000E+03  0.00000000000E+00 0.  1.
        -11    1    1    2    0    0 -0.59526229581E+01  0.25514618012E+01  0.20716317545E+03  0.20726438416E+03  0.00000000000E+00 0. -1.
         11    1    1    2    0    0 -0.63827600006E+01 -0.13874536015E+02 -0.49752270689E+03  0.49775705545E+03  0.00000000000E+00 0.  1.
        -15    1    1    2    0    0  0.48442118965E+01  0.10399921894E+02  0.12684651734E+02  0.17195432036E+02  0.17770000000E+01 0.  1.
         15    1    1    2    0    0  0.74911710622E+01  0.92315231935E+00  0.27767487971E+03  0.27778312836E+03  0.17770000000E+01 0. -1.
</event>
<event>
 6    1  0.1599106E-003  0.5214775E+03  0.7546771E-02  0.9352994E-01
        -11   -1    0    0    0    0  0.00000000000E+00  0.00000000000E+00  0.50000000000E+03  0.50000000000E+03  0.00000000000E+00 0.  1.
         11   -1    0    0    0    0 -0.00000000000E+00 -0.00000000000E+00 -0.50000000000E+03  0.50000000000E+03  0.00000000000E+00 0.  1.
        -11    1    1    2    0    0 -0.72331199877E+01 -0.17071522314E+01  0.47846475936E+03  0.47852247423E+03  0.00000000000E+00 0.  1.
         11    1    1    2    0    0  0.41013711783E+01 -0.16944937073E+02 -0.44724096649E+03  0.44758064552E+03  0.00000000000E+00 0.  1.
        -15    1    1    2    0    0 -0.38013590313E+01  0.15668872639E+01  0.19441867838E+02  0.19951175911E+02  0.17770000000E+01 0. -1.
         15    1    1    2    0    0  0.69331078407E+01  0.17085202040E+02 -0.50665660707E+02  0.53945704342E+02  0.17770000000E+01 0.  1.
</event>
<event>
 6    1  0.1599106E-003  0.4005046E+03  0.7546771E-02  0.9654911E-01
        -11   -1    0    0    0    0  0.00000000000E+00  0.00000000000E+00  0.50000000000E+03  0.50000000000E+03  0.00000000000E+00 0.  1.
         11   -1    0    0    0    0 -0.00000000000E+00 -0.00000000000E+00 -0.50000000000E+03  0.50000000000E+03  0.00000000000E+00 0. -1.
        -11    1    1    2    0    0 -0.69140936199E+01  0.71770234049E+01  0.12233825687E+03  0.12274348638E+03  0.00000000000E+00 0.  1.
         11    1    1    2    0    0 -0.93768148557E+01 -0.62871125353E+01 -0.43439774177E+03  0.43454441717E+03  0.00000000000E+00 0. -1.
        -15    1    1    2    0    0 -0.86111044271E+01 -0.46441459938E+02 -0.54699948451E+02  0.72292478241E+02  0.17770000000E+01 0. -1.
         15    1    1    2    0    0  0.24902012903E+02  0.45551549068E+02  0.36675943335E+03  0.37041961820E+03  0.17770000000E+01 0.  1.
</event>
<event>
 6    1  0.1599106E-003  0.5009241E+03  0.7546771E-02  0.9397744E-01
        -11   -1    0    0    0    0  0.00000000000E+00  0.00000000000E+00  0.50000000000E+03  0.50000000000E+03  0.00000000000E+00 0.  1.
         11   -1    0    0    0    0 -0.00000000000E+00 -0.00000000000E+00 -0.50000000000E+03  0.50000000000E+03  0.00000000000E+00 0. -1.
        -11    1    1    2    0    0 -0.94023452875E+01  0.59882123987E+01  0.49895139885E+03  0.49907590725E+03  0.00000000000E+00 0.  1.
         11    1    1    2    0    0 -0.15841328511E+01  0.55133230274E+00 -0.92125361346E+02  0.92140629732E+02  0.00000000000E+00 0. -1.
        -15    1    1    2    0    0  0.53280676112E+01  0.96038079768E-01 -0.38712191228E+03  0.38716266636E+03  0.17770000000E+01 0. -1.
         15    1    1    2    0    0  0.56584105274E+01 -0.66355827812E+01 -0.19704125224E+02  0.21620796664E+02  0.17770000000E+01 0. -1.
</event>
<event>
 6    1  0.1599106E-003  0.5042757E+03  0.7546771E-02  0.9390293E-01
        -11   -1    0    0    0    0  0.00000000000E+00  0.00000000000E+00  0.50000000000E+03  0.50000000000E+03  0.00000000000E+00 0.  1.
         11   -1    0    0    0    0 -0.00000000000E+00 -0.00000000000E+00 -0.50000000000E+03  0.50000000000E+03  0.00000000000E+00 0. -1.
        -11    1    1    2    0    0 -0.97072118416E+01  0.49602079722E+01  0.31258577753E+03  0.31277580139E+03  0.00000000000E+00 0.  1.
         11    1    1    2    0    0  0.13746650500E+01 -0.13433684628E+02 -0.49554035981E+03  0.49572432035E+03  0.00000000000E+00 0. -1.
        -15    1    1    2    0    0 -0.17921649336E+01  0.14186909891E+02  0.86656720757E+01  0.16814632584E+02  0.17770000000E+01 0.  1.
         15    1    1    2    0    0  0.10124711725E+02 -0.57134332356E+01  0.17428891020E+03  0.17468524567E+03  0.17770000000E+01 0. -1.
</event>
<event>
 6    1  0.1599106E-003  0.5001508E+03  0.7546771E-02  0.9399472E-01
        -11   -1    0    0    0    0  0.00000000000E+00  0.00000000000E+00  0.50000000000E+03  0.50000000000E+03  0.00000000000E+00 0. -1.
         11   -1    0    0    0    0 -0.00000000000E+00 -0.00000000000E+00 -0.50000000000E+03  0.50000000000E+03  0.00000000000E+00 0.  1.
        -11    1    1    2    0    0  0.21133347106E+01  0.13538243388E+01  0.14708772346E+03  0.14710913437E+03  0.00000000000E+00 0. -1.
         11    1    1    2    0    0 -0.26082508971E+01 -0.62670314774E+01 -0.49980314747E+03  0.49984924215E+03  0.00000000000E+00 0.  1.
        -15    1    1    2    0    0  0.65579852856E+01 -0.50319338267E+00  0.17125745044E+03  0.17139291828E+03  0.17770000000E+01 0.  1.
         15    1    1    2    0    0 -0.60630690991E+01  0.54164005213E+01  0.18145797357E+03  0.18164870520E+03  0.17770000000E+01 0. -1.
</event>
<event>
 6    1  0.1599106E-003  0.5007275E+03  0.7546771E-02  0.9398183E-01
        -11   -1    0    0    0    0  0.00000000000E+00  0.00000000000E+00  0.50000000000E+03  0.50000000000E+03  0.00000000000E+00 0.  1.
         11   -1    0    0    0    0 -0.00000000000E+00 -0.00000000000E+00 -0.50000000000E+03  0.50000000000E+03  0.00000000000E+00 0.  1.
        -11    1    1    2    0    0 -0.86011570840E+01 -0.84634840871E+01  0.49912669149E+03  0.49927253542E+03  0.00000000000E+00 0.  1.
         11    1    1    2    0    0 -0.49595077405E+01 -0.11921552246E+01 -0.32103812458E+03  0.32107864362E+03  0.00000000000E+00 0.  1.
        -15    1    1    2    0    0  0.73119925873E+00 -0.89402112089E+00 -0.87944196000E+02  0.87969729255E+02  0.17770000000E+01 0.  1.
         15    1    1    2    0    0  0.12829465566E+02  0.10549660433E+02 -0.90144370905E+02  0.91679091710E+02  0.17770000000E+01 0. -1.
</event>
<event>
 6    1  0.1599106E-003  0.5003050E+03  0.7546771E-02  0.9399128E-01
        -11   -1    0    0    0    0  0.00000000000E+00  0.00000000000E+00  0.50000000000E+03  0.50000000000E+03  0.00000000000E+00 0.  1.
         11   -1    0    0    0    0 -0.00000000000E+00 -0.00000000000E+00 -0.50000000000E+03  0.50000000000E+03  0.00000000000E+00 0.  1.
        -11    1    1    2    0    0 -0.79241799946E+01 -0.42877445600E+00  0.38481139155E+03  0.38489321057E+03  0.00000000000E+00 0.  1.
         11    1    1    2    0    0  0.20394356836E+01  0.65706099521E+01 -0.49964764721E+03  0.49969501055E+03  0.00000000000E+00 0.  1.
        -15    1    1    2    0    0  0.98304496390E+00 -0.57980741933E+01  0.52908705003E+02  0.53264179670E+02  0.17770000000E+01 0.  1.
         15    1    1    2    0    0  0.49016993471E+01 -0.34376130278E+00  0.61927550652E+02  0.62147599206E+02  0.17770000000E+01 0.  1.
</event>
<event>
 6    1  0.1599106E-003  0.5004904E+03  0.7546771E-02  0.9398713E-01
        -11   -1    0    0    0    0  0.00000000000E+00  0.00000000000E+00  0.50000000000E+03  0.50000000000E+03  0.00000000000E+00 0. -1.
         11   -1    0    0    0    0 -0.00000000000E+00 -0.00000000000E+00 -0.50000000000E+03  0.50000000000E+03  0.00000000000E+00 0. -1.
        -11    1    1    2    0    0 -0.51949271399E+01 -0.51589708925E+01  0.49945597210E+03  0.49950962986E+03  0.00000000000E+00 0. -1.
         11    1    1    2    0    0  0.23149137704E+01 -0.10248922372E+02 -0.27008861157E+03  0.27029291025E+03  0.00000000000E+00 0. -1.
        -15    1    1    2    0    0 -0.18047529549E+01  0.40294452814E+01 -0.24794361829E+02  0.25247013091E+02  0.17770000000E+01 0.  1.
         15    1    1    2    0    0  0.46847663244E+01  0.11378447983E+02 -0.20457299871E+03  0.20495044680E+03  0.17770000000E+01 0. -1.
</event>
<event>
 6    1  0.1599106E-003  0.5010973E+03  0.7546771E-02  0.9397358E-01
        -11   -1    0    0    0    0  0.00000000000E+00  0.00000000000E+00  0.50000000000E+03  0.50000000000E+03  0.00000000000E+00 0. -1.
         11   -1    0    0    0    0 -0.00000000000E+00 -0.00000000000E+00 -0.50000000000E+03  0.50000000000E+03  0.00000000000E+00 0. -1.
        -11    1    1    2    0    0 -0.28946987627E+01 -0.14236937268E+01  0.18322182352E+03  0.18325021910E+03  0.00000000000E+00 0. -1.
         11    1    1    2    0    0  0.12587407140E+02 -0.12578220339E+01 -0.49874225561E+03  0.49890265831E+03  0.00000000000E+00 0. -1.
        -15    1    1    2    0    0  0.85217395880E+01 -0.11059213955E+01  0.21340806378E+02  0.23074463235E+02  0.17770000000E+01 0. -1.
         15    1    1    2    0    0 -0.18214447965E+02  0.37874371562E+01  0.29417962571E+03  0.29477265936E+03  0.17770000000E+01 0. -1.
</event>
<event>
 6    1  0.1599106E-003  0.3357750E+03  0.7546771E-02  0.9867872E-01
        -11   -1    0    0    0    0  0.00000000000E+00  0.00000000000E+00  0.50000000000E+03  0.50000000000E+03  0.00000000000E+00 0.  1.
         11   -1    0    0    0    0 -0.00000000000E+00 -0.00000000000E+00 -0.50000000000E+03  0.50000000000E+03  0.00000000000E+00 0. -1.
        -11    1    1    2    0    0 -0.82116866139E+01 -0.78286363596E+01  0.28782037305E+03  0.28804389680E+03  0.00000000000E+00 0.  1.
         11    1    1    2    0    0  0.85972888511E+02  0.10181093799E+03 -0.63356669063E+02  0.14754955835E+03  0.00000000000E+00 0. -1.
        -15    1    1    2    0    0 -0.38278362693E+01  0.14375834223E+02  0.15870032186E+03  0.15940598116E+03  0.17770000000E+01 0.  1.
         15    1    1    2    0    0 -0.73933365627E+02 -0.10835813585E+03 -0.38316402585E+03  0.40500056369E+03  0.17770000000E+01 0. -1.
</event>
<event>
 6    1  0.1599106E-003  0.5028266E+03  0.7546771E-02  0.9393507E-01
        -11   -1    0    0    0    0  0.00000000000E+00  0.00000000000E+00  0.50000000000E+03  0.50000000000E+03  0.00000000000E+00 0.  1.
         11   -1    0    0    0    0 -0.00000000000E+00 -0.00000000000E+00 -0.50000000000E+03  0.50000000000E+03  0.00000000000E+00 0. -1.
        -11    1    1    2    0    0 -0.48938739747E+00 -0.53127021516E+01  0.26652414486E+03  0.26657753862E+03  0.00000000000E+00 0.  1.
         11    1    1    2    0    0 -0.18485193480E+02  0.79539333762E+01 -0.49676599679E+03  0.49717343352E+03  0.00000000000E+00 0. -1.
        -15    1    1    2    0    0  0.10178249265E+02 -0.14064763526E+02  0.24972802043E+02  0.30466586649E+02  0.17770000000E+01 0.  1.
         15    1    1    2    0    0  0.87963316127E+01  0.11423532302E+02  0.20526904988E+03  0.20578244121E+03  0.17770000000E+01 0. -1.
</event>
<event>
 6    1  0.1599106E-003  0.5286217E+03  0.7546771E-02  0.9337950E-01
        -11   -1    0    0    0    0  0.00000000000E+00  0.00000000000E+00  0.50000000000E+03  0.50000000000E+03  0.00000000000E+00 0.  1.
         11   -1    0    0    0    0 -0.00000000000E+00 -0.00000000000E+00 -0.50000000000E+03  0.50000000000E+03  0.00000000000E+00 0.  1.
        -11    1    1    2    0    0  0.33319717778E+00  0.87384052383E+01  0.31880957278E+03  0.31892948193E+03  0.00000000000E+00 0.  1.
         11    1    1    2    0    0  0.12772371933E+02  0.34041063184E+01 -0.47119298018E+03  0.47137834698E+03  0.00000000000E+00 0.  1.
        -15    1    1    2    0    0  0.12112872105E+02 -0.72470523314E+02  0.52600419284E+02  0.90380640947E+02  0.17770000000E+01 0.  1.
         15    1    1    2    0    0 -0.25218441215E+02  0.60328011758E+02  0.99782988114E+02  0.11931153015E+03  0.17770000000E+01 0. -1.
</event>
<event>
 6    1  0.1599106E-003  0.5375375E+03  0.7546771E-02  0.9319524E-01
        -11   -1    0    0    0    0  0.00000000000E+00  0.00000000000E+00  0.50000000000E+03  0.50000000000E+03  0.00000000000E+00 0. -1.
         11   -1    0    0    0    0 -0.00000000000E+00 -0.00000000000E+00 -0.50000000000E+03  0.50000000000E+03  0.00000000000E+00 0. -1.
        -11    1    1    2    0    0  0.76014965893E+01  0.28342123691E-01  0.46239997838E+03  0.46246245638E+03  0.00000000000E+00 0. -1.
         11    1    1    2    0    0 -0.28249164237E+01 -0.96466859265E+01 -0.44416528385E+03  0.44427900927E+03  0.00000000000E+00 0. -1.
        -15    1    1    2    0    0  0.17229626990E+01  0.11910737140E+02 -0.54735091269E+02  0.56070689356E+02  0.17770000000E+01 0.  1.
         15    1    1    2    0    0 -0.64995428646E+01 -0.22923933371E+01  0.36500396737E+02  0.37187844999E+02  0.17770000000E+01 0. -1.
</event>
<event>
 6    1  0.1599106E-003  0.5075044E+03  0.7546771E-02  0.9383173E-01
        -11   -1    0    0    0    0  0.00000000000E+00  0.00000000000E+00  0.50000000000E+03  0.50000000000E+03  0.00000000000E+00 0. -1.
         11   -1    0    0    0    0 -0.00000000000E+00 -0.00000000000E+00 -0.50000000000E+03  0.50000000000E+03  0.00000000000E+00 0.  1.
        -11    1    1    2    0    0  0.20281920942E+02  0.42753663675E+01  0.49205924634E+03  0.49249562128E+03  0.00000000000E+00 0. -1.
         11    1    1    2    0    0 -0.66860688184E+01  0.10248475328E+01 -0.34335911762E+03  0.34342573795E+03  0.00000000000E+00 0.  1.
        -15    1    1    2    0    0 -0.19499680173E+02 -0.13143958570E+01 -0.50805388558E+01  0.20271526025E+02  0.17770000000E+01 0. -1.
         15    1    1    2    0    0  0.59038280501E+01 -0.39858180432E+01 -0.14361958986E+03  0.14380711474E+03  0.17770000000E+01 0.  1.
</event>
<event>
 6    1  0.1599106E-003  0.4756567E+03  0.7546771E-02  0.9455990E-01
        -11   -1    0    0    0    0  0.00000000000E+00  0.00000000000E+00  0.50000000000E+03  0.50000000000E+03  0.00000000000E+00 0.  1.
         11   -1    0    0    0    0 -0.00000000000E+00 -0.00000000000E+00 -0.50000000000E+03  0.50000000000E+03  0.00000000000E+00 0.  1.
        -11    1    1    2    0    0  0.96624854913E+01 -0.17105243951E+01  0.48080083159E+03  0.48090095568E+03  0.00000000000E+00 0.  1.
         11    1    1    2    0    0  0.11102574724E+02 -0.41352302102E+01 -0.47056299784E+03  0.47071212246E+03  0.00000000000E+00 0.  1.
        -15    1    1    2    0    0 -0.19427242037E+02  0.12149259459E+02 -0.23912427752E+02  0.33166009234E+02  0.17770000000E+01 0. -1.
         15    1    1    2    0    0 -0.13378181787E+01 -0.63035048539E+01  0.13674594004E+02  0.15220912624E+02  0.17770000000E+01 0.  1.
</event>
<event>
 6    1  0.1599106E-003  0.5110144E+03  0.7546771E-02  0.9375496E-01
        -11   -1    0    0    0    0  0.00000000000E+00  0.00000000000E+00  0.50000000000E+03  0.50000000000E+03  0.00000000000E+00 0.  1.
         11   -1    0    0    0    0 -0.00000000000E+00 -0.00000000000E+00 -0.50000000000E+03  0.50000000000E+03  0.00000000000E+00 0. -1.
        -11    1    1    2    0    0 -0.50208070944E+01 -0.50315534547E+01  0.48893394003E+03  0.48898560587E+03  0.00000000000E+00 0.  1.
         11    1    1    2    0    0  0.94292760078E+01 -0.15290440170E+01 -0.46704706388E+03  0.46714474106E+03  0.00000000000E+00 0. -1.
        -15    1    1    2    0    0 -0.16013943975E+02 -0.90263682701E+01 -0.96692818938E+01  0.20846449749E+02  0.17770000000E+01 0.  1.
         15    1    1    2    0    0  0.11605475062E+02  0.15586965742E+02 -0.12217594260E+02  0.23023203317E+02  0.17770000000E+01 0. -1.
</event>
<event>
 6    1  0.1599106E-003  0.5023554E+03  0.7546771E-02  0.9394555E-01
        -11   -1    0    0    0    0  0.00000000000E+00  0.00000000000E+00  0.50000000000E+03  0.50000000000E+03  0.00000000000E+00 0. -1.
         11   -1    0    0    0    0 -0.00000000000E+00 -0.00000000000E+00 -0.50000000000E+03  0.50000000000E+03  0.00000000000E+00 0.  1.
        -11    1    1    2    0    0 -0.61609693744E+01 -0.40537363960E+01  0.49758999624E+03  0.49764464699E+03  0.00000000000E+00 0. -1.
         11    1    1    2    0    0  0.73606517244E+01 -0.33899534385E+01 -0.44526736725E+03  0.44534110446E+03  0.00000000000E+00 0.  1.
        -15    1    1    2    0    0  0.22426415260E+01  0.70514447873E+01 -0.41180212586E+01  0.86526379035E+01  0.17770000000E+01 0. -1.
         15    1    1    2    0    0 -0.34423238759E+01  0.39224504712E+00 -0.48204607725E+02  0.48361610651E+02  0.17770000000E+01 0.  1.
</event>
<event>
 6    1  0.1599106E-003  0.5006176E+03  0.7546771E-02  0.9398429E-01
        -11   -1    0    0    0    0  0.00000000000E+00  0.00000000000E+00  0.50000000000E+03  0.50000000000E+03  0.00000000000E+00 0. -1.
         11   -1    0    0    0    0 -0.00000000000E+00 -0.00000000000E+00 -0.50000000000E+03  0.50000000000E+03  0.00000000000E+00 0.  1.
        -11    1    1    2    0    0 -0.11130199268E+01  0.58823677283E+01  0.16231749315E+03  0.16242785982E+03  0.00000000000E+00 0. -1.
         11    1    1    2    0    0  0.14606944087E+02 -0.72386325513E+01 -0.49911627534E+03  0.49938243554E+03  0.00000000000E+00 0.  1.
        -15    1    1    2    0    0 -0.36912960775E+01 -0.32085330184E+01  0.10614614766E+02  0.11821511176E+02  0.17770000000E+01 0.  1.
         15    1    1    2    0    0 -0.98026280826E+01  0.45647978415E+01  0.32618416743E+03  0.32636819347E+03  0.17770000000E+01 0. -1.
</event>
<event>
 6    1  0.1599106E-003  0.5036209E+03  0.7546771E-02  0.9391744E-01
        -11   -1    0    0    0    0  0.00000000000E+00  0.00000000000E+00  0.50000000000E+03  0.50000000000E+03  0.00000000000E+00 0. -1.
         11   -1    0    0    0    0 -0.00000000000E+00 -0.00000000000E+00 -0.50000000000E+03  0.50000000000E+03  0.00000000000E+00 0.  1.
        -11    1    1    2    0    0  0.35610162143E+01  0.95462242510E+01  0.49627449610E+03  0.49637907562E+03  0.00000000000E+00 0. -1.
         11    1    1    2    0    0 -0.47234922753E+01 -0.72960907504E+01 -0.46330349865E+03  0.46338501937E+03  0.00000000000E+00 0.  1.
        -15    1    1    2    0    0  0.12451125918E+00 -0.12490275072E+02 -0.17968490922E+02  0.21955565796E+02  0.17770000000E+01 0.  1.
         15    1    1    2    0    0  0.10379648019E+01  0.10240141571E+02 -0.15002506531E+02  0.18280339208E+02  0.17770000000E+01 0. -1.
</event>
<event>
 6    1  0.1599106E-003  0.4890460E+03  0.7546771E-02  0.9424659E-01
        -11   -1    0    0    0    0  0.00000000000E+00  0.00000000000E+00  0.50000000000E+03  0.50000000000E+03  0.00000000000E+00 0. -1.
         11   -1    0    0    0    0 -0.00000000000E+00 -0.00000000000E+00 -0.50000000000E+03  0.50000000000E+03  0.00000000000E+00 0.  1.
        -11    1    1    2    0    0  0.75038622543E+01 -0.85639586411E+00  0.48698082204E+03  0.48703938485E+03  0.00000000000E+00 0. -1.
         11    1    1    2    0    0  0.10540580527E+02  0.32063666626E+01 -0.49110692567E+03  0.49123049281E+03  0.00000000000E+00 0.  1.
        -15    1    1    2    0    0 -0.17098626179E+02  0.38937637161E-01  0.86255464580E+00  0.17212386902E+02  0.17770000000E+01 0.  1.
         15    1    1    2    0    0 -0.94581660171E+00 -0.23889084356E+01  0.32635489835E+01  0.45177354422E+01  0.17770000000E+01 0. -1.
</event>
<event>
 6    1  0.1599106E-003  0.5013828E+03  0.7546771E-02  0.9396721E-01
        -11   -1    0    0    0    0  0.00000000000E+00  0.00000000000E+00  0.50000000000E+03  0.50000000000E+03  0.00000000000E+00 0. -1.
         11   -1    0    0    0    0 -0.00000000000E+00 -0.00000000000E+00 -0.50000000000E+03  0.50000000000E+03  0.00000000000E+00 0.  1.
        -11    1    1    2    0    0 -0.56401523012E+01 -0.59815470886E+01  0.39792324339E+03  0.39800816305E+03  0.00000000000E+00 0. -1.
         11    1    1    2    0    0 -0.88956916179E+01 -0.14516547226E+01 -0.49853575678E+03  0.49861722936E+03  0.00000000000E+00 0.  1.
        -15    1    1    2    0    0  0.96117149692E+01 -0.25857750200E+01  0.70291065743E+02  0.71014526327E+02  0.17770000000E+01 0. -1.
         15    1    1    2    0    0  0.49241289499E+01  0.10018976831E+02  0.30321447643E+02  0.32360081255E+02  0.17770000000E+01 0.  1.
</event>
<event>
 6    1  0.1599106E-003  0.5003726E+03  0.7546771E-02  0.9398976E-01
        -11   -1    0    0    0    0  0.00000000000E+00  0.00000000000E+00  0.50000000000E+03  0.50000000000E+03  0.00000000000E+00 0. -1.
         11   -1    0    0    0    0 -0.00000000000E+00 -0.00000000000E+00 -0.50000000000E+03  0.50000000000E+03  0.00000000000E+00 0.  1.
        -11    1    1    2    0    0 -0.10876871540E+02 -0.39073442072E+01  0.49949372046E+03  0.49962741163E+03  0.00000000000E+00 0. -1.
         11    1    1    2    0    0 -0.10458524959E+01 -0.33219611611E+01 -0.13960241570E+03  0.13964585100E+03  0.00000000000E+00 0.  1.
        -15    1    1    2    0    0  0.37482662177E+01 -0.35791458481E+01 -0.23940928639E+03  0.23947196898E+03  0.17770000000E+01 0.  1.
         15    1    1    2    0    0  0.81744578178E+01  0.10808451216E+02 -0.12048201837E+03  0.12125476839E+03  0.17770000000E+01 0.  1.
</event>
<event>
 6    1  0.1599106E-003  0.5074827E+03  0.7546771E-02  0.9383220E-01
        -11   -1    0    0    0    0  0.00000000000E+00  0.00000000000E+00  0.50000000000E+03  0.50000000000E+03  0.00000000000E+00 0. -1.
         11   -1    0    0    0    0 -0.00000000000E+00 -0.00000000000E+00 -0.50000000000E+03  0.50000000000E+03  0.00000000000E+00 0.  1.
        -11    1    1    2    0    0  0.72291999901E+01  0.90741965029E+01  0.49238058815E+03  0.49251725448E+03  0.00000000000E+00 0. -1.
         11    1    1    2    0    0 -0.13203241230E+02  0.10500629832E+01 -0.45095457937E+03  0.45114904507E+03  0.00000000000E+00 0.  1.
        -15    1    1    2    0    0 -0.61952496731E+01 -0.86548424474E+01  0.21746556767E+01  0.11007918632E+02  0.17770000000E+01 0. -1.
         15    1    1    2    0    0  0.12169290913E+02 -0.14694170386E+01 -0.43600664457E+02  0.45325781823E+02  0.17770000000E+01 0.  1.
</event>
<event>
 6    1  0.1599106E-003  0.5083226E+03  0.7546771E-02  0.9381377E-01
        -11   -1    0    0    0    0  0.00000000000E+00  0.00000000000E+00  0.50000000000E+03  0.50000000000E+03  0.00000000000E+00 0.  1.
         11   -1    0    0    0    0 -0.00000000000E+00 -0.00000000000E+00 -0.50000000000E+03  0.50000000000E+03  0.00000000000E+00 0.  1.
        -11    1    1    2    0    0  0.78114098435E+01  0.58364670053E+01  0.49158070458E+03  0.49167740602E+03  0.00000000000E+00 0.  1.
         11    1    1    2    0    0  0.17551203313E+02  0.91684335687E+01 -0.41021917008E+03  0.41069681324E+03  0.00000000000E+00 0.  1.
        -15    1    1    2    0    0 -0.69541604172E+01  0.14704564929E+01  0.42727374496E+01  0.84815448898E+01  0.17770000000E+01 0. -1.
         15    1    1    2    0    0 -0.18408452739E+02 -0.16475357067E+02 -0.85634271955E+02  0.89144235849E+02  0.17770000000E+01 0.  1.
</event>
<event>
 6    1  0.1599106E-003  0.5037763E+03  0.7546771E-02  0.9391399E-01
        -11   -1    0    0    0    0  0.00000000000E+00  0.00000000000E+00  0.50000000000E+03  0.50000000000E+03  0.00000000000E+00 0.  1.
         11   -1    0    0    0    0 -0.00000000000E+00 -0.00000000000E+00 -0.50000000000E+03  0.50000000000E+03  0.00000000000E+00 0.  1.
        -11    1    1    2    0    0 -0.53142945991E+01  0.12259484382E+02  0.49604382102E+03  0.49622374898E+03  0.00000000000E+00 0.  1.
         11    1    1    2    0    0  0.74463339645E+01  0.13366695135E+02 -0.34828684290E+03  0.34862277803E+03  0.00000000000E+00 0.  1.
        -15    1    1    2    0    0  0.79716029200E+01  0.10906974039E+00 -0.46693613116E+01  0.94084543566E+01  0.17770000000E+01 0. -1.
         15    1    1    2    0    0 -0.10103642285E+02 -0.25735249257E+02 -0.14308761681E+03  0.14574501863E+03  0.17770000000E+01 0.  1.
</event>
<event>
 6    1  0.1599106E-003  0.5084111E+03  0.7546771E-02  0.9381183E-01
        -11   -1    0    0    0    0  0.00000000000E+00  0.00000000000E+00  0.50000000000E+03  0.50000000000E+03  0.00000000000E+00 0. -1.
         11   -1    0    0    0    0 -0.00000000000E+00 -0.00000000000E+00 -0.50000000000E+03  0.50000000000E+03  0.00000000000E+00 0. -1.
        -11    1    1    2    0    0  0.33115543374E+02 -0.31096172789E+02  0.48948543690E+03  0.49158885678E+03  0.00000000000E+00 0. -1.
         11    1    1    2    0    0  0.54877025479E+01  0.20131267621E+02 -0.15088937528E+03  0.15232526510E+03  0.00000000000E+00 0. -1.
        -15    1    1    2    0    0 -0.27307368393E+02  0.23050501525E+02 -0.33752233980E+03  0.33941347290E+03  0.17770000000E+01 0. -1.
         15    1    1    2    0    0 -0.11295877530E+02 -0.12085596356E+02 -0.10737218175E+01  0.16672405225E+02  0.17770000000E+01 0.  1.
</event>
<event>
 6    1  0.1599106E-003  0.5119731E+03  0.7546771E-02  0.9373411E-01
        -11   -1    0    0    0    0  0.00000000000E+00  0.00000000000E+00  0.50000000000E+03  0.50000000000E+03  0.00000000000E+00 0. -1.
         11   -1    0    0    0    0 -0.00000000000E+00 -0.00000000000E+00 -0.50000000000E+03  0.50000000000E+03  0.00000000000E+00 0. -1.
        -11    1    1    2    0    0 -0.13305463792E+02 -0.46669691147E+01  0.48782318864E+03  0.48802692481E+03  0.00000000000E+00 0. -1.
         11    1    1    2    0    0  0.56744624171E+01 -0.28038251751E+01 -0.17178914539E+03  0.17190570506E+03  0.00000000000E+00 0. -1.
        -15    1    1    2    0    0  0.13308081153E+02  0.13304125933E+02  0.44962506944E+01  0.19428813400E+02  0.17770000000E+01 0.  1.
         15    1    1    2    0    0 -0.56770797786E+01 -0.58333316436E+01 -0.32053029395E+03  0.32063855672E+03  0.17770000000E+01 0. -1.
</event>
<event>
 6    1  0.1599106E-003  0.2563368E+03  0.7546771E-02  0.1021321E+00
        -11   -1    0    0    0    0  0.00000000000E+00  0.00000000000E+00  0.50000000000E+03  0.50000000000E+03  0.00000000000E+00 0.  1.
         11   -1    0    0    0    0 -0.00000000000E+00 -0.00000000000E+00 -0.50000000000E+03  0.50000000000E+03  0.00000000000E+00 0. -1.
        -11    1    1    2    0    0  0.75227410459E+01  0.11398999547E+02  0.30276858292E+03  0.30307646499E+03  0.00000000000E+00 0.  1.
         11    1    1    2    0    0  0.29599446683E+02 -0.87067725592E+00 -0.24948851828E+03  0.25123973825E+03  0.00000000000E+00 0. -1.
        -15    1    1    2    0    0 -0.10130857324E+03 -0.14861375031E+03 -0.17483205968E+03  0.25083636223E+03  0.17770000000E+01 0. -1.
         15    1    1    2    0    0  0.64186385513E+02  0.13808542802E+03  0.12155199504E+03  0.19484743453E+03  0.17770000000E+01 0.  1.
</event>
<event>
 6    1  0.1599106E-003  0.5033399E+03  0.7546771E-02  0.9392367E-01
        -11   -1    0    0    0    0  0.00000000000E+00  0.00000000000E+00  0.50000000000E+03  0.50000000000E+03  0.00000000000E+00 0.  1.
         11   -1    0    0    0    0 -0.00000000000E+00 -0.00000000000E+00 -0.50000000000E+03  0.50000000000E+03  0.00000000000E+00 0. -1.
        -11    1    1    2    0    0 -0.11007672094E+02 -0.73995619146E+01  0.45765526282E+03  0.45784742213E+03  0.00000000000E+00 0.  1.
         11    1    1    2    0    0  0.25540568638E+01  0.14287250197E+02 -0.49644799694E+03  0.49666010751E+03  0.00000000000E+00 0. -1.
        -15    1    1    2    0    0 -0.89652125362E+00 -0.25558314136E+01 -0.17090179444E+01  0.36625804984E+01  0.17770000000E+01 0. -1.
         15    1    1    2    0    0  0.93501364840E+01 -0.43318568685E+01  0.40501752067E+02  0.41829889860E+02  0.17770000000E+01 0.  1.
</event>
<event>
 6    1  0.1599106E-003  0.5186476E+03  0.7546771E-02  0.9359024E-01
        -11   -1    0    0    0    0  0.00000000000E+00  0.00000000000E+00  0.50000000000E+03  0.50000000000E+03  0.00000000000E+00 0.  1.
         11   -1    0    0    0    0 -0.00000000000E+00 -0.00000000000E+00 -0.50000000000E+03  0.50000000000E+03  0.00000000000E+00 0. -1.
        -11    1    1    2    0    0 -0.30450720365E+01 -0.56154052093E+01  0.46690608851E+03  0.46694978394E+03  0.00000000000E+00 0.  1.
         11    1    1    2    0    0 -0.11873369331E+01 -0.74491192292E+01 -0.48129326541E+03  0.48135237246E+03  0.00000000000E+00 0. -1.
        -15    1    1    2    0    0 -0.37742094239E+01  0.29205172545E+02  0.15929417810E+02  0.33527463980E+02  0.17770000000E+01 0. -1.
         15    1    1    2    0    0  0.80066183936E+01 -0.16140648107E+02 -0.15422409069E+01  0.18170379617E+02  0.17770000000E+01 0.  1.
</event>
<event>
 6    1  0.1599106E-003  0.5038431E+03  0.7546771E-02  0.9391251E-01
        -11   -1    0    0    0    0  0.00000000000E+00  0.00000000000E+00  0.50000000000E+03  0.50000000000E+03  0.00000000000E+00 0. -1.
         11   -1    0    0    0    0 -0.00000000000E+00 -0.00000000000E+00 -0.50000000000E+03  0.50000000000E+03  0.00000000000E+00 0. -1.
        -11    1    1    2    0    0  0.11779388386E+02  0.18942749024E+02  0.16352879881E+03  0.16504317548E+03  0.00000000000E+00 0. -1.
         11    1    1    2    0    0  0.21266817234E+01 -0.76038033590E+01 -0.49609410739E+03  0.49615693484E+03  0.00000000000E+00 0. -1.
        -15    1    1    2    0    0 -0.26249171885E+02 -0.20925659563E+02  0.30663195930E+03  0.30846915315E+03  0.17770000000E+01 0. -1.
         15    1    1    2    0    0  0.12343101776E+02  0.95867138980E+01  0.25933349275E+02  0.30330736530E+02  0.17770000000E+01 0.  1.
</event>
<event>
 6    1  0.1599106E-003  0.5062789E+03  0.7546771E-02  0.9385869E-01
        -11   -1    0    0    0    0  0.00000000000E+00  0.00000000000E+00  0.50000000000E+03  0.50000000000E+03  0.00000000000E+00 0. -1.
         11   -1    0    0    0    0 -0.00000000000E+00 -0.00000000000E+00 -0.50000000000E+03  0.50000000000E+03  0.00000000000E+00 0. -1.
        -11    1    1    2    0    0 -0.27733889283E+01  0.25344124910E+02  0.24857705517E+03  0.24988110915E+03  0.00000000000E+00 0. -1.
         11    1    1    2    0    0  0.43280409546E+02 -0.15952317498E+02 -0.49156167940E+03  0.49372113074E+03  0.00000000000E+00 0. -1.
        -15    1    1    2    0    0 -0.24038178510E+02  0.12664025420E+02  0.25937106121E+02  0.37604557820E+02  0.17770000000E+01 0.  1.
         15    1    1    2    0    0 -0.16468842108E+02 -0.22055832832E+02  0.21704751811E+03  0.21879320229E+03  0.17770000000E+01 0. -1.
</event>
<event>
 6    1  0.1599106E-003  0.5026711E+03  0.7546771E-02  0.9393853E-01
        -11   -1    0    0    0    0  0.00000000000E+00  0.00000000000E+00  0.50000000000E+03  0.50000000000E+03  0.00000000000E+00 0. -1.
         11   -1    0    0    0    0 -0.00000000000E+00 -0.00000000000E+00 -0.50000000000E+03  0.50000000000E+03  0.00000000000E+00 0.  1.
        -11    1    1    2    0    0  0.60017329756E+01 -0.65076288310E+01  0.49725006059E+03  0.49732885779E+03  0.00000000000E+00 0. -1.
         11    1    1    2    0    0  0.96895319037E+01  0.49604581546E+01 -0.47055397172E+03  0.47067986304E+03  0.00000000000E+00 0.  1.
        -15    1    1    2    0    0 -0.52025939227E+01 -0.18627092724E+01 -0.13541780217E+02  0.14733438492E+02  0.17770000000E+01 0. -1.
         15    1    1    2    0    0 -0.10488670957E+02  0.34098799489E+01 -0.13154308654E+02  0.17257840678E+02  0.17770000000E+01 0.  1.
</event>
<event>
 6    1  0.1605167E-003  0.5005664E+03  0.7546771E-02  0.9398543E-01
        -11   -1    0    0    0    0  0.00000000000E+00  0.00000000000E+00  0.50000000000E+03  0.50000000000E+03  0.00000000000E+00 0. -1.
         11   -1    0    0    0    0 -0.00000000000E+00 -0.00000000000E+00 -0.50000000000E+03  0.50000000000E+03  0.00000000000E+00 0.  1.
        -11    1    1    2    0    0 -0.86736226439E+01  0.24869769207E+01  0.49935211705E+03  0.49943363281E+03  0.00000000000E+00 0. -1.
         11    1    1    2    0    0  0.34057099556E+01 -0.28953965495E+01 -0.31903358713E+03  0.31906490233E+03  0.00000000000E+00 0.  1.
        -15    1    1    2    0    0 -0.24264024333E+01 -0.10552748498E+01 -0.15284158537E+03  0.15287481474E+03  0.17770000000E+01 0.  1.
         15    1    1    2    0    0  0.76943151215E+01  0.14636944786E+01 -0.27476944537E+02  0.28626650115E+02  0.17770000000E+01 0. -1.
</event>
<event>
 6    1  0.1599106E-003  0.5111502E+03  0.7546771E-02  0.9375200E-01
        -11   -1    0    0    0    0  0.00000000000E+00  0.00000000000E+00  0.50000000000E+03  0.50000000000E+03  0.00000000000E+00 0.  1.
         11   -1    0    0    0    0 -0.00000000000E+00 -0.00000000000E+00 -0.50000000000E+03  0.50000000000E+03  0.00000000000E+00 0. -1.
        -11    1    1    2    0    0  0.45784484619E+01 -0.41781711066E+00  0.41215846675E+02  0.41471469453E+02  0.00000000000E+00 0.  1.
         11    1    1    2    0    0  0.63445161175E+01  0.97366750596E+01 -0.48871164502E+03  0.48884980076E+03  0.00000000000E+00 0. -1.
        -15    1    1    2    0    0 -0.41673300519E+01  0.75463765991E+01  0.45100412176E+03  0.45109000212E+03  0.17770000000E+01 0.  1.
         15    1    1    2    0    0 -0.67556345274E+01 -0.16865234548E+02 -0.35083234101E+01  0.18588727670E+02  0.17770000000E+01 0. -1.
</event>
<event>
 6    1  0.1599106E-003  0.5001925E+03  0.7546771E-02  0.9399379E-01
        -11   -1    0    0    0    0  0.00000000000E+00  0.00000000000E+00  0.50000000000E+03  0.50000000000E+03  0.00000000000E+00 0.  1.
         11   -1    0    0    0    0 -0.00000000000E+00 -0.00000000000E+00 -0.50000000000E+03  0.50000000000E+03  0.00000000000E+00 0.  1.
        -11    1    1    2    0    0 -0.12327224088E+00 -0.64164648790E+00  0.38110282161E+02  0.38115882682E+02  0.00000000000E+00 0.  1.
         11    1    1    2    0    0 -0.30750363044E+02  0.59857354644E+01 -0.49882477261E+03  0.49980753059E+03  0.00000000000E+00 0.  1.
        -15    1    1    2    0    0  0.14912560231E+02  0.45561812234E+00  0.12037917979E+03  0.12131321732E+03  0.17770000000E+01 0. -1.
         15    1    1    2    0    0  0.15961075055E+02 -0.57997070989E+01  0.34033531066E+03  0.34076336941E+03  0.17770000000E+01 0.  1.
</event>
<event>
 6    1  0.1599106E-003  0.4822554E+03  0.7546771E-02  0.9440414E-01
        -11   -1    0    0    0    0  0.00000000000E+00  0.00000000000E+00  0.50000000000E+03  0.50000000000E+03  0.00000000000E+00 0. -1.
         11   -1    0    0    0    0 -0.00000000000E+00 -0.00000000000E+00 -0.50000000000E+03  0.50000000000E+03  0.00000000000E+00 0.  1.
        -11    1    1    2    0    0  0.73788402636E+01 -0.12534170931E+02  0.48639892640E+03  0.48661634614E+03  0.00000000000E+00 0. -1.
         11    1    1    2    0    0  0.60877558086E+01 -0.27563069614E+01 -0.47809868855E+03  0.47814539001E+03  0.00000000000E+00 0.  1.
        -15    1    1    2    0    0 -0.36545960049E+01  0.21873943617E+02 -0.44914711376E+01  0.22697059794E+02  0.17770000000E+01 0.  1.
         15    1    1    2    0    0 -0.98120000674E+01 -0.65834657244E+01 -0.38087667144E+01  0.12541204055E+02  0.17770000000E+01 0. -1.
</event>
<event>
 6    1  0.1599106E-003  0.5008987E+03  0.7546771E-02  0.9397801E-01
        -11   -1    0    0    0    0  0.00000000000E+00  0.00000000000E+00  0.50000000000E+03  0.50000000000E+03  0.00000000000E+00 0.  1.
         11   -1    0    0    0    0 -0.00000000000E+00 -0.00000000000E+00 -0.50000000000E+03  0.50000000000E+03  0.00000000000E+00 0.  1.
        -11    1    1    2    0    0  0.72758391152E+01 -0.11364300721E+01  0.35659916240E+03  0.35667519108E+03  0.00000000000E+00 0.  1.
         11    1    1    2    0    0 -0.18042405274E+01 -0.13089765729E+02 -0.49892635948E+03  0.49910130177E+03  0.00000000000E+00 0.  1.
        -15    1    1    2    0    0 -0.33941197518E+01 -0.32684619581E+01  0.46701302287E+02  0.46972036966E+02  0.17770000000E+01 0. -1.
         15    1    1    2    0    0 -0.20774788360E+01  0.17494657759E+02  0.95625894795E+02  0.97251470183E+02  0.17770000000E+01 0.  1.
</event>
<event>
 6    1  0.1599106E-003  0.5080686E+03  0.7546771E-02  0.9381934E-01
        -11   -1    0    0    0    0  0.00000000000E+00  0.00000000000E+00  0.50000000000E+03  0.50000000000E+03  0.00000000000E+00 0. -1.
         11   -1    0    0    0    0 -0.00000000000E+00 -0.00000000000E+00 -0.50000000000E+03  0.50000000000E+03  0.00000000000E+00 0.  1.
        -11    1    1    2    0    0 -0.60026001814E+01 -0.58649293953E+01  0.47639970706E+03  0.47647361888E+03  0.00000000000E+00 0. -1.
         11    1    1    2    0    0 -0.91719558318E+01 -0.10658620193E+02 -0.49173034766E+03  0.49193136286E+03  0.00000000000E+00 0.  1.
        -15    1    1    2    0    0  0.43881685697E+01  0.18041119620E+01  0.11911377792E+02  0.12944091057E+02  0.17770000000E+01 0.  1.
         15    1    1    2    0    0  0.10786387443E+02  0.14719437626E+02  0.34192628119E+01  0.18650927197E+02  0.17770000000E+01 0. -1.
</event>
<event>
 6    1  0.1599106E-003  0.5014697E+03  0.7546771E-02  0.9396527E-01
        -11   -1    0    0    0    0  0.00000000000E+00  0.00000000000E+00  0.50000000000E+03  0.50000000000E+03  0.00000000000E+00 0.  1.
         11   -1    0    0    0    0 -0.00000000000E+00 -0.00000000000E+00 -0.50000000000E+03  0.50000000000E+03  0.00000000000E+00 0.  1.
        -11    1    1    2    0    0 -0.80688700610E+01 -0.90975711377E+00  0.49846421483E+03  0.49853034791E+03  0.00000000000E+00 0.  1.
         11    1    1    2    0    0 -0.24614536511E+01 -0.67213001040E+01 -0.22792705485E+03  0.22803941975E+03  0.00000000000E+00 0.  1.
        -15    1    1    2    0    0  0.95856561937E+01  0.18321575799E+02 -0.24202727417E+03  0.24291546702E+03  0.17770000000E+01 0.  1.
         15    1    1    2    0    0  0.94466751838E+00 -0.10690518581E+02 -0.28509885810E+02  0.30514765314E+02  0.17770000000E+01 0. -1.
</event>
<event>
 6    1  0.1599106E-003  0.5189327E+03  0.7546771E-02  0.9358415E-01
        -11   -1    0    0    0    0  0.00000000000E+00  0.00000000000E+00  0.50000000000E+03  0.50000000000E+03  0.00000000000E+00 0.  1.
         11   -1    0    0    0    0 -0.00000000000E+00 -0.00000000000E+00 -0.50000000000E+03  0.50000000000E+03  0.00000000000E+00 0. -1.
        -11    1    1    2    0    0  0.26764144629E+01 -0.60287528976E+01  0.30848054527E+03  0.30855105876E+03  0.00000000000E+00 0.  1.
         11    1    1    2    0    0 -0.16122267181E+02 -0.10462274701E+02 -0.48068321292E+03  0.48106729038E+03  0.00000000000E+00 0. -1.
        -15    1    1    2    0    0 -0.24715274292E+01  0.97049663329E+01  0.18716266595E+03  0.18743883289E+03  0.17770000000E+01 0.  1.
         15    1    1    2    0    0  0.15917380147E+02  0.67860612658E+01 -0.14959998300E+02  0.22942817970E+02  0.17770000000E+01 0. -1.
</event>
<event>
 6    1  0.1599106E-003  0.5018225E+03  0.7546771E-02  0.9395741E-01
        -11   -1    0    0    0    0  0.00000000000E+00  0.00000000000E+00  0.50000000000E+03  0.50000000000E+03  0.00000000000E+00 0.  1.
         11   -1    0    0    0    0 -0.00000000000E+00 -0.00000000000E+00 -0.50000000000E+03  0.50000000000E+03  0.00000000000E+00 0. -1.
        -11    1    1    2    0    0 -0.87986680701E+01 -0.28680196525E+01  0.49809156132E+03  0.49817752413E+03  0.00000000000E+00 0.  1.
         11    1    1    2    0    0 -0.42255326298E+01  0.57476040136E+01 -0.46495811453E+03  0.46501283676E+03  0.00000000000E+00 0. -1.
        -15    1    1    2    0    0  0.14515520478E+01 -0.27580911489E+01 -0.38021915840E+01  0.52276629553E+01  0.17770000000E+01 0. -1.
         15    1    1    2    0    0  0.11572648652E+02 -0.12149321218E+00 -0.29331255198E+02  0.31581976156E+02  0.17770000000E+01 0.  1.
</event>
<event>
 6    1  0.1599106E-003  0.5032501E+03  0.7546771E-02  0.9392567E-01
        -11   -1    0    0    0    0  0.00000000000E+00  0.00000000000E+00  0.50000000000E+03  0.50000000000E+03  0.00000000000E+00 0.  1.
         11   -1    0    0    0    0 -0.00000000000E+00 -0.00000000000E+00 -0.50000000000E+03  0.50000000000E+03  0.00000000000E+00 0.  1.
        -11    1    1    2    0    0  0.32687204666E+01  0.69003734017E+01  0.46138519692E+03  0.46144837157E+03  0.00000000000E+00 0.  1.
         11    1    1    2    0    0 -0.15294561682E+02 -0.91937610573E+01 -0.49642922645E+03  0.49674986234E+03  0.00000000000E+00 0.  1.
        -15    1    1    2    0    0 -0.59213104460E+00 -0.62558110163E+01  0.16418097408E+02  0.17669109829E+02  0.17770000000E+01 0. -1.
         15    1    1    2    0    0  0.12617972260E+02  0.85491986719E+01  0.18625932121E+02  0.24132656262E+02  0.17770000000E+01 0.  1.
</event>
<event>
 6    1  0.1599106E-003  0.5042275E+03  0.7546771E-02  0.9390400E-01
        -11   -1    0    0    0    0  0.00000000000E+00  0.00000000000E+00  0.50000000000E+03  0.50000000000E+03  0.00000000000E+00 0. -1.
         11   -1    0    0    0    0 -0.00000000000E+00 -0.00000000000E+00 -0.50000000000E+03  0.50000000000E+03  0.00000000000E+00 0. -1.
        -11    1    1    2    0    0  0.70253958808E+01  0.84270700969E+01  0.49565105321E+03  0.49577246620E+03  0.00000000000E+00 0. -1.
         11    1    1    2    0    0 -0.89555303750E+01  0.67670681299E+01 -0.48214180678E+03  0.48227245057E+03  0.00000000000E+00 0. -1.
        -15    1    1    2    0    0  0.38010587717E+01 -0.84649503296E+01 -0.10555998583E+02  0.14166519225E+02  0.17770000000E+01 0. -1.
         15    1    1    2    0    0 -0.18709242774E+01 -0.67291878972E+01 -0.29532478476E+01  0.77885640048E+01  0.17770000000E+01 0.  1.
</event>
<event>
 6    1  0.1599106E-003  0.5369784E+03  0.7546771E-02  0.9320669E-01
        -11   -1    0    0    0    0  0.00000000000E+00  0.00000000000E+00  0.50000000000E+03  0.50000000000E+03  0.00000000000E+00 0.  1.
         11   -1    0    0    0    0 -0.00000000000E+00 -0.00000000000E+00 -0.50000000000E+03  0.50000000000E+03  0.00000000000E+00 0.  1.
        -11    1    1    2    0    0  0.11893326349E+02  0.27765782491E+00  0.35560159239E+03  0.35580053516E+03  0.00000000000E+00 0.  1.
         11    1    1    2    0    0  0.74996988511E+01 -0.17412667710E+02 -0.46263330883E+03  0.46302162468E+03  0.00000000000E+00 0.  1.
        -15    1    1    2    0    0 -0.30053070353E+02  0.30600748247E+02 -0.23886804641E+02  0.49125655170E+02  0.17770000000E+01 0. -1.
         15    1    1    2    0    0  0.10660045153E+02 -0.13465738362E+02  0.13091852108E+03  0.13205218499E+03  0.17770000000E+01 0.  1.
</event>
<event>
 6    1  0.1599106E-003  0.5163511E+03  0.7546771E-02  0.9363948E-01
        -11   -1    0    0    0    0  0.00000000000E+00  0.00000000000E+00  0.50000000000E+03  0.50000000000E+03  0.00000000000E+00 0. -1.
         11   -1    0    0    0    0 -0.00000000000E+00 -0.00000000000E+00 -0.50000000000E+03  0.50000000000E+03  0.00000000000E+00 0. -1.
        -11    1    1    2    0    0 -0.77028698459E+01 -0.33795110149E+02  0.42387399674E+03  0.42528885335E+03  0.00000000000E+00 0. -1.
         11    1    1    2    0    0 -0.16687079173E+02 -0.68273780853E+01 -0.48331272058E+03  0.48364889908E+03  0.00000000000E+00 0. -1.
        -15    1    1    2    0    0  0.52361747328E-01  0.22990398408E+02  0.56243888056E+02  0.60787283484E+02  0.17770000000E+01 0. -1.
         15    1    1    2    0    0  0.24337587272E+02  0.17632089826E+02  0.31948357917E+01  0.30274964089E+02  0.17770000000E+01 0.  1.
</event>
<event>
 6    1  0.1599106E-003  0.5086225E+03  0.7546771E-02  0.9380720E-01
        -11   -1    0    0    0    0  0.00000000000E+00  0.00000000000E+00  0.50000000000E+03  0.50000000000E+03  0.00000000000E+00 0. -1.
         11   -1    0    0    0    0 -0.00000000000E+00 -0.00000000000E+00 -0.50000000000E+03  0.50000000000E+03  0.00000000000E+00 0. -1.
        -11    1    1    2    0    0  0.53861412083E+01  0.61397373388E+01  0.49130966296E+03  0.49137754508E+03  0.00000000000E+00 0. -1.
         11    1    1    2    0    0  0.62116117274E+01  0.36801335150E+01 -0.42033130328E+03  0.42039330635E+03  0.00000000000E+00 0. -1.
        -15    1    1    2    0    0 -0.38449468922E+01 -0.79949398883E+01  0.59761326841E+01  0.10843180865E+02  0.17770000000E+01 0. -1.
         15    1    1    2    0    0 -0.77528060436E+01 -0.18249309655E+01 -0.76954492362E+02  0.77385967709E+02  0.17770000000E+01 0. -1.
</event>
<event>
 6    1  0.1599106E-003  0.5056262E+03  0.7546771E-02  0.9387308E-01
        -11   -1    0    0    0    0  0.00000000000E+00  0.00000000000E+00  0.50000000000E+03  0.50000000000E+03  0.00000000000E+00 0. -1.
         11   -1    0    0    0    0 -0.00000000000E+00 -0.00000000000E+00 -0.50000000000E+03  0.50000000000E+03  0.00000000000E+00 0. -1.
        -11    1    1    2    0    0  0.58809941590E+01  0.21036935869E+02  0.49389095878E+03  0.49437376338E+03  0.00000000000E+00 0. -1.
         11    1    1    2    0    0 -0.35373892700E+00  0.69854282537E+01 -0.41613068213E+03  0.41618945920E+03  0.00000000000E+00 0. -1.
        -15    1    1    2    0    0  0.43274546320E+01 -0.26692552023E+02 -0.73744844564E+02  0.78566398835E+02  0.17770000000E+01 0. -1.
         15    1    1    2    0    0 -0.98547098640E+01 -0.13298120998E+01 -0.40154320839E+01  0.10870378583E+02  0.17770000000E+01 0.  1.
</event>
<event>
 6    1  0.1599106E-003  0.5022664E+03  0.7546771E-02  0.9394753E-01
        -11   -1    0    0    0    0  0.00000000000E+00  0.00000000000E+00  0.50000000000E+03  0.50000000000E+03  0.00000000000E+00 0. -1.
         11   -1    0    0    0    0 -0.00000000000E+00 -0.00000000000E+00 -0.50000000000E+03  0.50000000000E+03  0.00000000000E+00 0. -1.
        -11    1    1    2    0    0  0.32011930665E+02  0.36155299617E+02  0.49538549512E+03  0.49773362170E+03  0.00000000000E+00 0. -1.
         11    1    1    2    0    0 -0.17992900567E+02  0.73733677222E+00 -0.25688769733E+03  0.25751811038E+03  0.00000000000E+00 0. -1.
        -15    1    1    2    0    0 -0.23694177008E+02 -0.37253892159E+02 -0.17500885567E+03  0.18050075844E+03  0.17770000000E+01 0. -1.
         15    1    1    2    0    0  0.96751469094E+01  0.36125576939E+00 -0.63488942124E+02  0.64247509481E+02  0.17770000000E+01 0.  1.
</event>
<event>
 6    1  0.1599106E-003  0.5048294E+03  0.7546771E-02  0.9389068E-01
        -11   -1    0    0    0    0  0.00000000000E+00  0.00000000000E+00  0.50000000000E+03  0.50000000000E+03  0.00000000000E+00 0.  1.
         11   -1    0    0    0    0 -0.00000000000E+00 -0.00000000000E+00 -0.50000000000E+03  0.50000000000E+03  0.00000000000E+00 0.  1.
        -11    1    1    2    0    0 -0.48514078723E+00 -0.12054543545E+02  0.49502356675E+03  0.49517055549E+03  0.00000000000E+00 0.  1.
         11    1    1    2    0    0 -0.42409139530E-01 -0.55751836745E+01 -0.39999046923E+03  0.40002932386E+03  0.00000000000E+00 0.  1.
        -15    1    1    2    0    0  0.32543443201E+01  0.57457862320E+01 -0.91809531630E+02  0.92063850905E+02  0.17770000000E+01 0. -1.
         15    1    1    2    0    0 -0.27267943933E+01  0.11883940988E+02 -0.32235658925E+01  0.12736269749E+02  0.17770000000E+01 0.  1.
</event>
<event>
 6    1  0.1599106E-003  0.5003754E+03  0.7546771E-02  0.9398970E-01
        -11   -1    0    0    0    0  0.00000000000E+00  0.00000000000E+00  0.50000000000E+03  0.50000000000E+03  0.00000000000E+00 0.  1.
         11   -1    0    0    0    0 -0.00000000000E+00 -0.00000000000E+00 -0.50000000000E+03  0.50000000000E+03  0.00000000000E+00 0. -1.
        -11    1    1    2    0    0 -0.81130378844E+01 -0.79445476979E+01  0.30808136490E+03  0.30829055228E+03  0.00000000000E+00 0.  1.
         11    1    1    2    0    0  0.31885229555E+01  0.12435957599E+02 -0.49945961836E+03  0.49962458916E+03  0.00000000000E+00 0. -1.
        -15    1    1    2    0    0 -0.11671527890E+00 -0.74622526322E+01  0.51032655443E+02  0.51606089634E+02  0.17770000000E+01 0. -1.
         15    1    1    2    0    0  0.50412302079E+01  0.29708427308E+01  0.14034559801E+03  0.14047876893E+03  0.17770000000E+01 0.  1.
</event>
<event>
 6    1  0.1599106E-003  0.5199389E+03  0.7546771E-02  0.9356268E-01
        -11   -1    0    0    0    0  0.00000000000E+00  0.00000000000E+00  0.50000000000E+03  0.50000000000E+03  0.00000000000E+00 0.  1.
         11   -1    0    0    0    0 -0.00000000000E+00 -0.00000000000E+00 -0.50000000000E+03  0.50000000000E+03  0.00000000000E+00 0. -1.
        -11    1    1    2    0    0 -0.17342470328E+02  0.12949575658E+02  0.39380614898E+03  0.39440047637E+03  0.00000000000E+00 0.  1.
         11    1    1    2    0    0 -0.39172854054E+02 -0.81965009924E+01 -0.47838997208E+03  0.48006110081E+03  0.00000000000E+00 0. -1.
        -15    1    1    2    0    0  0.14574205336E+02 -0.16006299131E+02  0.78746722211E+02  0.81687288246E+02  0.17770000000E+01 0.  1.
         15    1    1    2    0    0  0.41941119046E+02  0.11253224466E+02  0.58371008912E+01  0.43851134575E+02  0.17770000000E+01 0. -1.
</event>
<event>
 6    1  0.1599106E-003  0.3866627E+03  0.7546771E-02  0.9696650E-01
        -11   -1    0    0    0    0  0.00000000000E+00  0.00000000000E+00  0.50000000000E+03  0.50000000000E+03  0.00000000000E+00 0.  1.
         11   -1    0    0    0    0 -0.00000000000E+00 -0.00000000000E+00 -0.50000000000E+03  0.50000000000E+03  0.00000000000E+00 0. -1.
        -11    1    1    2    0    0 -0.12698108859E+02  0.22467832398E+02  0.52984369331E+02  0.58935463471E+02  0.00000000000E+00 0.  1.
         11    1    1    2    0    0 -0.23179166481E+01  0.18135931225E+01 -0.15984229853E+03  0.15986939124E+03  0.00000000000E+00 0. -1.
        -15    1    1    2    0    0 -0.20823408464E+03 -0.13372378746E+03 -0.24638767796E+03  0.34921845730E+03  0.17770000000E+01 0. -1.
         15    1    1    2    0    0  0.22325011015E+03  0.10944236194E+03  0.35324560715E+03  0.43197668799E+03  0.17770000000E+01 0.  1.
</event>
<event>
 6    1  0.1599106E-003  0.4722039E+03  0.7546771E-02  0.9464248E-01
        -11   -1    0    0    0    0  0.00000000000E+00  0.00000000000E+00  0.50000000000E+03  0.50000000000E+03  0.00000000000E+00 0. -1.
         11   -1    0    0    0    0 -0.00000000000E+00 -0.00000000000E+00 -0.50000000000E+03  0.50000000000E+03  0.00000000000E+00 0. -1.
        -11    1    1    2    0    0 -0.89867284834E+01 -0.96049326069E+01  0.46523942437E+03  0.46542533022E+03  0.00000000000E+00 0. -1.
         11    1    1    2    0    0 -0.17286982825E+02  0.21365829878E+02 -0.47872908336E+03  0.47951733412E+03  0.00000000000E+00 0. -1.
        -15    1    1    2    0    0  0.48310256141E+01  0.10220557194E+02  0.20528797868E+02  0.23502933194E+02  0.17770000000E+01 0. -1.
         15    1    1    2    0    0  0.21442685694E+02 -0.21981454466E+02 -0.70391388745E+01  0.31554402471E+02  0.17770000000E+01 0.  1.
</event>
<event>
 6    1  0.1599106E-003  0.5003904E+03  0.7546771E-02  0.9398937E-01
        -11   -1    0    0    0    0  0.00000000000E+00  0.00000000000E+00  0.50000000000E+03  0.50000000000E+03  0.00000000000E+00 0.  1.
         11   -1    0    0    0    0 -0.00000000000E+00 -0.00000000000E+00 -0.50000000000E+03  0.50000000000E+03  0.00000000000E+00 0. -1.
        -11    1    1    2    0    0 -0.55968180913E+01 -0.18737779314E+01  0.38630202750E+03  0.38634711319E+03  0.00000000000E+00 0.  1.
         11    1    1    2    0    0  0.97288763709E+01  0.37347408314E+01 -0.49950090609E+03  0.49960960210E+03  0.00000000000E+00 0. -1.
        -15    1    1    2    0    0 -0.32401765849E+01 -0.25874979972E+01  0.11059741440E+03  0.11068938382E+03  0.17770000000E+01 0. -1.
         15    1    1    2    0    0 -0.89188169478E+00  0.72653509729E+00  0.26014641915E+01  0.33539008848E+01  0.17770000000E+01 0.  1.
</event>
<event>
 6    1  0.1599106E-003  0.5062668E+03  0.7546771E-02  0.9385896E-01
        -11   -1    0    0    0    0  0.00000000000E+00  0.00000000000E+00  0.50000000000E+03  0.50000000000E+03  0.00000000000E+00 0.  1.
         11   -1    0    0    0    0 -0.00000000000E+00 -0.00000000000E+00 -0.50000000000E+03  0.50000000000E+03  0.00000000000E+00 0. -1.
        -11    1    1    2    0    0 -0.15789818764E+02  0.89490825315E+01  0.36969721394E+03  0.37014245157E+03  0.00000000000E+00 0.  1.
         11    1    1    2    0    0 -0.17161478819E+02  0.25497631094E+02 -0.49277567771E+03  0.49373324183E+03  0.00000000000E+00 0. -1.
        -15    1    1    2    0    0  0.76655649910E+01  0.71461670566E+00  0.29823647965E+01  0.84453414642E+01  0.17770000000E+01 0.  1.
         15    1    1    2    0    0  0.25285732593E+02 -0.35161330331E+02  0.12009609897E+03  0.12767896514E+03  0.17770000000E+01 0. -1.
</event>
<event>
 6    1  0.1599106E-003  0.5046460E+03  0.7546771E-02  0.9389473E-01
        -11   -1    0    0    0    0  0.00000000000E+00  0.00000000000E+00  0.50000000000E+03  0.50000000000E+03  0.00000000000E+00 0. -1.
         11   -1    0    0    0    0 -0.00000000000E+00 -0.00000000000E+00 -0.50000000000E+03  0.50000000000E+03  0.00000000000E+00 0. -1.
        -11    1    1    2    0    0  0.36340840217E+01 -0.63136906823E+01  0.49530039378E+03  0.49535396368E+03  0.00000000000E+00 0. -1.
         11    1    1    2    0    0 -0.77836518822E+01 -0.46538527262E+01 -0.36442417624E+03  0.36453699923E+03  0.00000000000E+00 0. -1.
        -15    1    1    2    0    0  0.14966874029E+02  0.43100624332E+01 -0.12503870190E+03  0.12601753314E+03  0.17770000000E+01 0. -1.
         15    1    1    2    0    0 -0.10817306168E+02  0.66574809753E+01 -0.58375156441E+01  0.14091503950E+02  0.17770000000E+01 0.  1.
</event>
<event>
 6    1  0.1599106E-003  0.4955930E+03  0.7546771E-02  0.9409725E-01
        -11   -1    0    0    0    0  0.00000000000E+00  0.00000000000E+00  0.50000000000E+03  0.50000000000E+03  0.00000000000E+00 0. -1.
         11   -1    0    0    0    0 -0.00000000000E+00 -0.00000000000E+00 -0.50000000000E+03  0.50000000000E+03  0.00000000000E+00 0. -1.
        -11    1    1    2    0    0  0.63513463990E+01  0.11004300415E+02  0.49904129102E+03  0.49920300918E+03  0.00000000000E+00 0. -1.
         11    1    1    2    0    0 -0.53641481425E+00  0.35534764013E+00 -0.10293043444E+02  0.10313135126E+02  0.00000000000E+00 0. -1.
        -15    1    1    2    0    0 -0.20108351539E+02  0.19671663951E+01 -0.30971932293E+03  0.31038271903E+03  0.17770000000E+01 0. -1.
         15    1    1    2    0    0  0.14293419954E+02 -0.13326814450E+02 -0.17902892465E+03  0.18010113667E+03  0.17770000000E+01 0.  1.
</event>
<event>
 6    1  0.1599106E-003  0.5006621E+03  0.7546771E-02  0.9398329E-01
        -11   -1    0    0    0    0  0.00000000000E+00  0.00000000000E+00  0.50000000000E+03  0.50000000000E+03  0.00000000000E+00 0. -1.
         11   -1    0    0    0    0 -0.00000000000E+00 -0.00000000000E+00 -0.50000000000E+03  0.50000000000E+03  0.00000000000E+00 0.  1.
        -11    1    1    2    0    0 -0.80218896716E+01  0.50739141725E+01  0.49924762962E+03  0.49933785256E+03  0.00000000000E+00 0. -1.
         11    1    1    2    0    0  0.59761190642E+01 -0.45015724984E+01 -0.41075871059E+03  0.41082684489E+03  0.00000000000E+00 0.  1.
        -15    1    1    2    0    0  0.69669465558E+01 -0.43649139395E-01 -0.75210987355E+02  0.75553892008E+02  0.17770000000E+01 0.  1.
         15    1    1    2    0    0 -0.49211759484E+01 -0.52869253469E+00 -0.13277931674E+02  0.14281410541E+02  0.17770000000E+01 0. -1.
</event>
<event>
 6    1  0.1599106E-003  0.5050027E+03  0.7546771E-02  0.9388685E-01
        -11   -1    0    0    0    0  0.00000000000E+00  0.00000000000E+00  0.50000000000E+03  0.50000000000E+03  0.00000000000E+00 0.  1.
         11   -1    0    0    0    0 -0.00000000000E+00 -0.00000000000E+00 -0.50000000000E+03  0.50000000000E+03  0.00000000000E+00 0. -1.
        -11    1    1    2    0    0  0.13250562265E+01 -0.13099018130E+02  0.49482215027E+03  0.49499727317E+03  0.00000000000E+00 0.  1.
         11    1    1    2    0    0  0.46195622301E+01 -0.84641254983E+01 -0.37897164959E+03  0.37909430617E+03  0.00000000000E+00 0. -1.
        -15    1    1    2    0    0 -0.55378733925E+01 -0.70005218425E+01 -0.31510942408E+01  0.96313276183E+01  0.17770000000E+01 0.  1.
         15    1    1    2    0    0 -0.40674506406E+00  0.28563665471E+02 -0.11269940644E+03  0.11627709305E+03  0.17770000000E+01 0. -1.
</event>
<event>
 6    1  0.1599106E-003  0.5132290E+03  0.7546771E-02  0.9370686E-01
        -11   -1    0    0    0    0  0.00000000000E+00  0.00000000000E+00  0.50000000000E+03  0.50000000000E+03  0.00000000000E+00 0.  1.
         11   -1    0    0    0    0 -0.00000000000E+00 -0.00000000000E+00 -0.50000000000E+03  0.50000000000E+03  0.00000000000E+00 0. -1.
        -11    1    1    2    0    0 -0.21153620009E+02  0.10447067091E+02  0.46031652596E+03  0.46092073171E+03  0.00000000000E+00 0.  1.
         11    1    1    2    0    0 -0.15196337036E+02 -0.46922291790E+01 -0.48651112530E+03  0.48677101466E+03  0.00000000000E+00 0. -1.
        -15    1    1    2    0    0  0.31824695063E+02  0.55263439862E-01  0.83916814668E+01  0.32960465967E+02  0.17770000000E+01 0.  1.
         15    1    1    2    0    0  0.45252619813E+01 -0.58101013519E+01  0.17802917871E+02  0.19347787662E+02  0.17770000000E+01 0. -1.
</event>
<event>
 6    1  0.1599106E-003  0.5012555E+03  0.7546771E-02  0.9397005E-01
        -11   -1    0    0    0    0  0.00000000000E+00  0.00000000000E+00  0.50000000000E+03  0.50000000000E+03  0.00000000000E+00 0.  1.
         11   -1    0    0    0    0 -0.00000000000E+00 -0.00000000000E+00 -0.50000000000E+03  0.50000000000E+03  0.00000000000E+00 0.  1.
        -11    1    1    2    0    0  0.30958731471E+01  0.10860903915E+02  0.49861666315E+03  0.49874454426E+03  0.00000000000E+00 0.  1.
         11    1    1    2    0    0 -0.10814351962E+02 -0.46443288311E+00 -0.29414196861E+03  0.29434106680E+03  0.00000000000E+00 0.  1.
        -15    1    1    2    0    0  0.15182758620E+02 -0.36412131371E+01 -0.58237201936E+02  0.60320013352E+02  0.17770000000E+01 0. -1.
         15    1    1    2    0    0 -0.74642798056E+01 -0.67552578950E+01 -0.14623749260E+03  0.14659437559E+03  0.17770000000E+01 0.  1.
</event>
<event>
 6    1  0.1599106E-003  0.5001225E+03  0.7546771E-02  0.9399536E-01
        -11   -1    0    0    0    0  0.00000000000E+00  0.00000000000E+00  0.50000000000E+03  0.50000000000E+03  0.00000000000E+00 0. -1.
         11   -1    0    0    0    0 -0.00000000000E+00 -0.00000000000E+00 -0.50000000000E+03  0.50000000000E+03  0.00000000000E+00 0. -1.
        -11    1    1    2    0    0 -0.42793958206E+01 -0.56405655123E+01  0.32559623867E+03  0.32567321020E+03  0.00000000000E+00 0. -1.
         11    1    1    2    0    0 -0.27683829336E+01  0.65084403606E+01 -0.49982746526E+03  0.49987750376E+03  0.00000000000E+00 0. -1.
        -15    1    1    2    0    0  0.47479762751E+01 -0.10444355549E+01  0.13958043948E+03  0.13967637932E+03  0.17770000000E+01 0. -1.
         15    1    1    2    0    0  0.22998024791E+01  0.17656070654E+00  0.34650787109E+02  0.34772906715E+02  0.17770000000E+01 0. -1.
</event>
<event>
 6    1  0.1599106E-003  0.5002594E+03  0.7546771E-02  0.9399229E-01
        -11   -1    0    0    0    0  0.00000000000E+00  0.00000000000E+00  0.50000000000E+03  0.50000000000E+03  0.00000000000E+00 0. -1.
         11   -1    0    0    0    0 -0.00000000000E+00 -0.00000000000E+00 -0.50000000000E+03  0.50000000000E+03  0.00000000000E+00 0.  1.
        -11    1    1    2    0    0 -0.90768926809E+01 -0.45330499695E+01  0.49963760012E+03  0.49974060269E+03  0.00000000000E+00 0. -1.
         11    1    1    2    0    0 -0.55638730199E+00  0.69717815798E+01 -0.60857789111E+02  0.61258352905E+02  0.00000000000E+00 0.  1.
        -15    1    1    2    0    0  0.25410574376E+01 -0.62449821834E+00 -0.32983146493E+02  0.33134463214E+02  0.17770000000E+01 0. -1.
         15    1    1    2    0    0  0.70922225453E+01 -0.18142333920E+01 -0.40579666452E+03  0.40586658119E+03  0.17770000000E+01 0.  1.
</event>
<event>
 6    1  0.1599106E-003  0.5032584E+03  0.7546771E-02  0.9392548E-01
        -11   -1    0    0    0    0  0.00000000000E+00  0.00000000000E+00  0.50000000000E+03  0.50000000000E+03  0.00000000000E+00 0. -1.
         11   -1    0    0    0    0 -0.00000000000E+00 -0.00000000000E+00 -0.50000000000E+03  0.50000000000E+03  0.00000000000E+00 0. -1.
        -11    1    1    2    0    0  0.45621163509E+01  0.16730357423E+02  0.33593126015E+03  0.33637855061E+03  0.00000000000E+00 0. -1.
         11    1    1    2    0    0 -0.15668832552E+02  0.66972283528E+01 -0.49644926945E+03  0.49674162531E+03  0.00000000000E+00 0. -1.
        -15    1    1    2    0    0  0.92224778257E+01 -0.33256557641E+02  0.10823388708E+03  0.11361683310E+03  0.17770000000E+01 0.  1.
         15    1    1    2    0    0  0.18842383758E+01  0.98289718651E+01  0.52284122221E+02  0.53262990974E+02  0.17770000000E+01 0. -1.
</event>
<event>
 6    1  0.1599106E-003  0.5003107E+03  0.7546771E-02  0.9399115E-01
        -11   -1    0    0    0    0  0.00000000000E+00  0.00000000000E+00  0.50000000000E+03  0.50000000000E+03  0.00000000000E+00 0. -1.
         11   -1    0    0    0    0 -0.00000000000E+00 -0.00000000000E+00 -0.50000000000E+03  0.50000000000E+03  0.00000000000E+00 0. -1.
        -11    1    1    2    0    0  0.33683806391E+01  0.73458891196E+01  0.49962397491E+03  0.49968932787E+03  0.00000000000E+00 0. -1.
         11    1    1    2    0    0 -0.82915634386E+00  0.32856845287E+01 -0.19983888089E+03  0.19986761003E+03  0.00000000000E+00 0. -1.
        -15    1    1    2    0    0 -0.34182912651E+01 -0.64932966494E+01 -0.45924781504E+02  0.46541281694E+02  0.17770000000E+01 0. -1.
         15    1    1    2    0    0  0.87906696980E+00 -0.41382769989E+01 -0.25386031252E+03  0.25390178041E+03  0.17770000000E+01 0. -1.
</event>
<event>
 6    1  0.1599106E-003  0.5282395E+03  0.7546771E-02  0.9338748E-01
        -11   -1    0    0    0    0  0.00000000000E+00  0.00000000000E+00  0.50000000000E+03  0.50000000000E+03  0.00000000000E+00 0.  1.
         11   -1    0    0    0    0 -0.00000000000E+00 -0.00000000000E+00 -0.50000000000E+03  0.50000000000E+03  0.00000000000E+00 0.  1.
        -11    1    1    2    0    0 -0.99242583021E+01 -0.84825324448E+01  0.26597771909E+03  0.26629793712E+03  0.00000000000E+00 0.  1.
         11    1    1    2    0    0  0.44144980051E+01 -0.40212556504E+02 -0.47002281401E+03  0.47176051466E+03  0.00000000000E+00 0.  1.
        -15    1    1    2    0    0 -0.30162208760E+02  0.68540840450E+02  0.20782095382E+03  0.22090792703E+03  0.17770000000E+01 0.  1.
         15    1    1    2    0    0  0.35671969057E+02 -0.19845751501E+02 -0.37758589035E+01  0.41033621197E+02  0.17770000000E+01 0. -1.
</event>
<event>
 6    1  0.1599106E-003  0.5051451E+03  0.7546771E-02  0.9388370E-01
        -11   -1    0    0    0    0  0.00000000000E+00  0.00000000000E+00  0.50000000000E+03  0.50000000000E+03  0.00000000000E+00 0.  1.
         11   -1    0    0    0    0 -0.00000000000E+00 -0.00000000000E+00 -0.50000000000E+03  0.50000000000E+03  0.00000000000E+00 0. -1.
        -11    1    1    2    0    0 -0.11877238166E+02  0.10062308708E+02  0.49460996633E+03  0.49485486523E+03  0.00000000000E+00 0.  1.
         11    1    1    2    0    0  0.58980763156E+01 -0.11141345265E+02 -0.48195899440E+03  0.48212383178E+03  0.00000000000E+00 0. -1.
        -15    1    1    2    0    0  0.10985522550E+02  0.15288617811E-01 -0.23371912229E+01  0.11371109500E+02  0.17770000000E+01 0. -1.
         15    1    1    2    0    0 -0.50063606999E+01  0.10637479392E+01 -0.10313780704E+02  0.11650193498E+02  0.17770000000E+01 0.  1.
</event>
<event>
 6    1  0.1599106E-003  0.5039562E+03  0.7546771E-02  0.9391001E-01
        -11   -1    0    0    0    0  0.00000000000E+00  0.00000000000E+00  0.50000000000E+03  0.50000000000E+03  0.00000000000E+00 0.  1.
         11   -1    0    0    0    0 -0.00000000000E+00 -0.00000000000E+00 -0.50000000000E+03  0.50000000000E+03  0.00000000000E+00 0. -1.
        -11    1    1    2    0    0 -0.39012889974E+01  0.77958845132E+01  0.34420688865E+03  0.34431726368E+03  0.00000000000E+00 0.  1.
         11    1    1    2    0    0  0.21172917562E+02  0.21286737049E+02 -0.49513431420E+03  0.49604375483E+03  0.00000000000E+00 0. -1.
        -15    1    1    2    0    0  0.29055884523E+01 -0.33507252654E+01  0.92789886060E+02  0.92912811216E+02  0.17770000000E+01 0.  1.
         15    1    1    2    0    0 -0.20177217017E+02 -0.25731896296E+02  0.58137539483E+02  0.66726170276E+02  0.17770000000E+01 0. -1.
</event>
<event>
 6    1  0.1599106E-003  0.5033419E+03  0.7546771E-02  0.9392363E-01
        -11   -1    0    0    0    0  0.00000000000E+00  0.00000000000E+00  0.50000000000E+03  0.50000000000E+03  0.00000000000E+00 0.  1.
         11   -1    0    0    0    0 -0.00000000000E+00 -0.00000000000E+00 -0.50000000000E+03  0.50000000000E+03  0.00000000000E+00 0.  1.
        -11    1    1    2    0    0 -0.11496983942E+01  0.86116775139E+01  0.47979124175E+03  0.47986989743E+03  0.00000000000E+00 0.  1.
         11    1    1    2    0    0  0.59838886288E+01 -0.36591587724E+01 -0.49660853150E+03  0.49665806137E+03  0.00000000000E+00 0.  1.
        -15    1    1    2    0    0  0.63012149120E+00 -0.31418913991E+01 -0.16708002811E+01  0.40271375984E+01  0.17770000000E+01 0. -1.
         15    1    1    2    0    0 -0.54643117258E+01 -0.18106273425E+01  0.18488090033E+02  0.19444903602E+02  0.17770000000E+01 0.  1.
</event>
<event>
 6    1  0.1599106E-003  0.5046362E+03  0.7546771E-02  0.9389495E-01
        -11   -1    0    0    0    0  0.00000000000E+00  0.00000000000E+00  0.50000000000E+03  0.50000000000E+03  0.00000000000E+00 0. -1.
         11   -1    0    0    0    0 -0.00000000000E+00 -0.00000000000E+00 -0.50000000000E+03  0.50000000000E+03  0.00000000000E+00 0. -1.
        -11    1    1    2    0    0  0.10278382556E+02  0.24929116962E+01  0.47045834744E+03  0.47057721623E+03  0.00000000000E+00 0. -1.
         11    1    1    2    0    0  0.25408313066E+01 -0.12964387208E+02 -0.49518757701E+03  0.49536377298E+03  0.00000000000E+00 0. -1.
        -15    1    1    2    0    0 -0.61541979895E+01  0.31938856962E+01  0.22735482310E+02  0.23835581462E+02  0.17770000000E+01 0. -1.
         15    1    1    2    0    0 -0.66650158727E+01  0.72775898160E+01  0.19937472535E+01  0.10223429328E+02  0.17770000000E+01 0.  1.
</event>
<event>
 6    1  0.1599106E-003  0.5052886E+03  0.7546771E-02  0.9388053E-01
        -11   -1    0    0    0    0  0.00000000000E+00  0.00000000000E+00  0.50000000000E+03  0.50000000000E+03  0.00000000000E+00 0.  1.
         11   -1    0    0    0    0 -0.00000000000E+00 -0.00000000000E+00 -0.50000000000E+03  0.50000000000E+03  0.00000000000E+00 0. -1.
        -11    1    1    2    0    0 -0.29621891710E+01 -0.96892437358E+01  0.49460758975E+03  0.49471135407E+03  0.00000000000E+00 0.  1.
         11    1    1    2    0    0  0.14577061783E+01 -0.76700834641E+00 -0.11230784156E+03  0.11231992025E+03  0.00000000000E+00 0. -1.
        -15    1    1    2    0    0  0.26114843858E+02  0.31544912933E+01 -0.30861653567E+02  0.40589842016E+02  0.17770000000E+01 0.  1.
         15    1    1    2    0    0 -0.24610360865E+02  0.73017607889E+01 -0.35143809462E+03  0.35237888367E+03  0.17770000000E+01 0. -1.
</event>
<event>
 6    1  0.1599106E-003  0.5015197E+03  0.7546771E-02  0.9396416E-01
        -11   -1    0    0    0    0  0.00000000000E+00  0.00000000000E+00  0.50000000000E+03  0.50000000000E+03  0.00000000000E+00 0.  1.
         11   -1    0    0    0    0 -0.00000000000E+00 -0.00000000000E+00 -0.50000000000E+03  0.50000000000E+03  0.00000000000E+00 0. -1.
        -11    1    1    2    0    0 -0.31483265663E+01 -0.80788879204E+01  0.43794068436E+03  0.43802650994E+03  0.00000000000E+00 0.  1.
         11    1    1    2    0    0 -0.77705090330E+01  0.43160812927E+01 -0.49840104737E+03  0.49848030391E+03  0.00000000000E+00 0. -1.
        -15    1    1    2    0    0  0.21409133583E+01 -0.49663990489E+01  0.10006838583E+02  0.11512739767E+02  0.17770000000E+01 0.  1.
         15    1    1    2    0    0  0.87779222410E+01  0.87292056766E+01  0.50453524424E+02  0.51980446385E+02  0.17770000000E+01 0. -1.
</event>
<event>
 6    1  0.1599106E-003  0.5024874E+03  0.7546771E-02  0.9394261E-01
        -11   -1    0    0    0    0  0.00000000000E+00  0.00000000000E+00  0.50000000000E+03  0.50000000000E+03  0.00000000000E+00 0. -1.
         11   -1    0    0    0    0 -0.00000000000E+00 -0.00000000000E+00 -0.50000000000E+03  0.50000000000E+03  0.00000000000E+00 0.  1.
        -11    1    1    2    0    0 -0.44722439285E+01  0.10755931914E+01  0.23524593266E+03  0.23529089804E+03  0.00000000000E+00 0. -1.
         11    1    1    2    0    0 -0.17186710958E+02 -0.68680303481E+01 -0.49716821167E+03  0.49751259640E+03  0.00000000000E+00 0.  1.
        -15    1    1    2    0    0  0.16809775297E+02  0.17753459523E+01  0.25271675022E+02  0.30455470546E+02  0.17770000000E+01 0. -1.
         15    1    1    2    0    0  0.48491795890E+01  0.40170912045E+01  0.23665060399E+03  0.23674103502E+03  0.17770000000E+01 0.  1.
</event>
<event>
 6    1  0.1599106E-003  0.5012762E+03  0.7546771E-02  0.9396959E-01
        -11   -1    0    0    0    0  0.00000000000E+00  0.00000000000E+00  0.50000000000E+03  0.50000000000E+03  0.00000000000E+00 0. -1.
         11   -1    0    0    0    0 -0.00000000000E+00 -0.00000000000E+00 -0.50000000000E+03  0.50000000000E+03  0.00000000000E+00 0.  1.
        -11    1    1    2    0    0  0.37561660105E+01  0.66782197555E+01  0.49866498424E+03  0.49872384534E+03  0.00000000000E+00 0. -1.
         11    1    1    2    0    0  0.48768313464E+01  0.39400622606E+01 -0.36177890926E+03  0.36183323060E+03  0.00000000000E+00 0.  1.
        -15    1    1    2    0    0 -0.25985419057E+01  0.64647596884E+01 -0.60088569485E+02  0.60517265715E+02  0.17770000000E+01 0.  1.
         15    1    1    2    0    0 -0.60344554511E+01 -0.17083041704E+02 -0.76797505494E+02  0.78925658347E+02  0.17770000000E+01 0. -1.
</event>
<event>
 6    1  0.1599106E-003  0.5010368E+03  0.7546771E-02  0.9397493E-01
        -11   -1    0    0    0    0  0.00000000000E+00  0.00000000000E+00  0.50000000000E+03  0.50000000000E+03  0.00000000000E+00 0.  1.
         11   -1    0    0    0    0 -0.00000000000E+00 -0.00000000000E+00 -0.50000000000E+03  0.50000000000E+03  0.00000000000E+00 0. -1.
        -11    1    1    2    0    0 -0.14733904659E+01 -0.87897362960E+01  0.49888357745E+03  0.49896317919E+03  0.00000000000E+00 0.  1.
         11    1    1    2    0    0 -0.34501872324E+01 -0.26839988326E+01 -0.88073637823E+02  0.88182046478E+02  0.00000000000E+00 0. -1.
        -15    1    1    2    0    0 -0.54981999438E+01  0.10746457810E+02 -0.38352223441E+02  0.40246333125E+02  0.17770000000E+01 0.  1.
         15    1    1    2    0    0  0.10421777642E+02  0.72727731817E+00 -0.37245771618E+03  0.37260844120E+03  0.17770000000E+01 0. -1.
</event>
<event>
 6    1  0.1599106E-003  0.5406929E+03  0.7546771E-02  0.9313094E-01
        -11   -1    0    0    0    0  0.00000000000E+00  0.00000000000E+00  0.50000000000E+03  0.50000000000E+03  0.00000000000E+00 0.  1.
         11   -1    0    0    0    0 -0.00000000000E+00 -0.00000000000E+00 -0.50000000000E+03  0.50000000000E+03  0.00000000000E+00 0. -1.
        -11    1    1    2    0    0 -0.32287614879E+01 -0.73602754222E+02  0.45335994103E+03  0.45930711562E+03  0.00000000000E+00 0.  1.
         11    1    1    2    0    0 -0.31434448497E+01  0.29084798351E+02 -0.40422498757E+03  0.40528218234E+03  0.00000000000E+00 0. -1.
        -15    1    1    2    0    0  0.27763100175E+02 -0.12021499657E+02  0.25318326246E+02  0.39490271691E+02  0.17770000000E+01 0.  1.
         15    1    1    2    0    0 -0.21390893837E+02  0.56539455529E+02 -0.74453279706E+02  0.95920430351E+02  0.17770000000E+01 0. -1.
</event>
<event>
 6    1  0.1599106E-003  0.5045467E+03  0.7546771E-02  0.9389693E-01
        -11   -1    0    0    0    0  0.00000000000E+00  0.00000000000E+00  0.50000000000E+03  0.50000000000E+03  0.00000000000E+00 0. -1.
         11   -1    0    0    0    0 -0.00000000000E+00 -0.00000000000E+00 -0.50000000000E+03  0.50000000000E+03  0.00000000000E+00 0. -1.
        -11    1    1    2    0    0 -0.45217681191E+01 -0.94763056494E+01  0.39604434990E+03  0.39618351031E+03  0.00000000000E+00 0. -1.
         11    1    1    2    0    0  0.13849506278E+01 -0.13115047630E+02 -0.49527774891E+03  0.49545329863E+03  0.00000000000E+00 0. -1.
        -15    1    1    2    0    0  0.28147063367E+01  0.46953161231E+01 -0.15714226576E+01  0.59662101393E+01  0.17770000000E+01 0. -1.
         15    1    1    2    0    0  0.32211115460E+00  0.17896037156E+02  0.10080482167E+03  0.10239698092E+03  0.17770000000E+01 0.  1.
</event>
<event>
 6    1  0.1599106E-003  0.5059540E+03  0.7546771E-02  0.9386585E-01
        -11   -1    0    0    0    0  0.00000000000E+00  0.00000000000E+00  0.50000000000E+03  0.50000000000E+03  0.00000000000E+00 0. -1.
         11   -1    0    0    0    0 -0.00000000000E+00 -0.00000000000E+00 -0.50000000000E+03  0.50000000000E+03  0.00000000000E+00 0.  1.
        -11    1    1    2    0    0  0.64483465976E+01 -0.56399390554E+01  0.49397171001E+03  0.49404599015E+03  0.00000000000E+00 0. -1.
         11    1    1    2    0    0 -0.39022056557E+01  0.14027066284E+02 -0.44770164162E+03  0.44793832801E+03  0.00000000000E+00 0.  1.
        -15    1    1    2    0    0 -0.13768272416E+02 -0.43452052034E+01 -0.43183118926E+02  0.45567374543E+02  0.17770000000E+01 0.  1.
         15    1    1    2    0    0  0.11222131474E+02 -0.40419220255E+01 -0.30869494704E+01  0.12448307295E+02  0.17770000000E+01 0. -1.
</event>
<event>
 6    1  0.1599106E-003  0.5048645E+03  0.7546771E-02  0.9388990E-01
        -11   -1    0    0    0    0  0.00000000000E+00  0.00000000000E+00  0.50000000000E+03  0.50000000000E+03  0.00000000000E+00 0.  1.
         11   -1    0    0    0    0 -0.00000000000E+00 -0.00000000000E+00 -0.50000000000E+03  0.50000000000E+03  0.00000000000E+00 0.  1.
        -11    1    1    2    0    0  0.10046490574E+01 -0.62524759369E+01  0.41895366973E+03  0.41900152763E+03  0.00000000000E+00 0.  1.
         11    1    1    2    0    0 -0.10258774605E+02 -0.18163155693E+01 -0.49502591717E+03  0.49513553713E+03  0.00000000000E+00 0.  1.
        -15    1    1    2    0    0  0.10872481009E+01  0.28084551636E+01 -0.39259950774E+01  0.52574418862E+01  0.17770000000E+01 0.  1.
         15    1    1    2    0    0  0.81668774467E+01  0.52603363426E+01  0.79998242514E+02  0.80605493361E+02  0.17770000000E+01 0. -1.
</event>
<event>
 6    1  0.1599106E-003  0.5003015E+03  0.7546771E-02  0.9399135E-01
        -11   -1    0    0    0    0  0.00000000000E+00  0.00000000000E+00  0.50000000000E+03  0.50000000000E+03  0.00000000000E+00 0. -1.
         11   -1    0    0    0    0 -0.00000000000E+00 -0.00000000000E+00 -0.50000000000E+03  0.50000000000E+03  0.00000000000E+00 0.  1.
        -11    1    1    2    0    0  0.43968317650E+01  0.57982889579E+01  0.49964548534E+03  0.49969847238E+03  0.00000000000E+00 0. -1.
         11    1    1    2    0    0 -0.52532020519E+01  0.38347982718E+01 -0.33598884257E+03  0.33605178789E+03  0.00000000000E+00 0.  1.
        -15    1    1    2    0    0  0.29327879232E+01 -0.19697089479E+01 -0.99597751062E+02  0.99676229583E+02  0.17770000000E+01 0.  1.
         15    1    1    2    0    0 -0.20764176363E+01 -0.76633782818E+01 -0.64058891706E+02  0.64573510146E+02  0.17770000000E+01 0.  1.
</event>
<event>
 6    1  0.1599106E-003  0.4870399E+03  0.7546771E-02  0.9429285E-01
        -11   -1    0    0    0    0  0.00000000000E+00  0.00000000000E+00  0.50000000000E+03  0.50000000000E+03  0.00000000000E+00 0. -1.
         11   -1    0    0    0    0 -0.00000000000E+00 -0.00000000000E+00 -0.50000000000E+03  0.50000000000E+03  0.00000000000E+00 0.  1.
        -11    1    1    2    0    0  0.11424039652E+02  0.17267153017E+01  0.48578906854E+03  0.48592644438E+03  0.00000000000E+00 0. -1.
         11    1    1    2    0    0  0.48897696783E+01  0.57399068549E+01 -0.48826356469E+03  0.48832178426E+03  0.00000000000E+00 0.  1.
        -15    1    1    2    0    0 -0.34752874118E+01  0.44277959354E+01  0.53022582719E+01  0.79343979748E+01  0.17770000000E+01 0.  1.
         15    1    1    2    0    0 -0.12838521919E+02 -0.11894418092E+02 -0.28277621262E+01  0.17817373388E+02  0.17770000000E+01 0. -1.
</event>
<event>
 6    1  0.1599106E-003  0.5005591E+03  0.7546771E-02  0.9398559E-01
        -11   -1    0    0    0    0  0.00000000000E+00  0.00000000000E+00  0.50000000000E+03  0.50000000000E+03  0.00000000000E+00 0.  1.
         11   -1    0    0    0    0 -0.00000000000E+00 -0.00000000000E+00 -0.50000000000E+03  0.50000000000E+03  0.00000000000E+00 0.  1.
        -11    1    1    2    0    0 -0.10381717602E+02 -0.53464390021E+00  0.49933265483E+03  0.49944085344E+03  0.00000000000E+00 0.  1.
         11    1    1    2    0    0  0.10496905556E+02  0.20617871754E+01 -0.41026247058E+03  0.41040191369E+03  0.00000000000E+00 0.  1.
        -15    1    1    2    0    0  0.48071543698E+01  0.34727717070E+01 -0.29058398086E+02  0.29710555444E+02  0.17770000000E+01 0. -1.
         15    1    1    2    0    0 -0.49223423239E+01 -0.49999149822E+01 -0.60011786164E+02  0.60446677422E+02  0.17770000000E+01 0.  1.
</event>
<event>
 6    1  0.1599106E-003  0.5010995E+03  0.7546771E-02  0.9397353E-01
        -11   -1    0    0    0    0  0.00000000000E+00  0.00000000000E+00  0.50000000000E+03  0.50000000000E+03  0.00000000000E+00 0.  1.
         11   -1    0    0    0    0 -0.00000000000E+00 -0.00000000000E+00 -0.50000000000E+03  0.50000000000E+03  0.00000000000E+00 0.  1.
        -11    1    1    2    0    0  0.73271182668E+01 -0.52099795506E+00  0.47236986045E+03  0.47242697125E+03  0.00000000000E+00 0.  1.
         11    1    1    2    0    0 -0.26100429958E+01 -0.63369513284E+01 -0.49885343337E+03  0.49890050838E+03  0.00000000000E+00 0.  1.
        -15    1    1    2    0    0 -0.58620977336E+00  0.43423720753E+01  0.19048014053E+02  0.19626115395E+02  0.17770000000E+01 0. -1.
         15    1    1    2    0    0 -0.41308654976E+01  0.25155772082E+01  0.74355588667E+01  0.90464049826E+01  0.17770000000E+01 0.  1.
</event>
<event>
 6    1  0.1599106E-003  0.5161547E+03  0.7546771E-02  0.9364371E-01
        -11   -1    0    0    0    0  0.00000000000E+00  0.00000000000E+00  0.50000000000E+03  0.50000000000E+03  0.00000000000E+00 0.  1.
         11   -1    0    0    0    0 -0.00000000000E+00 -0.00000000000E+00 -0.50000000000E+03  0.50000000000E+03  0.00000000000E+00 0. -1.
        -11    1    1    2    0    0 -0.21396631449E+02  0.52744762505E+01  0.41589009874E+03  0.41647354078E+03  0.00000000000E+00 0.  1.
         11    1    1    2    0    0 -0.22068867413E+01 -0.90862483707E+01 -0.48375496315E+03  0.48384532098E+03  0.00000000000E+00 0. -1.
        -15    1    1    2    0    0 -0.53468791014E+01  0.10296621131E+02  0.68948488829E+02  0.69940412950E+02  0.17770000000E+01 0.  1.
         15    1    1    2    0    0  0.28950397292E+02 -0.64848490106E+01 -0.10836244174E+01  0.29740725292E+02  0.17770000000E+01 0. -1.
</event>
<event>
 6    1  0.1599106E-003  0.5001264E+03  0.7546771E-02  0.9399527E-01
        -11   -1    0    0    0    0  0.00000000000E+00  0.00000000000E+00  0.50000000000E+03  0.50000000000E+03  0.00000000000E+00 0.  1.
         11   -1    0    0    0    0 -0.00000000000E+00 -0.00000000000E+00 -0.50000000000E+03  0.50000000000E+03  0.00000000000E+00 0.  1.
        -11    1    1    2    0    0  0.28666963027E+01 -0.74649667218E+01  0.49980958664E+03  0.49987355058E+03  0.00000000000E+00 0.  1.
         11    1    1    2    0    0 -0.22260015240E+00  0.21972005299E+01 -0.12617383544E+03  0.12619316142E+03  0.00000000000E+00 0.  1.
        -15    1    1    2    0    0 -0.66763555976E+01  0.28400389199E+01 -0.11182678326E+03  0.11207598640E+03  0.17770000000E+01 0. -1.
         15    1    1    2    0    0  0.40322594473E+01  0.24277272719E+01 -0.26180896794E+03  0.26185730159E+03  0.17770000000E+01 0.  1.
</event>
<event>
 6    1  0.1599106E-003  0.5043815E+03  0.7546771E-02  0.9390059E-01
        -11   -1    0    0    0    0  0.00000000000E+00  0.00000000000E+00  0.50000000000E+03  0.50000000000E+03  0.00000000000E+00 0.  1.
         11   -1    0    0    0    0 -0.00000000000E+00 -0.00000000000E+00 -0.50000000000E+03  0.50000000000E+03  0.00000000000E+00 0.  1.
        -11    1    1    2    0    0 -0.51466335812E+01  0.12584116500E+02  0.42220484503E+03  0.42242369606E+03  0.00000000000E+00 0.  1.
         11    1    1    2    0    0  0.58138623225E+01  0.16517477192E+02 -0.49530907554E+03  0.49561851091E+03  0.00000000000E+00 0.  1.
        -15    1    1    2    0    0 -0.40555714366E+01 -0.19782794669E+02  0.22187488596E+02  0.30054101280E+02  0.17770000000E+01 0. -1.
         15    1    1    2    0    0  0.33883426953E+01 -0.93187990232E+01  0.50916741914E+02  0.51903691753E+02  0.17770000000E+01 0.  1.
</event>
<event>
 6    1  0.1599106E-003  0.5049364E+03  0.7546771E-02  0.9388831E-01
        -11   -1    0    0    0    0  0.00000000000E+00  0.00000000000E+00  0.50000000000E+03  0.50000000000E+03  0.00000000000E+00 0. -1.
         11   -1    0    0    0    0 -0.00000000000E+00 -0.00000000000E+00 -0.50000000000E+03  0.50000000000E+03  0.00000000000E+00 0.  1.
        -11    1    1    2    0    0  0.17751733197E+02 -0.85233577967E+00  0.33023714487E+03  0.33071501684E+03  0.00000000000E+00 0. -1.
         11    1    1    2    0    0 -0.66166548225E+01 -0.14564014734E+01 -0.49501720204E+03  0.49506356313E+03  0.00000000000E+00 0.  1.
        -15    1    1    2    0    0 -0.16622103340E+02 -0.83387476142E+01  0.15014464805E+02  0.23967079788E+02  0.17770000000E+01 0.  1.
         15    1    1    2    0    0  0.54870249650E+01  0.10647484867E+02  0.14976559236E+03  0.15025434024E+03  0.17770000000E+01 0. -1.
</event>
<event>
 6    1  0.1599106E-003  0.5133477E+03  0.7546771E-02  0.9370429E-01
        -11   -1    0    0    0    0  0.00000000000E+00  0.00000000000E+00  0.50000000000E+03  0.50000000000E+03  0.00000000000E+00 0. -1.
         11   -1    0    0    0    0 -0.00000000000E+00 -0.00000000000E+00 -0.50000000000E+03  0.50000000000E+03  0.00000000000E+00 0.  1.
        -11    1    1    2    0    0  0.27222339215E+02 -0.11727594101E+01  0.43794367506E+03  0.43879048946E+03  0.00000000000E+00 0. -1.
         11    1    1    2    0    0  0.59529937615E+01  0.61060730141E+01 -0.48657756082E+03  0.48665228342E+03  0.00000000000E+00 0.  1.
        -15    1    1    2    0    0 -0.18093377754E+02 -0.72183147871E+00  0.54718300220E+02  0.57664039636E+02  0.17770000000E+01 0. -1.
         15    1    1    2    0    0 -0.15081955223E+02 -0.42114821253E+01 -0.60844144541E+01  0.16893187482E+02  0.17770000000E+01 0.  1.
</event>
<event>
 6    1  0.1599106E-003  0.5022576E+03  0.7546771E-02  0.9394772E-01
        -11   -1    0    0    0    0  0.00000000000E+00  0.00000000000E+00  0.50000000000E+03  0.50000000000E+03  0.00000000000E+00 0. -1.
         11   -1    0    0    0    0 -0.00000000000E+00 -0.00000000000E+00 -0.50000000000E+03  0.50000000000E+03  0.00000000000E+00 0. -1.
        -11    1    1    2    0    0 -0.66597168607E+01  0.11381972172E+01  0.48874110756E+03  0.48878780420E+03  0.00000000000E+00 0. -1.
         11    1    1    2    0    0  0.23934977731E+01 -0.63824427075E+01 -0.49769572709E+03  0.49774240443E+03  0.00000000000E+00 0. -1.
        -15    1    1    2    0    0  0.16975356597E+01  0.57087986663E+01  0.34107083735E+01  0.70896170656E+01  0.17770000000E+01 0.  1.
         15    1    1    2    0    0  0.25686834278E+01 -0.46455317599E+00  0.55439111563E+01  0.63801743013E+01  0.17770000000E+01 0. -1.
</event>
<event>
 6    1  0.1599106E-003  0.5091765E+03  0.7546771E-02  0.9379508E-01
        -11   -1    0    0    0    0  0.00000000000E+00  0.00000000000E+00  0.50000000000E+03  0.50000000000E+03  0.00000000000E+00 0. -1.
         11   -1    0    0    0    0 -0.00000000000E+00 -0.00000000000E+00 -0.50000000000E+03  0.50000000000E+03  0.00000000000E+00 0. -1.
        -11    1    1    2    0    0 -0.41602606703E+01  0.58411512096E+01  0.49077114063E+03  0.49082353172E+03  0.00000000000E+00 0. -1.
         11    1    1    2    0    0  0.63162820784E+01 -0.16017214667E+01 -0.48119861536E+03  0.48124273330E+03  0.00000000000E+00 0. -1.
        -15    1    1    2    0    0 -0.87279700922E+01  0.81374958654E+01 -0.52873569760E+01  0.13172326054E+02  0.17770000000E+01 0.  1.
         15    1    1    2    0    0  0.65719486841E+01 -0.12376925608E+02 -0.42851682951E+01  0.14761408921E+02  0.17770000000E+01 0. -1.
</event>
<event>
 6    1  0.1599106E-003  0.5019957E+03  0.7546771E-02  0.9395355E-01
        -11   -1    0    0    0    0  0.00000000000E+00  0.00000000000E+00  0.50000000000E+03  0.50000000000E+03  0.00000000000E+00 0.  1.
         11   -1    0    0    0    0 -0.00000000000E+00 -0.00000000000E+00 -0.50000000000E+03  0.50000000000E+03  0.00000000000E+00 0. -1.
        -11    1    1    2    0    0 -0.10329174311E+02  0.36034742107E+01  0.49788409389E+03  0.49800426485E+03  0.00000000000E+00 0.  1.
         11    1    1    2    0    0  0.99914504018E+01  0.98974236011E+00 -0.41945495258E+03  0.41957510164E+03  0.00000000000E+00 0. -1.
        -15    1    1    2    0    0  0.18679806366E+01 -0.33445831662E+01 -0.28630427322E+00  0.42326454318E+01  0.17770000000E+01 0.  1.
         15    1    1    2    0    0 -0.15302567278E+01 -0.12486334046E+01 -0.78142837031E+02  0.78187988075E+02  0.17770000000E+01 0. -1.
</event>
<event>
 6    1  0.1599106E-003  0.5031973E+03  0.7546771E-02  0.9392684E-01
        -11   -1    0    0    0    0  0.00000000000E+00  0.00000000000E+00  0.50000000000E+03  0.50000000000E+03  0.00000000000E+00 0.  1.
         11   -1    0    0    0    0 -0.00000000000E+00 -0.00000000000E+00 -0.50000000000E+03  0.50000000000E+03  0.00000000000E+00 0.  1.
        -11    1    1    2    0    0 -0.66983577500E+01 -0.14854173178E+01  0.49675533645E+03  0.49680271613E+03  0.00000000000E+00 0.  1.
         11    1    1    2    0    0  0.23007421898E+01  0.53620725036E+01 -0.41671976329E+03  0.41676061037E+03  0.00000000000E+00 0.  1.
        -15    1    1    2    0    0  0.40660637057E+01  0.38219010660E+01  0.15369408660E+00  0.58584257859E+01  0.17770000000E+01 0. -1.
         15    1    1    2    0    0  0.33155185453E+00 -0.76985562517E+01 -0.80189267242E+02  0.80578247715E+02  0.17770000000E+01 0.  1.
</event>
<event>
 6    1  0.1599106E-003  0.5040510E+03  0.7546771E-02  0.9390791E-01
        -11   -1    0    0    0    0  0.00000000000E+00  0.00000000000E+00  0.50000000000E+03  0.50000000000E+03  0.00000000000E+00 0.  1.
         11   -1    0    0    0    0 -0.00000000000E+00 -0.00000000000E+00 -0.50000000000E+03  0.50000000000E+03  0.00000000000E+00 0. -1.
        -11    1    1    2    0    0  0.19586495482E+02  0.21550440711E+01  0.49555743499E+03  0.49594903609E+03  0.00000000000E+00 0.  1.
         11    1    1    2    0    0 -0.28194461370E+01 -0.51823008457E+00 -0.13884072726E+03  0.13887031859E+03  0.00000000000E+00 0. -1.
        -15    1    1    2    0    0 -0.67342777051E+01 -0.18033409601E+02 -0.19662297031E+02  0.27573864647E+02  0.17770000000E+01 0.  1.
         15    1    1    2    0    0 -0.10032771640E+02  0.16396595614E+02 -0.33705441070E+03  0.33760678067E+03  0.17770000000E+01 0. -1.
</event>
<event>
 6    1  0.1599106E-003  0.5004214E+03  0.7546771E-02  0.9398867E-01
        -11   -1    0    0    0    0  0.00000000000E+00  0.00000000000E+00  0.50000000000E+03  0.50000000000E+03  0.00000000000E+00 0. -1.
         11   -1    0    0    0    0 -0.00000000000E+00 -0.00000000000E+00 -0.50000000000E+03  0.50000000000E+03  0.00000000000E+00 0. -1.
        -11    1    1    2    0    0  0.20347006602E+01 -0.86427818439E+01  0.41849698370E+03  0.41859116456E+03  0.00000000000E+00 0. -1.
         11    1    1    2    0    0 -0.42957221626E+01  0.10245976885E+02 -0.49945506260E+03  0.49957861526E+03  0.00000000000E+00 0. -1.
        -15    1    1    2    0    0  0.67247753002E+00 -0.50418002440E+01  0.68006819619E+02  0.68219918055E+02  0.17770000000E+01 0.  1.
         15    1    1    2    0    0  0.15885439724E+01  0.34386052032E+01  0.12951259282E+02  0.13610302116E+02  0.17770000000E+01 0. -1.
</event>
<event>
 6    1  0.1599106E-003  0.5006791E+03  0.7546771E-02  0.9398291E-01
        -11   -1    0    0    0    0  0.00000000000E+00  0.00000000000E+00  0.50000000000E+03  0.50000000000E+03  0.00000000000E+00 0.  1.
         11   -1    0    0    0    0 -0.00000000000E+00 -0.00000000000E+00 -0.50000000000E+03  0.50000000000E+03  0.00000000000E+00 0.  1.
        -11    1    1    2    0    0 -0.64629320128E+00 -0.81730160682E+01  0.49925360487E+03  0.49932091671E+03  0.00000000000E+00 0.  1.
         11    1    1    2    0    0  0.69678466472E+01  0.70660320446E+00 -0.43395180885E+03  0.43400832086E+03  0.00000000000E+00 0.  1.
        -15    1    1    2    0    0 -0.19279899258E+01  0.62568367992E+01 -0.20292098592E+02  0.21396077822E+02  0.17770000000E+01 0.  1.
         15    1    1    2    0    0 -0.43935635201E+01  0.12095760646E+01 -0.45009697427E+02  0.45274684605E+02  0.17770000000E+01 0. -1.
</event>
<event>
 6    1  0.1599106E-003  0.5005870E+03  0.7546771E-02  0.9398497E-01
        -11   -1    0    0    0    0  0.00000000000E+00  0.00000000000E+00  0.50000000000E+03  0.50000000000E+03  0.00000000000E+00 0.  1.
         11   -1    0    0    0    0 -0.00000000000E+00 -0.00000000000E+00 -0.50000000000E+03  0.50000000000E+03  0.00000000000E+00 0. -1.
        -11    1    1    2    0    0 -0.59182843356E+01  0.49497801516E+01  0.49935339823E+03  0.49941299816E+03  0.00000000000E+00 0.  1.
         11    1    1    2    0    0 -0.69259808698E+01  0.30226138893E+01 -0.25416488668E+03  0.25427720115E+03  0.00000000000E+00 0. -1.
        -15    1    1    2    0    0  0.42764953149E+01  0.27109840539E+01 -0.15287163073E+03  0.15296578394E+03  0.17770000000E+01 0.  1.
         15    1    1    2    0    0  0.85677698904E+01 -0.10683378095E+02 -0.92316880823E+02  0.93344016746E+02  0.17770000000E+01 0. -1.
</event>
<event>
 6    1  0.1599106E-003  0.4605478E+03  0.7546771E-02  0.9492690E-01
        -11   -1    0    0    0    0  0.00000000000E+00  0.00000000000E+00  0.50000000000E+03  0.50000000000E+03  0.00000000000E+00 0.  1.
         11   -1    0    0    0    0 -0.00000000000E+00 -0.00000000000E+00 -0.50000000000E+03  0.50000000000E+03  0.00000000000E+00 0. -1.
        -11    1    1    2    0    0  0.56734182686E+01  0.12719422598E+02  0.45440484603E+03  0.45461823048E+03  0.00000000000E+00 0.  1.
         11    1    1    2    0    0 -0.16907582285E+01  0.85346614282E+01 -0.46673244757E+03  0.46681353529E+03  0.00000000000E+00 0. -1.
        -15    1    1    2    0    0 -0.18639201034E+02 -0.21086551597E+02  0.38973158323E+02  0.48105376748E+02  0.17770000000E+01 0.  1.
         15    1    1    2    0    0  0.14656540994E+02 -0.16753242928E+00 -0.26645556782E+02  0.30462857486E+02  0.17770000000E+01 0. -1.
</event>
<event>
 6    1  0.1599106E-003  0.4727496E+03  0.7546771E-02  0.9462938E-01
        -11   -1    0    0    0    0  0.00000000000E+00  0.00000000000E+00  0.50000000000E+03  0.50000000000E+03  0.00000000000E+00 0. -1.
         11   -1    0    0    0    0 -0.00000000000E+00 -0.00000000000E+00 -0.50000000000E+03  0.50000000000E+03  0.00000000000E+00 0. -1.
        -11    1    1    2    0    0 -0.17274995411E+02  0.10292857770E+02  0.47431338291E+03  0.47473945864E+03  0.00000000000E+00 0. -1.
         11    1    1    2    0    0  0.11079820103E+02 -0.69342228207E+01 -0.47061181556E+03  0.47079329520E+03  0.00000000000E+00 0. -1.
        -15    1    1    2    0    0 -0.13097537914E+02  0.25175598117E+01  0.19488998550E+02  0.23682533655E+02  0.17770000000E+01 0.  1.
         15    1    1    2    0    0  0.19292713222E+02 -0.58761947610E+01 -0.23190565899E+02  0.30784712505E+02  0.17770000000E+01 0. -1.
</event>
<event>
 6    1  0.1599106E-003  0.5000668E+03  0.7546771E-02  0.9399660E-01
        -11   -1    0    0    0    0  0.00000000000E+00  0.00000000000E+00  0.50000000000E+03  0.50000000000E+03  0.00000000000E+00 0. -1.
         11   -1    0    0    0    0 -0.00000000000E+00 -0.00000000000E+00 -0.50000000000E+03  0.50000000000E+03  0.00000000000E+00 0. -1.
        -11    1    1    2    0    0  0.17396677727E+01  0.40012438963E+01  0.21444718796E+03  0.21449156818E+03  0.00000000000E+00 0. -1.
         11    1    1    2    0    0  0.39615256323E+01 -0.64100403939E+01 -0.49987635925E+03  0.49993315238E+03  0.00000000000E+00 0. -1.
        -15    1    1    2    0    0 -0.46645284676E+01  0.25540525933E+01  0.26068935621E+03  0.26074964848E+03  0.17770000000E+01 0. -1.
         15    1    1    2    0    0 -0.10366649374E+01 -0.14525609558E+00  0.24739815078E+02  0.24825630961E+02  0.17770000000E+01 0. -1.
</event>
<event>
 6    1  0.1599106E-003  0.5151511E+03  0.7546771E-02  0.9366532E-01
        -11   -1    0    0    0    0  0.00000000000E+00  0.00000000000E+00  0.50000000000E+03  0.50000000000E+03  0.00000000000E+00 0.  1.
         11   -1    0    0    0    0 -0.00000000000E+00 -0.00000000000E+00 -0.50000000000E+03  0.50000000000E+03  0.00000000000E+00 0. -1.
        -11    1    1    2    0    0 -0.17793066582E+01 -0.98698984307E+01  0.48474519885E+03  0.48484893383E+03  0.00000000000E+00 0.  1.
         11    1    1    2    0    0 -0.17800556517E+02 -0.56190521056E+01 -0.44601897380E+03  0.44640940688E+03  0.00000000000E+00 0. -1.
        -15    1    1    2    0    0  0.90914309703E+01  0.31354290047E+02 -0.98984545704E+01  0.34159665592E+02  0.17770000000E+01 0. -1.
         15    1    1    2    0    0  0.10488432205E+02 -0.15865339511E+02 -0.28827770483E+02  0.34581993695E+02  0.17770000000E+01 0.  1.
</event>
<event>
 6    1  0.1599106E-003  0.5080199E+03  0.7546771E-02  0.9382041E-01
        -11   -1    0    0    0    0  0.00000000000E+00  0.00000000000E+00  0.50000000000E+03  0.50000000000E+03  0.00000000000E+00 0. -1.
         11   -1    0    0    0    0 -0.00000000000E+00 -0.00000000000E+00 -0.50000000000E+03  0.50000000000E+03  0.00000000000E+00 0.  1.
        -11    1    1    2    0    0 -0.18112516122E+02  0.13858580388E+01  0.41449525374E+03  0.41489311782E+03  0.00000000000E+00 0. -1.
         11    1    1    2    0    0  0.11462935849E+02 -0.69365399123E+01 -0.49179757919E+03  0.49198005384E+03  0.00000000000E+00 0.  1.
        -15    1    1    2    0    0 -0.12273174391E+02 -0.10698933009E+02  0.61273993969E+02  0.63425216145E+02  0.17770000000E+01 0. -1.
         15    1    1    2    0    0  0.18922754663E+02  0.16249614882E+02  0.16028331479E+02  0.29701612193E+02  0.17770000000E+01 0.  1.
</event>
<event>
 6    1  0.1599106E-003  0.5026582E+03  0.7546771E-02  0.9393881E-01
        -11   -1    0    0    0    0  0.00000000000E+00  0.00000000000E+00  0.50000000000E+03  0.50000000000E+03  0.00000000000E+00 0.  1.
         11   -1    0    0    0    0 -0.00000000000E+00 -0.00000000000E+00 -0.50000000000E+03  0.50000000000E+03  0.00000000000E+00 0.  1.
        -11    1    1    2    0    0  0.23420823398E+01  0.53518998851E+01  0.36657684268E+03  0.36662338956E+03  0.00000000000E+00 0.  1.
         11    1    1    2    0    0  0.13384315488E+02 -0.85830616046E+01 -0.49708756891E+03  0.49734179395E+03  0.00000000000E+00 0.  1.
        -15    1    1    2    0    0 -0.19690733499E+02 -0.10815957289E+02  0.62123314466E+02  0.66084596141E+02  0.17770000000E+01 0.  1.
         15    1    1    2    0    0  0.39643356714E+01  0.14047119009E+02  0.68387411768E+02  0.69950220350E+02  0.17770000000E+01 0. -1.
</event>
<event>
 6    1  0.1599106E-003  0.5019515E+03  0.7546771E-02  0.9395454E-01
        -11   -1    0    0    0    0  0.00000000000E+00  0.00000000000E+00  0.50000000000E+03  0.50000000000E+03  0.00000000000E+00 0.  1.
         11   -1    0    0    0    0 -0.00000000000E+00 -0.00000000000E+00 -0.50000000000E+03  0.50000000000E+03  0.00000000000E+00 0.  1.
        -11    1    1    2    0    0  0.67491578955E+01 -0.87214255854E+01  0.20835426106E+03  0.20864590219E+03  0.00000000000E+00 0.  1.
         11    1    1    2    0    0 -0.18028206235E+01 -0.97755258669E+01 -0.49794928440E+03  0.49804849252E+03  0.00000000000E+00 0.  1.
        -15    1    1    2    0    0  0.23106704366E+01  0.40670054316E+01  0.22243345812E+01  0.54758674542E+01  0.17770000000E+01 0. -1.
         15    1    1    2    0    0 -0.72570077085E+01  0.14429946021E+02  0.28737068875E+03  0.28782973784E+03  0.17770000000E+01 0.  1.
</event>
<event>
 6    1  0.1599106E-003  0.5331132E+03  0.7546771E-02  0.9328620E-01
        -11   -1    0    0    0    0  0.00000000000E+00  0.00000000000E+00  0.50000000000E+03  0.50000000000E+03  0.00000000000E+00 0. -1.
         11   -1    0    0    0    0 -0.00000000000E+00 -0.00000000000E+00 -0.50000000000E+03  0.50000000000E+03  0.00000000000E+00 0.  1.
        -11    1    1    2    0    0  0.76550512903E+01 -0.53003306224E-01  0.46682408386E+03  0.46688684699E+03  0.00000000000E+00 0. -1.
         11    1    1    2    0    0 -0.20461287582E+02 -0.79023148163E+01 -0.40387029881E+03  0.40446548571E+03  0.00000000000E+00 0.  1.
        -15    1    1    2    0    0 -0.41856419196E+01 -0.95155424531E+01  0.30385032556E+02  0.32163225567E+02  0.17770000000E+01 0.  1.
         15    1    1    2    0    0  0.16991878212E+02  0.17470860576E+02 -0.93338817605E+02  0.96484441727E+02  0.17770000000E+01 0. -1.
</event>
<event>
 6    1  0.1599106E-003  0.4884465E+03  0.7546771E-02  0.9426039E-01
        -11   -1    0    0    0    0  0.00000000000E+00  0.00000000000E+00  0.50000000000E+03  0.50000000000E+03  0.00000000000E+00 0. -1.
         11   -1    0    0    0    0 -0.00000000000E+00 -0.00000000000E+00 -0.50000000000E+03  0.50000000000E+03  0.00000000000E+00 0. -1.
        -11    1    1    2    0    0 -0.81175420725E+01 -0.45824652634E+00  0.49208055671E+03  0.49214772048E+03  0.00000000000E+00 0. -1.
         11    1    1    2    0    0 -0.92915449872E+00 -0.10865105822E+02 -0.48475768572E+03  0.48488032308E+03  0.00000000000E+00 0. -1.
        -15    1    1    2    0    0 -0.35036148094E+01  0.76114372096E+01 -0.29350360624E+01  0.90543613147E+01  0.17770000000E+01 0.  1.
         15    1    1    2    0    0  0.12550311381E+02  0.37119151391E+01 -0.43878349293E+01  0.13917595127E+02  0.17770000000E+01 0. -1.
</event>
<event>
 6    1  0.1599106E-003  0.5104604E+03  0.7546771E-02  0.9376703E-01
        -11   -1    0    0    0    0  0.00000000000E+00  0.00000000000E+00  0.50000000000E+03  0.50000000000E+03  0.00000000000E+00 0.  1.
         11   -1    0    0    0    0 -0.00000000000E+00 -0.00000000000E+00 -0.50000000000E+03  0.50000000000E+03  0.00000000000E+00 0. -1.
        -11    1    1    2    0    0 -0.11623428753E+02  0.98218089094E+01  0.48930305233E+03  0.48953962969E+03  0.00000000000E+00 0.  1.
         11    1    1    2    0    0  0.21571192139E+02 -0.44481606598E+02 -0.43763734529E+03  0.44042068032E+03  0.00000000000E+00 0. -1.
        -15    1    1    2    0    0 -0.94148576192E+01  0.40262458534E+02 -0.45248257720E+02  0.61321021411E+02  0.17770000000E+01 0. -1.
         15    1    1    2    0    0 -0.53290576648E+00 -0.56026608453E+01 -0.64174493140E+01  0.87186685796E+01  0.17770000000E+01 0.  1.
</event>
<event>
 6    1  0.1599106E-003  0.5010933E+03  0.7546771E-02  0.9397367E-01
        -11   -1    0    0    0    0  0.00000000000E+00  0.00000000000E+00  0.50000000000E+03  0.50000000000E+03  0.00000000000E+00 0.  1.
         11   -1    0    0    0    0 -0.00000000000E+00 -0.00000000000E+00 -0.50000000000E+03  0.50000000000E+03  0.00000000000E+00 0. -1.
        -11    1    1    2    0    0  0.67220887303E+01  0.93570910669E+00  0.23458057229E+03  0.23467873130E+03  0.00000000000E+00 0.  1.
         11    1    1    2    0    0 -0.80058699815E+01  0.57942623169E+01 -0.49880879252E+03  0.49890668358E+03  0.00000000000E+00 0. -1.
        -15    1    1    2    0    0 -0.89984384987E+01 -0.12383072602E+02  0.22246064745E+03  0.22299374380E+03  0.17770000000E+01 0. -1.
         15    1    1    2    0    0  0.10282219750E+02  0.56531011787E+01  0.41767572774E+02  0.43420841314E+02  0.17770000000E+01 0.  1.
</event>
<event>
 6    1  0.1599106E-003  0.5137579E+03  0.7546771E-02  0.9369541E-01
        -11   -1    0    0    0    0  0.00000000000E+00  0.00000000000E+00  0.50000000000E+03  0.50000000000E+03  0.00000000000E+00 0.  1.
         11   -1    0    0    0    0 -0.00000000000E+00 -0.00000000000E+00 -0.50000000000E+03  0.50000000000E+03  0.00000000000E+00 0.  1.
        -11    1    1    2    0    0  0.15693879284E+02  0.39847976925E+01  0.39342304000E+03  0.39375609819E+03  0.00000000000E+00 0.  1.
         11    1    1    2    0    0 -0.67076682131E+01 -0.24066652367E+01 -0.48618984610E+03  0.48624207069E+03  0.00000000000E+00 0.  1.
        -15    1    1    2    0    0  0.44062300502E+01 -0.19730035976E+02 -0.39487113733E+01  0.20674603584E+02  0.17770000000E+01 0.  1.
         15    1    1    2    0    0 -0.13392441121E+02  0.18151903520E+02  0.96715517481E+02  0.99327227542E+02  0.17770000000E+01 0. -1.
</event>
<event>
 6    1  0.1599106E-003  0.5013888E+03  0.7546771E-02  0.9396708E-01
        -11   -1    0    0    0    0  0.00000000000E+00  0.00000000000E+00  0.50000000000E+03  0.50000000000E+03  0.00000000000E+00 0.  1.
         11   -1    0    0    0    0 -0.00000000000E+00 -0.00000000000E+00 -0.50000000000E+03  0.50000000000E+03  0.00000000000E+00 0.  1.
        -11    1    1    2    0    0 -0.68014523670E+00 -0.98535439741E+01  0.49851335606E+03  0.49861119231E+03  0.00000000000E+00 0.  1.
         11    1    1    2    0    0  0.16898749155E+00  0.57466293707E+01 -0.33428883038E+03  0.33433826348E+03  0.00000000000E+00 0.  1.
        -15    1    1    2    0    0 -0.17140694367E+01  0.10262751812E+02 -0.19554184489E+02  0.22221295390E+02  0.17770000000E+01 0.  1.
         15    1    1    2    0    0  0.22252271819E+01 -0.61558372089E+01 -0.14467034119E+03  0.14482924883E+03  0.17770000000E+01 0. -1.
</event>
<event>
 6    1  0.1599106E-003  0.5524393E+03  0.7546771E-02  0.9289559E-01
        -11   -1    0    0    0    0  0.00000000000E+00  0.00000000000E+00  0.50000000000E+03  0.50000000000E+03  0.00000000000E+00 0. -1.
         11   -1    0    0    0    0 -0.00000000000E+00 -0.00000000000E+00 -0.50000000000E+03  0.50000000000E+03  0.00000000000E+00 0.  1.
        -11    1    1    2    0    0  0.81150603810E+01  0.11150720026E+01  0.44748571754E+03  0.44756068302E+03  0.00000000000E+00 0. -1.
         11    1    1    2    0    0 -0.42335172636E+01  0.36392957922E+02 -0.41621752448E+03  0.41782699499E+03  0.00000000000E+00 0.  1.
        -15    1    1    2    0    0 -0.51719841171E+02 -0.49179222744E+02  0.76818133231E+01  0.71803244393E+02  0.17770000000E+01 0. -1.
         15    1    1    2    0    0  0.47838298053E+02  0.11671192819E+02 -0.38950006380E+02  0.62809077596E+02  0.17770000000E+01 0.  1.
</event>
<event>
 6    1  0.1599106E-003  0.5039311E+03  0.7546771E-02  0.9391056E-01
        -11   -1    0    0    0    0  0.00000000000E+00  0.00000000000E+00  0.50000000000E+03  0.50000000000E+03  0.00000000000E+00 0.  1.
         11   -1    0    0    0    0 -0.00000000000E+00 -0.00000000000E+00 -0.50000000000E+03  0.50000000000E+03  0.00000000000E+00 0. -1.
        -11    1    1    2    0    0  0.14648444789E+02 -0.70076413155E+00  0.49585209601E+03  0.49606891570E+03  0.00000000000E+00 0.  1.
         11    1    1    2    0    0  0.88153835589E+01 -0.30377049117E+01 -0.45094177922E+03  0.45103816566E+03  0.00000000000E+00 0. -1.
        -15    1    1    2    0    0 -0.18438956539E+02 -0.33436196908E+01 -0.27061812634E+02  0.32964743938E+02  0.17770000000E+01 0.  1.
         15    1    1    2    0    0 -0.50248718085E+01  0.70820887340E+01 -0.17848504152E+02  0.19928174703E+02  0.17770000000E+01 0.  1.
</event>
<event>
 6    1  0.1599106E-003  0.5004492E+03  0.7546771E-02  0.9398805E-01
        -11   -1    0    0    0    0  0.00000000000E+00  0.00000000000E+00  0.50000000000E+03  0.50000000000E+03  0.00000000000E+00 0.  1.
         11   -1    0    0    0    0 -0.00000000000E+00 -0.00000000000E+00 -0.50000000000E+03  0.50000000000E+03  0.00000000000E+00 0.  1.
        -11    1    1    2    0    0 -0.99126090601E+01  0.52495732359E+01  0.16271368582E+03  0.16309985098E+03  0.00000000000E+00 0.  1.
         11    1    1    2    0    0  0.89777556032E+01  0.61190655823E+01 -0.49943262128E+03  0.49955078446E+03  0.00000000000E+00 0.  1.
        -15    1    1    2    0    0  0.55533713918E+01 -0.83216627992E+01  0.30011605000E+03  0.30028801375E+03  0.17770000000E+01 0.  1.
         15    1    1    2    0    0 -0.46185179350E+01 -0.30469760189E+01  0.36602885457E+02  0.37061350806E+02  0.17770000000E+01 0. -1.
</event>
<event>
 6    1  0.1599106E-003  0.5029396E+03  0.7546771E-02  0.9393256E-01
        -11   -1    0    0    0    0  0.00000000000E+00  0.00000000000E+00  0.50000000000E+03  0.50000000000E+03  0.00000000000E+00 0. -1.
         11   -1    0    0    0    0 -0.00000000000E+00 -0.00000000000E+00 -0.50000000000E+03  0.50000000000E+03  0.00000000000E+00 0. -1.
        -11    1    1    2    0    0  0.17883604496E+00 -0.68067653044E+01  0.47762611117E+03  0.47767464462E+03  0.00000000000E+00 0. -1.
         11    1    1    2    0    0  0.76563361780E+01 -0.17025974644E+01 -0.49699848326E+03  0.49706036925E+03  0.00000000000E+00 0. -1.
        -15    1    1    2    0    0  0.24778658107E+01  0.84257027377E+00  0.28476849164E+01  0.42563813299E+01  0.17770000000E+01 0.  1.
         15    1    1    2    0    0 -0.10313038034E+02  0.76667924950E+01  0.16524687169E+02  0.21008604801E+02  0.17770000000E+01 0.  1.
</event>
<event>
 6    1  0.1599106E-003  0.4821190E+03  0.7546771E-02  0.9440733E-01
        -11   -1    0    0    0    0  0.00000000000E+00  0.00000000000E+00  0.50000000000E+03  0.50000000000E+03  0.00000000000E+00 0. -1.
         11   -1    0    0    0    0 -0.00000000000E+00 -0.00000000000E+00 -0.50000000000E+03  0.50000000000E+03  0.00000000000E+00 0.  1.
        -11    1    1    2    0    0  0.13290356065E+02 -0.78051291567E+01  0.48060625121E+03  0.48085332723E+03  0.00000000000E+00 0. -1.
         11    1    1    2    0    0  0.45430441296E+01  0.47434911379E+01 -0.48351421740E+03  0.48355882619E+03  0.00000000000E+00 0.  1.
        -15    1    1    2    0    0 -0.13398192051E+02 -0.49472494248E+01  0.14687398322E+02  0.20563662747E+02  0.17770000000E+01 0. -1.
         15    1    1    2    0    0 -0.44352081439E+01  0.80088874436E+01 -0.11779432134E+02  0.15024183830E+02  0.17770000000E+01 0. -1.
</event>
<event>
 6    1  0.1599106E-003  0.5084443E+03  0.7546771E-02  0.9381111E-01
        -11   -1    0    0    0    0  0.00000000000E+00  0.00000000000E+00  0.50000000000E+03  0.50000000000E+03  0.00000000000E+00 0.  1.
         11   -1    0    0    0    0 -0.00000000000E+00 -0.00000000000E+00 -0.50000000000E+03  0.50000000000E+03  0.00000000000E+00 0. -1.
        -11    1    1    2    0    0 -0.35967117400E+01  0.12754208804E+02  0.49137708502E+03  0.49155574034E+03  0.00000000000E+00 0.  1.
         11    1    1    2    0    0 -0.15312408478E+02 -0.90424965061E+01 -0.45954926924E+03  0.45989321310E+03  0.00000000000E+00 0. -1.
        -15    1    1    2    0    0  0.12479735550E+02 -0.63938084075E+01  0.17225532268E+01  0.14239013448E+02  0.17770000000E+01 0.  1.
         15    1    1    2    0    0  0.64293846680E+01  0.26820961100E+01 -0.33550369004E+02  0.34312033109E+02  0.17770000000E+01 0. -1.
</event>
<event>
 6    1  0.1599106E-003  0.5052296E+03  0.7546771E-02  0.9388184E-01
        -11   -1    0    0    0    0  0.00000000000E+00  0.00000000000E+00  0.50000000000E+03  0.50000000000E+03  0.00000000000E+00 0.  1.
         11   -1    0    0    0    0 -0.00000000000E+00 -0.00000000000E+00 -0.50000000000E+03  0.50000000000E+03  0.00000000000E+00 0. -1.
        -11    1    1    2    0    0  0.40630709452E+01  0.12229631313E+02  0.49460254384E+03  0.49477040009E+03  0.00000000000E+00 0.  1.
         11    1    1    2    0    0 -0.15522014243E+01 -0.79187117491E+01 -0.41996797693E+03  0.42004549393E+03  0.00000000000E+00 0. -1.
        -15    1    1    2    0    0  0.97140687842E+01  0.75249512430E+01 -0.63657660032E+02  0.64857100100E+02  0.17770000000E+01 0. -1.
         15    1    1    2    0    0 -0.12224938305E+02 -0.11835870807E+02 -0.10976906879E+02  0.20327005878E+02  0.17770000000E+01 0.  1.
</event>
<event>
 6    1  0.1599106E-003  0.3974628E+03  0.7546771E-02  0.9663927E-01
        -11   -1    0    0    0    0  0.00000000000E+00  0.00000000000E+00  0.50000000000E+03  0.50000000000E+03  0.00000000000E+00 0. -1.
         11   -1    0    0    0    0 -0.00000000000E+00 -0.00000000000E+00 -0.50000000000E+03  0.50000000000E+03  0.00000000000E+00 0. -1.
        -11    1    1    2    0    0 -0.26029940664E+02  0.11081911225E+02  0.44027486653E+03  0.44118286987E+03  0.00000000000E+00 0. -1.
         11    1    1    2    0    0  0.19686804943E+02 -0.76935476476E+01 -0.10286739556E+03  0.10501648458E+03  0.00000000000E+00 0. -1.
        -15    1    1    2    0    0 -0.34281726735E+02 -0.82022943156E+02 -0.35289950327E+03  0.36392886273E+03  0.17770000000E+01 0. -1.
         15    1    1    2    0    0  0.40624862455E+02  0.78634579579E+02  0.15492032291E+02  0.89871782827E+02  0.17770000000E+01 0.  1.
</event>
<event>
 6    1  0.1599106E-003  0.5062699E+03  0.7546771E-02  0.9385889E-01
        -11   -1    0    0    0    0  0.00000000000E+00  0.00000000000E+00  0.50000000000E+03  0.50000000000E+03  0.00000000000E+00 0.  1.
         11   -1    0    0    0    0 -0.00000000000E+00 -0.00000000000E+00 -0.50000000000E+03  0.50000000000E+03  0.00000000000E+00 0. -1.
        -11    1    1    2    0    0 -0.14300205853E+02 -0.69391403302E+01  0.49347415547E+03  0.49373007775E+03  0.00000000000E+00 0.  1.
         11    1    1    2    0    0 -0.46925764614E+01 -0.49189887515E+01 -0.41460861640E+03  0.41466434802E+03  0.00000000000E+00 0. -1.
        -15    1    1    2    0    0  0.14276409023E+02  0.86372028697E+01 -0.50155042609E+01  0.17513712913E+02  0.17770000000E+01 0. -1.
         15    1    1    2    0    0  0.47163732917E+01  0.32209262121E+01 -0.73850034810E+02  0.74091861315E+02  0.17770000000E+01 0.  1.
</event>
<event>
 6    1  0.1599106E-003  0.5859103E+03  0.7546771E-02  0.9225760E-01
        -11   -1    0    0    0    0  0.00000000000E+00  0.00000000000E+00  0.50000000000E+03  0.50000000000E+03  0.00000000000E+00 0. -1.
         11   -1    0    0    0    0 -0.00000000000E+00 -0.00000000000E+00 -0.50000000000E+03  0.50000000000E+03  0.00000000000E+00 0.  1.
        -11    1    1    2    0    0  0.35643535689E+01 -0.10503985898E+02  0.41394114299E+03  0.41408973447E+03  0.00000000000E+00 0. -1.
         11    1    1    2    0    0 -0.46336127024E+01 -0.11034077835E+02 -0.38504449534E+03  0.38523043057E+03  0.00000000000E+00 0.  1.
        -15    1    1    2    0    0  0.25192219997E+02 -0.68870660222E+00 -0.11016426329E+03  0.11302408991E+03  0.17770000000E+01 0.  1.
         15    1    1    2    0    0 -0.24122960863E+02  0.22226770335E+02  0.81267615641E+02  0.87655745056E+02  0.17770000000E+01 0. -1.
</event>
<event>
 6    1  0.1599106E-003  0.5011202E+03  0.7546771E-02  0.9397307E-01
        -11   -1    0    0    0    0  0.00000000000E+00  0.00000000000E+00  0.50000000000E+03  0.50000000000E+03  0.00000000000E+00 0. -1.
         11   -1    0    0    0    0 -0.00000000000E+00 -0.00000000000E+00 -0.50000000000E+03  0.50000000000E+03  0.00000000000E+00 0.  1.
        -11    1    1    2    0    0  0.32998030256E+01  0.67872083346E+01  0.34601725780E+03  0.34609954868E+03  0.00000000000E+00 0. -1.
         11    1    1    2    0    0  0.73614796801E+01  0.40699558286E+01 -0.49880892092E+03  0.49887984076E+03  0.00000000000E+00 0.  1.
        -15    1    1    2    0    0 -0.75834920560E+01  0.33682457834E+00  0.16778414959E+02  0.18501236178E+02  0.17770000000E+01 0. -1.
         15    1    1    2    0    0 -0.30777906497E+01 -0.11193988742E+02  0.13601324816E+03  0.13651937439E+03  0.17770000000E+01 0.  1.
</event>
<event>
 6    1  0.1599106E-003  0.4814634E+03  0.7546771E-02  0.9442269E-01
        -11   -1    0    0    0    0  0.00000000000E+00  0.00000000000E+00  0.50000000000E+03  0.50000000000E+03  0.00000000000E+00 0. -1.
         11   -1    0    0    0    0 -0.00000000000E+00 -0.00000000000E+00 -0.50000000000E+03  0.50000000000E+03  0.00000000000E+00 0. -1.
        -11    1    1    2    0    0 -0.82666541536E+01 -0.65997226993E+01  0.47491594772E+03  0.47503373702E+03  0.00000000000E+00 0. -1.
         11    1    1    2    0    0 -0.14984659267E+02 -0.67655098912E+01 -0.48807965580E+03  0.48835649125E+03  0.00000000000E+00 0. -1.
        -15    1    1    2    0    0  0.54911092639E+01  0.70162383852E+01 -0.49953134228E+01  0.10367775423E+02  0.17770000000E+01 0.  1.
         15    1    1    2    0    0  0.17760204156E+02  0.63489942054E+01  0.18159021510E+02  0.26241996310E+02  0.17770000000E+01 0. -1.
</event>
<event>
 6    1  0.1599106E-003  0.5010707E+03  0.7546771E-02  0.9397417E-01
        -11   -1    0    0    0    0  0.00000000000E+00  0.00000000000E+00  0.50000000000E+03  0.50000000000E+03  0.00000000000E+00 0. -1.
         11   -1    0    0    0    0 -0.00000000000E+00 -0.00000000000E+00 -0.50000000000E+03  0.50000000000E+03  0.00000000000E+00 0. -1.
        -11    1    1    2    0    0  0.31703872198E+01 -0.32485030494E+02  0.49786052923E+03  0.49892928871E+03  0.00000000000E+00 0. -1.
         11    1    1    2    0    0 -0.32517466467E+01  0.32566135520E+00 -0.11300130466E+03  0.11304855048E+03  0.00000000000E+00 0. -1.
        -15    1    1    2    0    0  0.41132988567E+01  0.10900888263E+02 -0.30606124899E+03  0.30628809061E+03  0.17770000000E+01 0. -1.
         15    1    1    2    0    0 -0.40319394298E+01  0.21258480876E+02 -0.78797975587E+02  0.81734070193E+02  0.17770000000E+01 0.  1.
</event>
<event>
 6    1  0.1599106E-003  0.5030498E+03  0.7546771E-02  0.9393011E-01
        -11   -1    0    0    0    0  0.00000000000E+00  0.00000000000E+00  0.50000000000E+03  0.50000000000E+03  0.00000000000E+00 0. -1.
         11   -1    0    0    0    0 -0.00000000000E+00 -0.00000000000E+00 -0.50000000000E+03  0.50000000000E+03  0.00000000000E+00 0.  1.
        -11    1    1    2    0    0  0.43641978751E+01 -0.97824041618E+01  0.49683472677E+03  0.49695018601E+03  0.00000000000E+00 0. -1.
         11    1    1    2    0    0 -0.53575509115E+01  0.32148902151E+00 -0.20354367851E+03  0.20361442917E+03  0.00000000000E+00 0.  1.
        -15    1    1    2    0    0  0.76036101845E+01  0.15744241508E+01 -0.28727159617E+03  0.28738201300E+03  0.17770000000E+01 0.  1.
         15    1    1    2    0    0 -0.66102571481E+01  0.78864909895E+01 -0.60194520952E+01  0.12053371819E+02  0.17770000000E+01 0. -1.
</event>
<event>
 6    1  0.1599106E-003  0.5257425E+03  0.7546771E-02  0.9343982E-01
        -11   -1    0    0    0    0  0.00000000000E+00  0.00000000000E+00  0.50000000000E+03  0.50000000000E+03  0.00000000000E+00 0.  1.
         11   -1    0    0    0    0 -0.00000000000E+00 -0.00000000000E+00 -0.50000000000E+03  0.50000000000E+03  0.00000000000E+00 0. -1.
        -11    1    1    2    0    0 -0.12525632408E+02 -0.19463826978E+02  0.47369234615E+03  0.47425749423E+03  0.00000000000E+00 0.  1.
         11    1    1    2    0    0 -0.46827337828E+00 -0.90443930736E+01 -0.36021259980E+03  0.36032643169E+03  0.00000000000E+00 0. -1.
        -15    1    1    2    0    0  0.27301929246E+02  0.42064252905E+02 -0.13018316391E+03  0.13951921232E+03  0.17770000000E+01 0. -1.
         15    1    1    2    0    0 -0.14308023460E+02 -0.13556032853E+02  0.16703417547E+02  0.25896861755E+02  0.17770000000E+01 0.  1.
</event>
<event>
 6    1  0.1599106E-003  0.5002185E+03  0.7546771E-02  0.9399321E-01
        -11   -1    0    0    0    0  0.00000000000E+00  0.00000000000E+00  0.50000000000E+03  0.50000000000E+03  0.00000000000E+00 0.  1.
         11   -1    0    0    0    0 -0.00000000000E+00 -0.00000000000E+00 -0.50000000000E+03  0.50000000000E+03  0.00000000000E+00 0. -1.
        -11    1    1    2    0    0  0.52377009059E+00 -0.21461652411E+01  0.12578295351E+03  0.12580235194E+03  0.00000000000E+00 0.  1.
         11    1    1    2    0    0 -0.77895710381E+01 -0.87441835181E+01 -0.49964425761E+03  0.49978147457E+03  0.00000000000E+00 0. -1.
        -15    1    1    2    0    0  0.93837986701E+01  0.77845887569E+01  0.34838204643E+03  0.34859986159E+03  0.17770000000E+01 0.  1.
         15    1    1    2    0    0 -0.21179977226E+01  0.31057600023E+01  0.25479257675E+02  0.25816311902E+02  0.17770000000E+01 0. -1.
</event>
<event>
 6    1  0.1599106E-003  0.5106790E+03  0.7546771E-02  0.9376227E-01
        -11   -1    0    0    0    0  0.00000000000E+00  0.00000000000E+00  0.50000000000E+03  0.50000000000E+03  0.00000000000E+00 0.  1.
         11   -1    0    0    0    0 -0.00000000000E+00 -0.00000000000E+00 -0.50000000000E+03  0.50000000000E+03  0.00000000000E+00 0. -1.
        -11    1    1    2    0    0 -0.14700854312E+01 -0.12619095341E+02  0.48915604581E+03  0.48932099880E+03  0.00000000000E+00 0.  1.
         11    1    1    2    0    0  0.89759346071E+01 -0.12439264760E+02 -0.35334569404E+03  0.35367850120E+03  0.00000000000E+00 0. -1.
        -15    1    1    2    0    0 -0.15173644425E+02  0.39230260546E+02 -0.13427121253E+03  0.14071662685E+03  0.17770000000E+01 0. -1.
         15    1    1    2    0    0  0.76677952494E+01 -0.14171900445E+02 -0.15391392357E+01  0.16283873151E+02  0.17770000000E+01 0.  1.
</event>
<event>
 6    1  0.1599106E-003  0.5141585E+03  0.7546771E-02  0.9368675E-01
        -11   -1    0    0    0    0  0.00000000000E+00  0.00000000000E+00  0.50000000000E+03  0.50000000000E+03  0.00000000000E+00 0. -1.
         11   -1    0    0    0    0 -0.00000000000E+00 -0.00000000000E+00 -0.50000000000E+03  0.50000000000E+03  0.00000000000E+00 0. -1.
        -11    1    1    2    0    0 -0.21117418040E+02 -0.49604564443E+01  0.46529416864E+03  0.46579954363E+03  0.00000000000E+00 0. -1.
         11    1    1    2    0    0 -0.56643294788E+01  0.10194954508E+02 -0.48570152019E+03  0.48584152606E+03  0.00000000000E+00 0. -1.
        -15    1    1    2    0    0  0.22856016565E+02 -0.11437416177E+02 -0.10193878753E+01  0.25639985621E+02  0.17770000000E+01 0. -1.
         15    1    1    2    0    0  0.39257309535E+01  0.62029181131E+01  0.21426739423E+02  0.22718944692E+02  0.17770000000E+01 0.  1.
</event>
<event>
 6    1  0.1599106E-003  0.5032946E+03  0.7546771E-02  0.9392468E-01
        -11   -1    0    0    0    0  0.00000000000E+00  0.00000000000E+00  0.50000000000E+03  0.50000000000E+03  0.00000000000E+00 0. -1.
         11   -1    0    0    0    0 -0.00000000000E+00 -0.00000000000E+00 -0.50000000000E+03  0.50000000000E+03  0.00000000000E+00 0.  1.
        -11    1    1    2    0    0  0.19954313982E+01 -0.25185854396E+02  0.49606243713E+03  0.49670539612E+03  0.00000000000E+00 0. -1.
         11    1    1    2    0    0  0.62186403505E+01 -0.61711513098E+00 -0.13173942221E+03  0.13188755696E+03  0.00000000000E+00 0.  1.
        -15    1    1    2    0    0 -0.38958719930E+01  0.39124657310E+02 -0.11245248035E+03  0.11914123843E+03  0.17770000000E+01 0. -1.
         15    1    1    2    0    0 -0.43181997557E+01 -0.13321687783E+02 -0.25187053457E+03  0.25226580848E+03  0.17770000000E+01 0.  1.
</event>
<event>
 6    1  0.1599106E-003  0.5019453E+03  0.7546771E-02  0.9395467E-01
        -11   -1    0    0    0    0  0.00000000000E+00  0.00000000000E+00  0.50000000000E+03  0.50000000000E+03  0.00000000000E+00 0. -1.
         11   -1    0    0    0    0 -0.00000000000E+00 -0.00000000000E+00 -0.50000000000E+03  0.50000000000E+03  0.00000000000E+00 0.  1.
        -11    1    1    2    0    0 -0.68103928740E+01 -0.96301978868E+01  0.43805729413E+03  0.43821605984E+03  0.00000000000E+00 0. -1.
         11    1    1    2    0    0 -0.92789932436E+01 -0.13308750107E+00 -0.49796824483E+03  0.49805470611E+03  0.00000000000E+00 0.  1.
        -15    1    1    2    0    0  0.10884905861E+02  0.11454669882E+02  0.41594230632E+02  0.44530084084E+02  0.17770000000E+01 0.  1.
         15    1    1    2    0    0  0.52044802564E+01 -0.16913844943E+01  0.18316720067E+02  0.19199149962E+02  0.17770000000E+01 0. -1.
</event>
<event>
 6    1  0.1599106E-003  0.5001015E+03  0.7546771E-02  0.9399583E-01
        -11   -1    0    0    0    0  0.00000000000E+00  0.00000000000E+00  0.50000000000E+03  0.50000000000E+03  0.00000000000E+00 0. -1.
         11   -1    0    0    0    0 -0.00000000000E+00 -0.00000000000E+00 -0.50000000000E+03  0.50000000000E+03  0.00000000000E+00 0. -1.
        -11    1    1    2    0    0  0.21045770928E+00  0.22966246767E+01  0.78855094481E+02  0.78888812280E+02  0.00000000000E+00 0. -1.
         11    1    1    2    0    0 -0.86762668688E+01 -0.80021830319E+01 -0.49975916483E+03  0.49989852507E+03  0.00000000000E+00 0. -1.
        -15    1    1    2    0    0 -0.11835087467E+01  0.40558372319E+01  0.23324587669E+03  0.23329090688E+03  0.17770000000E+01 0. -1.
         15    1    1    2    0    0  0.96493179062E+01  0.16497211234E+01  0.18765819366E+03  0.18792175577E+03  0.17770000000E+01 0.  1.
</event>
<event>
 6    1  0.1599106E-003  0.5110937E+03  0.7546771E-02  0.9375323E-01
        -11   -1    0    0    0    0  0.00000000000E+00  0.00000000000E+00  0.50000000000E+03  0.50000000000E+03  0.00000000000E+00 0. -1.
         11   -1    0    0    0    0 -0.00000000000E+00 -0.00000000000E+00 -0.50000000000E+03  0.50000000000E+03  0.00000000000E+00 0.  1.
        -11    1    1    2    0    0  0.72595786407E+01  0.65009821379E+01  0.48880916317E+03  0.48890629189E+03  0.00000000000E+00 0. -1.
         11    1    1    2    0    0  0.27969077419E+01 -0.76512807470E+01 -0.44652445964E+03  0.44659876606E+03  0.00000000000E+00 0.  1.
        -15    1    1    2    0    0 -0.61160230722E+01  0.11024976222E+02 -0.49769163983E+02  0.51372008443E+02  0.17770000000E+01 0. -1.
         15    1    1    2    0    0 -0.39404633104E+01 -0.98746776128E+01  0.74844604522E+01  0.13122933602E+02  0.17770000000E+01 0.  1.
</event>
<event>
 6    1  0.1599106E-003  0.5007301E+03  0.7546771E-02  0.9398178E-01
        -11   -1    0    0    0    0  0.00000000000E+00  0.00000000000E+00  0.50000000000E+03  0.50000000000E+03  0.00000000000E+00 0.  1.
         11   -1    0    0    0    0 -0.00000000000E+00 -0.00000000000E+00 -0.50000000000E+03  0.50000000000E+03  0.00000000000E+00 0. -1.
        -11    1    1    2    0    0  0.31343024009E+01 -0.39650982039E+01  0.28625297573E+03  0.28629759337E+03  0.00000000000E+00 0.  1.
         11    1    1    2    0    0 -0.47921383081E+01  0.66454580799E+01 -0.49920267296E+03  0.49926990235E+03  0.00000000000E+00 0. -1.
        -15    1    1    2    0    0 -0.45692523687E+01  0.41227830459E+01  0.18143294744E+03  0.18154599294E+03  0.17770000000E+01 0. -1.
         15    1    1    2    0    0  0.62270882759E+01 -0.68031429218E+01  0.31516749791E+02  0.32886511344E+02  0.17770000000E+01 0.  1.
</event>
<event>
 6    1  0.1599106E-003  0.5081005E+03  0.7546771E-02  0.9381864E-01
        -11   -1    0    0    0    0  0.00000000000E+00  0.00000000000E+00  0.50000000000E+03  0.50000000000E+03  0.00000000000E+00 0.  1.
         11   -1    0    0    0    0 -0.00000000000E+00 -0.00000000000E+00 -0.50000000000E+03  0.50000000000E+03  0.00000000000E+00 0. -1.
        -11    1    1    2    0    0 -0.57397035785E+01  0.20966388127E+02  0.41706506496E+03  0.41763117944E+03  0.00000000000E+00 0.  1.
         11    1    1    2    0    0  0.41833371857E+01  0.59031902830E+01 -0.49184629649E+03  0.49189950939E+03  0.00000000000E+00 0. -1.
        -15    1    1    2    0    0  0.18747020899E+02 -0.18286251829E+01  0.40062741126E+02  0.44305480678E+02  0.17770000000E+01 0. -1.
         15    1    1    2    0    0 -0.17190654506E+02 -0.25040953228E+02  0.34718490403E+02  0.46163830493E+02  0.17770000000E+01 0.  1.
</event>
<event>
 6    1  0.1599106E-003  0.5025711E+03  0.7546771E-02  0.9394075E-01
        -11   -1    0    0    0    0  0.00000000000E+00  0.00000000000E+00  0.50000000000E+03  0.50000000000E+03  0.00000000000E+00 0.  1.
         11   -1    0    0    0    0 -0.00000000000E+00 -0.00000000000E+00 -0.50000000000E+03  0.50000000000E+03  0.00000000000E+00 0. -1.
        -11    1    1    2    0    0 -0.11744571330E+01  0.74878623922E+01  0.49737116743E+03  0.49742891515E+03  0.00000000000E+00 0.  1.
         11    1    1    2    0    0 -0.25602015791E+01  0.10965459833E+02 -0.21178232975E+03  0.21208147287E+03  0.00000000000E+00 0. -1.
        -15    1    1    2    0    0  0.12385508741E+02 -0.19618771943E+02 -0.27744789600E+03  0.27842196351E+03  0.17770000000E+01 0. -1.
         15    1    1    2    0    0 -0.86508500294E+01  0.11654497179E+01 -0.81409416831E+01  0.12067648477E+02  0.17770000000E+01 0.  1.
</event>
<event>
 6    1  0.1599106E-003  0.5104751E+03  0.7546771E-02  0.9376671E-01
        -11   -1    0    0    0    0  0.00000000000E+00  0.00000000000E+00  0.50000000000E+03  0.50000000000E+03  0.00000000000E+00 0. -1.
         11   -1    0    0    0    0 -0.00000000000E+00 -0.00000000000E+00 -0.50000000000E+03  0.50000000000E+03  0.00000000000E+00 0.  1.
        -11    1    1    2    0    0  0.76188404469E+01 -0.33177930606E+00  0.48946550368E+03  0.48952490856E+03  0.00000000000E+00 0. -1.
         11    1    1    2    0    0  0.92837518763E+01  0.15214354113E+02 -0.46987865029E+03  0.47021655715E+03  0.00000000000E+00 0.  1.
        -15    1    1    2    0    0  0.34484776371E+00 -0.35033332328E+01  0.60881215504E+01  0.72536347256E+01  0.17770000000E+01 0.  1.
         15    1    1    2    0    0 -0.17247440087E+02 -0.11379241575E+02 -0.25674974944E+02  0.33004899571E+02  0.17770000000E+01 0. -1.
</event>
<event>
 6    1  0.1599106E-003  0.5011545E+03  0.7546771E-02  0.9397230E-01
        -11   -1    0    0    0    0  0.00000000000E+00  0.00000000000E+00  0.50000000000E+03  0.50000000000E+03  0.00000000000E+00 0. -1.
         11   -1    0    0    0    0 -0.00000000000E+00 -0.00000000000E+00 -0.50000000000E+03  0.50000000000E+03  0.00000000000E+00 0. -1.
        -11    1    1    2    0    0  0.63059032085E+01 -0.10065389262E+02  0.49870403284E+03  0.49884545587E+03  0.00000000000E+00 0. -1.
         11    1    1    2    0    0 -0.24846456954E+01 -0.35556320453E+00 -0.10997286016E+03  0.11000149936E+03  0.00000000000E+00 0. -1.
        -15    1    1    2    0    0 -0.21408021804E+02 -0.16390464922E+01 -0.16491712647E+03  0.16631838805E+03  0.17770000000E+01 0. -1.
         15    1    1    2    0    0  0.17586764290E+02  0.12059998959E+02 -0.22381404620E+03  0.22483465672E+03  0.17770000000E+01 0.  1.
</event>
<event>
 6    1  0.1599106E-003  0.5047752E+03  0.7546771E-02  0.9389188E-01
        -11   -1    0    0    0    0  0.00000000000E+00  0.00000000000E+00  0.50000000000E+03  0.50000000000E+03  0.00000000000E+00 0. -1.
         11   -1    0    0    0    0 -0.00000000000E+00 -0.00000000000E+00 -0.50000000000E+03  0.50000000000E+03  0.00000000000E+00 0. -1.
        -11    1    1    2    0    0  0.10322637475E+02 -0.75611146787E+01  0.49505942097E+03  0.49522475462E+03  0.00000000000E+00 0. -1.
         11    1    1    2    0    0  0.10757834942E+02 -0.12122421306E+02 -0.41868953968E+03  0.41900312022E+03  0.00000000000E+00 0. -1.
        -15    1    1    2    0    0 -0.20648744956E+02  0.17046702925E+02 -0.77771078418E+02  0.82270645531E+02  0.17770000000E+01 0. -1.
         15    1    1    2    0    0 -0.43172746061E+00  0.26368330593E+01  0.14011971293E+01  0.35014796270E+01  0.17770000000E+01 0.  1.
</event>
<event>
 6    1  0.1599106E-003  0.5048190E+03  0.7546771E-02  0.9389091E-01
        -11   -1    0    0    0    0  0.00000000000E+00  0.00000000000E+00  0.50000000000E+03  0.50000000000E+03  0.00000000000E+00 0.  1.
         11   -1    0    0    0    0 -0.00000000000E+00 -0.00000000000E+00 -0.50000000000E+03  0.50000000000E+03  0.00000000000E+00 0. -1.
        -11    1    1    2    0    0 -0.13701406221E+02  0.46507488036E+01  0.49496954878E+03  0.49518098935E+03  0.00000000000E+00 0.  1.
         11    1    1    2    0    0  0.24601188118E+01  0.11602552604E+02 -0.40634133713E+03  0.40651439540E+03  0.00000000000E+00 0. -1.
        -15    1    1    2    0    0  0.20085567082E+02  0.14284501966E+01 -0.28179318104E+02  0.34679996724E+02  0.17770000000E+01 0.  1.
         15    1    1    2    0    0 -0.88442796730E+01 -0.17681751604E+02 -0.60448893547E+02  0.63624618527E+02  0.17770000000E+01 0. -1.
</event>
<event>
 6    1  0.1599106E-003  0.5137062E+03  0.7546771E-02  0.9369653E-01
        -11   -1    0    0    0    0  0.00000000000E+00  0.00000000000E+00  0.50000000000E+03  0.50000000000E+03  0.00000000000E+00 0.  1.
         11   -1    0    0    0    0 -0.00000000000E+00 -0.00000000000E+00 -0.50000000000E+03  0.50000000000E+03  0.00000000000E+00 0.  1.
        -11    1    1    2    0    0  0.32311752184E+01  0.17839676151E+02  0.40563812212E+03  0.40604307734E+03  0.00000000000E+00 0.  1.
         11    1    1    2    0    0  0.66065352756E+01  0.29361788303E+01 -0.48624006751E+03  0.48629381109E+03  0.00000000000E+00 0.  1.
        -15    1    1    2    0    0 -0.38543274211E+02 -0.14410177807E+02  0.39265554816E+02  0.56904997455E+02  0.17770000000E+01 0.  1.
         15    1    1    2    0    0  0.28705563717E+02 -0.63656771751E+01  0.41336390567E+02  0.50758114113E+02  0.17770000000E+01 0. -1.
</event>
<event>
 6    1  0.1599106E-003  0.5021859E+03  0.7546771E-02  0.9394932E-01
        -11   -1    0    0    0    0  0.00000000000E+00  0.00000000000E+00  0.50000000000E+03  0.50000000000E+03  0.00000000000E+00 0. -1.
         11   -1    0    0    0    0 -0.00000000000E+00 -0.00000000000E+00 -0.50000000000E+03  0.50000000000E+03  0.00000000000E+00 0. -1.
        -11    1    1    2    0    0  0.21043022984E+02 -0.18136637263E+02  0.49703837302E+03  0.49781411258E+03  0.00000000000E+00 0. -1.
         11    1    1    2    0    0  0.77108454249E+01 -0.66479716505E+01 -0.31827450160E+03  0.31843729529E+03  0.00000000000E+00 0. -1.
        -15    1    1    2    0    0 -0.18698575204E+02  0.15942552974E+02 -0.14951842115E+03  0.15153454293E+03  0.17770000000E+01 0.  1.
         15    1    1    2    0    0 -0.10055293205E+02  0.88420559389E+01 -0.29245450278E+02  0.32214049197E+02  0.17770000000E+01 0. -1.
</event>
<event>
 6    1  0.1599106E-003  0.5014461E+03  0.7546771E-02  0.9396580E-01
        -11   -1    0    0    0    0  0.00000000000E+00  0.00000000000E+00  0.50000000000E+03  0.50000000000E+03  0.00000000000E+00 0.  1.
         11   -1    0    0    0    0 -0.00000000000E+00 -0.00000000000E+00 -0.50000000000E+03  0.50000000000E+03  0.00000000000E+00 0. -1.
        -11    1    1    2    0    0  0.20063294298E+01 -0.79708739330E+01  0.49848613061E+03  0.49855389137E+03  0.00000000000E+00 0.  1.
         11    1    1    2    0    0  0.95235178377E+01 -0.13944438878E+01 -0.44424541027E+03  0.44434966683E+03  0.00000000000E+00 0. -1.
        -15    1    1    2    0    0 -0.33075494477E+01  0.61833857541E+01 -0.12911540909E+02  0.14799991905E+02  0.17770000000E+01 0.  1.
         15    1    1    2    0    0 -0.82222978199E+01  0.31819320666E+01 -0.41329179430E+02  0.42296449904E+02  0.17770000000E+01 0. -1.
</event>
<event>
 6    1  0.1599106E-003  0.5003620E+03  0.7546771E-02  0.9399000E-01
        -11   -1    0    0    0    0  0.00000000000E+00  0.00000000000E+00  0.50000000000E+03  0.50000000000E+03  0.00000000000E+00 0.  1.
         11   -1    0    0    0    0 -0.00000000000E+00 -0.00000000000E+00 -0.50000000000E+03  0.50000000000E+03  0.00000000000E+00 0. -1.
        -11    1    1    2    0    0  0.55969639513E+01  0.13613781049E+01  0.38103699952E+03  0.38108053527E+03  0.00000000000E+00 0.  1.
         11    1    1    2    0    0  0.63707344711E+01 -0.42778188420E+01 -0.49957905188E+03  0.49963798401E+03  0.00000000000E+00 0. -1.
        -15    1    1    2    0    0 -0.26165279264E+01  0.80871997658E+00  0.40827672650E+02  0.40957988590E+02  0.17770000000E+01 0.  1.
         15    1    1    2    0    0 -0.93511704961E+01  0.21077207606E+01  0.77714379711E+02  0.78323492129E+02  0.17770000000E+01 0. -1.
</event>
<event>
 6    1  0.1599106E-003  0.5068412E+03  0.7546771E-02  0.9384631E-01
        -11   -1    0    0    0    0  0.00000000000E+00  0.00000000000E+00  0.50000000000E+03  0.50000000000E+03  0.00000000000E+00 0.  1.
         11   -1    0    0    0    0 -0.00000000000E+00 -0.00000000000E+00 -0.50000000000E+03  0.50000000000E+03  0.00000000000E+00 0. -1.
        -11    1    1    2    0    0  0.88586103297E-01  0.63569928328E+01  0.44966353883E+03  0.44970848042E+03  0.00000000000E+00 0.  1.
         11    1    1    2    0    0 -0.11324141134E+02  0.41282444500E+01 -0.49301147111E+03  0.49315878702E+03  0.00000000000E+00 0. -1.
        -15    1    1    2    0    0 -0.83593116977E+01 -0.61252981516E+01  0.14159372924E+01  0.10609428680E+02  0.17770000000E+01 0.  1.
         15    1    1    2    0    0  0.19594866729E+02 -0.43599391312E+01  0.41931994985E+02  0.46523303879E+02  0.17770000000E+01 0. -1.
</event>
<event>
 6    1  0.1599106E-003  0.5107275E+03  0.7546771E-02  0.9376121E-01
        -11   -1    0    0    0    0  0.00000000000E+00  0.00000000000E+00  0.50000000000E+03  0.50000000000E+03  0.00000000000E+00 0. -1.
         11   -1    0    0    0    0 -0.00000000000E+00 -0.00000000000E+00 -0.50000000000E+03  0.50000000000E+03  0.00000000000E+00 0.  1.
        -11    1    1    2    0    0  0.14931517854E+02  0.35743242851E+01  0.45527060773E+03  0.45552941978E+03  0.00000000000E+00 0. -1.
         11    1    1    2    0    0 -0.12035425202E+02  0.24571341227E+02 -0.48850687958E+03  0.48927249428E+03  0.00000000000E+00 0.  1.
        -15    1    1    2    0    0 -0.70315041245E+01  0.35157853732E+01  0.18107648780E+02  0.19820380177E+02  0.17770000000E+01 0.  1.
         15    1    1    2    0    0  0.41354114732E+01 -0.31661450885E+02  0.15128623066E+02  0.35377705764E+02  0.17770000000E+01 0. -1.
</event>
<event>
 6    1  0.1599106E-003  0.5006255E+03  0.7546771E-02  0.9398411E-01
        -11   -1    0    0    0    0  0.00000000000E+00  0.00000000000E+00  0.50000000000E+03  0.50000000000E+03  0.00000000000E+00 0. -1.
         11   -1    0    0    0    0 -0.00000000000E+00 -0.00000000000E+00 -0.50000000000E+03  0.50000000000E+03  0.00000000000E+00 0. -1.
        -11    1    1    2    0    0 -0.13844317352E+01  0.14973085977E+01  0.14882825900E+03  0.14884222943E+03  0.00000000000E+00 0. -1.
         11    1    1    2    0    0 -0.73353375584E+01  0.38040178541E+01 -0.49930614066E+03  0.49937450859E+03  0.00000000000E+00 0. -1.
        -15    1    1    2    0    0  0.11396598312E+02 -0.14053281081E-01  0.52979247646E+02  0.54220301187E+02  0.17770000000E+01 0.  1.
         15    1    1    2    0    0 -0.26768290188E+01 -0.52872731706E+01  0.29749863401E+03  0.29756296079E+03  0.17770000000E+01 0. -1.
</event>
<event>
 6    1  0.1599106E-003  0.5001972E+03  0.7546771E-02  0.9399369E-01
        -11   -1    0    0    0    0  0.00000000000E+00  0.00000000000E+00  0.50000000000E+03  0.50000000000E+03  0.00000000000E+00 0. -1.
         11   -1    0    0    0    0 -0.00000000000E+00 -0.00000000000E+00 -0.50000000000E+03  0.50000000000E+03  0.00000000000E+00 0.  1.
        -11    1    1    2    0    0 -0.19539205058E+01  0.74225531146E+01  0.49974388247E+03  0.49980282129E+03  0.00000000000E+00 0. -1.
         11    1    1    2    0    0 -0.38005183966E+01  0.58058068678E+00 -0.24033849251E+03  0.24036924095E+03  0.00000000000E+00 0.  1.
        -15    1    1    2    0    0  0.46723057286E+01 -0.75917282334E+01 -0.25081367050E+03  0.25097832539E+03  0.17770000000E+01 0. -1.
         15    1    1    2    0    0  0.10821331738E+01 -0.41140556797E+00 -0.85917194680E+01  0.88496123737E+01  0.17770000000E+01 0.  1.
</event>
<event>
 6    1  0.1599106E-003  0.5124632E+03  0.7546771E-02  0.9372346E-01
        -11   -1    0    0    0    0  0.00000000000E+00  0.00000000000E+00  0.50000000000E+03  0.50000000000E+03  0.00000000000E+00 0.  1.
         11   -1    0    0    0    0 -0.00000000000E+00 -0.00000000000E+00 -0.50000000000E+03  0.50000000000E+03  0.00000000000E+00 0. -1.
        -11    1    1    2    0    0  0.10812399205E+02  0.86498082832E+01  0.48734010470E+03  0.48753677278E+03  0.00000000000E+00 0.  1.
         11    1    1    2    0    0 -0.68313861434E+01 -0.92895031393E+01 -0.47405606598E+03  0.47419628468E+03  0.00000000000E+00 0. -1.
        -15    1    1    2    0    0  0.52817452806E+01  0.76871263281E+01 -0.21772226855E+02  0.23752396418E+02  0.17770000000E+01 0. -1.
         15    1    1    2    0    0 -0.92627583424E+01 -0.70474314720E+01  0.84881881353E+01  0.14514546127E+02  0.17770000000E+01 0. -1.
</event>
<event>
 6    1  0.1599106E-003  0.5024628E+03  0.7546771E-02  0.9394316E-01
        -11   -1    0    0    0    0  0.00000000000E+00  0.00000000000E+00  0.50000000000E+03  0.50000000000E+03  0.00000000000E+00 0. -1.
         11   -1    0    0    0    0 -0.00000000000E+00 -0.00000000000E+00 -0.50000000000E+03  0.50000000000E+03  0.00000000000E+00 0. -1.
        -11    1    1    2    0    0 -0.52548292305E+01  0.87030838207E+01  0.49743331361E+03  0.49753719297E+03  0.00000000000E+00 0. -1.
         11    1    1    2    0    0 -0.17610098944E+01 -0.12773471966E+02 -0.39503435674E+03  0.39524474158E+03  0.00000000000E+00 0. -1.
        -15    1    1    2    0    0  0.79381188992E+01  0.16901083874E+02 -0.57828190928E+02  0.60794060259E+02  0.17770000000E+01 0.  1.
         15    1    1    2    0    0 -0.92227977432E+00 -0.12830695729E+02 -0.44570765938E+02  0.46424005194E+02  0.17770000000E+01 0. -1.
</event>
<event>
 6    1  0.1599106E-003  0.5041112E+03  0.7546771E-02  0.9390657E-01
        -11   -1    0    0    0    0  0.00000000000E+00  0.00000000000E+00  0.50000000000E+03  0.50000000000E+03  0.00000000000E+00 0.  1.
         11   -1    0    0    0    0 -0.00000000000E+00 -0.00000000000E+00 -0.50000000000E+03  0.50000000000E+03  0.00000000000E+00 0.  1.
        -11    1    1    2    0    0 -0.11261475022E+02  0.53655459795E+01  0.43992549756E+03  0.44010232141E+03  0.00000000000E+00 0.  1.
         11    1    1    2    0    0 -0.66460212653E+01  0.21229882480E+01 -0.49583976717E+03  0.49588884983E+03  0.00000000000E+00 0.  1.
        -15    1    1    2    0    0  0.25685599047E+01  0.54353161291E+01  0.21989048732E+01  0.66432727664E+01  0.17770000000E+01 0.  1.
         15    1    1    2    0    0  0.15338936383E+02 -0.12923850357E+02  0.53715364735E+02  0.57365555998E+02  0.17770000000E+01 0. -1.
</event>
<event>
 6    1  0.1599106E-003  0.5300470E+03  0.7546771E-02  0.9334978E-01
        -11   -1    0    0    0    0  0.00000000000E+00  0.00000000000E+00  0.50000000000E+03  0.50000000000E+03  0.00000000000E+00 0.  1.
         11   -1    0    0    0    0 -0.00000000000E+00 -0.00000000000E+00 -0.50000000000E+03  0.50000000000E+03  0.00000000000E+00 0.  1.
        -11    1    1    2    0    0 -0.18606647959E+02 -0.19500544049E+02  0.36748916515E+03  0.36847627477E+03  0.00000000000E+00 0.  1.
         11    1    1    2    0    0  0.21045266697E+02 -0.36171967583E+02 -0.46808597091E+03  0.46995296642E+03  0.00000000000E+00 0.  1.
        -15    1    1    2    0    0  0.19544409935E+02  0.17744475595E+02  0.11293654257E+03  0.11599427034E+03  0.17770000000E+01 0.  1.
         15    1    1    2    0    0 -0.21983028673E+02  0.37928036037E+02 -0.12339736818E+02  0.45576488467E+02  0.17770000000E+01 0. -1.
</event>
<event>
 6    1  0.1599106E-003  0.5521001E+03  0.7546771E-02  0.9290230E-01
        -11   -1    0    0    0    0  0.00000000000E+00  0.00000000000E+00  0.50000000000E+03  0.50000000000E+03  0.00000000000E+00 0. -1.
         11   -1    0    0    0    0 -0.00000000000E+00 -0.00000000000E+00 -0.50000000000E+03  0.50000000000E+03  0.00000000000E+00 0. -1.
        -11    1    1    2    0    0 -0.23181765716E+01  0.68136287546E+01  0.44784202222E+03  0.44789985080E+03  0.00000000000E+00 0. -1.
         11    1    1    2    0    0 -0.52622672186E+02  0.30462207104E+02 -0.11194476597E+03  0.12739200257E+03  0.00000000000E+00 0. -1.
        -15    1    1    2    0    0  0.23658814783E+02 -0.23922140660E+01  0.39637492120E+02  0.46257439570E+02  0.17770000000E+01 0.  1.
         15    1    1    2    0    0  0.31282033975E+02 -0.34883621793E+02 -0.37553474836E+03  0.37845070706E+03  0.17770000000E+01 0. -1.
</event>
<event>
 6    1  0.1599106E-003  0.5233583E+03  0.7546771E-02  0.9349009E-01
        -11   -1    0    0    0    0  0.00000000000E+00  0.00000000000E+00  0.50000000000E+03  0.50000000000E+03  0.00000000000E+00 0.  1.
         11   -1    0    0    0    0 -0.00000000000E+00 -0.00000000000E+00 -0.50000000000E+03  0.50000000000E+03  0.00000000000E+00 0.  1.
        -11    1    1    2    0    0  0.67402749904E+01 -0.28794348232E+01  0.45687211972E+03  0.45693090969E+03  0.00000000000E+00 0.  1.
         11    1    1    2    0    0  0.10572646476E+02  0.27744223328E+01 -0.47651639455E+03  0.47664174445E+03  0.00000000000E+00 0.  1.
        -15    1    1    2    0    0 -0.12589898832E+02  0.58967529373E+01  0.41213285218E+02  0.43531251478E+02  0.17770000000E+01 0.  1.
         15    1    1    2    0    0 -0.47230226351E+01 -0.57917404469E+01 -0.21569010383E+02  0.22896094386E+02  0.17770000000E+01 0. -1.
</event>
<event>
 6    1  0.1599106E-003  0.5100066E+03  0.7546771E-02  0.9377693E-01
        -11   -1    0    0    0    0  0.00000000000E+00  0.00000000000E+00  0.50000000000E+03  0.50000000000E+03  0.00000000000E+00 0.  1.
         11   -1    0    0    0    0 -0.00000000000E+00 -0.00000000000E+00 -0.50000000000E+03  0.50000000000E+03  0.00000000000E+00 0. -1.
        -11    1    1    2    0    0 -0.87908763231E+01 -0.26556841181E+01  0.42613908470E+03  0.42623802233E+03  0.00000000000E+00 0.  1.
         11    1    1    2    0    0 -0.21754090333E+02 -0.87713467319E+01 -0.48943168097E+03  0.48999341557E+03  0.00000000000E+00 0. -1.
        -15    1    1    2    0    0  0.35197118486E+02 -0.28151745584E+01  0.57715385768E+02  0.67682980438E+02  0.17770000000E+01 0.  1.
         15    1    1    2    0    0 -0.46521518303E+01  0.14242205408E+02  0.55772104962E+01  0.16085581664E+02  0.17770000000E+01 0. -1.
</event>
<event>
 6    1  0.1599106E-003  0.5001120E+03  0.7546771E-02  0.9399559E-01
        -11   -1    0    0    0    0  0.00000000000E+00  0.00000000000E+00  0.50000000000E+03  0.50000000000E+03  0.00000000000E+00 0. -1.
         11   -1    0    0    0    0 -0.00000000000E+00 -0.00000000000E+00 -0.50000000000E+03  0.50000000000E+03  0.00000000000E+00 0. -1.
        -11    1    1    2    0    0  0.54816127996E+01 -0.52241468014E+01  0.49983061953E+03  0.49988797546E+03  0.00000000000E+00 0. -1.
         11    1    1    2    0    0 -0.78452753783E+00  0.64185644129E+01 -0.26037979077E+03  0.26046007159E+03  0.00000000000E+00 0. -1.
        -15    1    1    2    0    0  0.26484997679E+00 -0.21725216885E+01 -0.29909653557E+02  0.30042221970E+02  0.17770000000E+01 0.  1.
         15    1    1    2    0    0 -0.49619352386E+01  0.97810407711E+00 -0.20954117520E+03  0.20960973098E+03  0.17770000000E+01 0. -1.
</event>
<event>
 6    1  0.1599106E-003  0.5019802E+03  0.7546771E-02  0.9395390E-01
        -11   -1    0    0    0    0  0.00000000000E+00  0.00000000000E+00  0.50000000000E+03  0.50000000000E+03  0.00000000000E+00 0. -1.
         11   -1    0    0    0    0 -0.00000000000E+00 -0.00000000000E+00 -0.50000000000E+03  0.50000000000E+03  0.00000000000E+00 0. -1.
        -11    1    1    2    0    0  0.43478326897E+01 -0.31340201611E+01  0.39518332899E+03  0.39521967214E+03  0.00000000000E+00 0. -1.
         11    1    1    2    0    0 -0.16725903331E+01 -0.82356484740E+01 -0.49794885529E+03  0.49801976462E+03  0.00000000000E+00 0. -1.
        -15    1    1    2    0    0 -0.11023771451E+02  0.41223068328E+01  0.20252477398E+02  0.23491222199E+02  0.17770000000E+01 0. -1.
         15    1    1    2    0    0  0.83485290943E+01  0.72473618022E+01  0.82513048898E+02  0.83269341048E+02  0.17770000000E+01 0.  1.
</event>
<event>
 6    1  0.1599106E-003  0.5053759E+03  0.7546771E-02  0.9387860E-01
        -11   -1    0    0    0    0  0.00000000000E+00  0.00000000000E+00  0.50000000000E+03  0.50000000000E+03  0.00000000000E+00 0.  1.
         11   -1    0    0    0    0 -0.00000000000E+00 -0.00000000000E+00 -0.50000000000E+03  0.50000000000E+03  0.00000000000E+00 0. -1.
        -11    1    1    2    0    0 -0.33787649426E+01 -0.10877126440E+02  0.49449295753E+03  0.49462411281E+03  0.00000000000E+00 0.  1.
         11    1    1    2    0    0  0.65448943067E+00 -0.49957944552E+01 -0.20922098482E+03  0.20928164470E+03  0.00000000000E+00 0. -1.
        -15    1    1    2    0    0  0.10698679875E+01  0.90207702649E+01 -0.28813321384E+03  0.28828185090E+03  0.17770000000E+01 0. -1.
         15    1    1    2    0    0  0.16544075245E+01  0.68521506306E+01  0.28612411286E+01  0.78123915876E+01  0.17770000000E+01 0.  1.
</event>
<event>
 6    1  0.1599106E-003  0.5020295E+03  0.7546771E-02  0.9395280E-01
        -11   -1    0    0    0    0  0.00000000000E+00  0.00000000000E+00  0.50000000000E+03  0.50000000000E+03  0.00000000000E+00 0. -1.
         11   -1    0    0    0    0 -0.00000000000E+00 -0.00000000000E+00 -0.50000000000E+03  0.50000000000E+03  0.00000000000E+00 0. -1.
        -11    1    1    2    0    0  0.26304416088E+01  0.49414972109E+01  0.32644326669E+03  0.32649126173E+03  0.00000000000E+00 0. -1.
         11    1    1    2    0    0  0.58468608408E+01  0.19636181385E+02 -0.49754881502E+03  0.49797046974E+03  0.00000000000E+00 0. -1.
        -15    1    1    2    0    0  0.83668905242E+01 -0.84373221233E+01  0.99132544255E+02  0.99857960729E+02  0.17770000000E+01 0.  1.
         15    1    1    2    0    0 -0.16844192974E+02 -0.16140356473E+02  0.71973004075E+02  0.75680307799E+02  0.17770000000E+01 0. -1.
</event>
<event>
 6    1  0.1599106E-003  0.4689190E+03  0.7546771E-02  0.9472174E-01
        -11   -1    0    0    0    0  0.00000000000E+00  0.00000000000E+00  0.50000000000E+03  0.50000000000E+03  0.00000000000E+00 0.  1.
         11   -1    0    0    0    0 -0.00000000000E+00 -0.00000000000E+00 -0.50000000000E+03  0.50000000000E+03  0.00000000000E+00 0. -1.
        -11    1    1    2    0    0 -0.16764353161E+02 -0.14581275594E+02  0.46863254556E+03  0.46915894950E+03  0.00000000000E+00 0.  1.
         11    1    1    2    0    0  0.71467214351E+01 -0.51631524679E+01 -0.46885329911E+03  0.46893618954E+03  0.00000000000E+00 0. -1.
        -15    1    1    2    0    0 -0.50273359968E+01  0.25091433802E+02 -0.22615221593E+02  0.34197370281E+02  0.17770000000E+01 0. -1.
         15    1    1    2    0    0  0.14644967723E+02 -0.53470057399E+01  0.22835975144E+02  0.27707490680E+02  0.17770000000E+01 0.  1.
</event>
<event>
 6    1  0.1599106E-003  0.5016441E+03  0.7546771E-02  0.9396138E-01
        -11   -1    0    0    0    0  0.00000000000E+00  0.00000000000E+00  0.50000000000E+03  0.50000000000E+03  0.00000000000E+00 0. -1.
         11   -1    0    0    0    0 -0.00000000000E+00 -0.00000000000E+00 -0.50000000000E+03  0.50000000000E+03  0.00000000000E+00 0. -1.
        -11    1    1    2    0    0  0.31694692794E+01  0.98724116278E+01  0.49824799125E+03  0.49835586766E+03  0.00000000000E+00 0. -1.
         11    1    1    2    0    0  0.90513784663E+01  0.25311634457E+01 -0.40666034014E+03  0.40676893500E+03  0.00000000000E+00 0. -1.
        -15    1    1    2    0    0  0.82579761363E+00 -0.44651054955E+00 -0.44421903590E+02  0.44467342634E+02  0.17770000000E+01 0. -1.
         15    1    1    2    0    0 -0.13046645359E+02 -0.11957064524E+02 -0.47165747523E+02  0.50407854701E+02  0.17770000000E+01 0.  1.
</event>
<event>
 6    1  0.1599106E-003  0.5057940E+03  0.7546771E-02  0.9386938E-01
        -11   -1    0    0    0    0  0.00000000000E+00  0.00000000000E+00  0.50000000000E+03  0.50000000000E+03  0.00000000000E+00 0.  1.
         11   -1    0    0    0    0 -0.00000000000E+00 -0.00000000000E+00 -0.50000000000E+03  0.50000000000E+03  0.00000000000E+00 0. -1.
        -11    1    1    2    0    0  0.52199237240E+01  0.17045492030E+02  0.49388441387E+03  0.49420604071E+03  0.00000000000E+00 0.  1.
         11    1    1    2    0    0 -0.16383177326E+02  0.43186863373E+01 -0.35865700112E+03  0.35905696484E+03  0.00000000000E+00 0. -1.
        -15    1    1    2    0    0 -0.17937141834E+02 -0.43053159751E+01 -0.23003569542E+02  0.29539782388E+02  0.17770000000E+01 0.  1.
         15    1    1    2    0    0  0.29100395436E+02 -0.17058862392E+02 -0.11222384322E+03  0.11719721206E+03  0.17770000000E+01 0. -1.
</event>
<event>
 6    1  0.1599106E-003  0.5042179E+03  0.7546771E-02  0.9390421E-01
        -11   -1    0    0    0    0  0.00000000000E+00  0.00000000000E+00  0.50000000000E+03  0.50000000000E+03  0.00000000000E+00 0.  1.
         11   -1    0    0    0    0 -0.00000000000E+00 -0.00000000000E+00 -0.50000000000E+03  0.50000000000E+03  0.00000000000E+00 0. -1.
        -11    1    1    2    0    0  0.95230442309E+01 -0.11179896441E+01  0.47397575315E+03  0.47407272949E+03  0.00000000000E+00 0.  1.
         11    1    1    2    0    0  0.63421706604E+01  0.39420434397E+01 -0.49572587379E+03  0.49578211422E+03  0.00000000000E+00 0. -1.
        -15    1    1    2    0    0 -0.47146124554E+01  0.26612082861E+01  0.14659287502E+02  0.15727747429E+02  0.17770000000E+01 0. -1.
         15    1    1    2    0    0 -0.11150602436E+02 -0.54852620818E+01  0.70908331318E+01  0.14417408862E+02  0.17770000000E+01 0.  1.
</event>
<event>
 6    1  0.1599106E-003  0.5064816E+03  0.7546771E-02  0.9385422E-01
        -11   -1    0    0    0    0  0.00000000000E+00  0.00000000000E+00  0.50000000000E+03  0.50000000000E+03  0.00000000000E+00 0. -1.
         11   -1    0    0    0    0 -0.00000000000E+00 -0.00000000000E+00 -0.50000000000E+03  0.50000000000E+03  0.00000000000E+00 0.  1.
        -11    1    1    2    0    0  0.75335538710E+01 -0.66540685923E+01  0.49341608143E+03  0.49351844999E+03  0.00000000000E+00 0. -1.
         11    1    1    2    0    0 -0.47810991622E+01 -0.57917085758E+01 -0.42219588270E+03  0.42226267437E+03  0.00000000000E+00 0.  1.
        -15    1    1    2    0    0 -0.59544465540E+01  0.18809982938E+02 -0.73818314634E+02  0.76430178570E+02  0.17770000000E+01 0. -1.
         15    1    1    2    0    0  0.32019918453E+01 -0.63642057695E+01  0.25981159016E+01  0.77886970728E+01  0.17770000000E+01 0.  1.
</event>
<event>
 6    1  0.1599106E-003  0.5106291E+03  0.7546771E-02  0.9376336E-01
        -11   -1    0    0    0    0  0.00000000000E+00  0.00000000000E+00  0.50000000000E+03  0.50000000000E+03  0.00000000000E+00 0. -1.
         11   -1    0    0    0    0 -0.00000000000E+00 -0.00000000000E+00 -0.50000000000E+03  0.50000000000E+03  0.00000000000E+00 0.  1.
        -11    1    1    2    0    0 -0.16152347577E+00  0.10661686601E+02  0.45842398917E+03  0.45854798167E+03  0.00000000000E+00 0. -1.
         11    1    1    2    0    0  0.35087911666E+01  0.83597297334E+01 -0.48928695539E+03  0.48937094459E+03  0.00000000000E+00 0.  1.
        -15    1    1    2    0    0 -0.13484245908E+02  0.34199455835E+01  0.21514485042E+02  0.25681738865E+02  0.17770000000E+01 0. -1.
         15    1    1    2    0    0  0.10136978217E+02 -0.22441361918E+02  0.93484811809E+01  0.26399334869E+02  0.17770000000E+01 0.  1.
</event>
<event>
 6    1  0.1599106E-003  0.5038895E+03  0.7546771E-02  0.9391148E-01
        -11   -1    0    0    0    0  0.00000000000E+00  0.00000000000E+00  0.50000000000E+03  0.50000000000E+03  0.00000000000E+00 0. -1.
         11   -1    0    0    0    0 -0.00000000000E+00 -0.00000000000E+00 -0.50000000000E+03  0.50000000000E+03  0.00000000000E+00 0. -1.
        -11    1    1    2    0    0  0.46767845648E+01  0.52600989644E+01  0.49606053374E+03  0.49611046561E+03  0.00000000000E+00 0. -1.
         11    1    1    2    0    0 -0.79215881668E+01 -0.51603976751E+01 -0.48306804891E+03  0.48316055421E+03  0.00000000000E+00 0. -1.
        -15    1    1    2    0    0 -0.15206881959E+01 -0.70350080594E+01 -0.46747102468E+01  0.87643867941E+01  0.17770000000E+01 0.  1.
         15    1    1    2    0    0  0.47654917979E+01  0.69353067701E+01 -0.83177745764E+01  0.11964593389E+02  0.17770000000E+01 0. -1.
</event>
<event>
 6    1  0.1599106E-003  0.5192362E+03  0.7546771E-02  0.9357767E-01
        -11   -1    0    0    0    0  0.00000000000E+00  0.00000000000E+00  0.50000000000E+03  0.50000000000E+03  0.00000000000E+00 0. -1.
         11   -1    0    0    0    0 -0.00000000000E+00 -0.00000000000E+00 -0.50000000000E+03  0.50000000000E+03  0.00000000000E+00 0.  1.
        -11    1    1    2    0    0  0.54173286805E+01  0.75307216301E+01  0.48067424552E+03  0.48076375645E+03  0.00000000000E+00 0. -1.
         11    1    1    2    0    0  0.54839083127E+01  0.62560071823E+01 -0.91906440956E+02  0.92282201781E+02  0.00000000000E+00 0.  1.
        -15    1    1    2    0    0 -0.54106738474E+01 -0.30269164718E+01  0.18454357579E+02  0.19548878676E+02  0.17770000000E+01 0. -1.
         15    1    1    2    0    0 -0.54905631458E+01 -0.10759812341E+02 -0.40722216214E+03  0.40740516309E+03  0.17770000000E+01 0.  1.
</event>
<event>
 6    1  0.1599106E-003  0.5008727E+03  0.7546771E-02  0.9397859E-01
        -11   -1    0    0    0    0  0.00000000000E+00  0.00000000000E+00  0.50000000000E+03  0.50000000000E+03  0.00000000000E+00 0. -1.
         11   -1    0    0    0    0 -0.00000000000E+00 -0.00000000000E+00 -0.50000000000E+03  0.50000000000E+03  0.00000000000E+00 0.  1.
        -11    1    1    2    0    0  0.44628463844E+01 -0.30503737445E+01  0.23493282235E+03  0.23499500590E+03  0.00000000000E+00 0. -1.
         11    1    1    2    0    0 -0.55078656295E+00 -0.82816039553E+01 -0.49905833035E+03  0.49912734390E+03  0.00000000000E+00 0.  1.
        -15    1    1    2    0    0  0.24421994877E+00  0.14278318366E+02  0.25397327409E+03  0.25438064333E+03  0.17770000000E+01 0. -1.
         15    1    1    2    0    0 -0.41562797703E+01 -0.29463406660E+01  0.10152233906E+02  0.11497006877E+02  0.17770000000E+01 0.  1.
</event>
<event>
 6    1  0.1599106E-003  0.5004210E+03  0.7546771E-02  0.9398868E-01
        -11   -1    0    0    0    0  0.00000000000E+00  0.00000000000E+00  0.50000000000E+03  0.50000000000E+03  0.00000000000E+00 0.  1.
         11   -1    0    0    0    0 -0.00000000000E+00 -0.00000000000E+00 -0.50000000000E+03  0.50000000000E+03  0.00000000000E+00 0.  1.
        -11    1    1    2    0    0  0.30103713337E+00  0.12253091331E+01  0.31048698575E+02  0.31074325239E+02  0.00000000000E+00 0.  1.
         11    1    1    2    0    0 -0.63366000181E+01  0.36472896875E+01 -0.49952545251E+03  0.49957895565E+03  0.00000000000E+00 0.  1.
        -15    1    1    2    0    0  0.10554158595E+02 -0.11167655655E+02  0.41441184130E+03  0.41470042047E+03  0.17770000000E+01 0.  1.
         15    1    1    2    0    0 -0.45185957105E+01  0.62950568341E+01  0.54064912639E+02  0.54646298643E+02  0.17770000000E+01 0. -1.
</event>
<event>
 6    1  0.1599106E-003  0.5153144E+03  0.7546771E-02  0.9366180E-01
        -11   -1    0    0    0    0  0.00000000000E+00  0.00000000000E+00  0.50000000000E+03  0.50000000000E+03  0.00000000000E+00 0.  1.
         11   -1    0    0    0    0 -0.00000000000E+00 -0.00000000000E+00 -0.50000000000E+03  0.50000000000E+03  0.00000000000E+00 0. -1.
        -11    1    1    2    0    0 -0.10593111543E+02 -0.63356179631E+01  0.35037962791E+03  0.35059697335E+03  0.00000000000E+00 0.  1.
         11    1    1    2    0    0 -0.69515421053E+01  0.13174247403E+02 -0.48445661583E+03  0.48468556545E+03  0.00000000000E+00 0. -1.
        -15    1    1    2    0    0  0.17013464017E+02 -0.11625536980E+02 -0.82723675427E+01  0.22275566473E+02  0.17770000000E+01 0. -1.
         15    1    1    2    0    0  0.53118963202E+00  0.47869075398E+01  0.14234935546E+03  0.14244189474E+03  0.17770000000E+01 0.  1.
</event>
<event>
 6    1  0.1599106E-003  0.5106856E+03  0.7546771E-02  0.9376212E-01
        -11   -1    0    0    0    0  0.00000000000E+00  0.00000000000E+00  0.50000000000E+03  0.50000000000E+03  0.00000000000E+00 0.  1.
         11   -1    0    0    0    0 -0.00000000000E+00 -0.00000000000E+00 -0.50000000000E+03  0.50000000000E+03  0.00000000000E+00 0.  1.
        -11    1    1    2    0    0  0.94809971714E+01 -0.17764037644E+02  0.48889989445E+03  0.48931437455E+03  0.00000000000E+00 0.  1.
         11    1    1    2    0    0  0.46985978890E+01  0.15791009436E+02 -0.38970344655E+03  0.39005154666E+03  0.00000000000E+00 0.  1.
        -15    1    1    2    0    0 -0.35056728427E+02  0.55525305633E+01 -0.91275730496E+02  0.97950097041E+02  0.17770000000E+01 0.  1.
         15    1    1    2    0    0  0.20877133367E+02 -0.35795023554E+01 -0.79207174064E+01  0.22683981748E+02  0.17770000000E+01 0. -1.
</event>
<event>
 6    1  0.1599106E-003  0.5014127E+03  0.7546771E-02  0.9396654E-01
        -11   -1    0    0    0    0  0.00000000000E+00  0.00000000000E+00  0.50000000000E+03  0.50000000000E+03  0.00000000000E+00 0.  1.
         11   -1    0    0    0    0 -0.00000000000E+00 -0.00000000000E+00 -0.50000000000E+03  0.50000000000E+03  0.00000000000E+00 0. -1.
        -11    1    1    2    0    0 -0.56466508595E+01 -0.88067891451E+01  0.34644713952E+03  0.34660505577E+03  0.00000000000E+00 0.  1.
         11    1    1    2    0    0 -0.44069923594E+01  0.52155718269E+01 -0.49854058017E+03  0.49858733824E+03  0.00000000000E+00 0. -1.
        -15    1    1    2    0    0 -0.34515747633E+01  0.49551039192E+01  0.11653615590E+03  0.11670604005E+03  0.17770000000E+01 0.  1.
         15    1    1    2    0    0  0.13505217982E+02 -0.13638866010E+01  0.35557284751E+02  0.38101565942E+02  0.17770000000E+01 0. -1.
</event>
<event>
 6    1  0.1599106E-003  0.5006853E+03  0.7546771E-02  0.9398278E-01
        -11   -1    0    0    0    0  0.00000000000E+00  0.00000000000E+00  0.50000000000E+03  0.50000000000E+03  0.00000000000E+00 0.  1.
         11   -1    0    0    0    0 -0.00000000000E+00 -0.00000000000E+00 -0.50000000000E+03  0.50000000000E+03  0.00000000000E+00 0. -1.
        -11    1    1    2    0    0 -0.45528410325E+01  0.72406706278E+01  0.49924146049E+03  0.49931472194E+03  0.00000000000E+00 0.  1.
         11    1    1    2    0    0 -0.71168041813E+01 -0.38453986366E+01 -0.26644685837E+03  0.26656962379E+03  0.00000000000E+00 0. -1.
        -15    1    1    2    0    0  0.22348692185E+01 -0.95227466720E+01 -0.17042093897E+03  0.17071066608E+03  0.17770000000E+01 0.  1.
         15    1    1    2    0    0  0.94347759954E+01  0.61274746809E+01 -0.62373663149E+02  0.63404988192E+02  0.17770000000E+01 0. -1.
</event>
<event>
 6    1  0.1599106E-003  0.5118154E+03  0.7546771E-02  0.9373753E-01
        -11   -1    0    0    0    0  0.00000000000E+00  0.00000000000E+00  0.50000000000E+03  0.50000000000E+03  0.00000000000E+00 0. -1.
         11   -1    0    0    0    0 -0.00000000000E+00 -0.00000000000E+00 -0.50000000000E+03  0.50000000000E+03  0.00000000000E+00 0.  1.
        -11    1    1    2    0    0 -0.92928333191E+01  0.42657015211E+00  0.48809592122E+03  0.48818456246E+03  0.00000000000E+00 0. -1.
         11    1    1    2    0    0 -0.65844691402E+01  0.46589253948E+01 -0.47270496586E+03  0.47277377842E+03  0.00000000000E+00 0.  1.
        -15    1    1    2    0    0 -0.11239355431E+01  0.93388984316E+01 -0.13562449751E+02  0.16600482742E+02  0.17770000000E+01 0.  1.
         15    1    1    2    0    0  0.17001238002E+02 -0.14424393978E+02 -0.18285056139E+01  0.22441176374E+02  0.17770000000E+01 0. -1.
</event>
<event>
 6    1  0.1599106E-003  0.5163201E+03  0.7546771E-02  0.9364015E-01
        -11   -1    0    0    0    0  0.00000000000E+00  0.00000000000E+00  0.50000000000E+03  0.50000000000E+03  0.00000000000E+00 0. -1.
         11   -1    0    0    0    0 -0.00000000000E+00 -0.00000000000E+00 -0.50000000000E+03  0.50000000000E+03  0.00000000000E+00 0. -1.
        -11    1    1    2    0    0 -0.61326812855E+01  0.54579760294E+01  0.48361022745E+03  0.48367990590E+03  0.00000000000E+00 0. -1.
         11    1    1    2    0    0  0.66085807489E+01 -0.11725549279E+02 -0.47401259155E+03  0.47420364697E+03  0.00000000000E+00 0. -1.
        -15    1    1    2    0    0 -0.32515202461E-01  0.75897491106E+01  0.15270990310E+02  0.17145443210E+02  0.17770000000E+01 0.  1.
         15    1    1    2    0    0 -0.44338426093E+00 -0.13221758611E+01 -0.24868626203E+02  0.24971003921E+02  0.17770000000E+01 0. -1.
</event>
<event>
 6    1  0.1599106E-003  0.5079730E+03  0.7546771E-02  0.9382144E-01
        -11   -1    0    0    0    0  0.00000000000E+00  0.00000000000E+00  0.50000000000E+03  0.50000000000E+03  0.00000000000E+00 0.  1.
         11   -1    0    0    0    0 -0.00000000000E+00 -0.00000000000E+00 -0.50000000000E+03  0.50000000000E+03  0.00000000000E+00 0. -1.
        -11    1    1    2    0    0 -0.23181096737E+01  0.88422082757E+00  0.12322777170E+03  0.12325274519E+03  0.00000000000E+00 0.  1.
         11    1    1    2    0    0 -0.39626726655E+01 -0.21457646155E+02 -0.49154289675E+03  0.49202698370E+03  0.00000000000E+00 0. -1.
        -15    1    1    2    0    0 -0.26983685131E+02 -0.26066886803E+02  0.57607290119E+02  0.68770338480E+02  0.17770000000E+01 0. -1.
         15    1    1    2    0    0  0.33264467470E+02  0.46640312130E+02  0.31070783492E+03  0.31594993262E+03  0.17770000000E+01 0.  1.
</event>
<event>
 6    1  0.1599106E-003  0.5020224E+03  0.7546771E-02  0.9395296E-01
        -11   -1    0    0    0    0  0.00000000000E+00  0.00000000000E+00  0.50000000000E+03  0.50000000000E+03  0.00000000000E+00 0.  1.
         11   -1    0    0    0    0 -0.00000000000E+00 -0.00000000000E+00 -0.50000000000E+03  0.50000000000E+03  0.00000000000E+00 0. -1.
        -11    1    1    2    0    0 -0.51517108538E+01  0.65150428634E+01  0.49790836561E+03  0.49797763650E+03  0.00000000000E+00 0.  1.
         11    1    1    2    0    0  0.88391608713E+01 -0.58196830821E+01 -0.40034092163E+03  0.40048077733E+03  0.00000000000E+00 0. -1.
        -15    1    1    2    0    0 -0.62482268355E+00 -0.98022606027E+01 -0.12893152371E+02  0.16305392463E+02  0.17770000000E+01 0. -1.
         15    1    1    2    0    0 -0.30626273340E+01  0.91069008214E+01 -0.84674291610E+02  0.85236193706E+02  0.17770000000E+01 0.  1.
</event>
<event>
 6    1  0.1599106E-003  0.5009207E+03  0.7546771E-02  0.9397752E-01
        -11   -1    0    0    0    0  0.00000000000E+00  0.00000000000E+00  0.50000000000E+03  0.50000000000E+03  0.00000000000E+00 0.  1.
         11   -1    0    0    0    0 -0.00000000000E+00 -0.00000000000E+00 -0.50000000000E+03  0.50000000000E+03  0.00000000000E+00 0. -1.
        -11    1    1    2    0    0 -0.47070808248E+01 -0.10250631811E+02  0.49895180039E+03  0.49907928346E+03  0.00000000000E+00 0.  1.
         11    1    1    2    0    0  0.40018445333E+01  0.19139150947E+01 -0.24846517663E+03  0.24850477224E+03  0.00000000000E+00 0. -1.
        -15    1    1    2    0    0 -0.91444888486E+01  0.45602624750E+01 -0.21730849444E+03  0.21755587134E+03  0.17770000000E+01 0.  1.
         15    1    1    2    0    0  0.98497251401E+01  0.37764542418E+01 -0.33178129323E+02  0.34860072954E+02  0.17770000000E+01 0. -1.
</event>
<event>
 6    1  0.1599106E-003  0.5003761E+03  0.7546771E-02  0.9398969E-01
        -11   -1    0    0    0    0  0.00000000000E+00  0.00000000000E+00  0.50000000000E+03  0.50000000000E+03  0.00000000000E+00 0.  1.
         11   -1    0    0    0    0 -0.00000000000E+00 -0.00000000000E+00 -0.50000000000E+03  0.50000000000E+03  0.00000000000E+00 0.  1.
        -11    1    1    2    0    0 -0.97997554662E+01 -0.11735200170E+02  0.49938995063E+03  0.49962393149E+03  0.00000000000E+00 0.  1.
         11    1    1    2    0    0 -0.52445953102E+01 -0.26650658535E+01 -0.19776747158E+03  0.19785494983E+03  0.00000000000E+00 0.  1.
        -15    1    1    2    0    0  0.21548390294E+01  0.57061368131E+01 -0.48340933714E+02  0.48756609090E+02  0.17770000000E+01 0. -1.
         15    1    1    2    0    0  0.12889511747E+02  0.86941292101E+01 -0.25328154533E+03  0.25376450960E+03  0.17770000000E+01 0.  1.
</event>
<event>
 6    1  0.1599106E-003  0.3944311E+03  0.7546771E-02  0.9673000E-01
        -11   -1    0    0    0    0  0.00000000000E+00  0.00000000000E+00  0.50000000000E+03  0.50000000000E+03  0.00000000000E+00 0.  1.
         11   -1    0    0    0    0 -0.00000000000E+00 -0.00000000000E+00 -0.50000000000E+03  0.50000000000E+03  0.00000000000E+00 0. -1.
        -11    1    1    2    0    0  0.82981152644E+02  0.40154804675E+02  0.26493599665E+02  0.95917625366E+02  0.00000000000E+00 0.  1.
         11    1    1    2    0    0 -0.23280504305E+02 -0.18802866386E+02 -0.42707108426E+03  0.42811825548E+03  0.00000000000E+00 0. -1.
        -15    1    1    2    0    0  0.27448571750E+01  0.60847686287E+02  0.35985701916E+03  0.36497973524E+03  0.17770000000E+01 0.  1.
         15    1    1    2    0    0 -0.62445505514E+02 -0.82199624576E+02  0.40720465436E+02  0.11098438392E+03  0.17770000000E+01 0. -1.
</event>
<event>
 6    1  0.1599106E-003  0.5582920E+03  0.7546771E-02  0.9278063E-01
        -11   -1    0    0    0    0  0.00000000000E+00  0.00000000000E+00  0.50000000000E+03  0.50000000000E+03  0.00000000000E+00 0.  1.
         11   -1    0    0    0    0 -0.00000000000E+00 -0.00000000000E+00 -0.50000000000E+03  0.50000000000E+03  0.00000000000E+00 0. -1.
        -11    1    1    2    0    0  0.50058687814E+02  0.91502463106E+01  0.37968359969E+03  0.38307862784E+03  0.00000000000E+00 0.  1.
         11    1    1    2    0    0 -0.12753708004E+02 -0.10319507882E+02 -0.44140317874E+03  0.44170795274E+03  0.00000000000E+00 0. -1.
        -15    1    1    2    0    0 -0.13915610274E+02 -0.24923370290E+02  0.11105236275E+03  0.11467608119E+03  0.17770000000E+01 0.  1.
         15    1    1    2    0    0 -0.23389369536E+02  0.26092631861E+02 -0.49332783695E+02  0.60537338237E+02  0.17770000000E+01 0. -1.
</event>
<event>
 6    1  0.1599106E-003  0.5049761E+03  0.7546771E-02  0.9388744E-01
        -11   -1    0    0    0    0  0.00000000000E+00  0.00000000000E+00  0.50000000000E+03  0.50000000000E+03  0.00000000000E+00 0. -1.
         11   -1    0    0    0    0 -0.00000000000E+00 -0.00000000000E+00 -0.50000000000E+03  0.50000000000E+03  0.00000000000E+00 0.  1.
        -11    1    1    2    0    0  0.99063654114E+01  0.59919730746E+01  0.49488854049E+03  0.49502394621E+03  0.00000000000E+00 0. -1.
         11    1    1    2    0    0  0.73535496251E+01 -0.88325301431E+01 -0.46686285131E+03  0.46700429357E+03  0.00000000000E+00 0.  1.
        -15    1    1    2    0    0 -0.11486716579E+02 -0.61414997782E+01 -0.85248651801E+01  0.15668239615E+02  0.17770000000E+01 0. -1.
         15    1    1    2    0    0 -0.57731984579E+01  0.89820568467E+01 -0.19500823998E+02  0.22303520601E+02  0.17770000000E+01 0. -1.
</event>
<event>
 6    1  0.1599106E-003  0.5010656E+03  0.7546771E-02  0.9397428E-01
        -11   -1    0    0    0    0  0.00000000000E+00  0.00000000000E+00  0.50000000000E+03  0.50000000000E+03  0.00000000000E+00 0. -1.
         11   -1    0    0    0    0 -0.00000000000E+00 -0.00000000000E+00 -0.50000000000E+03  0.50000000000E+03  0.00000000000E+00 0. -1.
        -11    1    1    2    0    0  0.41140980648E+00 -0.39827836966E+00  0.26673772712E+02  0.26679918186E+02  0.00000000000E+00 0. -1.
         11    1    1    2    0    0  0.12028476133E+02 -0.84610487306E+01 -0.49871757737E+03  0.49893435997E+03  0.00000000000E+00 0. -1.
        -15    1    1    2    0    0 -0.62869619043E+01  0.18259854555E+01  0.45344319209E+03  0.45349393193E+03  0.17770000000E+01 0. -1.
         15    1    1    2    0    0 -0.61529240348E+01  0.70333416447E+01  0.18600612565E+02  0.20891789910E+02  0.17770000000E+01 0.  1.
</event>
<event>
 6    1  0.1599106E-003  0.5393576E+03  0.7546771E-02  0.9315810E-01
        -11   -1    0    0    0    0  0.00000000000E+00  0.00000000000E+00  0.50000000000E+03  0.50000000000E+03  0.00000000000E+00 0. -1.
         11   -1    0    0    0    0 -0.00000000000E+00 -0.00000000000E+00 -0.50000000000E+03  0.50000000000E+03  0.00000000000E+00 0.  1.
        -11    1    1    2    0    0 -0.89112874997E+01  0.28725583843E+01  0.46054720404E+03  0.46064236647E+03  0.00000000000E+00 0. -1.
         11    1    1    2    0    0 -0.19734645621E+02 -0.14191932657E+02 -0.38208465190E+03  0.38285708614E+03  0.00000000000E+00 0.  1.
        -15    1    1    2    0    0  0.93570081919E+01  0.25752660763E+01  0.37413032971E+02  0.38692096903E+02  0.17770000000E+01 0. -1.
         15    1    1    2    0    0  0.19288924929E+02  0.87441081963E+01 -0.11587558511E+03  0.11780845049E+03  0.17770000000E+01 0.  1.
</event>
<event>
 6    1  0.1599106E-003  0.5002097E+03  0.7546771E-02  0.9399341E-01
        -11   -1    0    0    0    0  0.00000000000E+00  0.00000000000E+00  0.50000000000E+03  0.50000000000E+03  0.00000000000E+00 0. -1.
         11   -1    0    0    0    0 -0.00000000000E+00 -0.00000000000E+00 -0.50000000000E+03  0.50000000000E+03  0.00000000000E+00 0. -1.
        -11    1    1    2    0    0  0.92105358152E+01  0.67366927371E+01  0.49965999121E+03  0.49979027984E+03  0.00000000000E+00 0. -1.
         11    1    1    2    0    0  0.26504990003E+01  0.11884309562E+01 -0.16998005611E+03  0.17000487343E+03  0.00000000000E+00 0. -1.
        -15    1    1    2    0    0 -0.24011797492E+01  0.17070526564E+01 -0.26938598742E+02  0.27157421161E+02  0.17770000000E+01 0. -1.
         15    1    1    2    0    0 -0.94598550663E+01 -0.96321763497E+01 -0.30274133636E+03  0.30304742558E+03  0.17770000000E+01 0. -1.
</event>
<event>
 6    1  0.1599106E-003  0.5277886E+03  0.7546771E-02  0.9339691E-01
        -11   -1    0    0    0    0  0.00000000000E+00  0.00000000000E+00  0.50000000000E+03  0.50000000000E+03  0.00000000000E+00 0. -1.
         11   -1    0    0    0    0 -0.00000000000E+00 -0.00000000000E+00 -0.50000000000E+03  0.50000000000E+03  0.00000000000E+00 0.  1.
        -11    1    1    2    0    0 -0.29567475603E+01  0.10883560027E+02  0.47207665263E+03  0.47221135119E+03  0.00000000000E+00 0. -1.
         11    1    1    2    0    0  0.83773501209E+01  0.31727328384E+01 -0.42398986566E+03  0.42408448735E+03  0.00000000000E+00 0.  1.
        -15    1    1    2    0    0 -0.10290519957E+02 -0.18833729736E+01 -0.73921136153E+02  0.74678872473E+02  0.17770000000E+01 0. -1.
         15    1    1    2    0    0  0.48699173968E+01 -0.12172919892E+02  0.25834349181E+02  0.29025288987E+02  0.17770000000E+01 0.  1.
</event>
<event>
 6    1  0.1599106E-003  0.5015818E+03  0.7546771E-02  0.9396277E-01
        -11   -1    0    0    0    0  0.00000000000E+00  0.00000000000E+00  0.50000000000E+03  0.50000000000E+03  0.00000000000E+00 0. -1.
         11   -1    0    0    0    0 -0.00000000000E+00 -0.00000000000E+00 -0.50000000000E+03  0.50000000000E+03  0.00000000000E+00 0.  1.
        -11    1    1    2    0    0  0.13885798723E+01  0.12446868862E+02  0.49826085362E+03  0.49841822895E+03  0.00000000000E+00 0. -1.
         11    1    1    2    0    0 -0.51294470375E+01 -0.55588601347E+01 -0.44812660247E+03  0.44819043273E+03  0.00000000000E+00 0.  1.
        -15    1    1    2    0    0  0.60804673867E+01 -0.98033452325E+00 -0.60443849255E+01  0.88105310593E+01  0.17770000000E+01 0.  1.
         15    1    1    2    0    0 -0.23396002216E+01 -0.59076742045E+01 -0.44089866226E+02  0.44580807266E+02  0.17770000000E+01 0. -1.
</event>
<event>
 6    1  0.1599106E-003  0.5241884E+03  0.7546771E-02  0.9347256E-01
        -11   -1    0    0    0    0  0.00000000000E+00  0.00000000000E+00  0.50000000000E+03  0.50000000000E+03  0.00000000000E+00 0.  1.
         11   -1    0    0    0    0 -0.00000000000E+00 -0.00000000000E+00 -0.50000000000E+03  0.50000000000E+03  0.00000000000E+00 0. -1.
        -11    1    1    2    0    0 -0.89524609643E+01  0.47114812969E+00  0.47572714004E+03  0.47581160169E+03  0.00000000000E+00 0.  1.
         11    1    1    2    0    0 -0.77110950012E+01  0.83344737914E+01 -0.38676255935E+03  0.38692919476E+03  0.00000000000E+00 0. -1.
        -15    1    1    2    0    0  0.43633761920E+01 -0.26023118232E+01 -0.11104384417E+03  0.11117420625E+03  0.17770000000E+01 0. -1.
         15    1    1    2    0    0  0.12300179773E+02 -0.62033100979E+01  0.22079263487E+02  0.26084997292E+02  0.17770000000E+01 0.  1.
</event>
<event>
 6    1  0.1599106E-003  0.5055475E+03  0.7546771E-02  0.9387482E-01
        -11   -1    0    0    0    0  0.00000000000E+00  0.00000000000E+00  0.50000000000E+03  0.50000000000E+03  0.00000000000E+00 0. -1.
         11   -1    0    0    0    0 -0.00000000000E+00 -0.00000000000E+00 -0.50000000000E+03  0.50000000000E+03  0.00000000000E+00 0. -1.
        -11    1    1    2    0    0 -0.73269304499E+01  0.12104730693E+01  0.45574286504E+03  0.45580336570E+03  0.00000000000E+00 0. -1.
         11    1    1    2    0    0  0.52668673778E+01  0.58538018738E+01 -0.49438978738E+03  0.49445249393E+03  0.00000000000E+00 0. -1.
        -15    1    1    2    0    0  0.66600034975E+01 -0.11764244513E+02  0.36841283831E+01  0.14123867264E+02  0.17770000000E+01 0. -1.
         15    1    1    2    0    0 -0.45999404254E+01  0.46999695702E+01  0.34962793958E+02  0.35620273107E+02  0.17770000000E+01 0.  1.
</event>
<event>
 6    1  0.1599106E-003  0.5009178E+03  0.7546771E-02  0.9397758E-01
        -11   -1    0    0    0    0  0.00000000000E+00  0.00000000000E+00  0.50000000000E+03  0.50000000000E+03  0.00000000000E+00 0.  1.
         11   -1    0    0    0    0 -0.00000000000E+00 -0.00000000000E+00 -0.50000000000E+03  0.50000000000E+03  0.00000000000E+00 0. -1.
        -11    1    1    2    0    0 -0.89801838580E+01  0.24090394710E+01  0.49899560610E+03  0.49908221976E+03  0.00000000000E+00 0.  1.
         11    1    1    2    0    0 -0.49722862556E+01 -0.12721519972E+01 -0.33106853138E+03  0.33110831229E+03  0.00000000000E+00 0. -1.
        -15    1    1    2    0    0  0.14437707626E+02  0.65481590633E+01 -0.13538275176E+03  0.13631937864E+03  0.17770000000E+01 0.  1.
         15    1    1    2    0    0 -0.48523751230E+00 -0.76850465371E+01 -0.32544322959E+02  0.33490089304E+02  0.17770000000E+01 0. -1.
</event>
<event>
 6    1  0.1599106E-003  0.5001189E+03  0.7546771E-02  0.9399544E-01
        -11   -1    0    0    0    0  0.00000000000E+00  0.00000000000E+00  0.50000000000E+03  0.50000000000E+03  0.00000000000E+00 0.  1.
         11   -1    0    0    0    0 -0.00000000000E+00 -0.00000000000E+00 -0.50000000000E+03  0.50000000000E+03  0.00000000000E+00 0. -1.
        -11    1    1    2    0    0  0.96650050350E+01  0.51353902866E+01  0.49976124853E+03  0.49988107594E+03  0.00000000000E+00 0.  1.
         11    1    1    2    0    0 -0.15382423088E+01 -0.23123936349E+01 -0.96084619174E+02  0.96124749132E+02  0.00000000000E+00 0. -1.
        -15    1    1    2    0    0  0.21378192538E+01  0.85555549049E+00 -0.19776728265E+03  0.19778867021E+03  0.17770000000E+01 0.  1.
         15    1    1    2    0    0 -0.10264581980E+02 -0.36785521422E+01 -0.20590934670E+03  0.20620550472E+03  0.17770000000E+01 0. -1.
</event>
<event>
 6    1  0.1599106E-003  0.5879625E+03  0.7546771E-02  0.9221996E-01
        -11   -1    0    0    0    0  0.00000000000E+00  0.00000000000E+00  0.50000000000E+03  0.50000000000E+03  0.00000000000E+00 0.  1.
         11   -1    0    0    0    0 -0.00000000000E+00 -0.00000000000E+00 -0.50000000000E+03  0.50000000000E+03  0.00000000000E+00 0. -1.
        -11    1    1    2    0    0 -0.34615536958E+02  0.12312580998E+02  0.35121474848E+03  0.35313118610E+03  0.00000000000E+00 0.  1.
         11    1    1    2    0    0  0.27534223476E+00 -0.16701247457E+02 -0.41169877654E+03  0.41203748626E+03  0.00000000000E+00 0. -1.
        -15    1    1    2    0    0  0.66195619996E+01  0.74924454211E+02  0.11781236027E+03  0.13978698938E+03  0.17770000000E+01 0. -1.
         15    1    1    2    0    0  0.27720632724E+02 -0.70535787751E+02 -0.57328332206E+02  0.95044338257E+02  0.17770000000E+01 0.  1.
</event>
<event>
 6    1  0.1599106E-003  0.5011574E+03  0.7546771E-02  0.9397224E-01
        -11   -1    0    0    0    0  0.00000000000E+00  0.00000000000E+00  0.50000000000E+03  0.50000000000E+03  0.00000000000E+00 0.  1.
         11   -1    0    0    0    0 -0.00000000000E+00 -0.00000000000E+00 -0.50000000000E+03  0.50000000000E+03  0.00000000000E+00 0.  1.
        -11    1    1    2    0    0 -0.63149293686E+01  0.77506812787E+01  0.49874244219E+03  0.49884263554E+03  0.00000000000E+00 0.  1.
         11    1    1    2    0    0 -0.76928494694E+01  0.27857241681E+01 -0.38518261184E+03  0.38526949614E+03  0.00000000000E+00 0.  1.
        -15    1    1    2    0    0  0.10031865638E+02 -0.13144090986E+02 -0.66203943553E+02  0.68260715840E+02  0.17770000000E+01 0.  1.
         15    1    1    2    0    0  0.39759132003E+01  0.26076855388E+01 -0.47355886801E+02  0.47627152480E+02  0.17770000000E+01 0. -1.
</event>
<event>
 6    1  0.1599106E-003  0.5126045E+03  0.7546771E-02  0.9372040E-01
        -11   -1    0    0    0    0  0.00000000000E+00  0.00000000000E+00  0.50000000000E+03  0.50000000000E+03  0.00000000000E+00 0. -1.
         11   -1    0    0    0    0 -0.00000000000E+00 -0.00000000000E+00 -0.50000000000E+03  0.50000000000E+03  0.00000000000E+00 0.  1.
        -11    1    1    2    0    0  0.61636257163E+01  0.83716658434E+01  0.29363144032E+03  0.29381541453E+03  0.00000000000E+00 0. -1.
         11    1    1    2    0    0  0.19025221867E+02 -0.20397589124E+01 -0.48701981461E+03  0.48739554728E+03  0.00000000000E+00 0.  1.
        -15    1    1    2    0    0  0.21493295019E+02  0.58121887537E+01  0.15637631280E+03  0.15796345211E+03  0.17770000000E+01 0. -1.
         15    1    1    2    0    0 -0.46682142603E+02 -0.12144095685E+02  0.37012061488E+02  0.60825586085E+02  0.17770000000E+01 0.  1.
</event>
<event>
 6    1  0.1599106E-003  0.5036487E+03  0.7546771E-02  0.9391682E-01
        -11   -1    0    0    0    0  0.00000000000E+00  0.00000000000E+00  0.50000000000E+03  0.50000000000E+03  0.00000000000E+00 0. -1.
         11   -1    0    0    0    0 -0.00000000000E+00 -0.00000000000E+00 -0.50000000000E+03  0.50000000000E+03  0.00000000000E+00 0. -1.
        -11    1    1    2    0    0  0.47593246969E+01  0.10677680601E+02  0.49621360610E+03  0.49635129386E+03  0.00000000000E+00 0. -1.
         11    1    1    2    0    0 -0.92008016241E+01  0.32914156230E+01 -0.41723915126E+03  0.41735356416E+03  0.00000000000E+00 0. -1.
        -15    1    1    2    0    0  0.87005189123E+01  0.27289177444E+01 -0.59539134622E+02  0.60259541169E+02  0.17770000000E+01 0. -1.
         15    1    1    2    0    0 -0.42590419850E+01 -0.16698013968E+02 -0.19435320215E+02  0.26035600818E+02  0.17770000000E+01 0.  1.
</event>
<event>
 6    1  0.1599106E-003  0.4772174E+03  0.7546771E-02  0.9452282E-01
        -11   -1    0    0    0    0  0.00000000000E+00  0.00000000000E+00  0.50000000000E+03  0.50000000000E+03  0.00000000000E+00 0. -1.
         11   -1    0    0    0    0 -0.00000000000E+00 -0.00000000000E+00 -0.50000000000E+03  0.50000000000E+03  0.00000000000E+00 0.  1.
        -11    1    1    2    0    0 -0.10957033866E+01  0.18509678882E+02  0.48195826580E+03  0.48231481291E+03  0.00000000000E+00 0. -1.
         11    1    1    2    0    0  0.67803004420E+01  0.13978716000E+02 -0.47248136935E+03  0.47273673579E+03  0.00000000000E+00 0.  1.
        -15    1    1    2    0    0  0.59536638982E+01 -0.11724633013E+02  0.78828174024E+01  0.15434042643E+02  0.17770000000E+01 0.  1.
         15    1    1    2    0    0 -0.11638260954E+02 -0.20763761868E+02 -0.17359713846E+02  0.29514408664E+02  0.17770000000E+01 0. -1.
</event>
<event>
 6    1  0.1599106E-003  0.5067370E+03  0.7546771E-02  0.9384860E-01
        -11   -1    0    0    0    0  0.00000000000E+00  0.00000000000E+00  0.50000000000E+03  0.50000000000E+03  0.00000000000E+00 0.  1.
         11   -1    0    0    0    0 -0.00000000000E+00 -0.00000000000E+00 -0.50000000000E+03  0.50000000000E+03  0.00000000000E+00 0.  1.
        -11    1    1    2    0    0 -0.17433614731E+02  0.54368039909E+01  0.44948516500E+03  0.44985598064E+03  0.00000000000E+00 0.  1.
         11    1    1    2    0    0  0.34092107888E+01  0.18999126711E+02 -0.49288520474E+03  0.49326302779E+03  0.00000000000E+00 0.  1.
        -15    1    1    2    0    0  0.31343662208E+01 -0.12091836992E+02  0.26453838748E+01  0.12891569272E+02  0.17770000000E+01 0.  1.
         15    1    1    2    0    0  0.10890037722E+02 -0.12344093710E+02  0.40754655861E+02  0.43989422302E+02  0.17770000000E+01 0. -1.
</event>
<event>
 6    1  0.1599106E-003  0.5040256E+03  0.7546771E-02  0.9390847E-01
        -11   -1    0    0    0    0  0.00000000000E+00  0.00000000000E+00  0.50000000000E+03  0.50000000000E+03  0.00000000000E+00 0.  1.
         11   -1    0    0    0    0 -0.00000000000E+00 -0.00000000000E+00 -0.50000000000E+03  0.50000000000E+03  0.00000000000E+00 0. -1.
        -11    1    1    2    0    0  0.37269003653E+01 -0.20071432904E+02  0.38441019191E+03  0.38495187732E+03  0.00000000000E+00 0.  1.
         11    1    1    2    0    0  0.16558139499E+02 -0.79401795364E+01 -0.49563431679E+03  0.49597438887E+03  0.00000000000E+00 0. -1.
        -15    1    1    2    0    0  0.44177000068E+01 -0.45143679453E+00  0.11952587231E+02  0.12874080124E+02  0.17770000000E+01 0.  1.
         15    1    1    2    0    0 -0.24702739871E+02  0.28463049235E+02  0.99271537646E+02  0.10619965369E+03  0.17770000000E+01 0. -1.
</event>
<event>
 6    1  0.1599106E-003  0.5059139E+03  0.7546771E-02  0.9386673E-01
        -11   -1    0    0    0    0  0.00000000000E+00  0.00000000000E+00  0.50000000000E+03  0.50000000000E+03  0.00000000000E+00 0.  1.
         11   -1    0    0    0    0 -0.00000000000E+00 -0.00000000000E+00 -0.50000000000E+03  0.50000000000E+03  0.00000000000E+00 0.  1.
        -11    1    1    2    0    0  0.96672541768E+01 -0.93769374672E+01  0.48012651785E+03  0.48031537129E+03  0.00000000000E+00 0.  1.
         11    1    1    2    0    0 -0.37418909848E+01  0.78245986615E+01 -0.49400996305E+03  0.49408609542E+03  0.00000000000E+00 0.  1.
        -15    1    1    2    0    0 -0.99117221266E+01  0.50831380996E+01  0.16019175281E+02  0.19592147257E+02  0.17770000000E+01 0. -1.
         15    1    1    2    0    0  0.39863589345E+01 -0.35307992939E+01 -0.21357300736E+01  0.60063860312E+01  0.17770000000E+01 0.  1.
</event>
<event>
 6    1  0.1599106E-003  0.5007449E+03  0.7546771E-02  0.9398144E-01
        -11   -1    0    0    0    0  0.00000000000E+00  0.00000000000E+00  0.50000000000E+03  0.50000000000E+03  0.00000000000E+00 0.  1.
         11   -1    0    0    0    0 -0.00000000000E+00 -0.00000000000E+00 -0.50000000000E+03  0.50000000000E+03  0.00000000000E+00 0. -1.
        -11    1    1    2    0    0 -0.48695406654E+01 -0.71362906213E+00  0.29967585177E+03  0.29971626220E+03  0.00000000000E+00 0.  1.
         11    1    1    2    0    0  0.70850784188E+01  0.19815764732E+01 -0.49920088068E+03  0.49925508936E+03  0.00000000000E+00 0. -1.
        -15    1    1    2    0    0 -0.44434596031E+01  0.13513647675E+01  0.19504386966E+03  0.19510725087E+03  0.17770000000E+01 0.  1.
         15    1    1    2    0    0  0.22279218497E+01 -0.26193121785E+01  0.44811592521E+01  0.59213975799E+01  0.17770000000E+01 0. -1.
</event>
<event>
 6    1  0.1599106E-003  0.5057837E+03  0.7546771E-02  0.9386960E-01
        -11   -1    0    0    0    0  0.00000000000E+00  0.00000000000E+00  0.50000000000E+03  0.50000000000E+03  0.00000000000E+00 0. -1.
         11   -1    0    0    0    0 -0.00000000000E+00 -0.00000000000E+00 -0.50000000000E+03  0.50000000000E+03  0.00000000000E+00 0. -1.
        -11    1    1    2    0    0 -0.39272711102E+01  0.10536452147E+02  0.49408834992E+03  0.49421628647E+03  0.00000000000E+00 0. -1.
         11    1    1    2    0    0  0.67484850186E+01  0.85938994209E+01 -0.47365597461E+03  0.47378199569E+03  0.00000000000E+00 0. -1.
        -15    1    1    2    0    0 -0.23055700957E+01 -0.14295658713E+02 -0.22171426632E+02  0.26540749789E+02  0.17770000000E+01 0. -1.
         15    1    1    2    0    0 -0.51564381269E+00 -0.48346928551E+01  0.17390513236E+01  0.54609680507E+01  0.17770000000E+01 0.  1.
</event>
<event>
 6    1  0.4035395E-003  0.5001896E+03  0.7546771E-02  0.9399386E-01
        -11   -1    0    0    0    0  0.00000000000E+00  0.00000000000E+00  0.50000000000E+03  0.50000000000E+03  0.00000000000E+00 0. -1.
         11   -1    0    0    0    0 -0.00000000000E+00 -0.00000000000E+00 -0.50000000000E+03  0.50000000000E+03  0.00000000000E+00 0. -1.
        -11    1    1    2    0    0 -0.45508283901E+01 -0.55317950580E+01  0.49975909777E+03  0.49981043066E+03  0.00000000000E+00 0. -1.
         11    1    1    2    0    0  0.25216658696E+01 -0.20373241509E+01 -0.17122437094E+03  0.17125505742E+03  0.00000000000E+00 0. -1.
        -15    1    1    2    0    0  0.13836277255E+01  0.20372145177E+01 -0.13169622387E+02  0.13515226653E+02  0.17770000000E+01 0.  1.
         15    1    1    2    0    0  0.64553479497E+00  0.55319046911E+01 -0.31536510445E+03  0.31541928527E+03  0.17770000000E+01 0. -1.
</event>
<event>
 6    1  0.1599106E-003  0.5005259E+03  0.7546771E-02  0.9398634E-01
        -11   -1    0    0    0    0  0.00000000000E+00  0.00000000000E+00  0.50000000000E+03  0.50000000000E+03  0.00000000000E+00 0.  1.
         11   -1    0    0    0    0 -0.00000000000E+00 -0.00000000000E+00 -0.50000000000E+03  0.50000000000E+03  0.00000000000E+00 0. -1.
        -11    1    1    2    0    0 -0.11751498006E+02 -0.78643209131E+01  0.49927385934E+03  0.49947405525E+03  0.00000000000E+00 0.  1.
         11    1    1    2    0    0  0.35899256212E+01 -0.10812610479E+01 -0.25781298912E+03  0.25784024909E+03  0.00000000000E+00 0. -1.
        -15    1    1    2    0    0 -0.19019353506E+01  0.17034829135E+01 -0.17655223127E+03  0.17657963446E+03  0.17770000000E+01 0. -1.
         15    1    1    2    0    0  0.10063507736E+02  0.72420990475E+01 -0.64908638952E+02  0.66106061190E+02  0.17770000000E+01 0.  1.
</event>
<event>
 6    1  0.1599106E-003  0.5001194E+03  0.7546771E-02  0.9399543E-01
        -11   -1    0    0    0    0  0.00000000000E+00  0.00000000000E+00  0.50000000000E+03  0.50000000000E+03  0.00000000000E+00 0. -1.
         11   -1    0    0    0    0 -0.00000000000E+00 -0.00000000000E+00 -0.50000000000E+03  0.50000000000E+03  0.00000000000E+00 0.  1.
        -11    1    1    2    0    0  0.51710136570E+01  0.16985805996E+01  0.33573840780E+03  0.33578252342E+03  0.00000000000E+00 0. -1.
         11    1    1    2    0    0 -0.76557814893E+01  0.13601838582E+01 -0.49982015728E+03  0.49988063647E+03  0.00000000000E+00 0.  1.
        -15    1    1    2    0    0  0.12695920820E+01 -0.19211655855E+01  0.15114293751E+03  0.15117092323E+03  0.17770000000E+01 0. -1.
         15    1    1    2    0    0  0.12151757502E+01 -0.11375988722E+01  0.12938811965E+02  0.13165916883E+02  0.17770000000E+01 0.  1.
</event>
<event>
 6    1  0.1599106E-003  0.5042538E+03  0.7546771E-02  0.9390342E-01
        -11   -1    0    0    0    0  0.00000000000E+00  0.00000000000E+00  0.50000000000E+03  0.50000000000E+03  0.00000000000E+00 0.  1.
         11   -1    0    0    0    0 -0.00000000000E+00 -0.00000000000E+00 -0.50000000000E+03  0.50000000000E+03  0.00000000000E+00 0.  1.
        -11    1    1    2    0    0 -0.22637514254E+01  0.15184070768E+02  0.49550848813E+03  0.49574624797E+03  0.00000000000E+00 0.  1.
         11    1    1    2    0    0  0.84457418442E+01  0.43491050966E+01 -0.46339177611E+03  0.46348914058E+03  0.00000000000E+00 0.  1.
        -15    1    1    2    0    0 -0.63813551642E+00 -0.13124155707E+02 -0.88563194617E+01  0.15944993050E+02  0.17770000000E+01 0. -1.
         15    1    1    2    0    0 -0.55438549023E+01 -0.64090201575E+01 -0.23260392557E+02  0.24819618399E+02  0.17770000000E+01 0.  1.
</event>
<event>
 6    1  0.1599106E-003  0.5190316E+03  0.7546771E-02  0.9358204E-01
        -11   -1    0    0    0    0  0.00000000000E+00  0.00000000000E+00  0.50000000000E+03  0.50000000000E+03  0.00000000000E+00 0.  1.
         11   -1    0    0    0    0 -0.00000000000E+00 -0.00000000000E+00 -0.50000000000E+03  0.50000000000E+03  0.00000000000E+00 0. -1.
        -11    1    1    2    0    0  0.13497166032E+02 -0.46181772136E+01  0.40429718704E+03  0.40454878136E+03  0.00000000000E+00 0.  1.
         11    1    1    2    0    0  0.88650092211E+01 -0.94353178727E+01 -0.48079411057E+03  0.48096838812E+03  0.00000000000E+00 0. -1.
        -15    1    1    2    0    0 -0.34574808502E+02  0.64947342530E+01  0.88772595689E+02  0.95505656536E+02  0.17770000000E+01 0.  1.
         15    1    1    2    0    0  0.12212633249E+02  0.75587608332E+01 -0.12275672161E+02  0.18977173978E+02  0.17770000000E+01 0. -1.
</event>
<event>
 6    1  0.1599106E-003  0.5145449E+03  0.7546771E-02  0.9367840E-01
        -11   -1    0    0    0    0  0.00000000000E+00  0.00000000000E+00  0.50000000000E+03  0.50000000000E+03  0.00000000000E+00 0. -1.
         11   -1    0    0    0    0 -0.00000000000E+00 -0.00000000000E+00 -0.50000000000E+03  0.50000000000E+03  0.00000000000E+00 0.  1.
        -11    1    1    2    0    0  0.93922228964E+01 -0.11864226624E+02  0.48521916524E+03  0.48545505666E+03  0.00000000000E+00 0. -1.
         11    1    1    2    0    0 -0.29346668577E+01  0.11709728008E+02 -0.47674942485E+03  0.47690223746E+03  0.00000000000E+00 0.  1.
        -15    1    1    2    0    0 -0.19506101782E+02  0.45919525714E+01 -0.11839828847E+02  0.23343378317E+02  0.17770000000E+01 0.  1.
         15    1    1    2    0    0  0.13048545743E+02 -0.44374539558E+01  0.33700884517E+01  0.14299327564E+02  0.17770000000E+01 0. -1.
</event>
<event>
 6    1  0.1599106E-003  0.5005740E+03  0.7546771E-02  0.9398526E-01
        -11   -1    0    0    0    0  0.00000000000E+00  0.00000000000E+00  0.50000000000E+03  0.50000000000E+03  0.00000000000E+00 0. -1.
         11   -1    0    0    0    0 -0.00000000000E+00 -0.00000000000E+00 -0.50000000000E+03  0.50000000000E+03  0.00000000000E+00 0. -1.
        -11    1    1    2    0    0  0.58049607045E+00  0.18593410848E+00  0.37815284961E+02  0.37820197301E+02  0.00000000000E+00 0. -1.
         11    1    1    2    0    0  0.11159931118E+02 -0.27950010706E+02 -0.49851839204E+03  0.49942600489E+03  0.00000000000E+00 0. -1.
        -15    1    1    2    0    0 -0.56585176898E+01  0.31530139034E+02  0.26859622497E+03  0.27050556055E+03  0.17770000000E+01 0.  1.
         15    1    1    2    0    0 -0.60819094983E+01 -0.37660624368E+01  0.19210688210E+03  0.19224823726E+03  0.17770000000E+01 0. -1.
</event>
<event>
 6    1  0.1599106E-003  0.5253732E+03  0.7546771E-02  0.9344759E-01
        -11   -1    0    0    0    0  0.00000000000E+00  0.00000000000E+00  0.50000000000E+03  0.50000000000E+03  0.00000000000E+00 0.  1.
         11   -1    0    0    0    0 -0.00000000000E+00 -0.00000000000E+00 -0.50000000000E+03  0.50000000000E+03  0.00000000000E+00 0.  1.
        -11    1    1    2    0    0  0.57447305205E+01 -0.10057354532E+01  0.43125757293E+03  0.43129700630E+03  0.00000000000E+00 0.  1.
         11    1    1    2    0    0  0.48703294917E+01 -0.20061444551E+02 -0.47417760631E+03  0.47462678390E+03  0.00000000000E+00 0.  1.
        -15    1    1    2    0    0 -0.34293701312E+01  0.20064717981E+02 -0.21245814448E+02  0.29477039331E+02  0.17770000000E+01 0.  1.
         15    1    1    2    0    0 -0.71856898810E+01  0.10024620227E+01  0.64165847825E+02  0.64599170468E+02  0.17770000000E+01 0.  1.
</event>
<event>
 6    1  0.1599106E-003  0.5015491E+03  0.7546771E-02  0.9396350E-01
        -11   -1    0    0    0    0  0.00000000000E+00  0.00000000000E+00  0.50000000000E+03  0.50000000000E+03  0.00000000000E+00 0. -1.
         11   -1    0    0    0    0 -0.00000000000E+00 -0.00000000000E+00 -0.50000000000E+03  0.50000000000E+03  0.00000000000E+00 0.  1.
        -11    1    1    2    0    0 -0.18689343187E+01  0.49194975454E+01  0.25159158669E+03  0.25164661902E+03  0.00000000000E+00 0. -1.
         11    1    1    2    0    0  0.21869246154E+02 -0.20967175930E+01 -0.49796649619E+03  0.49845089175E+03  0.00000000000E+00 0.  1.
        -15    1    1    2    0    0 -0.57440376744E+01 -0.13852285905E+02  0.19194660313E+03  0.19253969974E+03  0.17770000000E+01 0.  1.
         15    1    1    2    0    0 -0.14256274161E+02  0.11029505952E+02  0.54428306374E+02  0.57362789491E+02  0.17770000000E+01 0. -1.
</event>
<event>
 6    1  0.1599106E-003  0.5110949E+03  0.7546771E-02  0.9375321E-01
        -11   -1    0    0    0    0  0.00000000000E+00  0.00000000000E+00  0.50000000000E+03  0.50000000000E+03  0.00000000000E+00 0.  1.
         11   -1    0    0    0    0 -0.00000000000E+00 -0.00000000000E+00 -0.50000000000E+03  0.50000000000E+03  0.00000000000E+00 0.  1.
        -11    1    1    2    0    0  0.23300485501E+01  0.22900717763E+01  0.19789788497E+03  0.19792485046E+03  0.00000000000E+00 0.  1.
         11    1    1    2    0    0  0.73792160087E+01 -0.43900030060E+01 -0.48882972380E+03  0.48890512763E+03  0.00000000000E+00 0.  1.
        -15    1    1    2    0    0 -0.58637081036E+01  0.30086035687E+00 -0.10254072878E+02  0.11948946785E+02  0.17770000000E+01 0. -1.
         15    1    1    2    0    0 -0.38455564552E+01  0.17990708728E+01  0.30118591171E+03  0.30122107513E+03  0.17770000000E+01 0.  1.
</event>
<event>
 6    1  0.1599106E-003  0.5440221E+03  0.7546771E-02  0.9306360E-01
        -11   -1    0    0    0    0  0.00000000000E+00  0.00000000000E+00  0.50000000000E+03  0.50000000000E+03  0.00000000000E+00 0. -1.
         11   -1    0    0    0    0 -0.00000000000E+00 -0.00000000000E+00 -0.50000000000E+03  0.50000000000E+03  0.00000000000E+00 0. -1.
        -11    1    1    2    0    0 -0.50721739045E+01 -0.70830764045E+01  0.41712699965E+03  0.41721796553E+03  0.00000000000E+00 0. -1.
         11    1    1    2    0    0  0.31236847180E+02  0.16488255340E+01 -0.45490371755E+03  0.45597790679E+03  0.00000000000E+00 0. -1.
        -15    1    1    2    0    0  0.11924435500E+01  0.77770742691E+01  0.77810103592E+02  0.78227071758E+02  0.17770000000E+01 0. -1.
         15    1    1    2    0    0 -0.27357116826E+02 -0.23428233986E+01 -0.40033385699E+02  0.48577055922E+02  0.17770000000E+01 0.  1.
</event>
<event>
 6    1  0.1599106E-003  0.5229752E+03  0.7546771E-02  0.9349819E-01
        -11   -1    0    0    0    0  0.00000000000E+00  0.00000000000E+00  0.50000000000E+03  0.50000000000E+03  0.00000000000E+00 0.  1.
         11   -1    0    0    0    0 -0.00000000000E+00 -0.00000000000E+00 -0.50000000000E+03  0.50000000000E+03  0.00000000000E+00 0. -1.
        -11    1    1    2    0    0  0.65791143904E+01  0.35237728075E+02  0.45069073472E+03  0.45211405706E+03  0.00000000000E+00 0.  1.
         11    1    1    2    0    0  0.47644174762E+01 -0.50440971596E+02 -0.47432654367E+03  0.47702480157E+03  0.00000000000E+00 0. -1.
        -15    1    1    2    0    0 -0.25548481695E+02  0.12261698571E+02  0.39915046485E+02  0.48984107970E+02  0.17770000000E+01 0. -1.
         15    1    1    2    0    0  0.14204949829E+02  0.29415449501E+01 -0.16279237540E+02  0.21877033396E+02  0.17770000000E+01 0.  1.
</event>
<event>
 6    1  0.1599106E-003  0.5055498E+03  0.7546771E-02  0.9387476E-01
        -11   -1    0    0    0    0  0.00000000000E+00  0.00000000000E+00  0.50000000000E+03  0.50000000000E+03  0.00000000000E+00 0.  1.
         11   -1    0    0    0    0 -0.00000000000E+00 -0.00000000000E+00 -0.50000000000E+03  0.50000000000E+03  0.00000000000E+00 0. -1.
        -11    1    1    2    0    0  0.31916610598E+01 -0.68751676727E+01  0.34118575523E+03  0.34126994330E+03  0.00000000000E+00 0.  1.
         11    1    1    2    0    0  0.23420959359E+02 -0.29759654956E+02 -0.49299776649E+03  0.49445017561E+03  0.00000000000E+00 0. -1.
        -15    1    1    2    0    0 -0.24193958276E+02  0.29561295860E+02  0.54015356774E+02  0.66181827766E+02  0.17770000000E+01 0.  1.
         15    1    1    2    0    0 -0.24186621420E+01  0.70735267685E+01  0.97796654489E+02  0.98098053323E+02  0.17770000000E+01 0. -1.
</event>
<event>
 6    1  0.1599106E-003  0.5025835E+03  0.7546771E-02  0.9394047E-01
        -11   -1    0    0    0    0  0.00000000000E+00  0.00000000000E+00  0.50000000000E+03  0.50000000000E+03  0.00000000000E+00 0. -1.
         11   -1    0    0    0    0 -0.00000000000E+00 -0.00000000000E+00 -0.50000000000E+03  0.50000000000E+03  0.00000000000E+00 0. -1.
        -11    1    1    2    0    0 -0.11344283739E+01 -0.45151699436E+01  0.24584400930E+03  0.24588808551E+03  0.00000000000E+00 0. -1.
         11    1    1    2    0    0 -0.18391708073E+01 -0.18572340301E+02 -0.49706626649E+03  0.49741651325E+03  0.00000000000E+00 0. -1.
        -15    1    1    2    0    0 -0.76372311384E+00  0.42406111402E+01  0.21960959787E+03  0.21965905231E+03  0.17770000000E+01 0. -1.
         15    1    1    2    0    0  0.37373222950E+01  0.18846899104E+02  0.31612659316E+02  0.37036348927E+02  0.17770000000E+01 0.  1.
</event>
<event>
 6    1  0.1599106E-003  0.5023704E+03  0.7546771E-02  0.9394521E-01
        -11   -1    0    0    0    0  0.00000000000E+00  0.00000000000E+00  0.50000000000E+03  0.50000000000E+03  0.00000000000E+00 0.  1.
         11   -1    0    0    0    0 -0.00000000000E+00 -0.00000000000E+00 -0.50000000000E+03  0.50000000000E+03  0.00000000000E+00 0.  1.
        -11    1    1    2    0    0 -0.20904859627E+01 -0.68072033548E+01  0.49757867794E+03  0.49762963023E+03  0.00000000000E+00 0.  1.
         11    1    1    2    0    0 -0.87758656973E+01  0.17467258289E+02 -0.44131121758E+03  0.44174394359E+03  0.00000000000E+00 0.  1.
        -15    1    1    2    0    0  0.70688931343E+01 -0.19218650326E+01 -0.65902225647E+01  0.10012570989E+02  0.17770000000E+01 0.  1.
         15    1    1    2    0    0  0.37974585257E+01 -0.87381899018E+01 -0.49677237788E+02  0.50613855190E+02  0.17770000000E+01 0. -1.
</event>
<event>
 6    1  0.1868747E-003  0.5408229E+03  0.7546771E-02  0.9312830E-01
        -11   -1    0    0    0    0  0.00000000000E+00  0.00000000000E+00  0.50000000000E+03  0.50000000000E+03  0.00000000000E+00 0.  1.
         11   -1    0    0    0    0 -0.00000000000E+00 -0.00000000000E+00 -0.50000000000E+03  0.50000000000E+03  0.00000000000E+00 0.  1.
        -11    1    1    2    0    0 -0.21945037379E+02 -0.18753745177E+02  0.22123526117E+03  0.22311057440E+03  0.00000000000E+00 0.  1.
         11    1    1    2    0    0 -0.51598155879E+01  0.43148208428E+02 -0.45711616556E+03  0.45917706868E+03  0.00000000000E+00 0.  1.
        -15    1    1    2    0    0  0.59115120788E+01 -0.30811985199E+02 -0.34358353258E+02  0.46561556831E+02  0.17770000000E+01 0. -1.
         15    1    1    2    0    0  0.21193340888E+02  0.64175219481E+01  0.27023925765E+03  0.27115080009E+03  0.17770000000E+01 0.  1.
</event>
<event>
 6    1  0.1599106E-003  0.5003691E+03  0.7546771E-02  0.9398984E-01
        -11   -1    0    0    0    0  0.00000000000E+00  0.00000000000E+00  0.50000000000E+03  0.50000000000E+03  0.00000000000E+00 0.  1.
         11   -1    0    0    0    0 -0.00000000000E+00 -0.00000000000E+00 -0.50000000000E+03  0.50000000000E+03  0.00000000000E+00 0. -1.
        -11    1    1    2    0    0 -0.12151977805E+02 -0.45741124268E+01  0.49946218120E+03  0.49963092731E+03  0.00000000000E+00 0.  1.
         11    1    1    2    0    0 -0.24020436765E+01 -0.23472498505E+01 -0.17505769174E+03  0.17508990500E+03  0.00000000000E+00 0. -1.
        -15    1    1    2    0    0  0.10950174077E+02  0.81481300729E+01 -0.11331995980E+03  0.11415283331E+03  0.17770000000E+01 0. -1.
         15    1    1    2    0    0  0.36038474042E+01 -0.12267677955E+01 -0.21108452967E+03  0.21112633438E+03  0.17770000000E+01 0.  1.
</event>
<event>
 6    1  0.1599106E-003  0.5019127E+03  0.7546771E-02  0.9395540E-01
        -11   -1    0    0    0    0  0.00000000000E+00  0.00000000000E+00  0.50000000000E+03  0.50000000000E+03  0.00000000000E+00 0.  1.
         11   -1    0    0    0    0 -0.00000000000E+00 -0.00000000000E+00 -0.50000000000E+03  0.50000000000E+03  0.00000000000E+00 0. -1.
        -11    1    1    2    0    0  0.99016844348E+01 -0.96908292516E+01  0.49789453189E+03  0.49808726184E+03  0.00000000000E+00 0.  1.
         11    1    1    2    0    0 -0.31957605605E+01  0.23246786154E+01 -0.26967001445E+03  0.26969896869E+03  0.00000000000E+00 0. -1.
        -15    1    1    2    0    0  0.15757212488E+02 -0.55546759703E-02 -0.50940650789E+02  0.53351639225E+02  0.17770000000E+01 0.  1.
         15    1    1    2    0    0 -0.22463136362E+02  0.73717053122E+01 -0.17728386664E+03  0.17886213025E+03  0.17770000000E+01 0. -1.
</event>
<event>
 6    1  0.1599106E-003  0.5009762E+03  0.7546771E-02  0.9397628E-01
        -11   -1    0    0    0    0  0.00000000000E+00  0.00000000000E+00  0.50000000000E+03  0.50000000000E+03  0.00000000000E+00 0. -1.
         11   -1    0    0    0    0 -0.00000000000E+00 -0.00000000000E+00 -0.50000000000E+03  0.50000000000E+03  0.00000000000E+00 0.  1.
        -11    1    1    2    0    0  0.21087086032E+01  0.85429940332E+00  0.11016066394E+03  0.11018415657E+03  0.00000000000E+00 0. -1.
         11    1    1    2    0    0 -0.88827041939E+01  0.13243988316E+02 -0.49876897475E+03  0.49902384295E+03  0.00000000000E+00 0.  1.
        -15    1    1    2    0    0  0.83918761738E+01 -0.17425642459E+02  0.86414279395E+02  0.88570096608E+02  0.17770000000E+01 0. -1.
         15    1    1    2    0    0 -0.16178805831E+01  0.33273547400E+01  0.30219403142E+03  0.30222190388E+03  0.17770000000E+01 0.  1.
</event>
<event>
 6    1  0.1599106E-003  0.5002476E+03  0.7546771E-02  0.9399256E-01
        -11   -1    0    0    0    0  0.00000000000E+00  0.00000000000E+00  0.50000000000E+03  0.50000000000E+03  0.00000000000E+00 0.  1.
         11   -1    0    0    0    0 -0.00000000000E+00 -0.00000000000E+00 -0.50000000000E+03  0.50000000000E+03  0.00000000000E+00 0.  1.
        -11    1    1    2    0    0 -0.55349370840E+01  0.40179632986E+01  0.49970559585E+03  0.49975240078E+03  0.00000000000E+00 0.  1.
         11    1    1    2    0    0 -0.42223530632E+01  0.13696235239E+01 -0.31957870360E+03  0.31960953041E+03  0.00000000000E+00 0.  1.
        -15    1    1    2    0    0  0.18143235796E+01  0.14641081728E+01 -0.36233676327E+02  0.36352062004E+02  0.17770000000E+01 0. -1.
         15    1    1    2    0    0  0.79429665676E+01 -0.68516949953E+01 -0.14389321592E+03  0.14428600681E+03  0.17770000000E+01 0.  1.
</event>
<event>
 6    1  0.1599106E-003  0.5046785E+03  0.7546771E-02  0.9389402E-01
        -11   -1    0    0    0    0  0.00000000000E+00  0.00000000000E+00  0.50000000000E+03  0.50000000000E+03  0.00000000000E+00 0. -1.
         11   -1    0    0    0    0 -0.00000000000E+00 -0.00000000000E+00 -0.50000000000E+03  0.50000000000E+03  0.00000000000E+00 0. -1.
        -11    1    1    2    0    0 -0.31220496723E+01  0.81259789157E+01  0.49524495746E+03  0.49532145787E+03  0.00000000000E+00 0. -1.
         11    1    1    2    0    0 -0.80680033407E+00 -0.85466332755E+01 -0.49113836818E+03  0.49121338801E+03  0.00000000000E+00 0. -1.
        -15    1    1    2    0    0  0.52089386616E+01 -0.41214851494E+01  0.13304375016E+00  0.68771441353E+01  0.17770000000E+01 0. -1.
         15    1    1    2    0    0 -0.12800886553E+01  0.45421395092E+01 -0.42396330362E+01  0.65880099854E+01  0.17770000000E+01 0.  1.
</event>
<event>
 6    1  0.1599106E-003  0.4599043E+03  0.7546771E-02  0.9494286E-01
        -11   -1    0    0    0    0  0.00000000000E+00  0.00000000000E+00  0.50000000000E+03  0.50000000000E+03  0.00000000000E+00 0.  1.
         11   -1    0    0    0    0 -0.00000000000E+00 -0.00000000000E+00 -0.50000000000E+03  0.50000000000E+03  0.00000000000E+00 0.  1.
        -11    1    1    2    0    0  0.43436188952E+01 -0.75675679240E+01  0.45736224289E+03  0.45744546815E+03  0.00000000000E+00 0.  1.
         11    1    1    2    0    0 -0.17276013984E+02 -0.30743551952E+01 -0.46219523925E+03  0.46252821698E+03  0.00000000000E+00 0.  1.
        -15    1    1    2    0    0  0.26287483693E+01  0.39235796026E+02  0.21979409951E+02  0.45084478466E+02  0.17770000000E+01 0.  1.
         15    1    1    2    0    0  0.10303646719E+02 -0.28593872906E+02 -0.17146413588E+02  0.34941836406E+02  0.17770000000E+01 0. -1.
</event>
<event>
 6    1  0.1599106E-003  0.5001393E+03  0.7546771E-02  0.9399498E-01
        -11   -1    0    0    0    0  0.00000000000E+00  0.00000000000E+00  0.50000000000E+03  0.50000000000E+03  0.00000000000E+00 0. -1.
         11   -1    0    0    0    0 -0.00000000000E+00 -0.00000000000E+00 -0.50000000000E+03  0.50000000000E+03  0.00000000000E+00 0.  1.
        -11    1    1    2    0    0  0.28500825876E+01  0.82582040766E+00  0.10111382829E+03  0.10115735871E+03  0.00000000000E+00 0. -1.
         11    1    1    2    0    0 -0.68740000863E+01 -0.39301594572E+01 -0.49979801309E+03  0.49986073253E+03  0.00000000000E+00 0.  1.
        -15    1    1    2    0    0  0.86844093036E+01 -0.99673877197E+00  0.24401554390E+03  0.24417853273E+03  0.17770000000E+01 0. -1.
         15    1    1    2    0    0 -0.46604918050E+01  0.41010778215E+01  0.15466864090E+03  0.15480337603E+03  0.17770000000E+01 0.  1.
</event>
<event>
 6    1  0.1599106E-003  0.4977348E+03  0.7546771E-02  0.9404892E-01
        -11   -1    0    0    0    0  0.00000000000E+00  0.00000000000E+00  0.50000000000E+03  0.50000000000E+03  0.00000000000E+00 0. -1.
         11   -1    0    0    0    0 -0.00000000000E+00 -0.00000000000E+00 -0.50000000000E+03  0.50000000000E+03  0.00000000000E+00 0. -1.
        -11    1    1    2    0    0  0.16265128170E+02  0.14345126206E+02  0.49923000639E+03  0.49970084682E+03  0.00000000000E+00 0. -1.
         11    1    1    2    0    0  0.10459714640E+01  0.43327155982E+00 -0.47981361307E+01  0.49298976538E+01  0.00000000000E+00 0. -1.
        -15    1    1    2    0    0 -0.75239642645E+01 -0.43588754182E+01 -0.36998339075E+03  0.37008982288E+03  0.17770000000E+01 0. -1.
         15    1    1    2    0    0 -0.97871353700E+01 -0.10419522347E+02 -0.12444847950E+03  0.12527943265E+03  0.17770000000E+01 0.  1.
</event>
<event>
 6    1  0.1599106E-003  0.5022415E+03  0.7546771E-02  0.9394808E-01
        -11   -1    0    0    0    0  0.00000000000E+00  0.00000000000E+00  0.50000000000E+03  0.50000000000E+03  0.00000000000E+00 0. -1.
         11   -1    0    0    0    0 -0.00000000000E+00 -0.00000000000E+00 -0.50000000000E+03  0.50000000000E+03  0.00000000000E+00 0.  1.
        -11    1    1    2    0    0  0.19855127030E+02 -0.28385884598E+01  0.49735422176E+03  0.49775848115E+03  0.00000000000E+00 0. -1.
         11    1    1    2    0    0 -0.16088588620E+02 -0.10901676349E+02 -0.20687761960E+03  0.20778844703E+03  0.00000000000E+00 0.  1.
        -15    1    1    2    0    0  0.14385831019E+02  0.45864577653E+01 -0.23237433822E+03  0.23287116293E+03  0.17770000000E+01 0. -1.
         15    1    1    2    0    0 -0.18152369429E+02  0.91538070439E+01 -0.58102263939E+02  0.61581908895E+02  0.17770000000E+01 0.  1.
</event>
<event>
 6    1  0.1599106E-003  0.5059143E+03  0.7546771E-02  0.9386672E-01
        -11   -1    0    0    0    0  0.00000000000E+00  0.00000000000E+00  0.50000000000E+03  0.50000000000E+03  0.00000000000E+00 0.  1.
         11   -1    0    0    0    0 -0.00000000000E+00 -0.00000000000E+00 -0.50000000000E+03  0.50000000000E+03  0.00000000000E+00 0. -1.
        -11    1    1    2    0    0 -0.83092924353E+01 -0.13019435328E+02  0.23762888872E+03  0.23813029792E+03  0.00000000000E+00 0.  1.
         11    1    1    2    0    0  0.12676863020E+02 -0.16182310908E+02 -0.49365790684E+03  0.49408572032E+03  0.00000000000E+00 0. -1.
        -15    1    1    2    0    0 -0.29776367365E+02  0.21775787667E+02  0.63686686034E+02  0.73620436626E+02  0.17770000000E+01 0.  1.
         15    1    1    2    0    0  0.25408796781E+02  0.74259585687E+01  0.19234233209E+03  0.19416354513E+03  0.17770000000E+01 0. -1.
</event>
<event>
 6    1  0.1599106E-003  0.5095742E+03  0.7546771E-02  0.9378638E-01
        -11   -1    0    0    0    0  0.00000000000E+00  0.00000000000E+00  0.50000000000E+03  0.50000000000E+03  0.00000000000E+00 0.  1.
         11   -1    0    0    0    0 -0.00000000000E+00 -0.00000000000E+00 -0.50000000000E+03  0.50000000000E+03  0.00000000000E+00 0. -1.
        -11    1    1    2    0    0  0.47723422487E+01 -0.10926273684E+02  0.49028080756E+03  0.49042576296E+03  0.00000000000E+00 0.  1.
         11    1    1    2    0    0  0.45497949610E+01 -0.76618933542E+01 -0.45370921137E+03  0.45379670969E+03  0.00000000000E+00 0. -1.
        -15    1    1    2    0    0  0.46699954069E+01  0.39006100569E+00 -0.31891095538E+02  0.32282513972E+02  0.17770000000E+01 0. -1.
         15    1    1    2    0    0 -0.13992132617E+02  0.18198106033E+02 -0.46805006495E+01  0.23495013379E+02  0.17770000000E+01 0.  1.
</event>
<event>
 6    1  0.1599106E-003  0.5005523E+03  0.7546771E-02  0.9398575E-01
        -11   -1    0    0    0    0  0.00000000000E+00  0.00000000000E+00  0.50000000000E+03  0.50000000000E+03  0.00000000000E+00 0. -1.
         11   -1    0    0    0    0 -0.00000000000E+00 -0.00000000000E+00 -0.50000000000E+03  0.50000000000E+03  0.00000000000E+00 0. -1.
        -11    1    1    2    0    0  0.54765040066E+01  0.79668735446E-01  0.38004440628E+03  0.38008387125E+03  0.00000000000E+00 0. -1.
         11    1    1    2    0    0 -0.72859899891E+01 -0.21624871920E+01 -0.49938986826E+03  0.49944769748E+03  0.00000000000E+00 0. -1.
        -15    1    1    2    0    0 -0.38160451367E+01 -0.27855545677E+01  0.14674769083E+02  0.15518636904E+02  0.17770000000E+01 0.  1.
         15    1    1    2    0    0  0.56255311193E+01  0.48683730242E+01  0.10467069290E+03  0.10494979436E+03  0.17770000000E+01 0. -1.
</event>
<event>
 6    1  0.1599106E-003  0.5082100E+03  0.7546771E-02  0.9381624E-01
        -11   -1    0    0    0    0  0.00000000000E+00  0.00000000000E+00  0.50000000000E+03  0.50000000000E+03  0.00000000000E+00 0.  1.
         11   -1    0    0    0    0 -0.00000000000E+00 -0.00000000000E+00 -0.50000000000E+03  0.50000000000E+03  0.00000000000E+00 0.  1.
        -11    1    1    2    0    0 -0.43722155899E+01  0.96602156363E+01  0.49167566411E+03  0.49178999046E+03  0.00000000000E+00 0.  1.
         11    1    1    2    0    0 -0.88851623922E+01  0.82675805923E+01 -0.39789298318E+03  0.39807803891E+03  0.00000000000E+00 0.  1.
        -15    1    1    2    0    0  0.27462683893E+01 -0.17246155691E+02 -0.97311589380E+02  0.98882126963E+02  0.17770000000E+01 0.  1.
         15    1    1    2    0    0  0.10511109593E+02 -0.68164053757E+00  0.35289084528E+01  0.11249843668E+02  0.17770000000E+01 0. -1.
</event>
<event>
 6    1  0.1599106E-003  0.5006561E+03  0.7546771E-02  0.9398343E-01
        -11   -1    0    0    0    0  0.00000000000E+00  0.00000000000E+00  0.50000000000E+03  0.50000000000E+03  0.00000000000E+00 0.  1.
         11   -1    0    0    0    0 -0.00000000000E+00 -0.00000000000E+00 -0.50000000000E+03  0.50000000000E+03  0.00000000000E+00 0.  1.
        -11    1    1    2    0    0 -0.12011882378E+02  0.10802308805E+02  0.49908253995E+03  0.49934392644E+03  0.00000000000E+00 0.  1.
         11    1    1    2    0    0  0.80040181369E+01  0.79228072877E+00 -0.26347887391E+03  0.26360161041E+03  0.00000000000E+00 0.  1.
        -15    1    1    2    0    0  0.69815033236E+01 -0.77624619186E+01 -0.39866867476E+02  0.41249509755E+02  0.17770000000E+01 0. -1.
         15    1    1    2    0    0 -0.29736390826E+01 -0.38321276149E+01 -0.19573679856E+03  0.19580495339E+03  0.17770000000E+01 0.  1.
</event>
<event>
 6    1  0.1599106E-003  0.4471779E+03  0.7546771E-02  0.9526438E-01
        -11   -1    0    0    0    0  0.00000000000E+00  0.00000000000E+00  0.50000000000E+03  0.50000000000E+03  0.00000000000E+00 0.  1.
         11   -1    0    0    0    0 -0.00000000000E+00 -0.00000000000E+00 -0.50000000000E+03  0.50000000000E+03  0.00000000000E+00 0.  1.
        -11    1    1    2    0    0  0.12409328670E+02  0.93971766396E+00  0.44789830767E+03  0.44807116457E+03  0.00000000000E+00 0.  1.
         11    1    1    2    0    0  0.17111968865E+02  0.78277049445E+01 -0.44641939458E+03  0.44681581027E+03  0.00000000000E+00 0.  1.
        -15    1    1    2    0    0 -0.81626409468E+01 -0.16593332901E+01  0.49041717167E+02  0.49775795783E+02  0.17770000000E+01 0.  1.
         15    1    1    2    0    0 -0.21358656587E+02 -0.71080893184E+01 -0.50520630254E+02  0.55337229378E+02  0.17770000000E+01 0.  1.
</event>
<event>
 6    1  0.1599106E-003  0.5011494E+03  0.7546771E-02  0.9397241E-01
        -11   -1    0    0    0    0  0.00000000000E+00  0.00000000000E+00  0.50000000000E+03  0.50000000000E+03  0.00000000000E+00 0.  1.
         11   -1    0    0    0    0 -0.00000000000E+00 -0.00000000000E+00 -0.50000000000E+03  0.50000000000E+03  0.00000000000E+00 0.  1.
        -11    1    1    2    0    0 -0.43630448623E+01  0.77739942819E+01  0.49877089572E+03  0.49885055635E+03  0.00000000000E+00 0.  1.
         11    1    1    2    0    0 -0.65865352264E+01 -0.35694202267E+01 -0.39785082986E+03  0.39792135659E+03  0.00000000000E+00 0.  1.
        -15    1    1    2    0    0 -0.50914101476E+00  0.42680444824E+01 -0.52963872687E+02  0.53167706056E+02  0.17770000000E+01 0. -1.
         15    1    1    2    0    0  0.11458721104E+02 -0.84726185376E+01 -0.47956193174E+02  0.50060381011E+02  0.17770000000E+01 0.  1.
</event>
<event>
 6    1  0.1599106E-003  0.5067695E+03  0.7546771E-02  0.9384788E-01
        -11   -1    0    0    0    0  0.00000000000E+00  0.00000000000E+00  0.50000000000E+03  0.50000000000E+03  0.00000000000E+00 0. -1.
         11   -1    0    0    0    0 -0.00000000000E+00 -0.00000000000E+00 -0.50000000000E+03  0.50000000000E+03  0.00000000000E+00 0. -1.
        -11    1    1    2    0    0 -0.96144058910E+01  0.45760437589E+00  0.49313652704E+03  0.49323045375E+03  0.00000000000E+00 0. -1.
         11    1    1    2    0    0 -0.54734627764E+01  0.44820192821E+00 -0.40622552323E+03  0.40626264338E+03  0.00000000000E+00 0. -1.
        -15    1    1    2    0    0  0.20962708479E+02 -0.17778078494E+01 -0.90777675205E+02  0.93200535364E+02  0.17770000000E+01 0.  1.
         15    1    1    2    0    0 -0.58748398118E+01  0.87200154527E+00  0.38666713946E+01  0.73063675095E+01  0.17770000000E+01 0. -1.
</event>
<event>
 6    1  0.1599106E-003  0.4867195E+03  0.7546771E-02  0.9430026E-01
        -11   -1    0    0    0    0  0.00000000000E+00  0.00000000000E+00  0.50000000000E+03  0.50000000000E+03  0.00000000000E+00 0. -1.
         11   -1    0    0    0    0 -0.00000000000E+00 -0.00000000000E+00 -0.50000000000E+03  0.50000000000E+03  0.00000000000E+00 0.  1.
        -11    1    1    2    0    0 -0.90291710143E+01  0.63067766876E+01  0.48221509867E+03  0.48234085743E+03  0.00000000000E+00 0. -1.
         11    1    1    2    0    0 -0.11716661650E+02  0.17846702522E+01 -0.49125177153E+03  0.49139471735E+03  0.00000000000E+00 0.  1.
        -15    1    1    2    0    0  0.14227942740E+02 -0.70055449902E+01  0.10711497139E+02  0.19219935358E+02  0.17770000000E+01 0.  1.
         15    1    1    2    0    0  0.65178899243E+01 -0.10859019496E+01 -0.16748242732E+01  0.70444898648E+01  0.17770000000E+01 0. -1.
</event>
<event>
 6    1  0.1599106E-003  0.5072824E+03  0.7546771E-02  0.9383661E-01
        -11   -1    0    0    0    0  0.00000000000E+00  0.00000000000E+00  0.50000000000E+03  0.50000000000E+03  0.00000000000E+00 0. -1.
         11   -1    0    0    0    0 -0.00000000000E+00 -0.00000000000E+00 -0.50000000000E+03  0.50000000000E+03  0.00000000000E+00 0.  1.
        -11    1    1    2    0    0  0.65733953871E+01 -0.67517771724E+01  0.49262750160E+03  0.49271761828E+03  0.00000000000E+00 0. -1.
         11    1    1    2    0    0 -0.59773762347E+01  0.31246984776E+01 -0.48704192555E+03  0.48708862644E+03  0.00000000000E+00 0.  1.
        -15    1    1    2    0    0 -0.19952707380E+01  0.38122528904E+01 -0.12275931859E+02  0.13128998797E+02  0.17770000000E+01 0.  1.
         15    1    1    2    0    0  0.13992515855E+01 -0.18517419558E+00  0.66903558010E+01  0.70647564874E+01  0.17770000000E+01 0. -1.
</event>
<event>
 6    1  0.1599106E-003  0.5023101E+03  0.7546771E-02  0.9394655E-01
        -11   -1    0    0    0    0  0.00000000000E+00  0.00000000000E+00  0.50000000000E+03  0.50000000000E+03  0.00000000000E+00 0.  1.
         11   -1    0    0    0    0 -0.00000000000E+00 -0.00000000000E+00 -0.50000000000E+03  0.50000000000E+03  0.00000000000E+00 0. -1.
        -11    1    1    2    0    0  0.24884178850E+02 -0.12818243929E+02  0.49690206770E+03  0.49768985786E+03  0.00000000000E+00 0.  1.
         11    1    1    2    0    0 -0.73670914002E+01  0.13139873745E+01 -0.37043763030E+03  0.37051320967E+03  0.00000000000E+00 0. -1.
        -15    1    1    2    0    0 -0.22940910332E+02  0.10765408929E+02 -0.60976125647E+02  0.66056226234E+02  0.17770000000E+01 0. -1.
         15    1    1    2    0    0  0.54238228827E+01  0.73884762528E+00 -0.65488311752E+02  0.65740706230E+02  0.17770000000E+01 0.  1.
</event>
<event>
 6    1  0.1599106E-003  0.5051893E+03  0.7546771E-02  0.9388273E-01
        -11   -1    0    0    0    0  0.00000000000E+00  0.00000000000E+00  0.50000000000E+03  0.50000000000E+03  0.00000000000E+00 0. -1.
         11   -1    0    0    0    0 -0.00000000000E+00 -0.00000000000E+00 -0.50000000000E+03  0.50000000000E+03  0.00000000000E+00 0.  1.
        -11    1    1    2    0    0  0.63887653626E+01  0.79278378093E+01  0.49470595037E+03  0.49481071560E+03  0.00000000000E+00 0. -1.
         11    1    1    2    0    0 -0.45255663485E+01 -0.47529681810E+01 -0.41549427279E+03  0.41554610114E+03  0.00000000000E+00 0.  1.
        -15    1    1    2    0    0  0.67797788916E+00  0.51474055965E+00 -0.83299904410E+02  0.83323204545E+02  0.17770000000E+01 0. -1.
         15    1    1    2    0    0 -0.25411769032E+01 -0.36896101879E+01  0.40882268218E+01  0.63199787134E+01  0.17770000000E+01 0.  1.
</event>
<event>
 6    1  0.1599106E-003  0.5021656E+03  0.7546771E-02  0.9394977E-01
        -11   -1    0    0    0    0  0.00000000000E+00  0.00000000000E+00  0.50000000000E+03  0.50000000000E+03  0.00000000000E+00 0. -1.
         11   -1    0    0    0    0 -0.00000000000E+00 -0.00000000000E+00 -0.50000000000E+03  0.50000000000E+03  0.00000000000E+00 0.  1.
        -11    1    1    2    0    0 -0.80328154421E+00 -0.11292599253E+02  0.42701933983E+03  0.42716938637E+03  0.00000000000E+00 0. -1.
         11    1    1    2    0    0  0.27374948810E+01 -0.88144796946E+01 -0.49774881626E+03  0.49783438312E+03  0.00000000000E+00 0.  1.
        -15    1    1    2    0    0 -0.41688197704E+00  0.79889035924E+01  0.95481818134E+01  0.12582602121E+02  0.17770000000E+01 0. -1.
         15    1    1    2    0    0 -0.15173313597E+01  0.12118175355E+02  0.61181294616E+02  0.62413628386E+02  0.17770000000E+01 0.  1.
</event>
<event>
 6    1  0.1599106E-003  0.5019027E+03  0.7546771E-02  0.9395562E-01
        -11   -1    0    0    0    0  0.00000000000E+00  0.00000000000E+00  0.50000000000E+03  0.50000000000E+03  0.00000000000E+00 0. -1.
         11   -1    0    0    0    0 -0.00000000000E+00 -0.00000000000E+00 -0.50000000000E+03  0.50000000000E+03  0.00000000000E+00 0.  1.
        -11    1    1    2    0    0  0.32783901261E+01  0.50296212153E+01  0.36492168024E+03  0.36497106411E+03  0.00000000000E+00 0. -1.
         11    1    1    2    0    0  0.39079985830E+01  0.61835242149E+01 -0.49804355853E+03  0.49809727426E+03  0.00000000000E+00 0.  1.
        -15    1    1    2    0    0  0.54852050399E+00  0.44951953723E+01  0.31992057006E+01  0.58223966108E+01  0.17770000000E+01 0.  1.
         15    1    1    2    0    0 -0.77349092131E+01 -0.15708340802E+02  0.12992267260E+03  0.13110926502E+03  0.17770000000E+01 0. -1.
</event>
<event>
 6    1  0.1599106E-003  0.5102463E+03  0.7546771E-02  0.9377170E-01
        -11   -1    0    0    0    0  0.00000000000E+00  0.00000000000E+00  0.50000000000E+03  0.50000000000E+03  0.00000000000E+00 0. -1.
         11   -1    0    0    0    0 -0.00000000000E+00 -0.00000000000E+00 -0.50000000000E+03  0.50000000000E+03  0.00000000000E+00 0.  1.
        -11    1    1    2    0    0 -0.36545542898E+02 -0.15744930009E+02  0.22804555831E+03  0.23149137390E+03  0.00000000000E+00 0. -1.
         11    1    1    2    0    0  0.63741370025E+00  0.85041509443E+01 -0.48967949399E+03  0.48975374804E+03  0.00000000000E+00 0.  1.
        -15    1    1    2    0    0 -0.23324828157E+01 -0.28776571723E+01 -0.65127901933E+01  0.77003605103E+01  0.17770000000E+01 0.  1.
         15    1    1    2    0    0  0.38240612013E+02  0.10118436237E+02  0.26814672587E+03  0.27105451755E+03  0.17770000000E+01 0. -1.
</event>
<event>
 6    1  0.1599106E-003  0.4482974E+03  0.7546771E-02  0.9523564E-01
        -11   -1    0    0    0    0  0.00000000000E+00  0.00000000000E+00  0.50000000000E+03  0.50000000000E+03  0.00000000000E+00 0. -1.
         11   -1    0    0    0    0 -0.00000000000E+00 -0.00000000000E+00 -0.50000000000E+03  0.50000000000E+03  0.00000000000E+00 0. -1.
        -11    1    1    2    0    0 -0.70872661045E+01  0.40251993093E+01  0.44658629569E+03  0.44666066658E+03  0.00000000000E+00 0. -1.
         11    1    1    2    0    0  0.10298786736E+02  0.98489977073E+01 -0.44982733696E+03  0.45005299782E+03  0.00000000000E+00 0. -1.
        -15    1    1    2    0    0  0.79324366966E+01 -0.72401004244E+01  0.51832111190E+02  0.52962893477E+02  0.17770000000E+01 0.  1.
         15    1    1    2    0    0 -0.11143957328E+02 -0.66340965923E+01 -0.48591069919E+02  0.50323442126E+02  0.17770000000E+01 0. -1.
</event>
<event>
 6    1  0.1599106E-003  0.5012704E+03  0.7546771E-02  0.9396972E-01
        -11   -1    0    0    0    0  0.00000000000E+00  0.00000000000E+00  0.50000000000E+03  0.50000000000E+03  0.00000000000E+00 0. -1.
         11   -1    0    0    0    0 -0.00000000000E+00 -0.00000000000E+00 -0.50000000000E+03  0.50000000000E+03  0.00000000000E+00 0.  1.
        -11    1    1    2    0    0  0.45452148095E+01 -0.19634842790E+00  0.66294884397E+02  0.66450803062E+02  0.00000000000E+00 0. -1.
         11    1    1    2    0    0 -0.64303233265E+01  0.75403099469E+01 -0.49863113461E+03  0.49872959982E+03  0.00000000000E+00 0.  1.
        -15    1    1    2    0    0  0.11049865722E+02  0.14987342202E+01  0.39791192197E+03  0.39807210542E+03  0.17770000000E+01 0. -1.
         15    1    1    2    0    0 -0.91647572051E+01 -0.88426957392E+01  0.34424328240E+02  0.36747491701E+02  0.17770000000E+01 0.  1.
</event>
<event>
 6    1  0.1599106E-003  0.5477682E+03  0.7546771E-02  0.9298843E-01
        -11   -1    0    0    0    0  0.00000000000E+00  0.00000000000E+00  0.50000000000E+03  0.50000000000E+03  0.00000000000E+00 0.  1.
         11   -1    0    0    0    0 -0.00000000000E+00 -0.00000000000E+00 -0.50000000000E+03  0.50000000000E+03  0.00000000000E+00 0.  1.
        -11    1    1    2    0    0  0.30867287041E+01  0.80967307470E+01  0.45214880120E+03  0.45223182481E+03  0.00000000000E+00 0.  1.
         11    1    1    2    0    0  0.13319467818E+01  0.71392557173E+01 -0.43428423291E+03  0.43434495278E+03  0.00000000000E+00 0.  1.
        -15    1    1    2    0    0 -0.26101926541E+02  0.25122599363E+01 -0.58441437540E+02  0.64079492584E+02  0.17770000000E+01 0. -1.
         15    1    1    2    0    0  0.21683251055E+02 -0.17748246401E+02  0.40576869241E+02  0.49343729825E+02  0.17770000000E+01 0.  1.
</event>
<event>
 6    1  0.1599106E-003  0.5092125E+03  0.7546771E-02  0.9379429E-01
        -11   -1    0    0    0    0  0.00000000000E+00  0.00000000000E+00  0.50000000000E+03  0.50000000000E+03  0.00000000000E+00 0. -1.
         11   -1    0    0    0    0 -0.00000000000E+00 -0.00000000000E+00 -0.50000000000E+03  0.50000000000E+03  0.00000000000E+00 0.  1.
        -11    1    1    2    0    0 -0.26883701791E+00 -0.25852882837E+02  0.49010599287E+03  0.49078745712E+03  0.00000000000E+00 0. -1.
         11    1    1    2    0    0  0.52678917828E+01 -0.41436071785E+01 -0.44337470231E+03  0.44342535653E+03  0.00000000000E+00 0.  1.
        -15    1    1    2    0    0 -0.37342455338E+00 -0.78798614187E+01 -0.74540912172E+01  0.10997857371E+02  0.17770000000E+01 0. -1.
         15    1    1    2    0    0 -0.46256302115E+01  0.37876351434E+02 -0.39277199336E+02  0.54789328975E+02  0.17770000000E+01 0.  1.
</event>
<event>
 6    1  0.1599106E-003  0.5091080E+03  0.7546771E-02  0.9379657E-01
        -11   -1    0    0    0    0  0.00000000000E+00  0.00000000000E+00  0.50000000000E+03  0.50000000000E+03  0.00000000000E+00 0.  1.
         11   -1    0    0    0    0 -0.00000000000E+00 -0.00000000000E+00 -0.50000000000E+03  0.50000000000E+03  0.00000000000E+00 0. -1.
        -11    1    1    2    0    0  0.54710563047E+00 -0.82314122598E+01  0.49082263193E+03  0.49089195501E+03  0.00000000000E+00 0.  1.
         11    1    1    2    0    0  0.84001793063E+01  0.86360289330E+01 -0.46156090822E+03  0.46171811314E+03  0.00000000000E+00 0. -1.
        -15    1    1    2    0    0 -0.67777210608E+01 -0.30092997097E+01 -0.37520390939E+02  0.38287476447E+02  0.17770000000E+01 0.  1.
         15    1    1    2    0    0 -0.21695638760E+01  0.26046830365E+01  0.82586672202E+01  0.91024554043E+01  0.17770000000E+01 0. -1.
</event>
<event>
 6    1  0.1599106E-003  0.4631276E+03  0.7546771E-02  0.9486318E-01
        -11   -1    0    0    0    0  0.00000000000E+00  0.00000000000E+00  0.50000000000E+03  0.50000000000E+03  0.00000000000E+00 0.  1.
         11   -1    0    0    0    0 -0.00000000000E+00 -0.00000000000E+00 -0.50000000000E+03  0.50000000000E+03  0.00000000000E+00 0.  1.
        -11    1    1    2    0    0 -0.22929359098E+02  0.14943992455E+02  0.45622342617E+03  0.45704364453E+03  0.00000000000E+00 0.  1.
         11    1    1    2    0    0  0.20960432773E+01  0.86188119633E+01 -0.46976050320E+03  0.46984423768E+03  0.00000000000E+00 0.  1.
        -15    1    1    2    0    0  0.17453763915E+02 -0.12005615779E+02  0.39264904280E+02  0.44650410101E+02  0.17770000000E+01 0. -1.
         15    1    1    2    0    0  0.33795519051E+01 -0.11557188639E+02 -0.25727827253E+02  0.28461707688E+02  0.17770000000E+01 0.  1.
</event>
<event>
 6    1  0.1599106E-003  0.5012034E+03  0.7546771E-02  0.9397121E-01
        -11   -1    0    0    0    0  0.00000000000E+00  0.00000000000E+00  0.50000000000E+03  0.50000000000E+03  0.00000000000E+00 0.  1.
         11   -1    0    0    0    0 -0.00000000000E+00 -0.00000000000E+00 -0.50000000000E+03  0.50000000000E+03  0.00000000000E+00 0. -1.
        -11    1    1    2    0    0 -0.32052490595E+01  0.49851871331E+01  0.31447081885E+03  0.31452666281E+03  0.00000000000E+00 0.  1.
         11    1    1    2    0    0 -0.64710829520E+01 -0.38266061446E+01 -0.49873989828E+03  0.49879655569E+03  0.00000000000E+00 0. -1.
        -15    1    1    2    0    0  0.53961669475E+01 -0.59084750564E+01  0.17544211332E+03  0.17563348642E+03  0.17770000000E+01 0. -1.
         15    1    1    2    0    0  0.42801650640E+01  0.47498940679E+01  0.88269661107E+01  0.11043295086E+02  0.17770000000E+01 0.  1.
</event>
<event>
 6    1  0.1599106E-003  0.5019635E+03  0.7546771E-02  0.9395427E-01
        -11   -1    0    0    0    0  0.00000000000E+00  0.00000000000E+00  0.50000000000E+03  0.50000000000E+03  0.00000000000E+00 0.  1.
         11   -1    0    0    0    0 -0.00000000000E+00 -0.00000000000E+00 -0.50000000000E+03  0.50000000000E+03  0.00000000000E+00 0.  1.
        -11    1    1    2    0    0  0.13857552602E+02  0.10082039582E+02  0.49774161605E+03  0.49803654046E+03  0.00000000000E+00 0.  1.
         11    1    1    2    0    0  0.10319543764E+01  0.18662989036E+01 -0.13545252107E+03  0.13546930820E+03  0.00000000000E+00 0.  1.
        -15    1    1    2    0    0 -0.20130454604E+02  0.14001693756E+02 -0.10497038708E+03  0.10781105010E+03  0.17770000000E+01 0. -1.
         15    1    1    2    0    0  0.52409476250E+01 -0.25950032242E+02 -0.25731870790E+03  0.25868310124E+03  0.17770000000E+01 0.  1.
</event>
<event>
 6    1  0.1599106E-003  0.4872293E+03  0.7546771E-02  0.9428847E-01
        -11   -1    0    0    0    0  0.00000000000E+00  0.00000000000E+00  0.50000000000E+03  0.50000000000E+03  0.00000000000E+00 0.  1.
         11   -1    0    0    0    0 -0.00000000000E+00 -0.00000000000E+00 -0.50000000000E+03  0.50000000000E+03  0.00000000000E+00 0. -1.
        -11    1    1    2    0    0  0.10759777643E+02  0.85273043615E+01  0.48907486369E+03  0.48926752399E+03  0.00000000000E+00 0.  1.
         11    1    1    2    0    0 -0.76141679208E+01  0.73282415749E+01 -0.48521770057E+03  0.48533276793E+03  0.00000000000E+00 0. -1.
        -15    1    1    2    0    0  0.20859423404E+01 -0.36487141075E+01  0.68619537283E+01  0.82406558025E+01  0.17770000000E+01 0.  1.
         15    1    1    2    0    0 -0.52315520627E+01 -0.12206831829E+02 -0.10719116847E+02  0.17159052283E+02  0.17770000000E+01 0. -1.
</event>
<event>
 6    1  0.1599106E-003  0.5008050E+03  0.7546771E-02  0.9398010E-01
        -11   -1    0    0    0    0  0.00000000000E+00  0.00000000000E+00  0.50000000000E+03  0.50000000000E+03  0.00000000000E+00 0. -1.
         11   -1    0    0    0    0 -0.00000000000E+00 -0.00000000000E+00 -0.50000000000E+03  0.50000000000E+03  0.00000000000E+00 0. -1.
        -11    1    1    2    0    0  0.19116086323E+01  0.80441579654E+01  0.44496946069E+03  0.44504627138E+03  0.00000000000E+00 0. -1.
         11    1    1    2    0    0 -0.90054006510E+01 -0.94974561469E+01 -0.49902342811E+03  0.49919503274E+03  0.00000000000E+00 0. -1.
        -15    1    1    2    0    0  0.50281317342E+01 -0.28963932237E+01  0.44512630811E+02  0.44924416893E+02  0.17770000000E+01 0.  1.
         15    1    1    2    0    0  0.20656602845E+01  0.43496914052E+01  0.95413366143E+01  0.10834278985E+02  0.17770000000E+01 0. -1.
</event>
<event>
 6    1  0.2828244E-003  0.5159152E+03  0.7546771E-02  0.9364886E-01
        -11   -1    0    0    0    0  0.00000000000E+00  0.00000000000E+00  0.50000000000E+03  0.50000000000E+03  0.00000000000E+00 0. -1.
         11   -1    0    0    0    0 -0.00000000000E+00 -0.00000000000E+00 -0.50000000000E+03  0.50000000000E+03  0.00000000000E+00 0.  1.
        -11    1    1    2    0    0  0.38663762368E+01 -0.95884466919E+01  0.41947051383E+03  0.41959790174E+03  0.00000000000E+00 0. -1.
         11    1    1    2    0    0 -0.70863551370E+01  0.21461754905E+01 -0.48402820593E+03  0.48408483413E+03  0.00000000000E+00 0.  1.
        -15    1    1    2    0    0 -0.32124523659E+01  0.84142604850E+01  0.79445047893E+02  0.79973701886E+02  0.17770000000E+01 0.  1.
         15    1    1    2    0    0  0.64324312661E+01 -0.97198928357E+00 -0.14887355792E+02  0.16343562238E+02  0.17770000000E+01 0.  1.
</event>
<event>
 6    1  0.1599106E-003  0.4908015E+03  0.7546771E-02  0.9420630E-01
        -11   -1    0    0    0    0  0.00000000000E+00  0.00000000000E+00  0.50000000000E+03  0.50000000000E+03  0.00000000000E+00 0.  1.
         11   -1    0    0    0    0 -0.00000000000E+00 -0.00000000000E+00 -0.50000000000E+03  0.50000000000E+03  0.00000000000E+00 0.  1.
        -11    1    1    2    0    0  0.41990035870E+01 -0.56102735104E+01  0.48962794663E+03  0.48967809112E+03  0.00000000000E+00 0.  1.
         11    1    1    2    0    0  0.17947221671E+01  0.11345388616E+02 -0.49182841325E+03  0.49196252596E+03  0.00000000000E+00 0.  1.
        -15    1    1    2    0    0 -0.72222782092E+01 -0.61795785008E+01 -0.49594224403E+01  0.10867478683E+02  0.17770000000E+01 0.  1.
         15    1    1    2    0    0  0.12285524551E+01  0.44446339553E+00  0.71598890525E+01  0.74919042365E+01  0.17770000000E+01 0. -1.
</event>
<event>
 6    1  0.1599106E-003  0.4658558E+03  0.7546771E-02  0.9479628E-01
        -11   -1    0    0    0    0  0.00000000000E+00  0.00000000000E+00  0.50000000000E+03  0.50000000000E+03  0.00000000000E+00 0.  1.
         11   -1    0    0    0    0 -0.00000000000E+00 -0.00000000000E+00 -0.50000000000E+03  0.50000000000E+03  0.00000000000E+00 0.  1.
        -11    1    1    2    0    0 -0.84537596773E+01 -0.33641759754E+00  0.46004277687E+03  0.46012056657E+03  0.00000000000E+00 0.  1.
         11    1    1    2    0    0 -0.15718931296E+02 -0.13217923641E+02 -0.47162806116E+03  0.47207502198E+03  0.00000000000E+00 0.  1.
        -15    1    1    2    0    0  0.70901190529E+01  0.95446647252E+01 -0.24694266588E+02  0.27465158733E+02  0.17770000000E+01 0.  1.
         15    1    1    2    0    0  0.17082571921E+02  0.40096765131E+01  0.36279550875E+02  0.40339252718E+02  0.17770000000E+01 0. -1.
</event>
<event>
 6    1  0.1599106E-003  0.5030273E+03  0.7546771E-02  0.9393061E-01
        -11   -1    0    0    0    0  0.00000000000E+00  0.00000000000E+00  0.50000000000E+03  0.50000000000E+03  0.00000000000E+00 0. -1.
         11   -1    0    0    0    0 -0.00000000000E+00 -0.00000000000E+00 -0.50000000000E+03  0.50000000000E+03  0.00000000000E+00 0.  1.
        -11    1    1    2    0    0  0.42935955377E+01 -0.68287502576E+01  0.49690719788E+03  0.49697266534E+03  0.00000000000E+00 0. -1.
         11    1    1    2    0    0 -0.21099985217E+01 -0.67303738526E+01 -0.46008801115E+03  0.46014207375E+03  0.00000000000E+00 0.  1.
        -15    1    1    2    0    0 -0.63167561105E+00 -0.31929722725E+00  0.12578069251E+01  0.22892732597E+01  0.17770000000E+01 0.  1.
         15    1    1    2    0    0 -0.15519214050E+01  0.13878421337E+02 -0.38076993654E+02  0.40595987653E+02  0.17770000000E+01 0.  1.
</event>
<event>
 6    1  0.1599106E-003  0.5057886E+03  0.7546771E-02  0.9386950E-01
        -11   -1    0    0    0    0  0.00000000000E+00  0.00000000000E+00  0.50000000000E+03  0.50000000000E+03  0.00000000000E+00 0. -1.
         11   -1    0    0    0    0 -0.00000000000E+00 -0.00000000000E+00 -0.50000000000E+03  0.50000000000E+03  0.00000000000E+00 0. -1.
        -11    1    1    2    0    0 -0.51205170377E+01 -0.34019838916E+01  0.45440342023E+03  0.45444500383E+03  0.00000000000E+00 0. -1.
         11    1    1    2    0    0 -0.43171928068E+01  0.58787086920E+01 -0.49415756671E+03  0.49421139010E+03  0.00000000000E+00 0. -1.
        -15    1    1    2    0    0  0.78820882626E+00 -0.47408504696E+01 -0.40935622126E+01  0.65583471178E+01  0.17770000000E+01 0. -1.
         15    1    1    2    0    0  0.86495010182E+01  0.22641256692E+01  0.43847708696E+02  0.44785258956E+02  0.17770000000E+01 0.  1.
</event>
<event>
 6    1  0.1599106E-003  0.5094977E+03  0.7546771E-02  0.9378805E-01
        -11   -1    0    0    0    0  0.00000000000E+00  0.00000000000E+00  0.50000000000E+03  0.50000000000E+03  0.00000000000E+00 0. -1.
         11   -1    0    0    0    0 -0.00000000000E+00 -0.00000000000E+00 -0.50000000000E+03  0.50000000000E+03  0.00000000000E+00 0. -1.
        -11    1    1    2    0    0  0.22905521567E+00 -0.93917918711E+01  0.49041234616E+03  0.49050232159E+03  0.00000000000E+00 0. -1.
         11    1    1    2    0    0  0.24596983676E+01  0.55730076041E+01 -0.45023204481E+03  0.45027325337E+03  0.00000000000E+00 0. -1.
        -15    1    1    2    0    0 -0.36919235840E+01  0.41839911839E+00 -0.49199651778E+02  0.49371741124E+02  0.17770000000E+01 0. -1.
         15    1    1    2    0    0  0.10031700007E+01  0.34003851486E+01  0.90193504224E+01  0.98526839111E+01  0.17770000000E+01 0.  1.
</event>
<event>
 6    1  0.1599106E-003  0.5100241E+03  0.7546771E-02  0.9377655E-01
        -11   -1    0    0    0    0  0.00000000000E+00  0.00000000000E+00  0.50000000000E+03  0.50000000000E+03  0.00000000000E+00 0.  1.
         11   -1    0    0    0    0 -0.00000000000E+00 -0.00000000000E+00 -0.50000000000E+03  0.50000000000E+03  0.00000000000E+00 0.  1.
        -11    1    1    2    0    0 -0.13935216080E+02  0.12142827253E+02  0.48962717386E+03  0.48997592582E+03  0.00000000000E+00 0.  1.
         11    1    1    2    0    0 -0.70355323936E+01  0.68313080022E+01 -0.41820637947E+03  0.41832133739E+03  0.00000000000E+00 0.  1.
        -15    1    1    2    0    0  0.14403326441E+02  0.61696312902E+00 -0.69356661302E+02  0.70861418643E+02  0.17770000000E+01 0.  1.
         15    1    1    2    0    0  0.65674220319E+01 -0.19591098385E+02 -0.20641330850E+01  0.20841318155E+02  0.17770000000E+01 0. -1.
</event>
<event>
 6    1  0.1599106E-003  0.5002382E+03  0.7546771E-02  0.9399277E-01
        -11   -1    0    0    0    0  0.00000000000E+00  0.00000000000E+00  0.50000000000E+03  0.50000000000E+03  0.00000000000E+00 0. -1.
         11   -1    0    0    0    0 -0.00000000000E+00 -0.00000000000E+00 -0.50000000000E+03  0.50000000000E+03  0.00000000000E+00 0. -1.
        -11    1    1    2    0    0 -0.12743504829E+01  0.36858226182E+01  0.25529068370E+03  0.25532047008E+03  0.00000000000E+00 0. -1.
         11    1    1    2    0    0 -0.24881501392E+01 -0.66893184279E+01 -0.49971082544E+03  0.49976179019E+03  0.00000000000E+00 0. -1.
        -15    1    1    2    0    0 -0.29142223878E+00 -0.32299451638E+01  0.18109851886E+03  0.18113627117E+03  0.17770000000E+01 0.  1.
         15    1    1    2    0    0  0.40539228608E+01  0.62334409734E+01  0.63321622887E+02  0.63781468554E+02  0.17770000000E+01 0. -1.
</event>
<event>
 6    1  0.1599106E-003  0.5008122E+03  0.7546771E-02  0.9397994E-01
        -11   -1    0    0    0    0  0.00000000000E+00  0.00000000000E+00  0.50000000000E+03  0.50000000000E+03  0.00000000000E+00 0.  1.
         11   -1    0    0    0    0 -0.00000000000E+00 -0.00000000000E+00 -0.50000000000E+03  0.50000000000E+03  0.00000000000E+00 0.  1.
        -11    1    1    2    0    0 -0.20104252020E+01 -0.24412245163E+01  0.68827671400E+02  0.68900288367E+02  0.00000000000E+00 0.  1.
         11    1    1    2    0    0  0.69077506290E+01  0.59543770445E+01 -0.49910451465E+03  0.49918782855E+03  0.00000000000E+00 0.  1.
        -15    1    1    2    0    0  0.18496027010E+00  0.58559176009E+01  0.39429387478E+03  0.39434140462E+03  0.17770000000E+01 0.  1.
         15    1    1    2    0    0 -0.50822856971E+01 -0.93690701291E+01  0.35982968470E+02  0.37570478463E+02  0.17770000000E+01 0. -1.
</event>
<event>
 6    1  0.1599106E-003  0.5058211E+03  0.7546771E-02  0.9386878E-01
        -11   -1    0    0    0    0  0.00000000000E+00  0.00000000000E+00  0.50000000000E+03  0.50000000000E+03  0.00000000000E+00 0. -1.
         11   -1    0    0    0    0 -0.00000000000E+00 -0.00000000000E+00 -0.50000000000E+03  0.50000000000E+03  0.00000000000E+00 0.  1.
        -11    1    1    2    0    0 -0.53511766697E+01 -0.67893116352E+01  0.49410330885E+03  0.49417892474E+03  0.00000000000E+00 0. -1.
         11    1    1    2    0    0 -0.47408009810E+01  0.38986097426E+01 -0.43865025309E+03  0.43869319449E+03  0.00000000000E+00 0.  1.
        -15    1    1    2    0    0  0.18134494416E+02 -0.59359298270E+00 -0.55252419558E+02  0.58182470181E+02  0.17770000000E+01 0. -1.
         15    1    1    2    0    0 -0.80425167658E+01  0.34842948752E+01 -0.20063619849E+00  0.89454105881E+01  0.17770000000E+01 0.  1.
</event>
<event>
 6    1  0.1599106E-003  0.5249472E+03  0.7546771E-02  0.9345656E-01
        -11   -1    0    0    0    0  0.00000000000E+00  0.00000000000E+00  0.50000000000E+03  0.50000000000E+03  0.00000000000E+00 0. -1.
         11   -1    0    0    0    0 -0.00000000000E+00 -0.00000000000E+00 -0.50000000000E+03  0.50000000000E+03  0.00000000000E+00 0.  1.
        -11    1    1    2    0    0  0.10886303434E+01  0.10215296811E+02  0.42753830222E+03  0.42766170891E+03  0.00000000000E+00 0. -1.
         11    1    1    2    0    0 -0.35143966966E+01 -0.33095504343E+02 -0.47388557224E+03  0.47505283808E+03  0.00000000000E+00 0.  1.
        -15    1    1    2    0    0 -0.10835955635E+02  0.56904940706E+01 -0.22171328311E+02  0.25387500573E+02  0.17770000000E+01 0. -1.
         15    1    1    2    0    0  0.13261721988E+02  0.17189713461E+02  0.68518598330E+02  0.71897952440E+02  0.17770000000E+01 0.  1.
</event>
<event>
 6    1  0.1599106E-003  0.5005587E+03  0.7546771E-02  0.9398561E-01
        -11   -1    0    0    0    0  0.00000000000E+00  0.00000000000E+00  0.50000000000E+03  0.50000000000E+03  0.00000000000E+00 0. -1.
         11   -1    0    0    0    0 -0.00000000000E+00 -0.00000000000E+00 -0.50000000000E+03  0.50000000000E+03  0.00000000000E+00 0. -1.
        -11    1    1    2    0    0 -0.41477040788E+00 -0.73958352457E+01  0.49938641272E+03  0.49944134753E+03  0.00000000000E+00 0. -1.
         11    1    1    2    0    0 -0.91624405497E+01  0.13194725194E+01 -0.34964945142E+03  0.34977196887E+03  0.00000000000E+00 0. -1.
        -15    1    1    2    0    0  0.10390656679E+02  0.45576462859E+01 -0.64544745385E+02  0.65558521733E+02  0.17770000000E+01 0.  1.
         15    1    1    2    0    0 -0.81344572184E+00  0.15187164404E+01 -0.85192215916E+02  0.85228161868E+02  0.17770000000E+01 0. -1.
</event>
<event>
 6    1  0.1599106E-003  0.3696706E+03  0.7546771E-02  0.9750519E-01
        -11   -1    0    0    0    0  0.00000000000E+00  0.00000000000E+00  0.50000000000E+03  0.50000000000E+03  0.00000000000E+00 0. -1.
         11   -1    0    0    0    0 -0.00000000000E+00 -0.00000000000E+00 -0.50000000000E+03  0.50000000000E+03  0.00000000000E+00 0. -1.
        -11    1    1    2    0    0 -0.68009669593E+02  0.37074096800E+02  0.43196608900E+03  0.43885590557E+03  0.00000000000E+00 0. -1.
         11    1    1    2    0    0 -0.13812107385E+02  0.84722216595E+02 -0.31271201289E+03  0.32427986571E+03  0.00000000000E+00 0. -1.
        -15    1    1    2    0    0 -0.35148843441E+02 -0.40217463865E+02 -0.65297939801E+02  0.84379288136E+02  0.17770000000E+01 0.  1.
         15    1    1    2    0    0  0.11697062042E+03 -0.81578849530E+02 -0.53956136301E+02  0.15248494059E+03  0.17770000000E+01 0. -1.
</event>
<event>
 6    1  0.1599106E-003  0.5008992E+03  0.7546771E-02  0.9397800E-01
        -11   -1    0    0    0    0  0.00000000000E+00  0.00000000000E+00  0.50000000000E+03  0.50000000000E+03  0.00000000000E+00 0. -1.
         11   -1    0    0    0    0 -0.00000000000E+00 -0.00000000000E+00 -0.50000000000E+03  0.50000000000E+03  0.00000000000E+00 0. -1.
        -11    1    1    2    0    0 -0.91326727723E+00  0.12326357809E+02  0.42811362524E+03  0.42829201402E+03  0.00000000000E+00 0. -1.
         11    1    1    2    0    0 -0.55815318392E+00 -0.67959600174E+01 -0.49905424935E+03  0.49910083190E+03  0.00000000000E+00 0. -1.
        -15    1    1    2    0    0  0.99445785259E+00  0.42328263535E+01  0.13036810515E+02  0.13857197508E+02  0.17770000000E+01 0. -1.
         15    1    1    2    0    0  0.47696260855E+00 -0.97632241451E+01  0.57903813598E+02  0.58749956572E+02  0.17770000000E+01 0.  1.
</event>
<event>
 6    1  0.1599106E-003  0.5001901E+03  0.7546771E-02  0.9399384E-01
        -11   -1    0    0    0    0  0.00000000000E+00  0.00000000000E+00  0.50000000000E+03  0.50000000000E+03  0.00000000000E+00 0. -1.
         11   -1    0    0    0    0 -0.00000000000E+00 -0.00000000000E+00 -0.50000000000E+03  0.50000000000E+03  0.00000000000E+00 0.  1.
        -11    1    1    2    0    0 -0.23256705644E+01 -0.22788680081E+01  0.29171625101E+02  0.29352780005E+02  0.00000000000E+00 0. -1.
         11    1    1    2    0    0  0.80263484158E+01  0.38967541288E+01 -0.49973026510E+03  0.49980990869E+03  0.00000000000E+00 0.  1.
        -15    1    1    2    0    0 -0.52500201085E+01  0.59600012865E+01  0.28229667781E+03  0.28241398046E+03  0.17770000000E+01 0. -1.
         15    1    1    2    0    0 -0.45065774282E+00 -0.75778874072E+01  0.18826196219E+03  0.18842333085E+03  0.17770000000E+01 0.  1.
</event>
<event>
 6    1  0.1599106E-003  0.5035121E+03  0.7546771E-02  0.9391985E-01
        -11   -1    0    0    0    0  0.00000000000E+00  0.00000000000E+00  0.50000000000E+03  0.50000000000E+03  0.00000000000E+00 0. -1.
         11   -1    0    0    0    0 -0.00000000000E+00 -0.00000000000E+00 -0.50000000000E+03  0.50000000000E+03  0.00000000000E+00 0.  1.
        -11    1    1    2    0    0  0.44165798729E+01 -0.27345791887E+01  0.27506285892E+03  0.27511190534E+03  0.00000000000E+00 0. -1.
         11    1    1    2    0    0 -0.54762743368E+01 -0.38791505028E+01 -0.49644251332E+03  0.49648787137E+03  0.00000000000E+00 0.  1.
        -15    1    1    2    0    0  0.12247537631E+02  0.51068777592E+00  0.82495980042E+01  0.14882089109E+02  0.17770000000E+01 0.  1.
         15    1    1    2    0    0 -0.11187843167E+02  0.61030419156E+01  0.21313005639E+03  0.21351813418E+03  0.17770000000E+01 0. -1.
</event>
<event>
 6    1  0.1599106E-003  0.5247805E+03  0.7546771E-02  0.9346007E-01
        -11   -1    0    0    0    0  0.00000000000E+00  0.00000000000E+00  0.50000000000E+03  0.50000000000E+03  0.00000000000E+00 0.  1.
         11   -1    0    0    0    0 -0.00000000000E+00 -0.00000000000E+00 -0.50000000000E+03  0.50000000000E+03  0.00000000000E+00 0.  1.
        -11    1    1    2    0    0  0.18024729366E+02  0.26983553736E+02  0.43328925630E+03  0.43450268430E+03  0.00000000000E+00 0.  1.
         11    1    1    2    0    0  0.27924975081E+02 -0.99585718088E+01 -0.47429382687E+03  0.47521954041E+03  0.00000000000E+00 0.  1.
        -15    1    1    2    0    0 -0.42463319252E+02 -0.14738838035E+02  0.57594615862E+02  0.73079849027E+02  0.17770000000E+01 0. -1.
         15    1    1    2    0    0 -0.34863851956E+01 -0.22861438920E+01 -0.16590045294E+02  0.17197926255E+02  0.17770000000E+01 0.  1.
</event>
<event>
 6    1  0.1599106E-003  0.5035834E+03  0.7546771E-02  0.9391827E-01
        -11   -1    0    0    0    0  0.00000000000E+00  0.00000000000E+00  0.50000000000E+03  0.50000000000E+03  0.00000000000E+00 0.  1.
         11   -1    0    0    0    0 -0.00000000000E+00 -0.00000000000E+00 -0.50000000000E+03  0.50000000000E+03  0.00000000000E+00 0.  1.
        -11    1    1    2    0    0 -0.96276743650E+00 -0.20058506059E+00  0.69302021672E+02  0.69308999151E+02  0.00000000000E+00 0.  1.
         11    1    1    2    0    0  0.86076816266E+01  0.13786955418E+02 -0.49615043034E+03  0.49641658095E+03  0.00000000000E+00 0.  1.
        -15    1    1    2    0    0 -0.26696517752E+02 -0.43115134386E+01  0.39530718030E+03  0.39623505364E+03  0.17770000000E+01 0.  1.
         15    1    1    2    0    0  0.19051603562E+02 -0.92748569187E+01  0.31541228367E+02  0.38039366255E+02  0.17770000000E+01 0. -1.
</event>
<event>
 6    1  0.1599106E-003  0.5003593E+03  0.7546771E-02  0.9399006E-01
        -11   -1    0    0    0    0  0.00000000000E+00  0.00000000000E+00  0.50000000000E+03  0.50000000000E+03  0.00000000000E+00 0.  1.
         11   -1    0    0    0    0 -0.00000000000E+00 -0.00000000000E+00 -0.50000000000E+03  0.50000000000E+03  0.00000000000E+00 0. -1.
        -11    1    1    2    0    0 -0.72007594874E+01  0.32412114942E+01  0.49957830420E+03  0.49964070933E+03  0.00000000000E+00 0.  1.
         11    1    1    2    0    0  0.17851844872E+01  0.28377226333E+01 -0.16347469232E+03  0.16350906576E+03  0.00000000000E+00 0. -1.
        -15    1    1    2    0    0  0.84624918688E+01 -0.61587048612E+01 -0.77628842967E+02  0.78351377803E+02  0.17770000000E+01 0. -1.
         15    1    1    2    0    0 -0.30469168686E+01  0.79770733745E-01 -0.25847476891E+03  0.25849884711E+03  0.17770000000E+01 0. -1.
</event>
<event>
 6    1  0.1599106E-003  0.5024520E+03  0.7546771E-02  0.9394340E-01
        -11   -1    0    0    0    0  0.00000000000E+00  0.00000000000E+00  0.50000000000E+03  0.50000000000E+03  0.00000000000E+00 0.  1.
         11   -1    0    0    0    0 -0.00000000000E+00 -0.00000000000E+00 -0.50000000000E+03  0.50000000000E+03  0.00000000000E+00 0. -1.
        -11    1    1    2    0    0  0.20459384297E+02 -0.10093360493E+02  0.49702471993E+03  0.49754802236E+03  0.00000000000E+00 0.  1.
         11    1    1    2    0    0 -0.15565303041E+02  0.18775380347E+02 -0.33653514358E+03  0.33741768838E+03  0.00000000000E+00 0. -1.
        -15    1    1    2    0    0 -0.91823673855E+01  0.29419122184E+01 -0.99277166879E+01  0.13953064392E+02  0.17770000000E+01 0.  1.
         15    1    1    2    0    0  0.42882861297E+01 -0.11623932073E+02 -0.15056185966E+03  0.15108122487E+03  0.17770000000E+01 0. -1.
</event>
<event>
 6    1  0.1599106E-003  0.5415170E+03  0.7546771E-02  0.9311422E-01
        -11   -1    0    0    0    0  0.00000000000E+00  0.00000000000E+00  0.50000000000E+03  0.50000000000E+03  0.00000000000E+00 0.  1.
         11   -1    0    0    0    0 -0.00000000000E+00 -0.00000000000E+00 -0.50000000000E+03  0.50000000000E+03  0.00000000000E+00 0. -1.
        -11    1    1    2    0    0  0.67441725776E+01 -0.11194719047E+02  0.35591106991E+03  0.35615094452E+03  0.00000000000E+00 0.  1.
         11    1    1    2    0    0  0.12271807496E+01 -0.12710591146E+02 -0.45830515937E+03  0.45848302499E+03  0.00000000000E+00 0. -1.
        -15    1    1    2    0    0  0.31051148828E+02 -0.92819368917E+01  0.12514570140E+03  0.12928624252E+03  0.17770000000E+01 0.  1.
         15    1    1    2    0    0 -0.39022502156E+02  0.33187247084E+02 -0.22751611946E+02  0.56079787969E+02  0.17770000000E+01 0. -1.
</event>
<event>
 6    1  0.2507731E-003  0.5776779E+03  0.7546771E-02  0.9241026E-01
        -11   -1    0    0    0    0  0.00000000000E+00  0.00000000000E+00  0.50000000000E+03  0.50000000000E+03  0.00000000000E+00 0. -1.
         11   -1    0    0    0    0 -0.00000000000E+00 -0.00000000000E+00 -0.50000000000E+03  0.50000000000E+03  0.00000000000E+00 0.  1.
        -11    1    1    2    0    0  0.21791724501E+02 -0.65382712811E+01  0.24972366326E+03  0.25075792358E+03  0.00000000000E+00 0. -1.
         11    1    1    2    0    0 -0.85362654796E+02 -0.35142226284E+02 -0.41210949579E+03  0.42232214650E+03  0.00000000000E+00 0.  1.
        -15    1    1    2    0    0 -0.33942201610E+01 -0.17494538622E+01  0.22525977881E+03  0.22529915002E+03  0.17770000000E+01 0. -1.
         15    1    1    2    0    0  0.66965150456E+02  0.43429951427E+02 -0.62873946279E+02  0.10162077989E+03  0.17770000000E+01 0.  1.
</event>
<event>
 6    1  0.1599106E-003  0.5096221E+03  0.7546771E-02  0.9378533E-01
        -11   -1    0    0    0    0  0.00000000000E+00  0.00000000000E+00  0.50000000000E+03  0.50000000000E+03  0.00000000000E+00 0. -1.
         11   -1    0    0    0    0 -0.00000000000E+00 -0.00000000000E+00 -0.50000000000E+03  0.50000000000E+03  0.00000000000E+00 0.  1.
        -11    1    1    2    0    0  0.12449877484E+02 -0.68762072862E+01  0.42459650090E+03  0.42483463872E+03  0.00000000000E+00 0. -1.
         11    1    1    2    0    0  0.31216959655E+01  0.17158105977E+02 -0.49006766180E+03  0.49037787341E+03  0.00000000000E+00 0.  1.
        -15    1    1    2    0    0 -0.10045896282E+02 -0.28274233708E+02  0.21594726161E+02  0.37011380018E+02  0.17770000000E+01 0.  1.
         15    1    1    2    0    0 -0.55256771674E+01  0.17992335017E+02  0.43876434736E+02  0.47776107854E+02  0.17770000000E+01 0.  1.
</event>
<event>
 6    1  0.1599106E-003  0.5000791E+03  0.7546771E-02  0.9399633E-01
        -11   -1    0    0    0    0  0.00000000000E+00  0.00000000000E+00  0.50000000000E+03  0.50000000000E+03  0.00000000000E+00 0. -1.
         11   -1    0    0    0    0 -0.00000000000E+00 -0.00000000000E+00 -0.50000000000E+03  0.50000000000E+03  0.00000000000E+00 0.  1.
        -11    1    1    2    0    0 -0.53162165412E+00 -0.75874391780E+00  0.60229964218E+02  0.60237089103E+02  0.00000000000E+00 0. -1.
         11    1    1    2    0    0 -0.11697732982E+02  0.39425000819E+01 -0.49976845152E+03  0.49992087914E+03  0.00000000000E+00 0.  1.
        -15    1    1    2    0    0 -0.54881007163E+00 -0.24576797509E+01  0.54783800563E+02  0.54870428423E+02  0.17770000000E+01 0.  1.
         15    1    1    2    0    0  0.12778164708E+02 -0.72607641329E+00  0.38475468674E+03  0.38497160334E+03  0.17770000000E+01 0. -1.
</event>
<event>
 6    1  0.1599106E-003  0.4311406E+03  0.7546771E-02  0.9568616E-01
        -11   -1    0    0    0    0  0.00000000000E+00  0.00000000000E+00  0.50000000000E+03  0.50000000000E+03  0.00000000000E+00 0. -1.
         11   -1    0    0    0    0 -0.00000000000E+00 -0.00000000000E+00 -0.50000000000E+03  0.50000000000E+03  0.00000000000E+00 0.  1.
        -11    1    1    2    0    0 -0.11951423263E+02  0.15293045584E+01  0.42258038585E+03  0.42275212335E+03  0.00000000000E+00 0. -1.
         11    1    1    2    0    0 -0.46355731719E+02  0.36286724311E+02 -0.43853876417E+03  0.44247240355E+03  0.00000000000E+00 0.  1.
        -15    1    1    2    0    0  0.54826566952E+02 -0.37316576041E+02 -0.40796198374E+02  0.77884316919E+02  0.17770000000E+01 0. -1.
         15    1    1    2    0    0  0.34805880303E+01 -0.49945282826E+00  0.56754576695E+02  0.56891156175E+02  0.17770000000E+01 0.  1.
</event>
<event>
 6    1  0.1599106E-003  0.5004567E+03  0.7546771E-02  0.9398788E-01
        -11   -1    0    0    0    0  0.00000000000E+00  0.00000000000E+00  0.50000000000E+03  0.50000000000E+03  0.00000000000E+00 0.  1.
         11   -1    0    0    0    0 -0.00000000000E+00 -0.00000000000E+00 -0.50000000000E+03  0.50000000000E+03  0.00000000000E+00 0.  1.
        -11    1    1    2    0    0  0.49075438174E+00  0.37509611815E+01  0.10884842777E+03  0.10891414406E+03  0.00000000000E+00 0.  1.
         11    1    1    2    0    0  0.39392895201E+01 -0.62487345117E+01 -0.49948866462E+03  0.49954328217E+03  0.00000000000E+00 0.  1.
        -15    1    1    2    0    0 -0.10266176327E+02  0.50088126115E+01  0.79865589253E+02  0.80697909860E+02  0.17770000000E+01 0. -1.
         15    1    1    2    0    0  0.58361324256E+01 -0.25110392813E+01  0.31077464760E+03  0.31084466391E+03  0.17770000000E+01 0.  1.
</event>
<event>
 6    1  0.1599106E-003  0.5043484E+03  0.7546771E-02  0.9390132E-01
        -11   -1    0    0    0    0  0.00000000000E+00  0.00000000000E+00  0.50000000000E+03  0.50000000000E+03  0.00000000000E+00 0. -1.
         11   -1    0    0    0    0 -0.00000000000E+00 -0.00000000000E+00 -0.50000000000E+03  0.50000000000E+03  0.00000000000E+00 0.  1.
        -11    1    1    2    0    0  0.62369509230E+01  0.24820309035E+01  0.49147323605E+03  0.49151907571E+03  0.00000000000E+00 0. -1.
         11    1    1    2    0    0 -0.30419139419E+01 -0.62950984179E+01 -0.49560231102E+03  0.49565162382E+03  0.00000000000E+00 0.  1.
        -15    1    1    2    0    0 -0.39093305169E+01 -0.25742523689E+01  0.39535928604E-01  0.50068884987E+01  0.17770000000E+01 0. -1.
         15    1    1    2    0    0  0.71429353579E+00  0.63873198833E+01  0.40895390413E+01  0.78224119757E+01  0.17770000000E+01 0.  1.
</event>
<event>
 6    1  0.1599106E-003  0.5022966E+03  0.7546771E-02  0.9394685E-01
        -11   -1    0    0    0    0  0.00000000000E+00  0.00000000000E+00  0.50000000000E+03  0.50000000000E+03  0.00000000000E+00 0.  1.
         11   -1    0    0    0    0 -0.00000000000E+00 -0.00000000000E+00 -0.50000000000E+03  0.50000000000E+03  0.00000000000E+00 0. -1.
        -11    1    1    2    0    0 -0.19565301899E+01  0.62188516663E+01  0.39592695583E+03  0.39598062639E+03  0.00000000000E+00 0.  1.
         11    1    1    2    0    0 -0.81551859151E+01 -0.21076879061E+02 -0.49719000597E+03  0.49770336941E+03  0.00000000000E+00 0. -1.
        -15    1    1    2    0    0  0.38341710294E+01  0.96049045640E+01  0.94493450806E+01  0.14121009547E+02  0.17770000000E+01 0. -1.
         15    1    1    2    0    0  0.62775450756E+01  0.52531228306E+01  0.91813705065E+02  0.92194994649E+02  0.17770000000E+01 0.  1.
</event>
<event>
 6    1  0.1599106E-003  0.3371551E+03  0.7546771E-02  0.9862808E-01
        -11   -1    0    0    0    0  0.00000000000E+00  0.00000000000E+00  0.50000000000E+03  0.50000000000E+03  0.00000000000E+00 0.  1.
         11   -1    0    0    0    0 -0.00000000000E+00 -0.00000000000E+00 -0.50000000000E+03  0.50000000000E+03  0.00000000000E+00 0. -1.
        -11    1    1    2    0    0 -0.30169355246E+01  0.49370328601E+01  0.33222356299E+03  0.33227394120E+03  0.00000000000E+00 0.  1.
         11    1    1    2    0    0 -0.69082880539E+02 -0.10108877846E+03 -0.13055198451E+03  0.17898381540E+03  0.00000000000E+00 0. -1.
        -15    1    1    2    0    0  0.37049163130E+02  0.63966739662E+00  0.13345123545E+03  0.13851151445E+03  0.17770000000E+01 0.  1.
         15    1    1    2    0    0  0.35050652934E+02  0.95512078202E+02 -0.33512281393E+03  0.35023072895E+03  0.17770000000E+01 0. -1.
</event>
<event>
 6    1  0.1599106E-003  0.5013568E+03  0.7546771E-02  0.9396779E-01
        -11   -1    0    0    0    0  0.00000000000E+00  0.00000000000E+00  0.50000000000E+03  0.50000000000E+03  0.00000000000E+00 0. -1.
         11   -1    0    0    0    0 -0.00000000000E+00 -0.00000000000E+00 -0.50000000000E+03  0.50000000000E+03  0.00000000000E+00 0. -1.
        -11    1    1    2    0    0 -0.30827790244E+01  0.13535814371E+02  0.49844987432E+03  0.49864315799E+03  0.00000000000E+00 0. -1.
         11    1    1    2    0    0  0.21590317226E+01  0.10709877940E+02 -0.12510007823E+03  0.12557624169E+03  0.00000000000E+00 0. -1.
        -15    1    1    2    0    0 -0.13278657827E+02 -0.24296128808E+02 -0.27475119701E+03  0.27614851551E+03  0.17770000000E+01 0. -1.
         15    1    1    2    0    0  0.14202405128E+02  0.50436497671E-01 -0.98598599079E+02  0.99632084815E+02  0.17770000000E+01 0.  1.
</event>
<event>
 6    1  0.1599106E-003  0.5090486E+03  0.7546771E-02  0.9379787E-01
        -11   -1    0    0    0    0  0.00000000000E+00  0.00000000000E+00  0.50000000000E+03  0.50000000000E+03  0.00000000000E+00 0. -1.
         11   -1    0    0    0    0 -0.00000000000E+00 -0.00000000000E+00 -0.50000000000E+03  0.50000000000E+03  0.00000000000E+00 0.  1.
        -11    1    1    2    0    0  0.20199744998E+01 -0.11877981493E+02  0.11695627888E+03  0.11757524362E+03  0.00000000000E+00 0. -1.
         11    1    1    2    0    0 -0.49618082848E+02  0.68071707551E+02 -0.48367096649E+03  0.49095143889E+03  0.00000000000E+00 0.  1.
        -15    1    1    2    0    0  0.44429426084E+02 -0.17712918094E+02  0.34257518948E+03  0.34590264460E+03  0.17770000000E+01 0. -1.
         15    1    1    2    0    0  0.31686822641E+01 -0.38480807964E+02  0.24139498136E+02  0.45570672896E+02  0.17770000000E+01 0.  1.
</event>
<event>
 6    1  0.1599106E-003  0.5005464E+03  0.7546771E-02  0.9398588E-01
        -11   -1    0    0    0    0  0.00000000000E+00  0.00000000000E+00  0.50000000000E+03  0.50000000000E+03  0.00000000000E+00 0. -1.
         11   -1    0    0    0    0 -0.00000000000E+00 -0.00000000000E+00 -0.50000000000E+03  0.50000000000E+03  0.00000000000E+00 0.  1.
        -11    1    1    2    0    0  0.12253612714E+02 -0.19635156062E+01  0.49929942414E+03  0.49945362284E+03  0.00000000000E+00 0. -1.
         11    1    1    2    0    0 -0.26640236499E+01  0.55016224392E+01 -0.12805654808E+03  0.12820235714E+03  0.00000000000E+00 0.  1.
        -15    1    1    2    0    0 -0.41076134446E+01 -0.99472616147E+01 -0.60101704750E+02  0.61083493226E+02  0.17770000000E+01 0. -1.
         15    1    1    2    0    0 -0.54819756194E+01  0.64091547816E+01 -0.31114117132E+03  0.31126052679E+03  0.17770000000E+01 0.  1.
</event>
<event>
 6    1  0.1599106E-003  0.5169035E+03  0.7546771E-02  0.9362761E-01
        -11   -1    0    0    0    0  0.00000000000E+00  0.00000000000E+00  0.50000000000E+03  0.50000000000E+03  0.00000000000E+00 0.  1.
         11   -1    0    0    0    0 -0.00000000000E+00 -0.00000000000E+00 -0.50000000000E+03  0.50000000000E+03  0.00000000000E+00 0. -1.
        -11    1    1    2    0    0 -0.40012299878E+01  0.89746974418E+01  0.48299656816E+03  0.48309651198E+03  0.00000000000E+00 0.  1.
         11    1    1    2    0    0 -0.77192861258E+01  0.58689272919E+01 -0.45266825117E+03  0.45277210305E+03  0.00000000000E+00 0. -1.
        -15    1    1    2    0    0  0.93237773177E+01 -0.26316646760E+01  0.14524997782E+02  0.17549694357E+02  0.17770000000E+01 0.  1.
         15    1    1    2    0    0  0.23967387959E+01 -0.12211960058E+02 -0.44853314770E+02  0.46581690611E+02  0.17770000000E+01 0. -1.
</event>
<event>
 6    1  0.1599106E-003  0.5017346E+03  0.7546771E-02  0.9395937E-01
        -11   -1    0    0    0    0  0.00000000000E+00  0.00000000000E+00  0.50000000000E+03  0.50000000000E+03  0.00000000000E+00 0. -1.
         11   -1    0    0    0    0 -0.00000000000E+00 -0.00000000000E+00 -0.50000000000E+03  0.50000000000E+03  0.00000000000E+00 0. -1.
        -11    1    1    2    0    0  0.52202410612E+01 -0.50916296934E+01  0.26334796341E+03  0.26344890480E+03  0.00000000000E+00 0. -1.
         11    1    1    2    0    0  0.63953465607E+01 -0.86205114036E+01 -0.49814973130E+03  0.49826535949E+03  0.00000000000E+00 0. -1.
        -15    1    1    2    0    0  0.13973774625E+01 -0.40997914620E+00 -0.36778041821E+00  0.23267441005E+01  0.17770000000E+01 0.  1.
         15    1    1    2    0    0 -0.13012965084E+02  0.14122120243E+02  0.23516954831E+03  0.23595899161E+03  0.17770000000E+01 0.  1.
</event>
<event>
 6    1  0.1599106E-003  0.4831192E+03  0.7546771E-02  0.9438395E-01
        -11   -1    0    0    0    0  0.00000000000E+00  0.00000000000E+00  0.50000000000E+03  0.50000000000E+03  0.00000000000E+00 0. -1.
         11   -1    0    0    0    0 -0.00000000000E+00 -0.00000000000E+00 -0.50000000000E+03  0.50000000000E+03  0.00000000000E+00 0.  1.
        -11    1    1    2    0    0  0.73279652014E+01  0.88662293086E+01  0.48362860758E+03  0.48376537616E+03  0.00000000000E+00 0. -1.
         11    1    1    2    0    0  0.46604521250E+01  0.76110168550E+01 -0.48260598803E+03  0.48268849901E+03  0.00000000000E+00 0.  1.
        -15    1    1    2    0    0  0.30854822007E+01 -0.17131517266E+01 -0.98441529222E+01  0.10607552263E+02  0.17770000000E+01 0. -1.
         15    1    1    2    0    0 -0.15073899527E+02 -0.14764094437E+02  0.88215333701E+01  0.22938572569E+02  0.17770000000E+01 0.  1.
</event>
<event>
 6    1  0.1599106E-003  0.5341220E+03  0.7546771E-02  0.9326538E-01
        -11   -1    0    0    0    0  0.00000000000E+00  0.00000000000E+00  0.50000000000E+03  0.50000000000E+03  0.00000000000E+00 0. -1.
         11   -1    0    0    0    0 -0.00000000000E+00 -0.00000000000E+00 -0.50000000000E+03  0.50000000000E+03  0.00000000000E+00 0. -1.
        -11    1    1    2    0    0  0.77222140821E+01  0.79450025342E+00  0.46581328041E+03  0.46587796259E+03  0.00000000000E+00 0. -1.
         11    1    1    2    0    0 -0.68997265774E+01 -0.22144619463E+02 -0.41514205848E+03  0.41578951299E+03  0.00000000000E+00 0. -1.
        -15    1    1    2    0    0  0.59208903474E+01  0.21394044262E+02  0.29999125965E+02  0.37361308329E+02  0.17770000000E+01 0.  1.
         15    1    1    2    0    0 -0.67433778522E+01 -0.43925052689E-01 -0.80670347902E+02  0.80971216083E+02  0.17770000000E+01 0. -1.
</event>
<event>
 6    1  0.1599106E-003  0.5164722E+03  0.7546771E-02  0.9363688E-01
        -11   -1    0    0    0    0  0.00000000000E+00  0.00000000000E+00  0.50000000000E+03  0.50000000000E+03  0.00000000000E+00 0. -1.
         11   -1    0    0    0    0 -0.00000000000E+00 -0.00000000000E+00 -0.50000000000E+03  0.50000000000E+03  0.00000000000E+00 0. -1.
        -11    1    1    2    0    0  0.17954520324E+02 -0.73544363749E+01  0.48313836148E+03  0.48352779534E+03  0.00000000000E+00 0. -1.
         11    1    1    2    0    0  0.22090071539E+02 -0.13315274752E+02 -0.26433586196E+03  0.26559125686E+03  0.00000000000E+00 0. -1.
        -15    1    1    2    0    0  0.29851067087E+02  0.35057916724E+02 -0.12344550268E+03  0.13176529738E+03  0.17770000000E+01 0.  1.
         15    1    1    2    0    0 -0.69895658950E+02 -0.14388205597E+02 -0.95356996835E+02  0.11911565042E+03  0.17770000000E+01 0. -1.
</event>
<event>
 6    1  0.1599106E-003  0.4665709E+03  0.7546771E-02  0.9477882E-01
        -11   -1    0    0    0    0  0.00000000000E+00  0.00000000000E+00  0.50000000000E+03  0.50000000000E+03  0.00000000000E+00 0.  1.
         11   -1    0    0    0    0 -0.00000000000E+00 -0.00000000000E+00 -0.50000000000E+03  0.50000000000E+03  0.00000000000E+00 0.  1.
        -11    1    1    2    0    0  0.50236717359E+01  0.81682581799E+01  0.47176345474E+03  0.47186090636E+03  0.00000000000E+00 0.  1.
         11    1    1    2    0    0  0.83419688094E+01  0.87210884210E+01 -0.46142893791E+03  0.46158673136E+03  0.00000000000E+00 0.  1.
        -15    1    1    2    0    0  0.98945347935E+01 -0.28888763486E+02  0.11239390492E+02  0.32587483827E+02  0.17770000000E+01 0. -1.
         15    1    1    2    0    0 -0.23260175339E+02  0.11999416885E+02 -0.21573907318E+02  0.33964878454E+02  0.17770000000E+01 0.  1.
</event>
<event>
 6    1  0.1599106E-003  0.5005735E+03  0.7546771E-02  0.9398527E-01
        -11   -1    0    0    0    0  0.00000000000E+00  0.00000000000E+00  0.50000000000E+03  0.50000000000E+03  0.00000000000E+00 0. -1.
         11   -1    0    0    0    0 -0.00000000000E+00 -0.00000000000E+00 -0.50000000000E+03  0.50000000000E+03  0.00000000000E+00 0.  1.
        -11    1    1    2    0    0 -0.15733451554E+01 -0.89437188404E+01  0.38084380244E+03  0.38095205391E+03  0.00000000000E+00 0. -1.
         11    1    1    2    0    0  0.70987562646E+01  0.10057753439E+01 -0.49937502660E+03  0.49942649221E+03  0.00000000000E+00 0.  1.
        -15    1    1    2    0    0 -0.74340408617E+01 -0.11842077093E+00  0.55546470116E+02  0.56070019247E+02  0.17770000000E+01 0. -1.
         15    1    1    2    0    0  0.19086297525E+01  0.80563642675E+01  0.62984754043E+02  0.63551434631E+02  0.17770000000E+01 0.  1.
</event>
<event>
 6    1  0.1599106E-003  0.5041553E+03  0.7546771E-02  0.9390560E-01
        -11   -1    0    0    0    0  0.00000000000E+00  0.00000000000E+00  0.50000000000E+03  0.50000000000E+03  0.00000000000E+00 0. -1.
         11   -1    0    0    0    0 -0.00000000000E+00 -0.00000000000E+00 -0.50000000000E+03  0.50000000000E+03  0.00000000000E+00 0.  1.
        -11    1    1    2    0    0  0.14313093022E+02  0.83112719954E+00  0.49563735176E+03  0.49584467312E+03  0.00000000000E+00 0. -1.
         11    1    1    2    0    0 -0.40894648665E+01  0.10520452744E+02 -0.46327503119E+03  0.46341251404E+03  0.00000000000E+00 0.  1.
        -15    1    1    2    0    0 -0.14727928385E+02 -0.61440573799E+01 -0.28341373814E+02  0.32573801042E+02  0.17770000000E+01 0. -1.
         15    1    1    2    0    0  0.45043002294E+01 -0.52075225637E+01 -0.40209467574E+01  0.81690117906E+01  0.17770000000E+01 0.  1.
</event>
<event>
 6    1  0.1599106E-003  0.5596529E+03  0.7546771E-02  0.9275411E-01
        -11   -1    0    0    0    0  0.00000000000E+00  0.00000000000E+00  0.50000000000E+03  0.50000000000E+03  0.00000000000E+00 0. -1.
         11   -1    0    0    0    0 -0.00000000000E+00 -0.00000000000E+00 -0.50000000000E+03  0.50000000000E+03  0.00000000000E+00 0. -1.
        -11    1    1    2    0    0 -0.39191388167E+01  0.16807587409E+02  0.44000871731E+03  0.44034705171E+03  0.00000000000E+00 0. -1.
         11    1    1    2    0    0  0.36129646542E+02  0.65120587351E+01 -0.27112570515E+03  0.27359990179E+03  0.00000000000E+00 0. -1.
        -15    1    1    2    0    0  0.11059592541E+02 -0.41869588897E+02  0.47673818945E+02  0.64430798562E+02  0.17770000000E+01 0.  1.
         15    1    1    2    0    0 -0.43270100266E+02  0.18549942752E+02 -0.21655683110E+03  0.22162224793E+03  0.17770000000E+01 0. -1.
</event>
<event>
 6    1  0.1599106E-003  0.5017130E+03  0.7546771E-02  0.9395985E-01
        -11   -1    0    0    0    0  0.00000000000E+00  0.00000000000E+00  0.50000000000E+03  0.50000000000E+03  0.00000000000E+00 0. -1.
         11   -1    0    0    0    0 -0.00000000000E+00 -0.00000000000E+00 -0.50000000000E+03  0.50000000000E+03  0.00000000000E+00 0.  1.
        -11    1    1    2    0    0  0.56499268315E+01 -0.45528937159E+01  0.49823416844E+03  0.49828700276E+03  0.00000000000E+00 0. -1.
         11    1    1    2    0    0  0.72678173297E+01 -0.15985786590E+02 -0.27774243499E+03  0.27829701173E+03  0.00000000000E+00 0.  1.
        -15    1    1    2    0    0 -0.98430337182E+01  0.21700264979E+02 -0.21696900218E+03  0.21828076518E+03  0.17770000000E+01 0.  1.
         15    1    1    2    0    0 -0.30747104430E+01 -0.11615846723E+01 -0.35227312753E+01  0.51352203358E+01  0.17770000000E+01 0. -1.
</event>
<event>
 6    1  0.1599106E-003  0.5036778E+03  0.7546771E-02  0.9391618E-01
        -11   -1    0    0    0    0  0.00000000000E+00  0.00000000000E+00  0.50000000000E+03  0.50000000000E+03  0.00000000000E+00 0. -1.
         11   -1    0    0    0    0 -0.00000000000E+00 -0.00000000000E+00 -0.50000000000E+03  0.50000000000E+03  0.00000000000E+00 0.  1.
        -11    1    1    2    0    0 -0.16635717859E+01 -0.11147166952E+02  0.49619417739E+03  0.49632216199E+03  0.00000000000E+00 0. -1.
         11    1    1    2    0    0  0.26730319832E+01  0.62011794738E+01 -0.47485671788E+03  0.47490472965E+03  0.00000000000E+00 0.  1.
        -15    1    1    2    0    0 -0.46258511817E+01 -0.12948011812E+01 -0.20692112523E+02  0.21316572401E+02  0.17770000000E+01 0.  1.
         15    1    1    2    0    0  0.36163909843E+01  0.62407886590E+01 -0.64534699303E+00  0.74565359638E+01  0.17770000000E+01 0. -1.
</event>
<event>
 6    1  0.1599106E-003  0.5025346E+03  0.7546771E-02  0.9394156E-01
        -11   -1    0    0    0    0  0.00000000000E+00  0.00000000000E+00  0.50000000000E+03  0.50000000000E+03  0.00000000000E+00 0.  1.
         11   -1    0    0    0    0 -0.00000000000E+00 -0.00000000000E+00 -0.50000000000E+03  0.50000000000E+03  0.00000000000E+00 0. -1.
        -11    1    1    2    0    0  0.10016448112E+01  0.10127514612E+02  0.49736129597E+03  0.49746540440E+03  0.00000000000E+00 0.  1.
         11    1    1    2    0    0  0.11261160471E+01 -0.67858906036E+01 -0.44562478037E+03  0.44567786722E+03  0.00000000000E+00 0. -1.
        -15    1    1    2    0    0  0.18824805986E+01 -0.58606633556E+01 -0.17866245430E+01  0.66513806409E+01  0.17770000000E+01 0.  1.
         15    1    1    2    0    0 -0.40102414569E+01  0.25190393474E+01 -0.49949891056E+02  0.50205347736E+02  0.17770000000E+01 0. -1.
</event>
<event>
 6    1  0.1599106E-003  0.4857049E+03  0.7546771E-02  0.9432377E-01
        -11   -1    0    0    0    0  0.00000000000E+00  0.00000000000E+00  0.50000000000E+03  0.50000000000E+03  0.00000000000E+00 0. -1.
         11   -1    0    0    0    0 -0.00000000000E+00 -0.00000000000E+00 -0.50000000000E+03  0.50000000000E+03  0.00000000000E+00 0. -1.
        -11    1    1    2    0    0 -0.43051905869E+01  0.54123626092E+01  0.48465591388E+03  0.48470525394E+03  0.00000000000E+00 0. -1.
         11    1    1    2    0    0  0.96880590752E+01 -0.32131466988E+01 -0.48661688562E+03  0.48672392193E+03  0.00000000000E+00 0. -1.
        -15    1    1    2    0    0  0.28592369016E+01 -0.13046579706E+02 -0.32781502441E+01  0.13866956253E+02  0.17770000000E+01 0. -1.
         15    1    1    2    0    0 -0.82421053899E+01  0.10847363796E+02  0.52391219901E+01  0.14703867886E+02  0.17770000000E+01 0.  1.
</event>
<event>
 6    1  0.1599106E-003  0.4784082E+03  0.7546771E-02  0.9449463E-01
        -11   -1    0    0    0    0  0.00000000000E+00  0.00000000000E+00  0.50000000000E+03  0.50000000000E+03  0.00000000000E+00 0. -1.
         11   -1    0    0    0    0 -0.00000000000E+00 -0.00000000000E+00 -0.50000000000E+03  0.50000000000E+03  0.00000000000E+00 0.  1.
        -11    1    1    2    0    0 -0.88306177874E+01 -0.56023925989E+01  0.49141093681E+03  0.49152220237E+03  0.00000000000E+00 0. -1.
         11    1    1    2    0    0 -0.52353395180E+00 -0.83781065241E+00 -0.15246606363E+02  0.15278580434E+02  0.00000000000E+00 0.  1.
        -15    1    1    2    0    0 -0.12329771730E+02 -0.62401235786E+01 -0.46573411143E+03  0.46594246714E+03  0.17770000000E+01 0.  1.
         15    1    1    2    0    0  0.21683923469E+02  0.12680326830E+02 -0.10430219017E+02  0.27256750050E+02  0.17770000000E+01 0. -1.
</event>
<event>
 6    1  0.1599106E-003  0.5045808E+03  0.7546771E-02  0.9389618E-01
        -11   -1    0    0    0    0  0.00000000000E+00  0.00000000000E+00  0.50000000000E+03  0.50000000000E+03  0.00000000000E+00 0.  1.
         11   -1    0    0    0    0 -0.00000000000E+00 -0.00000000000E+00 -0.50000000000E+03  0.50000000000E+03  0.00000000000E+00 0.  1.
        -11    1    1    2    0    0 -0.17488672073E+00  0.86991866698E+01  0.49534273948E+03  0.49541915182E+03  0.00000000000E+00 0.  1.
         11    1    1    2    0    0  0.13555938288E+02  0.75658827010E+00 -0.37134422611E+03  0.37159234405E+03  0.00000000000E+00 0.  1.
        -15    1    1    2    0    0 -0.24078289313E+01 -0.69863986318E+01  0.82652395445E+00  0.76451472747E+01  0.17770000000E+01 0.  1.
         15    1    1    2    0    0 -0.10973222636E+02 -0.24693763081E+01 -0.12482503732E+03  0.12534335685E+03  0.17770000000E+01 0. -1.
</event>
<event>
 6    1  0.1599106E-003  0.5117895E+03  0.7546771E-02  0.9373809E-01
        -11   -1    0    0    0    0  0.00000000000E+00  0.00000000000E+00  0.50000000000E+03  0.50000000000E+03  0.00000000000E+00 0. -1.
         11   -1    0    0    0    0 -0.00000000000E+00 -0.00000000000E+00 -0.50000000000E+03  0.50000000000E+03  0.00000000000E+00 0. -1.
        -11    1    1    2    0    0  0.70274854593E+01  0.14572744872E+00  0.48815984985E+03  0.48821045236E+03  0.00000000000E+00 0. -1.
         11    1    1    2    0    0  0.16103962290E+02 -0.75454182391E+01 -0.45218576628E+03  0.45253534465E+03  0.00000000000E+00 0. -1.
        -15    1    1    2    0    0 -0.16441087378E+02  0.22871342775E+02 -0.30231186893E+02  0.41358071334E+02  0.17770000000E+01 0. -1.
         15    1    1    2    0    0 -0.66903603714E+01 -0.15471651985E+02 -0.57428966777E+01  0.17896131657E+02  0.17770000000E+01 0.  1.
</event>
<event>
 6    1  0.1599106E-003  0.5032139E+03  0.7546771E-02  0.9392647E-01
        -11   -1    0    0    0    0  0.00000000000E+00  0.00000000000E+00  0.50000000000E+03  0.50000000000E+03  0.00000000000E+00 0. -1.
         11   -1    0    0    0    0 -0.00000000000E+00 -0.00000000000E+00 -0.50000000000E+03  0.50000000000E+03  0.00000000000E+00 0. -1.
        -11    1    1    2    0    0 -0.98289961487E+01 -0.16353220188E+01  0.49668619497E+03  0.49678613076E+03  0.00000000000E+00 0. -1.
         11    1    1    2    0    0  0.36985477252E+00  0.69247782322E+01 -0.40260199062E+03  0.40266170938E+03  0.00000000000E+00 0. -1.
        -15    1    1    2    0    0 -0.32668722321E+01 -0.53163591145E+01 -0.83915165033E+02  0.84165603306E+02  0.17770000000E+01 0.  1.
         15    1    1    2    0    0  0.12726013608E+02  0.26902901126E-01 -0.10169039315E+02  0.16386556555E+02  0.17770000000E+01 0. -1.
</event>
<event>
 6    1  0.1599106E-003  0.5002112E+03  0.7546771E-02  0.9399337E-01
        -11   -1    0    0    0    0  0.00000000000E+00  0.00000000000E+00  0.50000000000E+03  0.50000000000E+03  0.00000000000E+00 0. -1.
         11   -1    0    0    0    0 -0.00000000000E+00 -0.00000000000E+00 -0.50000000000E+03  0.50000000000E+03  0.00000000000E+00 0.  1.
        -11    1    1    2    0    0 -0.48106661128E+01  0.74603723223E+01  0.49970994207E+03  0.49978878126E+03  0.00000000000E+00 0. -1.
         11    1    1    2    0    0 -0.68201589988E+00 -0.36011767550E+01 -0.12081818562E+03  0.12087376720E+03  0.00000000000E+00 0.  1.
        -15    1    1    2    0    0  0.33367211916E+01  0.39099426761E+01 -0.29284700317E+03  0.29289750145E+03  0.17770000000E+01 0.  1.
         15    1    1    2    0    0  0.21559608210E+01 -0.77691382434E+01 -0.86044753285E+02  0.86439950098E+02  0.17770000000E+01 0. -1.
</event>
<event>
 6    1  0.1599106E-003  0.5080190E+03  0.7546771E-02  0.9382043E-01
        -11   -1    0    0    0    0  0.00000000000E+00  0.00000000000E+00  0.50000000000E+03  0.50000000000E+03  0.00000000000E+00 0.  1.
         11   -1    0    0    0    0 -0.00000000000E+00 -0.00000000000E+00 -0.50000000000E+03  0.50000000000E+03  0.00000000000E+00 0. -1.
        -11    1    1    2    0    0  0.74182846172E+01  0.40843838638E+01  0.47895231306E+03  0.47902717180E+03  0.00000000000E+00 0.  1.
         11    1    1    2    0    0 -0.91474312129E+01  0.10978595942E-01 -0.49189600057E+03  0.49198104739E+03  0.00000000000E+00 0. -1.
        -15    1    1    2    0    0 -0.80625992448E+01 -0.18711879854E+01  0.16207341673E+02  0.18285034978E+02  0.17770000000E+01 0. -1.
         15    1    1    2    0    0  0.97917458405E+01 -0.22241744744E+01 -0.32636541667E+01  0.10706745828E+02  0.17770000000E+01 0.  1.
</event>
<event>
 6    1  0.1599106E-003  0.5010023E+03  0.7546771E-02  0.9397570E-01
        -11   -1    0    0    0    0  0.00000000000E+00  0.00000000000E+00  0.50000000000E+03  0.50000000000E+03  0.00000000000E+00 0. -1.
         11   -1    0    0    0    0 -0.00000000000E+00 -0.00000000000E+00 -0.50000000000E+03  0.50000000000E+03  0.00000000000E+00 0.  1.
        -11    1    1    2    0    0  0.14127936122E+02  0.44902602172E+01  0.49877742568E+03  0.49899767673E+03  0.00000000000E+00 0. -1.
         11    1    1    2    0    0  0.39291498606E+01 -0.29079391854E+01 -0.29591411529E+03  0.29595448630E+03  0.00000000000E+00 0.  1.
        -15    1    1    2    0    0 -0.20971692886E+02  0.52326263359E+01 -0.16550454290E+03  0.16691945282E+03  0.17770000000E+01 0.  1.
         15    1    1    2    0    0  0.29146069030E+01 -0.68149473677E+01 -0.37358767486E+02  0.38128384153E+02  0.17770000000E+01 0. -1.
</event>
<event>
 6    1  0.1599106E-003  0.5035006E+03  0.7546771E-02  0.9392011E-01
        -11   -1    0    0    0    0  0.00000000000E+00  0.00000000000E+00  0.50000000000E+03  0.50000000000E+03  0.00000000000E+00 0.  1.
         11   -1    0    0    0    0 -0.00000000000E+00 -0.00000000000E+00 -0.50000000000E+03  0.50000000000E+03  0.00000000000E+00 0.  1.
        -11    1    1    2    0    0  0.13972837801E+02 -0.55219387676E+01  0.40470573312E+03  0.40498452121E+03  0.00000000000E+00 0.  1.
         11    1    1    2    0    0 -0.18090166552E+01  0.15268254129E+02 -0.49626128979E+03  0.49649940571E+03  0.00000000000E+00 0.  1.
        -15    1    1    2    0    0 -0.71149051535E+01  0.52871777854E+01  0.74921923968E+02  0.75465412901E+02  0.17770000000E+01 0.  1.
         15    1    1    2    0    0 -0.50489159922E+01 -0.15033493147E+02  0.16633632703E+02  0.23050660181E+02  0.17770000000E+01 0. -1.
</event>
<event>
 6    1  0.1599106E-003  0.5124416E+03  0.7546771E-02  0.9372393E-01
        -11   -1    0    0    0    0  0.00000000000E+00  0.00000000000E+00  0.50000000000E+03  0.50000000000E+03  0.00000000000E+00 0. -1.
         11   -1    0    0    0    0 -0.00000000000E+00 -0.00000000000E+00 -0.50000000000E+03  0.50000000000E+03  0.00000000000E+00 0. -1.
        -11    1    1    2    0    0 -0.54510534431E+01  0.15729475061E+02  0.48727408849E+03  0.48755837361E+03  0.00000000000E+00 0. -1.
         11    1    1    2    0    0 -0.38147891728E+01  0.12036317038E+02 -0.43781801414E+03  0.43800004457E+03  0.00000000000E+00 0. -1.
        -15    1    1    2    0    0  0.15225478911E+02 -0.41202645126E+01 -0.47305531671E+02  0.49897523420E+02  0.17770000000E+01 0. -1.
         15    1    1    2    0    0 -0.59596362952E+01 -0.23645527587E+02 -0.21505426796E+01  0.24544058394E+02  0.17770000000E+01 0.  1.
</event>
<event>
 6    1  0.1599106E-003  0.5260235E+03  0.7546771E-02  0.9343392E-01
        -11   -1    0    0    0    0  0.00000000000E+00  0.00000000000E+00  0.50000000000E+03  0.50000000000E+03  0.00000000000E+00 0.  1.
         11   -1    0    0    0    0 -0.00000000000E+00 -0.00000000000E+00 -0.50000000000E+03  0.50000000000E+03  0.00000000000E+00 0.  1.
        -11    1    1    2    0    0 -0.64974540951E+01 -0.58244127013E+01  0.43428951896E+03  0.43437717132E+03  0.00000000000E+00 0.  1.
         11    1    1    2    0    0 -0.10290284072E+02  0.41496173480E+01 -0.47384664000E+03  0.47397652633E+03  0.00000000000E+00 0.  1.
        -15    1    1    2    0    0  0.44265711633E+01 -0.28141569722E-01  0.63982868305E+02  0.64160427755E+02  0.17770000000E+01 0.  1.
         15    1    1    2    0    0  0.12361167004E+02  0.17029369230E+01 -0.24425747257E+02  0.27485874589E+02  0.17770000000E+01 0. -1.
</event>
<event>
 6    1  0.1599106E-003  0.5221053E+03  0.7546771E-02  0.9351662E-01
        -11   -1    0    0    0    0  0.00000000000E+00  0.00000000000E+00  0.50000000000E+03  0.50000000000E+03  0.00000000000E+00 0.  1.
         11   -1    0    0    0    0 -0.00000000000E+00 -0.00000000000E+00 -0.50000000000E+03  0.50000000000E+03  0.00000000000E+00 0.  1.
        -11    1    1    2    0    0  0.14160116808E+02  0.29033797691E+02  0.47680175901E+03  0.47789474543E+03  0.00000000000E+00 0.  1.
         11    1    1    2    0    0  0.80337907396E+01  0.95110758375E+01 -0.37127236835E+03  0.37148105451E+03  0.00000000000E+00 0.  1.
        -15    1    1    2    0    0 -0.17830425850E+02 -0.32741893168E+02  0.68913046076E+01  0.37955282404E+02  0.17770000000E+01 0. -1.
         15    1    1    2    0    0 -0.43634816968E+01 -0.58029803604E+01 -0.11242069526E+03  0.11266891765E+03  0.17770000000E+01 0.  1.
</event>
<event>
 6    1  0.1599106E-003  0.5005959E+03  0.7546771E-02  0.9398477E-01
        -11   -1    0    0    0    0  0.00000000000E+00  0.00000000000E+00  0.50000000000E+03  0.50000000000E+03  0.00000000000E+00 0. -1.
         11   -1    0    0    0    0 -0.00000000000E+00 -0.00000000000E+00 -0.50000000000E+03  0.50000000000E+03  0.00000000000E+00 0.  1.
        -11    1    1    2    0    0  0.57241469836E+01  0.30744271494E+01  0.44295508705E+03  0.44300273939E+03  0.00000000000E+00 0. -1.
         11    1    1    2    0    0  0.14276643357E+01 -0.73198501349E+01 -0.49934844219E+03  0.49940413008E+03  0.00000000000E+00 0.  1.
        -15    1    1    2    0    0 -0.51781993209E+01  0.54518744548E+01  0.49626896413E+02  0.50224727574E+02  0.17770000000E+01 0.  1.
         15    1    1    2    0    0 -0.19736119984E+01 -0.12064514692E+01  0.67664587200E+01  0.73684029529E+01  0.17770000000E+01 0. -1.
</event>
<event>
 6    1  0.1599106E-003  0.5188607E+03  0.7546771E-02  0.9358569E-01
        -11   -1    0    0    0    0  0.00000000000E+00  0.00000000000E+00  0.50000000000E+03  0.50000000000E+03  0.00000000000E+00 0.  1.
         11   -1    0    0    0    0 -0.00000000000E+00 -0.00000000000E+00 -0.50000000000E+03  0.50000000000E+03  0.00000000000E+00 0. -1.
        -11    1    1    2    0    0 -0.15022765581E+02  0.73817532946E+01  0.48084806857E+03  0.48113931331E+03  0.00000000000E+00 0.  1.
         11    1    1    2    0    0  0.61206671533E+00 -0.62949090836E+01 -0.44450335937E+03  0.44454835170E+03  0.00000000000E+00 0. -1.
        -15    1    1    2    0    0 -0.11345386053E+02  0.70871305276E+00 -0.45445330416E+02  0.46879162156E+02  0.17770000000E+01 0.  1.
         15    1    1    2    0    0  0.25756084918E+02 -0.17955572638E+01  0.91006212169E+01  0.27433172834E+02  0.17770000000E+01 0. -1.
</event>
<event>
 6    1  0.1599106E-003  0.4701371E+03  0.7546771E-02  0.9469227E-01
        -11   -1    0    0    0    0  0.00000000000E+00  0.00000000000E+00  0.50000000000E+03  0.50000000000E+03  0.00000000000E+00 0.  1.
         11   -1    0    0    0    0 -0.00000000000E+00 -0.00000000000E+00 -0.50000000000E+03  0.50000000000E+03  0.00000000000E+00 0.  1.
        -11    1    1    2    0    0  0.17634550546E+02  0.24965731410E+02  0.46515799697E+03  0.46616116018E+03  0.00000000000E+00 0.  1.
         11    1    1    2    0    0  0.97800205487E+01 -0.68749911695E+01 -0.47458325464E+03  0.47473379898E+03  0.00000000000E+00 0.  1.
        -15    1    1    2    0    0 -0.23261043704E+02 -0.28577721941E+02  0.21326775732E+02  0.42611635004E+02  0.17770000000E+01 0.  1.
         15    1    1    2    0    0 -0.41535273904E+01  0.10486981701E+02 -0.11901518062E+02  0.16493405838E+02  0.17770000000E+01 0. -1.
</event>
<event>
 6    1  0.1599106E-003  0.4763126E+03  0.7546771E-02  0.9454430E-01
        -11   -1    0    0    0    0  0.00000000000E+00  0.00000000000E+00  0.50000000000E+03  0.50000000000E+03  0.00000000000E+00 0.  1.
         11   -1    0    0    0    0 -0.00000000000E+00 -0.00000000000E+00 -0.50000000000E+03  0.50000000000E+03  0.00000000000E+00 0.  1.
        -11    1    1    2    0    0 -0.15273064957E+02 -0.81814839787E+00  0.47562252799E+03  0.47586839043E+03  0.00000000000E+00 0.  1.
         11    1    1    2    0    0  0.28980629353E+01 -0.30886708792E+02 -0.47635574314E+03  0.47736483068E+03  0.00000000000E+00 0.  1.
        -15    1    1    2    0    0  0.16568529575E+01  0.19845758067E+02  0.15214646546E+02  0.25124539270E+02  0.17770000000E+01 0. -1.
         15    1    1    2    0    0  0.10718149064E+02  0.11859099122E+02 -0.14481431400E+02  0.21642239619E+02  0.17770000000E+01 0.  1.
</event>
<event>
 6    1  0.1599106E-003  0.4541395E+03  0.7546771E-02  0.9508711E-01
        -11   -1    0    0    0    0  0.00000000000E+00  0.00000000000E+00  0.50000000000E+03  0.50000000000E+03  0.00000000000E+00 0.  1.
         11   -1    0    0    0    0 -0.00000000000E+00 -0.00000000000E+00 -0.50000000000E+03  0.50000000000E+03  0.00000000000E+00 0. -1.
        -11    1    1    2    0    0  0.17087467583E+02 -0.17422719611E+02  0.44772297736E+03  0.44838755242E+03  0.00000000000E+00 0.  1.
         11    1    1    2    0    0  0.13502457605E+02  0.17737796611E+01 -0.46042861029E+03  0.46062996845E+03  0.00000000000E+00 0. -1.
        -15    1    1    2    0    0 -0.77226366300E+01 -0.18978121084E+01 -0.34606705874E+02  0.35553095896E+02  0.17770000000E+01 0.  1.
         15    1    1    2    0    0 -0.22867288558E+02  0.17546752058E+02  0.47312338805E+02  0.55429383237E+02  0.17770000000E+01 0. -1.
</event>
<event>
 6    1  0.1599106E-003  0.4471382E+03  0.7546771E-02  0.9526540E-01
        -11   -1    0    0    0    0  0.00000000000E+00  0.00000000000E+00  0.50000000000E+03  0.50000000000E+03  0.00000000000E+00 0.  1.
         11   -1    0    0    0    0 -0.00000000000E+00 -0.00000000000E+00 -0.50000000000E+03  0.50000000000E+03  0.00000000000E+00 0. -1.
        -11    1    1    2    0    0 -0.63879194645E+02  0.71568542102E+01  0.44008535579E+03  0.44475486783E+03  0.00000000000E+00 0.  1.
         11    1    1    2    0    0  0.12680519336E+02  0.54328683085E+02 -0.44969785299E+03  0.45314518685E+03  0.00000000000E+00 0. -1.
        -15    1    1    2    0    0  0.31194981921E+02 -0.42554717240E+01  0.24163629244E+02  0.39727504878E+02  0.17770000000E+01 0.  1.
         15    1    1    2    0    0  0.20003693388E+02 -0.57230065571E+02 -0.14551132044E+02  0.62372440446E+02  0.17770000000E+01 0. -1.
</event>
<event>
 6    1  0.1599106E-003  0.5010091E+03  0.7546771E-02  0.9397554E-01
        -11   -1    0    0    0    0  0.00000000000E+00  0.00000000000E+00  0.50000000000E+03  0.50000000000E+03  0.00000000000E+00 0.  1.
         11   -1    0    0    0    0 -0.00000000000E+00 -0.00000000000E+00 -0.50000000000E+03  0.50000000000E+03  0.00000000000E+00 0.  1.
        -11    1    1    2    0    0 -0.91639323963E+00 -0.72834914158E+01  0.20360674113E+03  0.20373903420E+03  0.00000000000E+00 0.  1.
         11    1    1    2    0    0  0.38920733314E+01  0.84480340636E+01 -0.49890415276E+03  0.49899085277E+03  0.00000000000E+00 0.  1.
        -15    1    1    2    0    0 -0.56950208108E+01 -0.60322208813E+01  0.17877387122E+02  0.19788371588E+02  0.17770000000E+01 0.  1.
         15    1    1    2    0    0  0.27193407190E+01  0.48676782336E+01  0.27742002450E+03  0.27748174144E+03  0.17770000000E+01 0. -1.
</event>
<event>
 6    1  0.1599106E-003  0.5047218E+03  0.7546771E-02  0.9389306E-01
        -11   -1    0    0    0    0  0.00000000000E+00  0.00000000000E+00  0.50000000000E+03  0.50000000000E+03  0.00000000000E+00 0.  1.
         11   -1    0    0    0    0 -0.00000000000E+00 -0.00000000000E+00 -0.50000000000E+03  0.50000000000E+03  0.00000000000E+00 0.  1.
        -11    1    1    2    0    0  0.62268649547E+01  0.15758461057E+02  0.49498823737E+03  0.49527816233E+03  0.00000000000E+00 0.  1.
         11    1    1    2    0    0 -0.34366027809E+01  0.68572646570E+01 -0.38422836095E+03  0.38430491237E+03  0.00000000000E+00 0.  1.
        -15    1    1    2    0    0 -0.11975546589E+02 -0.11573070002E+02 -0.12003399338E+02  0.20605557261E+02  0.17770000000E+01 0.  1.
         15    1    1    2    0    0  0.91852844155E+01 -0.11042655713E+02 -0.98756477085E+02  0.99811368041E+02  0.17770000000E+01 0. -1.
</event>
<event>
 6    1  0.1599106E-003  0.4893596E+03  0.7546771E-02  0.9423938E-01
        -11   -1    0    0    0    0  0.00000000000E+00  0.00000000000E+00  0.50000000000E+03  0.50000000000E+03  0.00000000000E+00 0.  1.
         11   -1    0    0    0    0 -0.00000000000E+00 -0.00000000000E+00 -0.50000000000E+03  0.50000000000E+03  0.00000000000E+00 0. -1.
        -11    1    1    2    0    0 -0.95882227123E+01 -0.47339902026E+01  0.49274301380E+03  0.49285902886E+03  0.00000000000E+00 0.  1.
         11    1    1    2    0    0 -0.69717044593E+01  0.67204017094E+01 -0.48592953066E+03  0.48602600468E+03  0.00000000000E+00 0. -1.
        -15    1    1    2    0    0  0.12159714393E+02 -0.25248371144E+01  0.29740653790E+00  0.12549089060E+02  0.17770000000E+01 0. -1.
         15    1    1    2    0    0  0.44002127783E+01  0.53842560759E+00 -0.71108896776E+01  0.85658774002E+01  0.17770000000E+01 0.  1.
</event>
<event>
 6    1  0.1599106E-003  0.5022808E+03  0.7546771E-02  0.9394721E-01
        -11   -1    0    0    0    0  0.00000000000E+00  0.00000000000E+00  0.50000000000E+03  0.50000000000E+03  0.00000000000E+00 0.  1.
         11   -1    0    0    0    0 -0.00000000000E+00 -0.00000000000E+00 -0.50000000000E+03  0.50000000000E+03  0.00000000000E+00 0.  1.
        -11    1    1    2    0    0 -0.86403436473E+01 -0.80133285246E+01  0.49757964531E+03  0.49771917022E+03  0.00000000000E+00 0.  1.
         11    1    1    2    0    0 -0.37609291311E+01  0.12541192346E+02 -0.30250684324E+03  0.30279005317E+03  0.00000000000E+00 0.  1.
        -15    1    1    2    0    0  0.76079822888E+01 -0.97092362536E+01 -0.19047336363E+03  0.19088061883E+03  0.17770000000E+01 0.  1.
         15    1    1    2    0    0  0.47932904896E+01  0.51813724321E+01 -0.45994384434E+01  0.86101577798E+01  0.17770000000E+01 0. -1.
</event>
<event>
 6    1  0.1599106E-003  0.5034430E+03  0.7546771E-02  0.9392139E-01
        -11   -1    0    0    0    0  0.00000000000E+00  0.00000000000E+00  0.50000000000E+03  0.50000000000E+03  0.00000000000E+00 0. -1.
         11   -1    0    0    0    0 -0.00000000000E+00 -0.00000000000E+00 -0.50000000000E+03  0.50000000000E+03  0.00000000000E+00 0.  1.
        -11    1    1    2    0    0  0.38234436307E+01  0.87330952886E+01  0.49646547386E+03  0.49655699815E+03  0.00000000000E+00 0. -1.
         11    1    1    2    0    0  0.88277759667E+01  0.66859520022E+00 -0.47502335883E+03  0.47510584934E+03  0.00000000000E+00 0.  1.
        -15    1    1    2    0    0 -0.22259021197E+01 -0.33620867967E+01 -0.12426166864E+02  0.13184294437E+02  0.17770000000E+01 0.  1.
         15    1    1    2    0    0 -0.10425317478E+02 -0.60396036921E+01 -0.90159481695E+01  0.15152858069E+02  0.17770000000E+01 0. -1.
</event>
<event>
 6    1  0.1599106E-003  0.5016882E+03  0.7546771E-02  0.9396040E-01
        -11   -1    0    0    0    0  0.00000000000E+00  0.00000000000E+00  0.50000000000E+03  0.50000000000E+03  0.00000000000E+00 0.  1.
         11   -1    0    0    0    0 -0.00000000000E+00 -0.00000000000E+00 -0.50000000000E+03  0.50000000000E+03  0.00000000000E+00 0. -1.
        -11    1    1    2    0    0  0.84031011838E+01  0.31727590731E+01  0.49823079603E+03  0.49831175445E+03  0.00000000000E+00 0.  1.
         11    1    1    2    0    0 -0.21253446850E+02  0.83966550387E+01 -0.20500137041E+03  0.20627111938E+03  0.00000000000E+00 0. -1.
        -15    1    1    2    0    0  0.13479772033E+02  0.14970432217E+01 -0.24592353622E+03  0.24630365160E+03  0.17770000000E+01 0. -1.
         15    1    1    2    0    0 -0.62942636638E+00 -0.13066457333E+02 -0.47305889391E+02  0.49113474575E+02  0.17770000000E+01 0.  1.
</event>
<event>
 6    1  0.1599106E-003  0.5028785E+03  0.7546771E-02  0.9393392E-01
        -11   -1    0    0    0    0  0.00000000000E+00  0.00000000000E+00  0.50000000000E+03  0.50000000000E+03  0.00000000000E+00 0. -1.
         11   -1    0    0    0    0 -0.00000000000E+00 -0.00000000000E+00 -0.50000000000E+03  0.50000000000E+03  0.00000000000E+00 0.  1.
        -11    1    1    2    0    0 -0.65838932341E+01 -0.41099461115E+01  0.47291978658E+03  0.47298347100E+03  0.00000000000E+00 0. -1.
         11    1    1    2    0    0 -0.63993700573E+01 -0.27607319861E+01 -0.49707265183E+03  0.49712150906E+03  0.00000000000E+00 0.  1.
        -15    1    1    2    0    0  0.93432069698E+01  0.83796991088E+01  0.14144854283E+02  0.18993406891E+02  0.17770000000E+01 0.  1.
         15    1    1    2    0    0  0.36400563216E+01 -0.15090210112E+01  0.10008010967E+02  0.10901613043E+02  0.17770000000E+01 0. -1.
</event>
<event>
 6    1  0.1599106E-003  0.5001561E+03  0.7546771E-02  0.9399461E-01
        -11   -1    0    0    0    0  0.00000000000E+00  0.00000000000E+00  0.50000000000E+03  0.50000000000E+03  0.00000000000E+00 0. -1.
         11   -1    0    0    0    0 -0.00000000000E+00 -0.00000000000E+00 -0.50000000000E+03  0.50000000000E+03  0.00000000000E+00 0.  1.
        -11    1    1    2    0    0  0.35784257804E+01 -0.26066415718E+01  0.24103501709E+03  0.24107567105E+03  0.00000000000E+00 0. -1.
         11    1    1    2    0    0  0.20445441357E+01 -0.67316051085E+01 -0.49979440816E+03  0.49984392073E+03  0.00000000000E+00 0.  1.
        -15    1    1    2    0    0 -0.19438216194E+01  0.21563502872E+01  0.34180398406E+02  0.34349463653E+02  0.17770000000E+01 0. -1.
         15    1    1    2    0    0 -0.36791482966E+01  0.71818963931E+01  0.22457899266E+03  0.22473094456E+03  0.17770000000E+01 0.  1.
</event>
<event>
 6    1  0.1599106E-003  0.5003872E+03  0.7546771E-02  0.9398944E-01
        -11   -1    0    0    0    0  0.00000000000E+00  0.00000000000E+00  0.50000000000E+03  0.50000000000E+03  0.00000000000E+00 0. -1.
         11   -1    0    0    0    0 -0.00000000000E+00 -0.00000000000E+00 -0.50000000000E+03  0.50000000000E+03  0.00000000000E+00 0. -1.
        -11    1    1    2    0    0  0.42233800186E+01  0.68870940604E+01  0.49954749835E+03  0.49961282220E+03  0.00000000000E+00 0. -1.
         11    1    1    2    0    0  0.31942786526E+01  0.18290340320E+01 -0.15683350165E+03  0.15687669049E+03  0.00000000000E+00 0. -1.
        -15    1    1    2    0    0 -0.13379676145E+02 -0.46503576937E+01 -0.27890965065E+03  0.27927476168E+03  0.17770000000E+01 0. -1.
         15    1    1    2    0    0  0.59620174733E+01 -0.40657703986E+01 -0.63804346056E+02  0.64235725620E+02  0.17770000000E+01 0.  1.
</event>
<event>
 6    1  0.1599106E-003  0.5002489E+03  0.7546771E-02  0.9399253E-01
        -11   -1    0    0    0    0  0.00000000000E+00  0.00000000000E+00  0.50000000000E+03  0.50000000000E+03  0.00000000000E+00 0.  1.
         11   -1    0    0    0    0 -0.00000000000E+00 -0.00000000000E+00 -0.50000000000E+03  0.50000000000E+03  0.00000000000E+00 0.  1.
        -11    1    1    2    0    0 -0.72355207165E-01 -0.68309268720E+01  0.49970440545E+03  0.49975109767E+03  0.00000000000E+00 0.  1.
         11    1    1    2    0    0  0.58104081009E+01 -0.34463362088E+00 -0.28335490016E+03  0.28341467685E+03  0.00000000000E+00 0.  1.
        -15    1    1    2    0    0  0.81488081322E+00  0.45108882213E+00 -0.11898185765E+03  0.11899877180E+03  0.17770000000E+01 0. -1.
         15    1    1    2    0    0 -0.65529337070E+01  0.67244716707E+01 -0.97367647643E+02  0.97835453676E+02  0.17770000000E+01 0.  1.
</event>
<event>
 6    1  0.1599106E-003  0.5019529E+03  0.7546771E-02  0.9395451E-01
        -11   -1    0    0    0    0  0.00000000000E+00  0.00000000000E+00  0.50000000000E+03  0.50000000000E+03  0.00000000000E+00 0.  1.
         11   -1    0    0    0    0 -0.00000000000E+00 -0.00000000000E+00 -0.50000000000E+03  0.50000000000E+03  0.00000000000E+00 0.  1.
        -11    1    1    2    0    0 -0.27070006405E+02  0.56416370336E+00  0.49731059414E+03  0.49804711682E+03  0.00000000000E+00 0.  1.
         11    1    1    2    0    0  0.28308745107E+01  0.59766037786E+01 -0.28194496144E+03  0.28202250783E+03  0.00000000000E+00 0.  1.
        -15    1    1    2    0    0  0.27570487287E+01 -0.82274159968E+01 -0.16348376946E+03  0.16372352396E+03  0.17770000000E+01 0.  1.
         15    1    1    2    0    0  0.21482083165E+02  0.16866485149E+01 -0.51881863245E+02  0.56206851389E+02  0.17770000000E+01 0. -1.
</event>
<event>
 6    1  0.1599106E-003  0.5029196E+03  0.7546771E-02  0.9393300E-01
        -11   -1    0    0    0    0  0.00000000000E+00  0.00000000000E+00  0.50000000000E+03  0.50000000000E+03  0.00000000000E+00 0.  1.
         11   -1    0    0    0    0 -0.00000000000E+00 -0.00000000000E+00 -0.50000000000E+03  0.50000000000E+03  0.00000000000E+00 0.  1.
        -11    1    1    2    0    0 -0.13026847864E+02  0.12517257939E+01  0.49690808898E+03  0.49708039035E+03  0.00000000000E+00 0.  1.
         11    1    1    2    0    0  0.13665450226E+01 -0.76572086982E+01 -0.43103811758E+03  0.43110829161E+03  0.00000000000E+00 0.  1.
        -15    1    1    2    0    0  0.10695924902E+02 -0.13006900541E+01 -0.83619894043E+01  0.13754097568E+02  0.17770000000E+01 0. -1.
         15    1    1    2    0    0  0.96437794016E+00  0.77061729583E+01 -0.57507981994E+02  0.58057220468E+02  0.17770000000E+01 0.  1.
</event>
<event>
 6    1  0.1599106E-003  0.5355116E+03  0.7546771E-02  0.9323678E-01
        -11   -1    0    0    0    0  0.00000000000E+00  0.00000000000E+00  0.50000000000E+03  0.50000000000E+03  0.00000000000E+00 0. -1.
         11   -1    0    0    0    0 -0.00000000000E+00 -0.00000000000E+00 -0.50000000000E+03  0.50000000000E+03  0.00000000000E+00 0. -1.
        -11    1    1    2    0    0 -0.42113491920E+01 -0.11808195848E+02  0.42033295239E+03  0.42051986852E+03  0.00000000000E+00 0. -1.
         11    1    1    2    0    0  0.10841390268E+02 -0.10148231053E+02 -0.46425093793E+03  0.46448838059E+03  0.00000000000E+00 0. -1.
        -15    1    1    2    0    0  0.63367785304E+01  0.43110817933E+01 -0.33554488168E+02  0.34464497582E+02  0.17770000000E+01 0. -1.
         15    1    1    2    0    0 -0.12966819607E+02  0.17645345108E+02  0.77472473705E+02  0.80527253310E+02  0.17770000000E+01 0.  1.
</event>
<event>
 6    1  0.1599106E-003  0.5039184E+03  0.7546771E-02  0.9391085E-01
        -11   -1    0    0    0    0  0.00000000000E+00  0.00000000000E+00  0.50000000000E+03  0.50000000000E+03  0.00000000000E+00 0. -1.
         11   -1    0    0    0    0 -0.00000000000E+00 -0.00000000000E+00 -0.50000000000E+03  0.50000000000E+03  0.00000000000E+00 0. -1.
        -11    1    1    2    0    0  0.21679339179E+01 -0.65705487493E+01  0.47834927646E+03  0.47839931264E+03  0.00000000000E+00 0. -1.
         11    1    1    2    0    0  0.59130845184E+01  0.80806661170E+01 -0.49598057574E+03  0.49608163970E+03  0.00000000000E+00 0. -1.
        -15    1    1    2    0    0 -0.62240026458E+01  0.61658087689E+01  0.42934763854E+01  0.99170093870E+01  0.17770000000E+01 0.  1.
         15    1    1    2    0    0 -0.18570157905E+01 -0.76759261366E+01  0.13337822896E+02  0.15602038274E+02  0.17770000000E+01 0. -1.
</event>
<event>
 6    1  0.1599106E-003  0.5023708E+03  0.7546771E-02  0.9394520E-01
        -11   -1    0    0    0    0  0.00000000000E+00  0.00000000000E+00  0.50000000000E+03  0.50000000000E+03  0.00000000000E+00 0.  1.
         11   -1    0    0    0    0 -0.00000000000E+00 -0.00000000000E+00 -0.50000000000E+03  0.50000000000E+03  0.00000000000E+00 0.  1.
        -11    1    1    2    0    0 -0.15869461954E+01 -0.28885729998E+01  0.11335673481E+03  0.11340463650E+03  0.00000000000E+00 0.  1.
         11    1    1    2    0    0  0.85163210842E+00  0.27769862028E+02 -0.49685303028E+03  0.49762920354E+03  0.00000000000E+00 0.  1.
        -15    1    1    2    0    0  0.11907167538E+02 -0.30651018033E+02  0.10201018574E+03  0.10719375574E+03  0.17770000000E+01 0. -1.
         15    1    1    2    0    0 -0.11171853451E+02  0.57697290045E+01  0.28148610973E+03  0.28177240423E+03  0.17770000000E+01 0.  1.
</event>
<event>
 6    1  0.1599106E-003  0.5002902E+03  0.7546771E-02  0.9399161E-01
        -11   -1    0    0    0    0  0.00000000000E+00  0.00000000000E+00  0.50000000000E+03  0.50000000000E+03  0.00000000000E+00 0.  1.
         11   -1    0    0    0    0 -0.00000000000E+00 -0.00000000000E+00 -0.50000000000E+03  0.50000000000E+03  0.00000000000E+00 0. -1.
        -11    1    1    2    0    0 -0.48987942486E+01  0.24401604959E+01  0.30386333163E+03  0.30391261388E+03  0.00000000000E+00 0.  1.
         11    1    1    2    0    0  0.22433332296E+01  0.91462727059E+01 -0.49962110068E+03  0.49970984691E+03  0.00000000000E+00 0. -1.
        -15    1    1    2    0    0 -0.10343686780E+01 -0.99036928958E+01  0.98249424866E+02  0.98768721097E+02  0.17770000000E+01 0.  1.
         15    1    1    2    0    0  0.36898296970E+01 -0.16827403061E+01  0.97508344190E+02  0.97608818115E+02  0.17770000000E+01 0. -1.
</event>
<event>
 6    1  0.1599106E-003  0.5030931E+03  0.7546771E-02  0.9392915E-01
        -11   -1    0    0    0    0  0.00000000000E+00  0.00000000000E+00  0.50000000000E+03  0.50000000000E+03  0.00000000000E+00 0.  1.
         11   -1    0    0    0    0 -0.00000000000E+00 -0.00000000000E+00 -0.50000000000E+03  0.50000000000E+03  0.00000000000E+00 0.  1.
        -11    1    1    2    0    0 -0.12565306164E+02 -0.73622050489E+00  0.49674743077E+03  0.49690687147E+03  0.00000000000E+00 0.  1.
         11    1    1    2    0    0  0.10095533869E+01  0.97169076962E+01 -0.42555621045E+03  0.42566832833E+03  0.00000000000E+00 0.  1.
        -15    1    1    2    0    0  0.23827264953E+01  0.54574742413E+01 -0.26446430820E+01  0.67537601880E+01  0.17770000000E+01 0.  1.
         15    1    1    2    0    0  0.91730262820E+01 -0.14438161433E+02 -0.68546577235E+02  0.70671040012E+02  0.17770000000E+01 0. -1.
</event>
<event>
 6    1  0.1599106E-003  0.5016121E+03  0.7546771E-02  0.9396210E-01
        -11   -1    0    0    0    0  0.00000000000E+00  0.00000000000E+00  0.50000000000E+03  0.50000000000E+03  0.00000000000E+00 0.  1.
         11   -1    0    0    0    0 -0.00000000000E+00 -0.00000000000E+00 -0.50000000000E+03  0.50000000000E+03  0.00000000000E+00 0. -1.
        -11    1    1    2    0    0  0.16468838899E+02  0.18194325363E+01  0.40784516752E+03  0.40818159397E+03  0.00000000000E+00 0.  1.
         11    1    1    2    0    0 -0.37851726038E+01 -0.75948730972E+01 -0.49831562727E+03  0.49838787507E+03  0.00000000000E+00 0. -1.
        -15    1    1    2    0    0 -0.53610098412E+01  0.10397029520E+02  0.71858367037E+02  0.72825965779E+02  0.17770000000E+01 0.  1.
         15    1    1    2    0    0 -0.73226564541E+01 -0.46215889588E+01  0.18612092714E+02  0.20604565180E+02  0.17770000000E+01 0. -1.
</event>
<event>
 6    1  0.1599106E-003  0.5039805E+03  0.7546771E-02  0.9390947E-01
        -11   -1    0    0    0    0  0.00000000000E+00  0.00000000000E+00  0.50000000000E+03  0.50000000000E+03  0.00000000000E+00 0.  1.
         11   -1    0    0    0    0 -0.00000000000E+00 -0.00000000000E+00 -0.50000000000E+03  0.50000000000E+03  0.00000000000E+00 0. -1.
        -11    1    1    2    0    0  0.25982812967E+01  0.34742274722E+01  0.19674298945E+03  0.19679081589E+03  0.00000000000E+00 0.  1.
         11    1    1    2    0    0  0.14983711195E+02 -0.32738748088E+02 -0.49471107473E+03  0.49601954063E+03  0.00000000000E+00 0. -1.
        -15    1    1    2    0    0 -0.32181263906E+01 -0.27673073543E+01  0.23523722616E+03  0.23528222336E+03  0.17770000000E+01 0.  1.
         15    1    1    2    0    0 -0.14363866101E+02  0.32031827970E+02  0.62730859122E+02  0.71907420115E+02  0.17770000000E+01 0. -1.
</event>
<event>
 6    1  0.1599106E-003  0.5065806E+03  0.7546771E-02  0.9385204E-01
        -11   -1    0    0    0    0  0.00000000000E+00  0.00000000000E+00  0.50000000000E+03  0.50000000000E+03  0.00000000000E+00 0. -1.
         11   -1    0    0    0    0 -0.00000000000E+00 -0.00000000000E+00 -0.50000000000E+03  0.50000000000E+03  0.00000000000E+00 0. -1.
        -11    1    1    2    0    0 -0.51936907764E+01 -0.28825641318E-01  0.31440459030E+03  0.31444748632E+03  0.00000000000E+00 0. -1.
         11    1    1    2    0    0 -0.15781413185E+02 -0.24920477185E+02 -0.49253690852E+03  0.49341938494E+03  0.00000000000E+00 0. -1.
        -15    1    1    2    0    0  0.57472839383E+01  0.94761291833E+01 -0.13757295622E+01  0.11308344609E+02  0.17770000000E+01 0.  1.
         15    1    1    2    0    0  0.15227820023E+02  0.15473173643E+02  0.17950804779E+03  0.18082478413E+03  0.17770000000E+01 0. -1.
</event>
<event>
 6    1  0.1599106E-003  0.5084019E+03  0.7546771E-02  0.9381204E-01
        -11   -1    0    0    0    0  0.00000000000E+00  0.00000000000E+00  0.50000000000E+03  0.50000000000E+03  0.00000000000E+00 0.  1.
         11   -1    0    0    0    0 -0.00000000000E+00 -0.00000000000E+00 -0.50000000000E+03  0.50000000000E+03  0.00000000000E+00 0.  1.
        -11    1    1    2    0    0 -0.99335337031E+00  0.10050007219E+02  0.46522844845E+03  0.46533804771E+03  0.00000000000E+00 0.  1.
         11    1    1    2    0    0 -0.62955900981E+01 -0.20652394519E+01 -0.49155340689E+03  0.49159805888E+03  0.00000000000E+00 0.  1.
        -15    1    1    2    0    0 -0.74652530030E+00 -0.30225582790E+00  0.30863631704E+02  0.30925234834E+02  0.17770000000E+01 0.  1.
         15    1    1    2    0    0  0.80354687687E+01 -0.76825119391E+01 -0.45386732679E+01  0.12138658577E+02  0.17770000000E+01 0. -1.
</event>
<event>
 6    1  0.1599106E-003  0.5048267E+03  0.7546771E-02  0.9389074E-01
        -11   -1    0    0    0    0  0.00000000000E+00  0.00000000000E+00  0.50000000000E+03  0.50000000000E+03  0.00000000000E+00 0. -1.
         11   -1    0    0    0    0 -0.00000000000E+00 -0.00000000000E+00 -0.50000000000E+03  0.50000000000E+03  0.00000000000E+00 0. -1.
        -11    1    1    2    0    0 -0.40740251693E+01  0.93267390525E+01  0.44290702191E+03  0.44302394495E+03  0.00000000000E+00 0. -1.
         11    1    1    2    0    0 -0.44693398306E+01 -0.10490091036E+02 -0.49504204522E+03  0.49517334697E+03  0.00000000000E+00 0. -1.
        -15    1    1    2    0    0 -0.11225477764E+01 -0.84549287336E+01  0.45872508746E+02  0.46692512474E+02  0.17770000000E+01 0.  1.
         15    1    1    2    0    0  0.96659127763E+01  0.96182807172E+01  0.62625145675E+01  0.15110195613E+02  0.17770000000E+01 0. -1.
</event>
<event>
 6    1  0.1599106E-003  0.5003747E+03  0.7546771E-02  0.9398972E-01
        -11   -1    0    0    0    0  0.00000000000E+00  0.00000000000E+00  0.50000000000E+03  0.50000000000E+03  0.00000000000E+00 0.  1.
         11   -1    0    0    0    0 -0.00000000000E+00 -0.00000000000E+00 -0.50000000000E+03  0.50000000000E+03  0.00000000000E+00 0. -1.
        -11    1    1    2    0    0 -0.33212370015E+01  0.29455002648E+01  0.27735722992E+03  0.27739275329E+03  0.00000000000E+00 0.  1.
         11    1    1    2    0    0  0.26804841535E+01  0.84760389885E+01 -0.49954618467E+03  0.49962527843E+03  0.00000000000E+00 0. -1.
        -15    1    1    2    0    0  0.11168056105E+01 -0.76899629325E+00  0.14728507587E+03  0.14730203635E+03  0.17770000000E+01 0.  1.
         15    1    1    2    0    0 -0.47605276252E+00 -0.10652542960E+02  0.74903878874E+02  0.75679931931E+02  0.17770000000E+01 0. -1.
</event>
<event>
 6    1  0.1599106E-003  0.5001269E+03  0.7546771E-02  0.9399526E-01
        -11   -1    0    0    0    0  0.00000000000E+00  0.00000000000E+00  0.50000000000E+03  0.50000000000E+03  0.00000000000E+00 0. -1.
         11   -1    0    0    0    0 -0.00000000000E+00 -0.00000000000E+00 -0.50000000000E+03  0.50000000000E+03  0.00000000000E+00 0.  1.
        -11    1    1    2    0    0  0.78949884016E+01  0.44138120505E+00  0.49981057077E+03  0.49987311621E+03  0.00000000000E+00 0. -1.
         11    1    1    2    0    0 -0.30439777770E+01 -0.34044021709E+01 -0.22613251250E+03  0.22617862181E+03  0.00000000000E+00 0.  1.
        -15    1    1    2    0    0  0.57964119735E+00  0.54843410202E+01 -0.11226604191E+03  0.11241546102E+03  0.17770000000E+01 0. -1.
         15    1    1    2    0    0 -0.54306518220E+01 -0.25213200544E+01 -0.16141201635E+03  0.16153280096E+03  0.17770000000E+01 0.  1.
</event>
<event>
 6    1  0.1599106E-003  0.5290151E+03  0.7546771E-02  0.9337129E-01
        -11   -1    0    0    0    0  0.00000000000E+00  0.00000000000E+00  0.50000000000E+03  0.50000000000E+03  0.00000000000E+00 0. -1.
         11   -1    0    0    0    0 -0.00000000000E+00 -0.00000000000E+00 -0.50000000000E+03  0.50000000000E+03  0.00000000000E+00 0. -1.
        -11    1    1    2    0    0  0.63174068474E+01  0.44389881255E+01  0.45069106642E+03  0.45075719805E+03  0.00000000000E+00 0. -1.
         11    1    1    2    0    0 -0.11673620652E+01  0.15699351908E+02 -0.47072173615E+03  0.47098490981E+03  0.00000000000E+00 0. -1.
        -15    1    1    2    0    0 -0.15654946927E+01 -0.10000760628E+02  0.47555808922E+02  0.48653660479E+02  0.17770000000E+01 0.  1.
         15    1    1    2    0    0 -0.35845500896E+01 -0.10137579405E+02 -0.27525139190E+02  0.29604231656E+02  0.17770000000E+01 0. -1.
</event>
<event>
 6    1  0.1599106E-003  0.5011826E+03  0.7546771E-02  0.9397167E-01
        -11   -1    0    0    0    0  0.00000000000E+00  0.00000000000E+00  0.50000000000E+03  0.50000000000E+03  0.00000000000E+00 0.  1.
         11   -1    0    0    0    0 -0.00000000000E+00 -0.00000000000E+00 -0.50000000000E+03  0.50000000000E+03  0.00000000000E+00 0. -1.
        -11    1    1    2    0    0  0.70281723815E+01 -0.51517688840E+01  0.49874130262E+03  0.49881742439E+03  0.00000000000E+00 0.  1.
         11    1    1    2    0    0 -0.31606063558E+01 -0.45165674511E+01 -0.28505826332E+03  0.28511156115E+03  0.00000000000E+00 0. -1.
        -15    1    1    2    0    0 -0.25517113107E+01 -0.65060077202E+01 -0.15477325113E+03  0.15494113837E+03  0.17770000000E+01 0. -1.
         15    1    1    2    0    0 -0.13158547150E+01  0.16174344055E+02 -0.58909788175E+02  0.61129876093E+02  0.17770000000E+01 0. -1.
</event>
<event>
 6    1  0.1599106E-003  0.5525878E+03  0.7546771E-02  0.9289266E-01
        -11   -1    0    0    0    0  0.00000000000E+00  0.00000000000E+00  0.50000000000E+03  0.50000000000E+03  0.00000000000E+00 0.  1.
         11   -1    0    0    0    0 -0.00000000000E+00 -0.00000000000E+00 -0.50000000000E+03  0.50000000000E+03  0.00000000000E+00 0. -1.
        -11    1    1    2    0    0 -0.10388119593E+02 -0.66757055039E+01  0.44724178956E+03  0.44741222201E+03  0.00000000000E+00 0.  1.
         11    1    1    2    0    0  0.67561363056E+01  0.79561142177E+01 -0.16824887123E+03  0.16857232217E+03  0.00000000000E+00 0. -1.
        -15    1    1    2    0    0 -0.68870526795E+01 -0.33646361685E+02  0.45892291477E+02  0.57347792418E+02  0.17770000000E+01 0.  1.
         15    1    1    2    0    0  0.10519035967E+02  0.32365952971E+02 -0.32488520981E+03  0.32666766340E+03  0.17770000000E+01 0. -1.
</event>
<event>
 6    1  0.1599106E-003  0.5109098E+03  0.7546771E-02  0.9375724E-01
        -11   -1    0    0    0    0  0.00000000000E+00  0.00000000000E+00  0.50000000000E+03  0.50000000000E+03  0.00000000000E+00 0. -1.
         11   -1    0    0    0    0 -0.00000000000E+00 -0.00000000000E+00 -0.50000000000E+03  0.50000000000E+03  0.00000000000E+00 0.  1.
        -11    1    1    2    0    0  0.23424896436E+02 -0.90582978033E+01  0.48844488728E+03  0.48909016187E+03  0.00000000000E+00 0. -1.
         11    1    1    2    0    0 -0.37693849088E+01 -0.40896482280E+01 -0.30182937716E+03  0.30188061614E+03  0.00000000000E+00 0.  1.
        -15    1    1    2    0    0 -0.27266392953E+02  0.25734206949E+02 -0.21512029089E+02  0.43262347561E+02  0.17770000000E+01 0. -1.
         15    1    1    2    0    0  0.76108814249E+01 -0.12586260918E+02 -0.16510348103E+03  0.16576687442E+03  0.17770000000E+01 0.  1.
</event>
<event>
 6    1  0.1599106E-003  0.5320241E+03  0.7546771E-02  0.9330873E-01
        -11   -1    0    0    0    0  0.00000000000E+00  0.00000000000E+00  0.50000000000E+03  0.50000000000E+03  0.00000000000E+00 0.  1.
         11   -1    0    0    0    0 -0.00000000000E+00 -0.00000000000E+00 -0.50000000000E+03  0.50000000000E+03  0.00000000000E+00 0.  1.
        -11    1    1    2    0    0 -0.18254974053E+01  0.51629235377E+01  0.22212577723E+03  0.22219326976E+03  0.00000000000E+00 0.  1.
         11    1    1    2    0    0  0.60002391973E+01 -0.78244129246E+01 -0.46787199166E+03  0.46797588067E+03  0.00000000000E+00 0.  1.
        -15    1    1    2    0    0  0.87329855329E+02 -0.25022403770E+02  0.14345375646E+03  0.16980801598E+03  0.17770000000E+01 0. -1.
         15    1    1    2    0    0 -0.91504597121E+02  0.27683893157E+02  0.10229245798E+03  0.14002283358E+03  0.17770000000E+01 0.  1.
</event>
<event>
 6    1  0.1599106E-003  0.5021076E+03  0.7546771E-02  0.9395106E-01
        -11   -1    0    0    0    0  0.00000000000E+00  0.00000000000E+00  0.50000000000E+03  0.50000000000E+03  0.00000000000E+00 0.  1.
         11   -1    0    0    0    0 -0.00000000000E+00 -0.00000000000E+00 -0.50000000000E+03  0.50000000000E+03  0.00000000000E+00 0.  1.
        -11    1    1    2    0    0  0.69105462908E+01 -0.24282208863E+02  0.49725193959E+03  0.49789243090E+03  0.00000000000E+00 0.  1.
         11    1    1    2    0    0  0.47148459300E+01 -0.92441912822E+00 -0.34848233450E+03  0.34851545415E+03  0.00000000000E+00 0.  1.
        -15    1    1    2    0    0 -0.51843216438E+01  0.52233624534E+01 -0.10217048934E+03  0.10245060921E+03  0.17770000000E+01 0.  1.
         15    1    1    2    0    0 -0.64410705770E+01  0.19983265538E+02 -0.46599115754E+02  0.51141505744E+02  0.17770000000E+01 0. -1.
</event>
<event>
 6    1  0.1599106E-003  0.5001494E+03  0.7546771E-02  0.9399476E-01
        -11   -1    0    0    0    0  0.00000000000E+00  0.00000000000E+00  0.50000000000E+03  0.50000000000E+03  0.00000000000E+00 0.  1.
         11   -1    0    0    0    0 -0.00000000000E+00 -0.00000000000E+00 -0.50000000000E+03  0.50000000000E+03  0.00000000000E+00 0. -1.
        -11    1    1    2    0    0  0.47561898531E+01  0.11483570038E+02  0.49969605994E+03  0.49985062373E+03  0.00000000000E+00 0.  1.
         11    1    1    2    0    0 -0.46338301147E+01 -0.62977231362E+00 -0.10571525227E+03  0.10581863521E+03  0.00000000000E+00 0. -1.
        -15    1    1    2    0    0  0.46668156823E+01 -0.72862367190E+01 -0.30700278528E+03  0.30712983625E+03  0.17770000000E+01 0. -1.
         15    1    1    2    0    0 -0.47891754207E+01 -0.35675610059E+01 -0.86978022392E+02  0.87200904818E+02  0.17770000000E+01 0.  1.
</event>
<event>
 6    1  0.1599106E-003  0.5023093E+03  0.7546771E-02  0.9394657E-01
        -11   -1    0    0    0    0  0.00000000000E+00  0.00000000000E+00  0.50000000000E+03  0.50000000000E+03  0.00000000000E+00 0.  1.
         11   -1    0    0    0    0 -0.00000000000E+00 -0.00000000000E+00 -0.50000000000E+03  0.50000000000E+03  0.00000000000E+00 0. -1.
        -11    1    1    2    0    0 -0.19112505111E+02 -0.32895692991E+01  0.49731266620E+03  0.49769066405E+03  0.00000000000E+00 0.  1.
         11    1    1    2    0    0 -0.27340159550E+01  0.10247868297E+02 -0.39225228294E+03  0.39239565125E+03  0.00000000000E+00 0. -1.
        -15    1    1    2    0    0  0.45677582246E+01 -0.24328384687E+01 -0.29085597913E+01  0.61968191254E+01  0.17770000000E+01 0. -1.
         15    1    1    2    0    0  0.17278762841E+02 -0.45254605289E+01 -0.10215182347E+03  0.10371686558E+03  0.17770000000E+01 0.  1.
</event>
<event>
 6    1  0.1599106E-003  0.5043979E+03  0.7546771E-02  0.9390022E-01
        -11   -1    0    0    0    0  0.00000000000E+00  0.00000000000E+00  0.50000000000E+03  0.50000000000E+03  0.00000000000E+00 0. -1.
         11   -1    0    0    0    0 -0.00000000000E+00 -0.00000000000E+00 -0.50000000000E+03  0.50000000000E+03  0.00000000000E+00 0. -1.
        -11    1    1    2    0    0 -0.11966528737E+02  0.23308888516E+01  0.49545209660E+03  0.49560206908E+03  0.00000000000E+00 0. -1.
         11    1    1    2    0    0 -0.64202556260E+01  0.11735437054E+02 -0.33341803590E+03  0.33368627006E+03  0.00000000000E+00 0. -1.
        -15    1    1    2    0    0  0.17397502365E+01 -0.79463642673E+01 -0.65608183995E+00  0.83522217604E+01  0.17770000000E+01 0. -1.
         15    1    1    2    0    0  0.16647034126E+02 -0.61199616379E+01 -0.16137797886E+03  0.16235943910E+03  0.17770000000E+01 0.  1.
</event>
<event>
 6    1  0.1599106E-003  0.5060919E+03  0.7546771E-02  0.9386281E-01
        -11   -1    0    0    0    0  0.00000000000E+00  0.00000000000E+00  0.50000000000E+03  0.50000000000E+03  0.00000000000E+00 0. -1.
         11   -1    0    0    0    0 -0.00000000000E+00 -0.00000000000E+00 -0.50000000000E+03  0.50000000000E+03  0.00000000000E+00 0.  1.
        -11    1    1    2    0    0  0.80562490364E+01  0.39138507734E+01  0.46743082442E+03  0.46751662751E+03  0.00000000000E+00 0. -1.
         11    1    1    2    0    0  0.13739852782E+02 -0.63183418247E+01 -0.49367647999E+03  0.49390806016E+03  0.00000000000E+00 0.  1.
        -15    1    1    2    0    0 -0.76771952605E+01 -0.14711575242E+01 -0.50084224576E+00  0.80319489219E+01  0.17770000000E+01 0.  1.
         15    1    1    2    0    0 -0.14118906558E+02  0.38756485755E+01  0.26746497811E+02  0.30543363410E+02  0.17770000000E+01 0. -1.
</event>
<event>
 6    1  0.1599106E-003  0.5011315E+03  0.7546771E-02  0.9397282E-01
        -11   -1    0    0    0    0  0.00000000000E+00  0.00000000000E+00  0.50000000000E+03  0.50000000000E+03  0.00000000000E+00 0. -1.
         11   -1    0    0    0    0 -0.00000000000E+00 -0.00000000000E+00 -0.50000000000E+03  0.50000000000E+03  0.00000000000E+00 0. -1.
        -11    1    1    2    0    0 -0.78485547708E+01  0.56022697753E+00  0.20381266292E+03  0.20396449503E+03  0.00000000000E+00 0. -1.
         11    1    1    2    0    0 -0.13651855563E+00  0.12035640576E+02 -0.49872331708E+03  0.49886854208E+03  0.00000000000E+00 0. -1.
        -15    1    1    2    0    0  0.13014051021E+02 -0.22063891083E+02  0.20955513037E+03  0.21112245548E+03  0.17770000000E+01 0. -1.
         15    1    1    2    0    0 -0.50289776941E+01  0.94680235298E+01  0.85355523786E+02  0.86044507413E+02  0.17770000000E+01 0. -1.
</event>
<event>
 6    1  0.1599106E-003  0.5258465E+03  0.7546771E-02  0.9343764E-01
        -11   -1    0    0    0    0  0.00000000000E+00  0.00000000000E+00  0.50000000000E+03  0.50000000000E+03  0.00000000000E+00 0. -1.
         11   -1    0    0    0    0 -0.00000000000E+00 -0.00000000000E+00 -0.50000000000E+03  0.50000000000E+03  0.00000000000E+00 0.  1.
        -11    1    1    2    0    0  0.12736798635E+02  0.44646516623E+01  0.47396139431E+03  0.47415352203E+03  0.00000000000E+00 0. -1.
         11    1    1    2    0    0  0.33941954739E+01  0.13190099751E+02 -0.43300601373E+03  0.43322016022E+03  0.00000000000E+00 0.  1.
        -15    1    1    2    0    0 -0.14778388314E+02 -0.70729680428E+01  0.22704159030E+02  0.28054664574E+02  0.17770000000E+01 0. -1.
         15    1    1    2    0    0 -0.13526057949E+01 -0.10581783371E+02 -0.63659539607E+02  0.64571653174E+02  0.17770000000E+01 0.  1.
</event>
<event>
 6    1  0.1599106E-003  0.5013767E+03  0.7546771E-02  0.9396734E-01
        -11   -1    0    0    0    0  0.00000000000E+00  0.00000000000E+00  0.50000000000E+03  0.50000000000E+03  0.00000000000E+00 0. -1.
         11   -1    0    0    0    0 -0.00000000000E+00 -0.00000000000E+00 -0.50000000000E+03  0.50000000000E+03  0.00000000000E+00 0. -1.
        -11    1    1    2    0    0  0.12342735694E+02  0.17196341012E+02  0.49817378912E+03  0.49862328609E+03  0.00000000000E+00 0. -1.
         11    1    1    2    0    0  0.25459421059E+01 -0.54801608120E+01 -0.34938016639E+03  0.34943241786E+03  0.00000000000E+00 0. -1.
        -15    1    1    2    0    0 -0.10833883600E+02 -0.70396938525E-01 -0.12086658057E+03  0.12136418754E+03  0.17770000000E+01 0. -1.
         15    1    1    2    0    0 -0.40547941999E+01 -0.11645783262E+02 -0.27927042158E+02  0.30580108510E+02  0.17770000000E+01 0.  1.
</event>
<event>
 6    1  0.1599106E-003  0.5004312E+03  0.7546771E-02  0.9398845E-01
        -11   -1    0    0    0    0  0.00000000000E+00  0.00000000000E+00  0.50000000000E+03  0.50000000000E+03  0.00000000000E+00 0. -1.
         11   -1    0    0    0    0 -0.00000000000E+00 -0.00000000000E+00 -0.50000000000E+03  0.50000000000E+03  0.00000000000E+00 0.  1.
        -11    1    1    2    0    0  0.29294834518E+01 -0.44115668212E+01  0.78945283287E+02  0.79122699325E+02  0.00000000000E+00 0. -1.
         11    1    1    2    0    0  0.18234938068E+00 -0.69647745883E+01 -0.49952023857E+03  0.49956882416E+03  0.00000000000E+00 0.  1.
        -15    1    1    2    0    0  0.54282292319E+01  0.11395936038E+02  0.13503880095E+03  0.13563911132E+03  0.17770000000E+01 0.  1.
         15    1    1    2    0    0 -0.85400620643E+01 -0.19594628027E-01  0.28553615434E+03  0.28566936519E+03  0.17770000000E+01 0. -1.
</event>
<event>
 6    1  0.1599106E-003  0.5218495E+03  0.7546771E-02  0.9352205E-01
        -11   -1    0    0    0    0  0.00000000000E+00  0.00000000000E+00  0.50000000000E+03  0.50000000000E+03  0.00000000000E+00 0. -1.
         11   -1    0    0    0    0 -0.00000000000E+00 -0.00000000000E+00 -0.50000000000E+03  0.50000000000E+03  0.00000000000E+00 0. -1.
        -11    1    1    2    0    0  0.85694837407E+01 -0.16383963743E+02  0.47779290281E+03  0.47815052890E+03  0.00000000000E+00 0. -1.
         11    1    1    2    0    0  0.12691571457E+02  0.44386750845E+02 -0.36096949362E+03  0.36390965220E+03  0.00000000000E+00 0. -1.
        -15    1    1    2    0    0 -0.14920908942E+02 -0.10554825449E+02 -0.13238405930E+03  0.13365154227E+03  0.17770000000E+01 0.  1.
         15    1    1    2    0    0 -0.63401462556E+01 -0.17447961653E+02  0.15560650123E+02  0.24288276629E+02  0.17770000000E+01 0. -1.
</event>
<event>
 6    1  0.1599106E-003  0.5025899E+03  0.7546771E-02  0.9394033E-01
        -11   -1    0    0    0    0  0.00000000000E+00  0.00000000000E+00  0.50000000000E+03  0.50000000000E+03  0.00000000000E+00 0. -1.
         11   -1    0    0    0    0 -0.00000000000E+00 -0.00000000000E+00 -0.50000000000E+03  0.50000000000E+03  0.00000000000E+00 0.  1.
        -11    1    1    2    0    0 -0.63259141738E+00  0.69307128658E+01  0.35624611728E+03  0.35631409042E+03  0.00000000000E+00 0. -1.
         11    1    1    2    0    0  0.74289602441E+01 -0.31071603907E+01 -0.49734494761E+03  0.49741013340E+03  0.00000000000E+00 0.  1.
        -15    1    1    2    0    0  0.13128044496E+02 -0.54034754118E+01  0.93972277764E+02  0.95055193524E+02  0.17770000000E+01 0. -1.
         15    1    1    2    0    0 -0.19924413323E+02  0.15799229367E+01  0.47126552565E+02  0.51220582664E+02  0.17770000000E+01 0.  1.
</event>
<event>
 6    1  0.1599106E-003  0.5059675E+03  0.7546771E-02  0.9386555E-01
        -11   -1    0    0    0    0  0.00000000000E+00  0.00000000000E+00  0.50000000000E+03  0.50000000000E+03  0.00000000000E+00 0. -1.
         11   -1    0    0    0    0 -0.00000000000E+00 -0.00000000000E+00 -0.50000000000E+03  0.50000000000E+03  0.00000000000E+00 0.  1.
        -11    1    1    2    0    0 -0.55642022752E+01 -0.13202367025E+02  0.47849935644E+03  0.47871379440E+03  0.00000000000E+00 0. -1.
         11    1    1    2    0    0  0.82072185175E+01  0.14600687713E+01 -0.49396215055E+03  0.49403248518E+03  0.00000000000E+00 0.  1.
        -15    1    1    2    0    0 -0.56859943748E+01  0.88230225118E+01  0.18789820449E+02  0.21596095475E+02  0.17770000000E+01 0. -1.
         15    1    1    2    0    0  0.30429781325E+01  0.29192757424E+01 -0.33270263385E+01  0.56576249463E+01  0.17770000000E+01 0.  1.
</event>
<event>
 6    1  0.1599106E-003  0.5393882E+03  0.7546771E-02  0.9315747E-01
        -11   -1    0    0    0    0  0.00000000000E+00  0.00000000000E+00  0.50000000000E+03  0.50000000000E+03  0.00000000000E+00 0. -1.
         11   -1    0    0    0    0 -0.00000000000E+00 -0.00000000000E+00 -0.50000000000E+03  0.50000000000E+03  0.00000000000E+00 0.  1.
        -11    1    1    2    0    0  0.47120325066E+02  0.49826865437E+01  0.28273485862E+03  0.28667778511E+03  0.00000000000E+00 0. -1.
         11    1    1    2    0    0 -0.39692792049E+01 -0.23654465935E+02 -0.45998690393E+03  0.46061181132E+03  0.00000000000E+00 0.  1.
        -15    1    1    2    0    0 -0.50247017148E+01  0.34607553412E+02 -0.27060504955E+02  0.44253350584E+02  0.17770000000E+01 0. -1.
         15    1    1    2    0    0 -0.38126344147E+02 -0.15935774020E+02  0.20431255027E+03  0.20845705298E+03  0.17770000000E+01 0.  1.
</event>
<event>
 6    1  0.1599106E-003  0.5629613E+03  0.7546771E-02  0.9268998E-01
        -11   -1    0    0    0    0  0.00000000000E+00  0.00000000000E+00  0.50000000000E+03  0.50000000000E+03  0.00000000000E+00 0.  1.
         11   -1    0    0    0    0 -0.00000000000E+00 -0.00000000000E+00 -0.50000000000E+03  0.50000000000E+03  0.00000000000E+00 0.  1.
        -11    1    1    2    0    0 -0.75724657402E+01 -0.62710566944E-01  0.43697304687E+03  0.43703865946E+03  0.00000000000E+00 0.  1.
         11    1    1    2    0    0  0.13788296958E+02 -0.12373848958E+02 -0.40970555705E+03  0.41012421624E+03  0.00000000000E+00 0.  1.
        -15    1    1    2    0    0 -0.53048094881E+01 -0.10982986968E+02 -0.87404820807E+02  0.88269629181E+02  0.17770000000E+01 0. -1.
         15    1    1    2    0    0 -0.91102172996E+00  0.23419546493E+02  0.60137330986E+02  0.64567495117E+02  0.17770000000E+01 0.  1.
</event>
<event>
 6    1  0.1599106E-003  0.5068593E+03  0.7546771E-02  0.9384591E-01
        -11   -1    0    0    0    0  0.00000000000E+00  0.00000000000E+00  0.50000000000E+03  0.50000000000E+03  0.00000000000E+00 0.  1.
         11   -1    0    0    0    0 -0.00000000000E+00 -0.00000000000E+00 -0.50000000000E+03  0.50000000000E+03  0.00000000000E+00 0.  1.
        -11    1    1    2    0    0  0.66988060147E+01 -0.54621099758E+01  0.40263930585E+03  0.40273206883E+03  0.00000000000E+00 0.  1.
         11    1    1    2    0    0 -0.86975998470E+01  0.13038027778E+01 -0.49306231631E+03  0.49314074656E+03  0.00000000000E+00 0.  1.
        -15    1    1    2    0    0 -0.17844497519E+01  0.49804238857E+01  0.96524533073E+02  0.96685738850E+02  0.17770000000E+01 0. -1.
         15    1    1    2    0    0  0.37832435842E+01 -0.82211668772E+00 -0.61015226119E+01  0.74414457634E+01  0.17770000000E+01 0.  1.
</event>
<event>
 6    1  0.1599106E-003  0.5016791E+03  0.7546771E-02  0.9396061E-01
        -11   -1    0    0    0    0  0.00000000000E+00  0.00000000000E+00  0.50000000000E+03  0.50000000000E+03  0.00000000000E+00 0.  1.
         11   -1    0    0    0    0 -0.00000000000E+00 -0.00000000000E+00 -0.50000000000E+03  0.50000000000E+03  0.00000000000E+00 0. -1.
        -11    1    1    2    0    0 -0.77626145277E+01 -0.21407056488E+02  0.49780040762E+03  0.49832094686E+03  0.00000000000E+00 0.  1.
         11    1    1    2    0    0 -0.14861313749E+02  0.61240740500E+01 -0.22311903623E+03  0.22369726699E+03  0.00000000000E+00 0. -1.
        -15    1    1    2    0    0  0.63217389859E+01  0.35306048710E+01 -0.97038754455E+01  0.12237339671E+02  0.17770000000E+01 0. -1.
         15    1    1    2    0    0  0.16302189291E+02  0.11752377567E+02 -0.26497749594E+03  0.26574444649E+03  0.17770000000E+01 0.  1.
</event>
<event>
 6    1  0.1599106E-003  0.5012590E+03  0.7546771E-02  0.9396997E-01
        -11   -1    0    0    0    0  0.00000000000E+00  0.00000000000E+00  0.50000000000E+03  0.50000000000E+03  0.00000000000E+00 0.  1.
         11   -1    0    0    0    0 -0.00000000000E+00 -0.00000000000E+00 -0.50000000000E+03  0.50000000000E+03  0.00000000000E+00 0.  1.
        -11    1    1    2    0    0  0.64088024941E+01 -0.50814425696E+01  0.49867388796E+03  0.49874095515E+03  0.00000000000E+00 0.  1.
         11    1    1    2    0    0  0.63260769758E+00  0.42588462763E+01 -0.26017418819E+03  0.26020981182E+03  0.00000000000E+00 0.  1.
        -15    1    1    2    0    0 -0.35095975851E+01  0.97572536534E+00 -0.23664459837E+03  0.23667930409E+03  0.17770000000E+01 0.  1.
         15    1    1    2    0    0 -0.35318126066E+01 -0.15312907207E+00 -0.18551013970E+01  0.43699289461E+01  0.17770000000E+01 0. -1.
</event>
<event>
 6    1  0.1599106E-003  0.5277632E+03  0.7546771E-02  0.9339744E-01
        -11   -1    0    0    0    0  0.00000000000E+00  0.00000000000E+00  0.50000000000E+03  0.50000000000E+03  0.00000000000E+00 0.  1.
         11   -1    0    0    0    0 -0.00000000000E+00 -0.00000000000E+00 -0.50000000000E+03  0.50000000000E+03  0.00000000000E+00 0.  1.
        -11    1    1    2    0    0 -0.14839322037E+02  0.33847617878E+01  0.38251411791E+03  0.38281681323E+03  0.00000000000E+00 0.  1.
         11    1    1    2    0    0 -0.69748937880E+01 -0.77271426786E+00 -0.47218469105E+03  0.47223683538E+03  0.00000000000E+00 0.  1.
        -15    1    1    2    0    0  0.42414025989E+02 -0.37270738853E+01  0.10874295603E+03  0.11679481536E+03  0.17770000000E+01 0. -1.
         15    1    1    2    0    0 -0.20599810164E+02  0.11150263653E+01 -0.19072382889E+02  0.28151536027E+02  0.17770000000E+01 0.  1.
</event>
<event>
 6    1  0.1599106E-003  0.5020126E+03  0.7546771E-02  0.9395318E-01
        -11   -1    0    0    0    0  0.00000000000E+00  0.00000000000E+00  0.50000000000E+03  0.50000000000E+03  0.00000000000E+00 0. -1.
         11   -1    0    0    0    0 -0.00000000000E+00 -0.00000000000E+00 -0.50000000000E+03  0.50000000000E+03  0.00000000000E+00 0. -1.
        -11    1    1    2    0    0  0.48595407376E+01  0.74196327721E+01  0.35069282025E+03  0.35080496043E+03  0.00000000000E+00 0. -1.
         11    1    1    2    0    0 -0.14842246290E+02  0.76283084528E+01 -0.49770772553E+03  0.49798741291E+03  0.00000000000E+00 0. -1.
        -15    1    1    2    0    0 -0.45016700140E+01 -0.13524946511E+02  0.11612671829E+03  0.11701180129E+03  0.17770000000E+01 0. -1.
         15    1    1    2    0    0  0.14484375567E+02 -0.15229947135E+01  0.30888186994E+02  0.34195825377E+02  0.17770000000E+01 0.  1.
</event>
<event>
 6    1  0.1599106E-003  0.5015357E+03  0.7546771E-02  0.9396380E-01
        -11   -1    0    0    0    0  0.00000000000E+00  0.00000000000E+00  0.50000000000E+03  0.50000000000E+03  0.00000000000E+00 0.  1.
         11   -1    0    0    0    0 -0.00000000000E+00 -0.00000000000E+00 -0.50000000000E+03  0.50000000000E+03  0.00000000000E+00 0. -1.
        -11    1    1    2    0    0 -0.29716343965E+02  0.45942177627E+00  0.49757755929E+03  0.49846434143E+03  0.00000000000E+00 0.  1.
         11    1    1    2    0    0  0.34700688815E+01 -0.34062977071E+01 -0.27362237178E+03  0.27366557434E+03  0.00000000000E+00 0. -1.
        -15    1    1    2    0    0 -0.92240018171E+00  0.32931682432E+01 -0.12978829903E+03  0.12984550848E+03  0.17770000000E+01 0. -1.
         15    1    1    2    0    0  0.27168675265E+02 -0.34629231231E+00 -0.94166888485E+02  0.98024575745E+02  0.17770000000E+01 0.  1.
</event>
<event>
 6    1  0.1599106E-003  0.5117391E+03  0.7546771E-02  0.9373919E-01
        -11   -1    0    0    0    0  0.00000000000E+00  0.00000000000E+00  0.50000000000E+03  0.50000000000E+03  0.00000000000E+00 0.  1.
         11   -1    0    0    0    0 -0.00000000000E+00 -0.00000000000E+00 -0.50000000000E+03  0.50000000000E+03  0.00000000000E+00 0.  1.
        -11    1    1    2    0    0 -0.12944122183E+01 -0.75564767580E+01  0.47709729831E+03  0.47715889167E+03  0.00000000000E+00 0.  1.
         11    1    1    2    0    0 -0.37016067428E+01 -0.84540216241E+01 -0.48817368706E+03  0.48826091500E+03  0.00000000000E+00 0.  1.
        -15    1    1    2    0    0 -0.77474750145E+01 -0.16157743767E+01  0.97981231882E+01  0.12719868040E+02  0.17770000000E+01 0.  1.
         15    1    1    2    0    0  0.12743493975E+02  0.17626272759E+02  0.12782655641E+01  0.21860325293E+02  0.17770000000E+01 0. -1.
</event>
<event>
 6    1  0.1599106E-003  0.5062689E+03  0.7546771E-02  0.9385891E-01
        -11   -1    0    0    0    0  0.00000000000E+00  0.00000000000E+00  0.50000000000E+03  0.50000000000E+03  0.00000000000E+00 0.  1.
         11   -1    0    0    0    0 -0.00000000000E+00 -0.00000000000E+00 -0.50000000000E+03  0.50000000000E+03  0.00000000000E+00 0. -1.
        -11    1    1    2    0    0  0.84950003959E+01  0.89137435474E+00  0.49365723958E+03  0.49373113105E+03  0.00000000000E+00 0.  1.
         11    1    1    2    0    0  0.95431610085E+01 -0.11600266880E+02 -0.37986028447E+03  0.38015716990E+03  0.00000000000E+00 0. -1.
        -15    1    1    2    0    0 -0.18682193134E+02  0.40646449681E+01 -0.92088001062E+01  0.21295666400E+02  0.17770000000E+01 0. -1.
         15    1    1    2    0    0  0.64403172996E+00  0.66442475572E+01 -0.10458815501E+03  0.10481603265E+03  0.17770000000E+01 0.  1.
</event>
<event>
 6    1  0.1599106E-003  0.5009035E+03  0.7546771E-02  0.9397790E-01
        -11   -1    0    0    0    0  0.00000000000E+00  0.00000000000E+00  0.50000000000E+03  0.50000000000E+03  0.00000000000E+00 0. -1.
         11   -1    0    0    0    0 -0.00000000000E+00 -0.00000000000E+00 -0.50000000000E+03  0.50000000000E+03  0.00000000000E+00 0. -1.
        -11    1    1    2    0    0 -0.16034210655E+01 -0.79160664564E+01  0.49903110525E+03  0.49909646270E+03  0.00000000000E+00 0. -1.
         11    1    1    2    0    0  0.48623656126E+01  0.29588349507E+01 -0.41445801167E+03  0.41449709377E+03  0.00000000000E+00 0. -1.
        -15    1    1    2    0    0 -0.68050212418E+00  0.81093440160E+01 -0.19794808993E+02  0.21475957151E+02  0.17770000000E+01 0. -1.
         15    1    1    2    0    0 -0.25784424229E+01 -0.31521125103E+01 -0.64778284592E+02  0.64930486386E+02  0.17770000000E+01 0.  1.
</event>
<event>
 6    1  0.1599106E-003  0.5032763E+03  0.7546771E-02  0.9392508E-01
        -11   -1    0    0    0    0  0.00000000000E+00  0.00000000000E+00  0.50000000000E+03  0.50000000000E+03  0.00000000000E+00 0.  1.
         11   -1    0    0    0    0 -0.00000000000E+00 -0.00000000000E+00 -0.50000000000E+03  0.50000000000E+03  0.00000000000E+00 0.  1.
        -11    1    1    2    0    0 -0.18787202931E+00 -0.76403599529E+01  0.26449861701E+03  0.26460901118E+03  0.00000000000E+00 0.  1.
         11    1    1    2    0    0  0.11742681628E+02  0.22550469851E+02 -0.49607257935E+03  0.49672368400E+03  0.00000000000E+00 0.  1.
        -15    1    1    2    0    0 -0.20602548684E+02  0.92826552849E+00  0.31109837135E+02  0.37367183260E+02  0.17770000000E+01 0.  1.
         15    1    1    2    0    0  0.90477390852E+01 -0.15838375427E+02  0.20046412521E+03  0.20130012157E+03  0.17770000000E+01 0. -1.
</event>
<event>
 6    1  0.1599106E-003  0.5022405E+03  0.7546771E-02  0.9394810E-01
        -11   -1    0    0    0    0  0.00000000000E+00  0.00000000000E+00  0.50000000000E+03  0.50000000000E+03  0.00000000000E+00 0.  1.
         11   -1    0    0    0    0 -0.00000000000E+00 -0.00000000000E+00 -0.50000000000E+03  0.50000000000E+03  0.00000000000E+00 0.  1.
        -11    1    1    2    0    0 -0.18763644957E+02 -0.27681438966E+01  0.49739796986E+03  0.49775945739E+03  0.00000000000E+00 0.  1.
         11    1    1    2    0    0 -0.10063692159E+01  0.66505405099E+01 -0.34992510205E+03  0.34998974201E+03  0.00000000000E+00 0.  1.
        -15    1    1    2    0    0 -0.16192466313E+01  0.12910154895E+00  0.67670333929E+00  0.25008565078E+01  0.17770000000E+01 0. -1.
         15    1    1    2    0    0  0.21389260804E+02 -0.40114981623E+01 -0.14814957116E+03  0.14974994410E+03  0.17770000000E+01 0.  1.
</event>
<event>
 6    1  0.1599106E-003  0.5115667E+03  0.7546771E-02  0.9374294E-01
        -11   -1    0    0    0    0  0.00000000000E+00  0.00000000000E+00  0.50000000000E+03  0.50000000000E+03  0.00000000000E+00 0. -1.
         11   -1    0    0    0    0 -0.00000000000E+00 -0.00000000000E+00 -0.50000000000E+03  0.50000000000E+03  0.00000000000E+00 0. -1.
        -11    1    1    2    0    0  0.74773272706E+01  0.11138367715E+02  0.46193916936E+03  0.46213393064E+03  0.00000000000E+00 0. -1.
         11    1    1    2    0    0  0.63625732186E+01  0.85257467167E+01 -0.48831739679E+03  0.48843326126E+03  0.00000000000E+00 0. -1.
        -15    1    1    2    0    0 -0.18884985397E+02 -0.13166247299E+02  0.14651054769E+01  0.23136486432E+02  0.17770000000E+01 0. -1.
         15    1    1    2    0    0  0.50450849074E+01 -0.64978671326E+01  0.24913121950E+02  0.26296321668E+02  0.17770000000E+01 0.  1.
</event>
<event>
 6    1  0.1599106E-003  0.5110399E+03  0.7546771E-02  0.9375440E-01
        -11   -1    0    0    0    0  0.00000000000E+00  0.00000000000E+00  0.50000000000E+03  0.50000000000E+03  0.00000000000E+00 0. -1.
         11   -1    0    0    0    0 -0.00000000000E+00 -0.00000000000E+00 -0.50000000000E+03  0.50000000000E+03  0.00000000000E+00 0.  1.
        -11    1    1    2    0    0 -0.89543136532E+01  0.12644985658E-01  0.34978117501E+03  0.34989577060E+03  0.00000000000E+00 0. -1.
         11    1    1    2    0    0  0.20015080608E+02  0.71897300962E+01 -0.48849737846E+03  0.48896010515E+03  0.00000000000E+00 0.  1.
        -15    1    1    2    0    0 -0.24759555461E+02 -0.13077838972E+02  0.74599692620E+01  0.29032298035E+02  0.17770000000E+01 0. -1.
         15    1    1    2    0    0  0.13698788506E+02  0.58754638901E+01  0.13125623419E+03  0.13211182621E+03  0.17770000000E+01 0.  1.
</event>
<event>
 6    1  0.1599106E-003  0.5068570E+03  0.7546771E-02  0.9384596E-01
        -11   -1    0    0    0    0  0.00000000000E+00  0.00000000000E+00  0.50000000000E+03  0.50000000000E+03  0.00000000000E+00 0.  1.
         11   -1    0    0    0    0 -0.00000000000E+00 -0.00000000000E+00 -0.50000000000E+03  0.50000000000E+03  0.00000000000E+00 0.  1.
        -11    1    1    2    0    0 -0.31504517146E+02  0.14744939912E+02  0.25312442338E+03  0.25550327115E+03  0.00000000000E+00 0.  1.
         11    1    1    2    0    0  0.96149520192E+01 -0.54492008631E-01 -0.49304924694E+03  0.49314299161E+03  0.00000000000E+00 0.  1.
        -15    1    1    2    0    0  0.24384377712E+02 -0.49104380174E+01  0.23981158706E+03  0.24110467705E+03  0.17770000000E+01 0.  1.
         15    1    1    2    0    0 -0.24948125850E+01 -0.97800098862E+01  0.11323649296E+00  0.10249060187E+02  0.17770000000E+01 0. -1.
</event>
<event>
 6    1  0.1599106E-003  0.5057493E+03  0.7546771E-02  0.9387036E-01
        -11   -1    0    0    0    0  0.00000000000E+00  0.00000000000E+00  0.50000000000E+03  0.50000000000E+03  0.00000000000E+00 0. -1.
         11   -1    0    0    0    0 -0.00000000000E+00 -0.00000000000E+00 -0.50000000000E+03  0.50000000000E+03  0.00000000000E+00 0.  1.
        -11    1    1    2    0    0  0.49987919657E+00  0.95109679192E+01  0.49415893157E+03  0.49425070363E+03  0.00000000000E+00 0. -1.
         11    1    1    2    0    0  0.70132760537E+01  0.33323874604E+01 -0.39791619361E+03  0.39799194463E+03  0.00000000000E+00 0.  1.
        -15    1    1    2    0    0  0.10786241399E+02 -0.13951224632E+01 -0.79818502786E+02  0.80575681730E+02  0.17770000000E+01 0.  1.
         15    1    1    2    0    0 -0.18299396649E+02 -0.11448232916E+02 -0.16424235171E+02  0.27181670011E+02  0.17770000000E+01 0. -1.
</event>
<event>
 6    1  0.1599106E-003  0.5031601E+03  0.7546771E-02  0.9392766E-01
        -11   -1    0    0    0    0  0.00000000000E+00  0.00000000000E+00  0.50000000000E+03  0.50000000000E+03  0.00000000000E+00 0.  1.
         11   -1    0    0    0    0 -0.00000000000E+00 -0.00000000000E+00 -0.50000000000E+03  0.50000000000E+03  0.00000000000E+00 0.  1.
        -11    1    1    2    0    0  0.14996657041E+01  0.74020483914E+01  0.47095586730E+03  0.47101642037E+03  0.00000000000E+00 0.  1.
         11    1    1    2    0    0 -0.38508787242E+01  0.88419235161E+01 -0.49674628799E+03  0.49683989726E+03  0.00000000000E+00 0.  1.
        -15    1    1    2    0    0  0.15658124936E+01 -0.76869720744E+01  0.20191853461E+02  0.21734994447E+02  0.17770000000E+01 0. -1.
         15    1    1    2    0    0  0.78540052647E+00 -0.85569998330E+01  0.55985672355E+01  0.10408687920E+02  0.17770000000E+01 0.  1.
</event>
<event>
 6    1  0.1599106E-003  0.5660189E+03  0.7546771E-02  0.9263112E-01
        -11   -1    0    0    0    0  0.00000000000E+00  0.00000000000E+00  0.50000000000E+03  0.50000000000E+03  0.00000000000E+00 0.  1.
         11   -1    0    0    0    0 -0.00000000000E+00 -0.00000000000E+00 -0.50000000000E+03  0.50000000000E+03  0.00000000000E+00 0.  1.
        -11    1    1    2    0    0 -0.24851126211E+02 -0.11126679108E+03  0.41873821289E+03  0.43398106895E+03  0.00000000000E+00 0.  1.
         11    1    1    2    0    0  0.31372004538E+01 -0.13110586215E+02 -0.27052830344E+03  0.27086397409E+03  0.00000000000E+00 0.  1.
        -15    1    1    2    0    0  0.28392453718E+02  0.98198990570E+02 -0.20675561388E+03  0.23065171748E+03  0.17770000000E+01 0.  1.
         15    1    1    2    0    0 -0.66785279604E+01  0.26178386725E+02  0.58545704431E+02  0.64503239482E+02  0.17770000000E+01 0. -1.
</event>
<event>
 6    1  0.1599106E-003  0.5130616E+03  0.7546771E-02  0.9371049E-01
        -11   -1    0    0    0    0  0.00000000000E+00  0.00000000000E+00  0.50000000000E+03  0.50000000000E+03  0.00000000000E+00 0. -1.
         11   -1    0    0    0    0 -0.00000000000E+00 -0.00000000000E+00 -0.50000000000E+03  0.50000000000E+03  0.00000000000E+00 0. -1.
        -11    1    1    2    0    0 -0.72595536004E+01  0.13267615954E+02  0.48670351126E+03  0.48693843412E+03  0.00000000000E+00 0. -1.
         11    1    1    2    0    0  0.67119697412E+01 -0.16002622487E+01 -0.46235280246E+03  0.46240428774E+03  0.00000000000E+00 0. -1.
        -15    1    1    2    0    0 -0.13709644693E+02  0.33029813659E+01  0.46885055768E+01  0.14966758402E+02  0.17770000000E+01 0.  1.
         15    1    1    2    0    0  0.14257228552E+02 -0.14970335071E+02 -0.29039214382E+02  0.35690519737E+02  0.17770000000E+01 0. -1.
</event>
<event>
 6    1  0.1599106E-003  0.4802775E+03  0.7546771E-02  0.9445055E-01
        -11   -1    0    0    0    0  0.00000000000E+00  0.00000000000E+00  0.50000000000E+03  0.50000000000E+03  0.00000000000E+00 0. -1.
         11   -1    0    0    0    0 -0.00000000000E+00 -0.00000000000E+00 -0.50000000000E+03  0.50000000000E+03  0.00000000000E+00 0. -1.
        -11    1    1    2    0    0  0.54169836437E+01  0.68238963496E+01  0.48061461281E+03  0.48069357736E+03  0.00000000000E+00 0. -1.
         11    1    1    2    0    0 -0.30487272300E+01  0.85035826473E+01 -0.47990187337E+03  0.47998688912E+03  0.00000000000E+00 0. -1.
        -15    1    1    2    0    0 -0.34979774250E+01 -0.74472861690E+01 -0.18184125732E+02  0.20037915934E+02  0.17770000000E+01 0.  1.
         15    1    1    2    0    0  0.11297210113E+01 -0.78801928279E+01  0.17471386298E+02  0.19281617586E+02  0.17770000000E+01 0. -1.
</event>
<event>
 6    1  0.1599106E-003  0.5011222E+03  0.7546771E-02  0.9397302E-01
        -11   -1    0    0    0    0  0.00000000000E+00  0.00000000000E+00  0.50000000000E+03  0.50000000000E+03  0.00000000000E+00 0.  1.
         11   -1    0    0    0    0 -0.00000000000E+00 -0.00000000000E+00 -0.50000000000E+03  0.50000000000E+03  0.00000000000E+00 0. -1.
        -11    1    1    2    0    0 -0.15130612065E+02  0.38967619677E+01  0.49863306310E+03  0.49887779244E+03  0.00000000000E+00 0.  1.
         11    1    1    2    0    0 -0.42728274071E+01 -0.31488438318E+01 -0.25194537916E+03  0.25200128244E+03  0.00000000000E+00 0. -1.
        -15    1    1    2    0    0 -0.58852153645E+00 -0.11044350056E+02 -0.11182887029E+03  0.11238851358E+03  0.17770000000E+01 0. -1.
         15    1    1    2    0    0  0.19991961008E+02  0.10296431920E+02 -0.13485881366E+03  0.13673241154E+03  0.17770000000E+01 0.  1.
</event>
<event>
 6    1  0.1599106E-003  0.5142449E+03  0.7546771E-02  0.9368488E-01
        -11   -1    0    0    0    0  0.00000000000E+00  0.00000000000E+00  0.50000000000E+03  0.50000000000E+03  0.00000000000E+00 0.  1.
         11   -1    0    0    0    0 -0.00000000000E+00 -0.00000000000E+00 -0.50000000000E+03  0.50000000000E+03  0.00000000000E+00 0. -1.
        -11    1    1    2    0    0  0.21703346026E+01 -0.30242824812E+01  0.25072467578E+03  0.25075230743E+03  0.00000000000E+00 0.  1.
         11    1    1    2    0    0 -0.15874433916E+02 -0.35566022540E+01 -0.48548262401E+03  0.48575510835E+03  0.00000000000E+00 0. -1.
        -15    1    1    2    0    0 -0.14022611932E+01  0.39078921801E+02  0.22197812171E+03  0.22540313377E+03  0.17770000000E+01 0.  1.
         15    1    1    2    0    0  0.15106360507E+02 -0.32498037066E+02  0.12779826518E+02  0.38089450452E+02  0.17770000000E+01 0. -1.
</event>
<event>
 6    1  0.1599106E-003  0.5055061E+03  0.7546771E-02  0.9387573E-01
        -11   -1    0    0    0    0  0.00000000000E+00  0.00000000000E+00  0.50000000000E+03  0.50000000000E+03  0.00000000000E+00 0. -1.
         11   -1    0    0    0    0 -0.00000000000E+00 -0.00000000000E+00 -0.50000000000E+03  0.50000000000E+03  0.00000000000E+00 0.  1.
        -11    1    1    2    0    0  0.25285067121E+01  0.22862018528E+02  0.49395862282E+03  0.49449386882E+03  0.00000000000E+00 0. -1.
         11    1    1    2    0    0 -0.60358282741E+01  0.76692726366E+01 -0.40297865403E+03  0.40309681787E+03  0.00000000000E+00 0.  1.
        -15    1    1    2    0    0  0.14631023663E+02 -0.31237584196E+02 -0.77358723824E+02  0.84719439331E+02  0.17770000000E+01 0.  1.
         15    1    1    2    0    0 -0.11123702101E+02  0.70629303206E+00 -0.13621244963E+02  0.17689873986E+02  0.17770000000E+01 0. -1.
</event>
<event>
 6    1  0.1599106E-003  0.5003830E+03  0.7546771E-02  0.9398953E-01
        -11   -1    0    0    0    0  0.00000000000E+00  0.00000000000E+00  0.50000000000E+03  0.50000000000E+03  0.00000000000E+00 0.  1.
         11   -1    0    0    0    0 -0.00000000000E+00 -0.00000000000E+00 -0.50000000000E+03  0.50000000000E+03  0.00000000000E+00 0. -1.
        -11    1    1    2    0    0  0.12977744680E+02 -0.42544559412E+01  0.49943028152E+03  0.49961698165E+03  0.00000000000E+00 0.  1.
         11    1    1    2    0    0 -0.11180762612E+01  0.37726404830E+00 -0.36733250053E+02  0.36752198330E+02  0.00000000000E+00 0. -1.
        -15    1    1    2    0    0 -0.18591131917E+02 -0.17297279225E+01 -0.23051484811E+03  0.23127662025E+03  0.17770000000E+01 0.  1.
         15    1    1    2    0    0  0.67314634988E+01  0.56069198154E+01 -0.23218218336E+03  0.23235419977E+03  0.17770000000E+01 0. -1.
</event>
<event>
 6    1  0.1599106E-003  0.5163304E+03  0.7546771E-02  0.9363993E-01
        -11   -1    0    0    0    0  0.00000000000E+00  0.00000000000E+00  0.50000000000E+03  0.50000000000E+03  0.00000000000E+00 0.  1.
         11   -1    0    0    0    0 -0.00000000000E+00 -0.00000000000E+00 -0.50000000000E+03  0.50000000000E+03  0.00000000000E+00 0. -1.
        -11    1    1    2    0    0 -0.19307040656E+02  0.46427429316E+01  0.47409980593E+03  0.47451548222E+03  0.00000000000E+00 0.  1.
         11    1    1    2    0    0  0.10550161176E+02  0.38763313572E+01 -0.48353901767E+03  0.48366963256E+03  0.00000000000E+00 0. -1.
        -15    1    1    2    0    0  0.16783621782E+02 -0.24089009003E+01  0.20551185891E+02  0.26702092319E+02  0.17770000000E+01 0.  1.
         15    1    1    2    0    0 -0.80267423016E+01 -0.61101733884E+01 -0.11111974153E+02  0.15112792905E+02  0.17770000000E+01 0. -1.
</event>
<event>
 6    1  0.1599106E-003  0.3318231E+03  0.7546771E-02  0.9882518E-01
        -11   -1    0    0    0    0  0.00000000000E+00  0.00000000000E+00  0.50000000000E+03  0.50000000000E+03  0.00000000000E+00 0.  1.
         11   -1    0    0    0    0 -0.00000000000E+00 -0.00000000000E+00 -0.50000000000E+03  0.50000000000E+03  0.00000000000E+00 0.  1.
        -11    1    1    2    0    0  0.19880961240E+01 -0.17472737584E+02  0.15988453224E+03  0.16084872625E+03  0.00000000000E+00 0.  1.
         11    1    1    2    0    0  0.13852601842E+02  0.18894614897E+02 -0.38779136114E+03  0.38849844379E+03  0.00000000000E+00 0.  1.
        -15    1    1    2    0    0  0.12499859956E+03  0.74781811602E+02 -0.28414817155E+02  0.14841674030E+03  0.17770000000E+01 0.  1.
         15    1    1    2    0    0 -0.14083929753E+03 -0.76203688915E+02  0.25632164605E+03  0.30223608967E+03  0.17770000000E+01 0. -1.
</event>
<event>
 6    1  0.1599106E-003  0.5016898E+03  0.7546771E-02  0.9396037E-01
        -11   -1    0    0    0    0  0.00000000000E+00  0.00000000000E+00  0.50000000000E+03  0.50000000000E+03  0.00000000000E+00 0.  1.
         11   -1    0    0    0    0 -0.00000000000E+00 -0.00000000000E+00 -0.50000000000E+03  0.50000000000E+03  0.00000000000E+00 0. -1.
        -11    1    1    2    0    0 -0.23761395143E+02 -0.12214391698E+02  0.49759346264E+03  0.49831019388E+03  0.00000000000E+00 0.  1.
         11    1    1    2    0    0 -0.37015327058E+01 -0.24547051551E+01 -0.74004446468E+02  0.74137608667E+02  0.00000000000E+00 0. -1.
        -15    1    1    2    0    0  0.23878818578E+02  0.20325249874E+02 -0.12508963446E+03  0.12897243170E+03  0.17770000000E+01 0. -1.
         15    1    1    2    0    0  0.35841092705E+01 -0.56561530210E+01 -0.29849938171E+03  0.29857976576E+03  0.17770000000E+01 0.  1.
</event>
<event>
 6    1  0.1599106E-003  0.6202479E+03  0.7546771E-02  0.9164834E-01
        -11   -1    0    0    0    0  0.00000000000E+00  0.00000000000E+00  0.50000000000E+03  0.50000000000E+03  0.00000000000E+00 0.  1.
         11   -1    0    0    0    0 -0.00000000000E+00 -0.00000000000E+00 -0.50000000000E+03  0.50000000000E+03  0.00000000000E+00 0.  1.
        -11    1    1    2    0    0 -0.28406733988E+02  0.23147898401E+02  0.37798000014E+03  0.37975208787E+03  0.00000000000E+00 0.  1.
         11    1    1    2    0    0 -0.51874852420E+00  0.12221084665E+02 -0.29332139186E+03  0.29357633238E+03  0.00000000000E+00 0.  1.
        -15    1    1    2    0    0 -0.29613303468E+02 -0.68875708821E+02 -0.18847980489E+03  0.20285119075E+03  0.17770000000E+01 0. -1.
         15    1    1    2    0    0  0.58538785980E+02  0.33506725755E+02  0.10382119662E+03  0.12382038900E+03  0.17770000000E+01 0.  1.
</event>
<event>
 6    1  0.1599106E-003  0.5043086E+03  0.7546771E-02  0.9390220E-01
        -11   -1    0    0    0    0  0.00000000000E+00  0.00000000000E+00  0.50000000000E+03  0.50000000000E+03  0.00000000000E+00 0. -1.
         11   -1    0    0    0    0 -0.00000000000E+00 -0.00000000000E+00 -0.50000000000E+03  0.50000000000E+03  0.00000000000E+00 0.  1.
        -11    1    1    2    0    0  0.28966389416E+01 -0.52101419140E+01  0.28904994781E+03  0.28911141179E+03  0.00000000000E+00 0. -1.
         11    1    1    2    0    0  0.25223057438E+02 -0.27237793673E+02 -0.49429939418E+03  0.49569142732E+03  0.00000000000E+00 0.  1.
        -15    1    1    2    0    0 -0.21615725493E+02 -0.43452483805E+01  0.39426432547E+02  0.45207544553E+02  0.17770000000E+01 0.  1.
         15    1    1    2    0    0 -0.65039708864E+01  0.36793183967E+02  0.16582301382E+03  0.16998961634E+03  0.17770000000E+01 0. -1.
</event>
<event>
 6    1  0.1599106E-003  0.5165025E+03  0.7546771E-02  0.9363623E-01
        -11   -1    0    0    0    0  0.00000000000E+00  0.00000000000E+00  0.50000000000E+03  0.50000000000E+03  0.00000000000E+00 0. -1.
         11   -1    0    0    0    0 -0.00000000000E+00 -0.00000000000E+00 -0.50000000000E+03  0.50000000000E+03  0.00000000000E+00 0.  1.
        -11    1    1    2    0    0  0.77460095923E+01 -0.25005371610E+01  0.47771126048E+03  0.47778060000E+03  0.00000000000E+00 0. -1.
         11    1    1    2    0    0 -0.83270575792E+01 -0.65763604412E+01 -0.48338103159E+03  0.48349747684E+03  0.00000000000E+00 0.  1.
        -15    1    1    2    0    0 -0.14000273601E+00  0.93298429877E+01  0.21116538409E+02  0.23154513477E+02  0.17770000000E+01 0. -1.
         15    1    1    2    0    0  0.72105072288E+00 -0.25294538547E+00 -0.15446767292E+02  0.15567409684E+02  0.17770000000E+01 0.  1.
</event>
<event>
 6    1  0.1599106E-003  0.4699758E+03  0.7546771E-02  0.9469617E-01
        -11   -1    0    0    0    0  0.00000000000E+00  0.00000000000E+00  0.50000000000E+03  0.50000000000E+03  0.00000000000E+00 0. -1.
         11   -1    0    0    0    0 -0.00000000000E+00 -0.00000000000E+00 -0.50000000000E+03  0.50000000000E+03  0.00000000000E+00 0. -1.
        -11    1    1    2    0    0  0.13043754778E+02  0.51610798495E+02  0.47139632298E+03  0.47439256674E+03  0.00000000000E+00 0. -1.
         11    1    1    2    0    0 -0.76028417093E-01 -0.58785650904E+00 -0.15110509658E+02  0.15122131388E+02  0.00000000000E+00 0. -1.
        -15    1    1    2    0    0  0.62440391274E+01 -0.42312582181E+02  0.98031580532E+01  0.43915854453E+02  0.17770000000E+01 0.  1.
         15    1    1    2    0    0 -0.19211765488E+02 -0.87103598047E+01 -0.46608897137E+03  0.46656944742E+03  0.17770000000E+01 0. -1.
</event>
<event>
 6    1  0.1599106E-003  0.5005512E+03  0.7546771E-02  0.9398577E-01
        -11   -1    0    0    0    0  0.00000000000E+00  0.00000000000E+00  0.50000000000E+03  0.50000000000E+03  0.00000000000E+00 0. -1.
         11   -1    0    0    0    0 -0.00000000000E+00 -0.00000000000E+00 -0.50000000000E+03  0.50000000000E+03  0.00000000000E+00 0. -1.
        -11    1    1    2    0    0  0.65487110915E+00  0.25352664894E+01  0.85894352213E+02  0.85934254953E+02  0.00000000000E+00 0. -1.
         11    1    1    2    0    0 -0.30064171748E+01  0.15232747281E+02 -0.49920737139E+03  0.49944877093E+03  0.00000000000E+00 0. -1.
        -15    1    1    2    0    0 -0.35411483641E+00 -0.21252066027E+02  0.18056686389E+03  0.18182223673E+03  0.17770000000E+01 0.  1.
         15    1    1    2    0    0  0.27056609021E+01  0.34840522568E+01  0.23274615529E+03  0.23279473738E+03  0.17770000000E+01 0. -1.
</event>
<event>
 6    1  0.1599106E-003  0.5005535E+03  0.7546771E-02  0.9398572E-01
        -11   -1    0    0    0    0  0.00000000000E+00  0.00000000000E+00  0.50000000000E+03  0.50000000000E+03  0.00000000000E+00 0.  1.
         11   -1    0    0    0    0 -0.00000000000E+00 -0.00000000000E+00 -0.50000000000E+03  0.50000000000E+03  0.00000000000E+00 0. -1.
        -11    1    1    2    0    0 -0.49785856810E+01  0.81966742970E+01  0.49935438320E+03  0.49944646540E+03  0.00000000000E+00 0.  1.
         11    1    1    2    0    0 -0.61556612724E+01 -0.20862965073E+01 -0.18769766817E+03  0.18781016862E+03  0.00000000000E+00 0. -1.
        -15    1    1    2    0    0 -0.12804168137E+01 -0.11424831180E+02 -0.10608492759E+03  0.10672083126E+03  0.17770000000E+01 0. -1.
         15    1    1    2    0    0  0.12414663767E+02  0.53144533901E+01 -0.20557178743E+03  0.20602253471E+03  0.17770000000E+01 0.  1.
</event>
<event>
 6    1  0.1599106E-003  0.5009499E+03  0.7546771E-02  0.9397687E-01
        -11   -1    0    0    0    0  0.00000000000E+00  0.00000000000E+00  0.50000000000E+03  0.50000000000E+03  0.00000000000E+00 0. -1.
         11   -1    0    0    0    0 -0.00000000000E+00 -0.00000000000E+00 -0.50000000000E+03  0.50000000000E+03  0.00000000000E+00 0.  1.
        -11    1    1    2    0    0  0.48979534767E+01 -0.39732916976E+01  0.28086047216E+03  0.28093127597E+03  0.00000000000E+00 0. -1.
         11    1    1    2    0    0 -0.18721780835E+02  0.19762897017E+02 -0.49830710340E+03  0.49905014425E+03  0.00000000000E+00 0.  1.
        -15    1    1    2    0    0 -0.87987229681E+00  0.62938549718E+00  0.12301685417E+03  0.12303444412E+03  0.17770000000E+01 0.  1.
         15    1    1    2    0    0  0.14703699655E+02 -0.16418990816E+02  0.94429777069E+02  0.96984135658E+02  0.17770000000E+01 0. -1.
</event>
<event>
 6    1  0.1599106E-003  0.5026713E+03  0.7546771E-02  0.9393852E-01
        -11   -1    0    0    0    0  0.00000000000E+00  0.00000000000E+00  0.50000000000E+03  0.50000000000E+03  0.00000000000E+00 0. -1.
         11   -1    0    0    0    0 -0.00000000000E+00 -0.00000000000E+00 -0.50000000000E+03  0.50000000000E+03  0.00000000000E+00 0. -1.
        -11    1    1    2    0    0  0.17368384036E+01 -0.81681447173E+01  0.49725855877E+03  0.49732867348E+03  0.00000000000E+00 0. -1.
         11    1    1    2    0    0  0.12659207014E+02  0.19498324593E+02 -0.42600727761E+03  0.42664111471E+03  0.00000000000E+00 0. -1.
        -15    1    1    2    0    0 -0.42718460381E+00 -0.42677268681E+01 -0.20790950074E+01  0.50868796286E+01  0.17770000000E+01 0.  1.
         15    1    1    2    0    0 -0.13968860813E+02 -0.70624530078E+01 -0.69172186148E+02  0.70943332177E+02  0.17770000000E+01 0. -1.
</event>
<event>
 6    1  0.1599106E-003  0.5045274E+03  0.7546771E-02  0.9389736E-01
        -11   -1    0    0    0    0  0.00000000000E+00  0.00000000000E+00  0.50000000000E+03  0.50000000000E+03  0.00000000000E+00 0.  1.
         11   -1    0    0    0    0 -0.00000000000E+00 -0.00000000000E+00 -0.50000000000E+03  0.50000000000E+03  0.00000000000E+00 0. -1.
        -11    1    1    2    0    0 -0.14955146689E+01 -0.67839410711E+01  0.49542393746E+03  0.49547263924E+03  0.00000000000E+00 0.  1.
         11    1    1    2    0    0 -0.50550609811E+01 -0.93417955482E+01 -0.47213343511E+03  0.47225290188E+03  0.00000000000E+00 0. -1.
        -15    1    1    2    0    0  0.87779028907E+01  0.15560111568E+02 -0.23242619795E+02  0.29369129288E+02  0.17770000000E+01 0.  1.
         15    1    1    2    0    0 -0.22273272407E+01  0.56562505133E+00 -0.47882564377E-01  0.29053295985E+01  0.17770000000E+01 0. -1.
</event>
<event>
 6    1  0.1599106E-003  0.5015154E+03  0.7546771E-02  0.9396425E-01
        -11   -1    0    0    0    0  0.00000000000E+00  0.00000000000E+00  0.50000000000E+03  0.50000000000E+03  0.00000000000E+00 0. -1.
         11   -1    0    0    0    0 -0.00000000000E+00 -0.00000000000E+00 -0.50000000000E+03  0.50000000000E+03  0.00000000000E+00 0. -1.
        -11    1    1    2    0    0 -0.46005326108E+01 -0.99116871720E+01  0.49836484307E+03  0.49848462690E+03  0.00000000000E+00 0. -1.
         11    1    1    2    0    0 -0.37790251049E+01 -0.57230835947E+01 -0.16922976891E+03  0.16936867893E+03  0.00000000000E+00 0. -1.
        -15    1    1    2    0    0 -0.45314258335E+01  0.16529638114E+01 -0.41676629480E+01  0.66176470814E+01  0.17770000000E+01 0.  1.
         15    1    1    2    0    0  0.12910983549E+02  0.13981806955E+02 -0.32496741121E+03  0.32552904709E+03  0.17770000000E+01 0. -1.
</event>
<event>
 6    1  0.1599106E-003  0.4888875E+03  0.7546771E-02  0.9425024E-01
        -11   -1    0    0    0    0  0.00000000000E+00  0.00000000000E+00  0.50000000000E+03  0.50000000000E+03  0.00000000000E+00 0. -1.
         11   -1    0    0    0    0 -0.00000000000E+00 -0.00000000000E+00 -0.50000000000E+03  0.50000000000E+03  0.00000000000E+00 0.  1.
        -11    1    1    2    0    0 -0.92528620889E+01 -0.98081496339E+00  0.48635052967E+03  0.48643952879E+03  0.00000000000E+00 0. -1.
         11    1    1    2    0    0  0.23041702116E+01  0.94800246573E+01 -0.49131274269E+03  0.49140959616E+03  0.00000000000E+00 0.  1.
        -15    1    1    2    0    0  0.92992105358E+00 -0.77004748557E+01 -0.56756336534E+01  0.97740786030E+01  0.17770000000E+01 0. -1.
         15    1    1    2    0    0  0.60187708237E+01 -0.79873483819E+00  0.10637846670E+02  0.12376796449E+02  0.17770000000E+01 0. -1.
</event>
<event>
 6    1  0.1599106E-003  0.5024598E+03  0.7546771E-02  0.9394323E-01
        -11   -1    0    0    0    0  0.00000000000E+00  0.00000000000E+00  0.50000000000E+03  0.50000000000E+03  0.00000000000E+00 0. -1.
         11   -1    0    0    0    0 -0.00000000000E+00 -0.00000000000E+00 -0.50000000000E+03  0.50000000000E+03  0.00000000000E+00 0. -1.
        -11    1    1    2    0    0  0.44854307343E+01 -0.45799337822E+01  0.40530419702E+03  0.40535489020E+03  0.00000000000E+00 0. -1.
         11    1    1    2    0    0 -0.19843872508E+01  0.91411503057E+01 -0.49745229977E+03  0.49754023854E+03  0.00000000000E+00 0. -1.
        -15    1    1    2    0    0 -0.15355669020E+02 -0.24568739120E+00  0.63573314331E+02  0.65426148881E+02  0.17770000000E+01 0. -1.
         15    1    1    2    0    0  0.12854625536E+02 -0.43155291323E+01  0.28574788417E+02  0.31678722377E+02  0.17770000000E+01 0.  1.
</event>
<event>
 6    1  0.1599106E-003  0.5130167E+03  0.7546771E-02  0.9371146E-01
        -11   -1    0    0    0    0  0.00000000000E+00  0.00000000000E+00  0.50000000000E+03  0.50000000000E+03  0.00000000000E+00 0.  1.
         11   -1    0    0    0    0 -0.00000000000E+00 -0.00000000000E+00 -0.50000000000E+03  0.50000000000E+03  0.00000000000E+00 0.  1.
        -11    1    1    2    0    0 -0.93689083996E+01 -0.10168463422E+02  0.20808160362E+03  0.20854047055E+03  0.00000000000E+00 0.  1.
         11    1    1    2    0    0  0.12498400204E+02  0.13763746441E+01 -0.48682096040E+03  0.48698331788E+03  0.00000000000E+00 0.  1.
        -15    1    1    2    0    0 -0.80424125162E+01 -0.27351270540E+02  0.58540832256E+01  0.29158196423E+02  0.17770000000E+01 0. -1.
         15    1    1    2    0    0  0.49129207119E+01  0.36143359318E+02  0.27288527355E+03  0.27531801514E+03  0.17770000000E+01 0.  1.
</event>
<event>
 6    1  0.1599106E-003  0.5002179E+03  0.7546771E-02  0.9399322E-01
        -11   -1    0    0    0    0  0.00000000000E+00  0.00000000000E+00  0.50000000000E+03  0.50000000000E+03  0.00000000000E+00 0.  1.
         11   -1    0    0    0    0 -0.00000000000E+00 -0.00000000000E+00 -0.50000000000E+03  0.50000000000E+03  0.00000000000E+00 0.  1.
        -11    1    1    2    0    0 -0.72534788764E+01 -0.85971384530E+01  0.49965546838E+03  0.49978206333E+03  0.00000000000E+00 0.  1.
         11    1    1    2    0    0 -0.13093988423E+01  0.21346935501E+01 -0.17142460714E+03  0.17144289829E+03  0.00000000000E+00 0.  1.
        -15    1    1    2    0    0 -0.25312728028E+01 -0.29244673061E+01 -0.69319113206E+02  0.69449672683E+02  0.17770000000E+01 0.  1.
         15    1    1    2    0    0  0.11094150521E+02  0.93869122090E+01 -0.25891174803E+03  0.25932536570E+03  0.17770000000E+01 0.  1.
</event>
<event>
 6    1  0.1599106E-003  0.5388928E+03  0.7546771E-02  0.9316757E-01
        -11   -1    0    0    0    0  0.00000000000E+00  0.00000000000E+00  0.50000000000E+03  0.50000000000E+03  0.00000000000E+00 0. -1.
         11   -1    0    0    0    0 -0.00000000000E+00 -0.00000000000E+00 -0.50000000000E+03  0.50000000000E+03  0.00000000000E+00 0.  1.
        -11    1    1    2    0    0  0.32949664439E+01 -0.65225352858E+01  0.43186137544E+03  0.43192319672E+03  0.00000000000E+00 0. -1.
         11    1    1    2    0    0 -0.40407861971E+01  0.48619519349E+01 -0.46106384045E+03  0.46110718006E+03  0.00000000000E+00 0.  1.
        -15    1    1    2    0    0  0.10382580402E+02  0.42585379254E+02 -0.14593916781E+02  0.46232592811E+02  0.17770000000E+01 0. -1.
         15    1    1    2    0    0 -0.96367606483E+01 -0.40924795903E+02  0.43796381799E+02  0.60737030411E+02  0.17770000000E+01 0.  1.
</event>
<event>
 6    1  0.1599106E-003  0.4787563E+03  0.7546771E-02  0.9448640E-01
        -11   -1    0    0    0    0  0.00000000000E+00  0.00000000000E+00  0.50000000000E+03  0.50000000000E+03  0.00000000000E+00 0.  1.
         11   -1    0    0    0    0 -0.00000000000E+00 -0.00000000000E+00 -0.50000000000E+03  0.50000000000E+03  0.00000000000E+00 0. -1.
        -11    1    1    2    0    0 -0.17092533442E+02  0.14203358492E+02  0.48646797666E+03  0.48697534066E+03  0.00000000000E+00 0.  1.
         11    1    1    2    0    0 -0.65888430330E+01  0.16624704342E+01 -0.47103662965E+03  0.47108564310E+03  0.00000000000E+00 0. -1.
        -15    1    1    2    0    0  0.25885811274E+01 -0.26102085722E+01  0.71726980128E+01  0.82534396966E+01  0.17770000000E+01 0. -1.
         15    1    1    2    0    0  0.21092795347E+02 -0.13255620353E+02 -0.22604045026E+02  0.33685576543E+02  0.17770000000E+01 0.  1.
</event>
<event>
 6    1  0.1599106E-003  0.5045525E+03  0.7546771E-02  0.9389680E-01
        -11   -1    0    0    0    0  0.00000000000E+00  0.00000000000E+00  0.50000000000E+03  0.50000000000E+03  0.00000000000E+00 0.  1.
         11   -1    0    0    0    0 -0.00000000000E+00 -0.00000000000E+00 -0.50000000000E+03  0.50000000000E+03  0.00000000000E+00 0. -1.
        -11    1    1    2    0    0 -0.14472250316E+02  0.11972726697E+02  0.49509131932E+03  0.49544748125E+03  0.00000000000E+00 0.  1.
         11    1    1    2    0    0 -0.63534495188E+01  0.94461740715E+00 -0.40532134352E+03  0.40537223651E+03  0.00000000000E+00 0. -1.
        -15    1    1    2    0    0  0.13094127772E+02 -0.24938024261E+01 -0.83646624407E+02  0.84720662984E+02  0.17770000000E+01 0.  1.
         15    1    1    2    0    0  0.77315720629E+01 -0.10423541678E+02 -0.61233513892E+01  0.14459619252E+02  0.17770000000E+01 0.  1.
</event>
<event>
 6    1  0.1599106E-003  0.5072785E+03  0.7546771E-02  0.9383669E-01
        -11   -1    0    0    0    0  0.00000000000E+00  0.00000000000E+00  0.50000000000E+03  0.50000000000E+03  0.00000000000E+00 0.  1.
         11   -1    0    0    0    0 -0.00000000000E+00 -0.00000000000E+00 -0.50000000000E+03  0.50000000000E+03  0.00000000000E+00 0.  1.
        -11    1    1    2    0    0 -0.20444949514E+01  0.45581118352E+01  0.17432656171E+03  0.17439812631E+03  0.00000000000E+00 0.  1.
         11    1    1    2    0    0  0.84932208280E+01 -0.65959033766E+01 -0.49260411192E+03  0.49272147490E+03  0.00000000000E+00 0.  1.
        -15    1    1    2    0    0 -0.94288693785E+01  0.80390028461E+01 -0.18712509180E+01  0.12656557728E+02  0.17770000000E+01 0.  1.
         15    1    1    2    0    0  0.29801435019E+01 -0.60012113048E+01  0.32014880113E+03  0.32022384107E+03  0.17770000000E+01 0.  1.
</event>
<event>
 6    1  0.1599106E-003  0.5024430E+03  0.7546771E-02  0.9394360E-01
        -11   -1    0    0    0    0  0.00000000000E+00  0.00000000000E+00  0.50000000000E+03  0.50000000000E+03  0.00000000000E+00 0. -1.
         11   -1    0    0    0    0 -0.00000000000E+00 -0.00000000000E+00 -0.50000000000E+03  0.50000000000E+03  0.00000000000E+00 0. -1.
        -11    1    1    2    0    0 -0.30009803472E+01  0.15966777212E+02  0.49729168122E+03  0.49755699177E+03  0.00000000000E+00 0. -1.
         11    1    1    2    0    0  0.30056511917E+01  0.17217767607E+02 -0.18969743895E+03  0.19050092862E+03  0.00000000000E+00 0. -1.
        -15    1    1    2    0    0 -0.65168841118E+01 -0.34992429519E+02 -0.14933517480E+03  0.15352879881E+03  0.17770000000E+01 0.  1.
         15    1    1    2    0    0  0.65122132673E+01  0.18078847007E+01 -0.15825906747E+03  0.15841328080E+03  0.17770000000E+01 0. -1.
</event>
<event>
 6    1  0.1599106E-003  0.5088403E+03  0.7546771E-02  0.9380243E-01
        -11   -1    0    0    0    0  0.00000000000E+00  0.00000000000E+00  0.50000000000E+03  0.50000000000E+03  0.00000000000E+00 0. -1.
         11   -1    0    0    0    0 -0.00000000000E+00 -0.00000000000E+00 -0.50000000000E+03  0.50000000000E+03  0.00000000000E+00 0. -1.
        -11    1    1    2    0    0 -0.18423484609E+01 -0.12457135181E+02  0.49099824077E+03  0.49115969592E+03  0.00000000000E+00 0. -1.
         11    1    1    2    0    0 -0.10480540186E+00  0.69271034246E+01 -0.38199540316E+03  0.38205822041E+03  0.00000000000E+00 0. -1.
        -15    1    1    2    0    0 -0.36403240248E+01 -0.12047932610E+02 -0.10743669145E+03  0.10818597431E+03  0.17770000000E+01 0.  1.
         15    1    1    2    0    0  0.55874778875E+01  0.17577964366E+02 -0.15661461578E+01  0.18596109356E+02  0.17770000000E+01 0. -1.
</event>
<event>
 6    1  0.1599106E-003  0.5035859E+03  0.7546771E-02  0.9391822E-01
        -11   -1    0    0    0    0  0.00000000000E+00  0.00000000000E+00  0.50000000000E+03  0.50000000000E+03  0.00000000000E+00 0. -1.
         11   -1    0    0    0    0 -0.00000000000E+00 -0.00000000000E+00 -0.50000000000E+03  0.50000000000E+03  0.00000000000E+00 0.  1.
        -11    1    1    2    0    0  0.72608948668E+01 -0.45253973522E+01  0.49634038885E+03  0.49641412291E+03  0.00000000000E+00 0. -1.
         11    1    1    2    0    0  0.55352733284E+01 -0.30663372841E+01 -0.44292766521E+03  0.44297286405E+03  0.00000000000E+00 0.  1.
        -15    1    1    2    0    0 -0.65707772213E+01 -0.29619067919E+01 -0.19406599046E+01  0.76728022913E+01  0.17770000000E+01 0. -1.
         15    1    1    2    0    0 -0.62253909739E+01  0.10553641428E+02 -0.51472063741E+02  0.52940210756E+02  0.17770000000E+01 0.  1.
</event>
<event>
 6    1  0.1599106E-003  0.5505493E+03  0.7546771E-02  0.9293304E-01
        -11   -1    0    0    0    0  0.00000000000E+00  0.00000000000E+00  0.50000000000E+03  0.50000000000E+03  0.00000000000E+00 0. -1.
         11   -1    0    0    0    0 -0.00000000000E+00 -0.00000000000E+00 -0.50000000000E+03  0.50000000000E+03  0.00000000000E+00 0. -1.
        -11    1    1    2    0    0 -0.16807808322E+02  0.16624233110E+02  0.44882853494E+03  0.44945068842E+03  0.00000000000E+00 0. -1.
         11    1    1    2    0    0  0.14661689680E+02  0.43331584027E+02 -0.37075578798E+03  0.37356719026E+03  0.00000000000E+00 0. -1.
        -15    1    1    2    0    0 -0.37205198037E+02 -0.62093998391E+02  0.16714789742E+02  0.74313076388E+02  0.17770000000E+01 0.  1.
         15    1    1    2    0    0  0.39351316679E+02  0.21381812534E+01 -0.94787536704E+02  0.10266904493E+03  0.17770000000E+01 0. -1.
</event>
<event>
 6    1  0.1599106E-003  0.5130496E+03  0.7546771E-02  0.9371074E-01
        -11   -1    0    0    0    0  0.00000000000E+00  0.00000000000E+00  0.50000000000E+03  0.50000000000E+03  0.00000000000E+00 0. -1.
         11   -1    0    0    0    0 -0.00000000000E+00 -0.00000000000E+00 -0.50000000000E+03  0.50000000000E+03  0.00000000000E+00 0.  1.
        -11    1    1    2    0    0  0.75685515068E+01  0.16796223325E+01  0.48688867002E+03  0.48695038874E+03  0.00000000000E+00 0. -1.
         11    1    1    2    0    0 -0.18964659537E+02  0.18041426956E+02 -0.44281938515E+03  0.44359233454E+03  0.00000000000E+00 0.  1.
        -15    1    1    2    0    0  0.12402395390E+02 -0.12823354220E+02 -0.54168353683E+02  0.57058094033E+02  0.17770000000E+01 0. -1.
         15    1    1    2    0    0 -0.10062873595E+01 -0.68976950679E+01  0.10099068811E+02  0.12399182688E+02  0.17770000000E+01 0.  1.
</event>
<event>
 6    1  0.1599106E-003  0.5388017E+03  0.7546771E-02  0.9316943E-01
        -11   -1    0    0    0    0  0.00000000000E+00  0.00000000000E+00  0.50000000000E+03  0.50000000000E+03  0.00000000000E+00 0. -1.
         11   -1    0    0    0    0 -0.00000000000E+00 -0.00000000000E+00 -0.50000000000E+03  0.50000000000E+03  0.00000000000E+00 0.  1.
        -11    1    1    2    0    0 -0.37551334199E+01 -0.88027803226E+01  0.46109897884E+03  0.46119828518E+03  0.00000000000E+00 0. -1.
         11    1    1    2    0    0 -0.53948976403E+01 -0.49886014926E+01 -0.43236000809E+03  0.43242244120E+03  0.00000000000E+00 0.  1.
        -15    1    1    2    0    0  0.15570834263E+02 -0.13417419008E+02  0.32808931160E+02  0.38756440824E+02  0.17770000000E+01 0. -1.
         15    1    1    2    0    0 -0.64208032024E+01  0.27208800824E+02 -0.61547901912E+02  0.67622832791E+02  0.17770000000E+01 0.  1.
</event>
<event>
 6    1  0.1599106E-003  0.5026139E+03  0.7546771E-02  0.9393980E-01
        -11   -1    0    0    0    0  0.00000000000E+00  0.00000000000E+00  0.50000000000E+03  0.50000000000E+03  0.00000000000E+00 0.  1.
         11   -1    0    0    0    0 -0.00000000000E+00 -0.00000000000E+00 -0.50000000000E+03  0.50000000000E+03  0.00000000000E+00 0.  1.
        -11    1    1    2    0    0 -0.65355927825E+00  0.74630490241E+01  0.49732972454E+03  0.49738614692E+03  0.00000000000E+00 0.  1.
         11    1    1    2    0    0 -0.15148396851E+00 -0.11901304180E+02 -0.41930446897E+03  0.41947336231E+03  0.00000000000E+00 0.  1.
        -15    1    1    2    0    0 -0.24501255309E+01  0.11320702147E+02 -0.72799831447E+02  0.73736928333E+02  0.17770000000E+01 0. -1.
         15    1    1    2    0    0  0.32551687777E+01 -0.68824469903E+01 -0.52254241219E+01  0.94035624419E+01  0.17770000000E+01 0.  1.
</event>
<event>
 6    1  0.1599106E-003  0.5034061E+03  0.7546771E-02  0.9392220E-01
        -11   -1    0    0    0    0  0.00000000000E+00  0.00000000000E+00  0.50000000000E+03  0.50000000000E+03  0.00000000000E+00 0.  1.
         11   -1    0    0    0    0 -0.00000000000E+00 -0.00000000000E+00 -0.50000000000E+03  0.50000000000E+03  0.00000000000E+00 0.  1.
        -11    1    1    2    0    0 -0.82553998161E+01  0.57858323740E+00  0.49652492558E+03  0.49659388650E+03  0.00000000000E+00 0.  1.
         11    1    1    2    0    0  0.12175062258E+02  0.45645808710E+01 -0.47320934298E+03  0.47338794854E+03  0.00000000000E+00 0.  1.
        -15    1    1    2    0    0  0.39014776049E+01 -0.46290428980E+01 -0.11142883105E+01  0.64069441305E+01  0.17770000000E+01 0.  1.
         15    1    1    2    0    0 -0.78211400470E+01 -0.51412121042E+00 -0.22201294286E+02  0.23611220833E+02  0.17770000000E+01 0. -1.
</event>
<event>
 6    1  0.1599106E-003  0.5656824E+03  0.7546771E-02  0.9263758E-01
        -11   -1    0    0    0    0  0.00000000000E+00  0.00000000000E+00  0.50000000000E+03  0.50000000000E+03  0.00000000000E+00 0. -1.
         11   -1    0    0    0    0 -0.00000000000E+00 -0.00000000000E+00 -0.50000000000E+03  0.50000000000E+03  0.00000000000E+00 0. -1.
        -11    1    1    2    0    0 -0.65955450797E+02  0.15559712882E+02  0.42899829923E+03  0.43431758759E+03  0.00000000000E+00 0. -1.
         11    1    1    2    0    0 -0.10448648979E+02 -0.86213591477E+02 -0.10887887707E+03  0.13927156024E+03  0.00000000000E+00 0. -1.
        -15    1    1    2    0    0  0.65015110810E+02  0.85899545307E+02 -0.36343300602E+03  0.37906780939E+03  0.17770000000E+01 0. -1.
         15    1    1    2    0    0  0.11388988966E+02 -0.15245666712E+02  0.43313583865E+02  0.47343042777E+02  0.17770000000E+01 0.  1.
</event>
<event>
 6    1  0.1599106E-003  0.5021044E+03  0.7546771E-02  0.9395113E-01
        -11   -1    0    0    0    0  0.00000000000E+00  0.00000000000E+00  0.50000000000E+03  0.50000000000E+03  0.00000000000E+00 0.  1.
         11   -1    0    0    0    0 -0.00000000000E+00 -0.00000000000E+00 -0.50000000000E+03  0.50000000000E+03  0.00000000000E+00 0.  1.
        -11    1    1    2    0    0 -0.54058083235E+01  0.40839456563E+01  0.49784951457E+03  0.49789561209E+03  0.00000000000E+00 0.  1.
         11    1    1    2    0    0  0.84262235289E+01 -0.76379797138E+01 -0.43754267506E+03  0.43769045280E+03  0.00000000000E+00 0.  1.
        -15    1    1    2    0    0 -0.71071351273E+01  0.78046361899E+01 -0.55709972886E+02  0.56729027171E+02  0.17770000000E+01 0.  1.
         15    1    1    2    0    0  0.40867199219E+01 -0.42506021324E+01 -0.45968666272E+01  0.76849079367E+01  0.17770000000E+01 0.  1.
</event>
<event>
 6    1  0.1599106E-003  0.5043993E+03  0.7546771E-02  0.9390019E-01
        -11   -1    0    0    0    0  0.00000000000E+00  0.00000000000E+00  0.50000000000E+03  0.50000000000E+03  0.00000000000E+00 0. -1.
         11   -1    0    0    0    0 -0.00000000000E+00 -0.00000000000E+00 -0.50000000000E+03  0.50000000000E+03  0.00000000000E+00 0.  1.
        -11    1    1    2    0    0 -0.36306518634E+01  0.24782246639E+02  0.49496735527E+03  0.49560067006E+03  0.00000000000E+00 0. -1.
         11    1    1    2    0    0 -0.12357301750E+01 -0.20220563314E+01 -0.56968512642E+02  0.57017779451E+02  0.00000000000E+00 0.  1.
        -15    1    1    2    0    0  0.15289850291E+02 -0.19414784276E+02 -0.28628839790E+02  0.37861346610E+02  0.17770000000E+01 0. -1.
         15    1    1    2    0    0 -0.10423468253E+02 -0.33454060320E+01 -0.40937000284E+03  0.40952020388E+03  0.17770000000E+01 0.  1.
</event>
<event>
 6    1  0.1599106E-003  0.4732934E+03  0.7546771E-02  0.9461634E-01
        -11   -1    0    0    0    0  0.00000000000E+00  0.00000000000E+00  0.50000000000E+03  0.50000000000E+03  0.00000000000E+00 0. -1.
         11   -1    0    0    0    0 -0.00000000000E+00 -0.00000000000E+00 -0.50000000000E+03  0.50000000000E+03  0.00000000000E+00 0. -1.
        -11    1    1    2    0    0 -0.55178910604E+01  0.97767538992E+01  0.46948785254E+03  0.46962205625E+03  0.00000000000E+00 0. -1.
         11    1    1    2    0    0  0.73314588189E+01  0.39875936443E+01 -0.47702350750E+03  0.47709650795E+03  0.00000000000E+00 0. -1.
        -15    1    1    2    0    0 -0.11004326943E+02 -0.11225848218E+02 -0.19178320973E+02  0.24861226921E+02  0.17770000000E+01 0.  1.
         15    1    1    2    0    0  0.91907591847E+01 -0.25384993253E+01  0.26713975936E+02  0.28420208875E+02  0.17770000000E+01 0. -1.
</event>
<event>
 6    1  0.1599106E-003  0.4807678E+03  0.7546771E-02  0.9443902E-01
        -11   -1    0    0    0    0  0.00000000000E+00  0.00000000000E+00  0.50000000000E+03  0.50000000000E+03  0.00000000000E+00 0. -1.
         11   -1    0    0    0    0 -0.00000000000E+00 -0.00000000000E+00 -0.50000000000E+03  0.50000000000E+03  0.00000000000E+00 0. -1.
        -11    1    1    2    0    0 -0.19970695860E+02  0.77096186425E+00  0.47388930591E+03  0.47431054947E+03  0.00000000000E+00 0. -1.
         11    1    1    2    0    0 -0.11163237810E+02 -0.19194401405E+01 -0.48769721050E+03  0.48782873149E+03  0.00000000000E+00 0. -1.
        -15    1    1    2    0    0  0.85897270162E+01 -0.33278076063E+01 -0.23958601870E+01  0.96827469611E+01  0.17770000000E+01 0.  1.
         15    1    1    2    0    0  0.22544206654E+02  0.44762858825E+01  0.16203764777E+02  0.28177972087E+02  0.17770000000E+01 0. -1.
</event>
<event>
 6    1  0.1599106E-003  0.5047004E+03  0.7546771E-02  0.9389353E-01
        -11   -1    0    0    0    0  0.00000000000E+00  0.00000000000E+00  0.50000000000E+03  0.50000000000E+03  0.00000000000E+00 0. -1.
         11   -1    0    0    0    0 -0.00000000000E+00 -0.00000000000E+00 -0.50000000000E+03  0.50000000000E+03  0.00000000000E+00 0. -1.
        -11    1    1    2    0    0  0.95209862775E+01 -0.36214699277E+01  0.44410013977E+03  0.44421694966E+03  0.00000000000E+00 0. -1.
         11    1    1    2    0    0  0.42970986257E+01 -0.57761569170E+01 -0.49524726252E+03  0.49529958619E+03  0.00000000000E+00 0. -1.
        -15    1    1    2    0    0 -0.12315228066E+02  0.60789721491E+01  0.53856184943E+02  0.55608139065E+02  0.17770000000E+01 0.  1.
         15    1    1    2    0    0 -0.15028568369E+01  0.33186546956E+01 -0.27090621898E+01  0.48753250772E+01  0.17770000000E+01 0. -1.
</event>
<event>
 6    1  0.1599106E-003  0.5027238E+03  0.7546771E-02  0.9393735E-01
        -11   -1    0    0    0    0  0.00000000000E+00  0.00000000000E+00  0.50000000000E+03  0.50000000000E+03  0.00000000000E+00 0.  1.
         11   -1    0    0    0    0 -0.00000000000E+00 -0.00000000000E+00 -0.50000000000E+03  0.50000000000E+03  0.00000000000E+00 0. -1.
        -11    1    1    2    0    0 -0.19329611107E+01  0.68220085509E+01  0.44195802326E+03  0.44201489847E+03  0.00000000000E+00 0.  1.
         11    1    1    2    0    0  0.58627928620E+01  0.50961306969E+01 -0.49721547915E+03  0.49727615627E+03  0.00000000000E+00 0. -1.
        -15    1    1    2    0    0  0.73955307271E+00  0.11885747622E+01 -0.11821817248E+01  0.25524363544E+01  0.17770000000E+01 0.  1.
         15    1    1    2    0    0 -0.46693848241E+01 -0.13106714010E+02  0.56439637607E+02  0.58156508913E+02  0.17770000000E+01 0. -1.
</event>
<event>
 6    1  0.1599106E-003  0.5005729E+03  0.7546771E-02  0.9398529E-01
        -11   -1    0    0    0    0  0.00000000000E+00  0.00000000000E+00  0.50000000000E+03  0.50000000000E+03  0.00000000000E+00 0. -1.
         11   -1    0    0    0    0 -0.00000000000E+00 -0.00000000000E+00 -0.50000000000E+03  0.50000000000E+03  0.00000000000E+00 0. -1.
        -11    1    1    2    0    0  0.51698466331E+01 -0.52978554523E+01  0.49937226988E+03  0.49942713033E+03  0.00000000000E+00 0. -1.
         11    1    1    2    0    0  0.57423703433E+01  0.18792887853E+01 -0.40885463572E+03  0.40889927818E+03  0.00000000000E+00 0. -1.
        -15    1    1    2    0    0  0.37456892621E+00  0.24352045755E+01 -0.20086161333E+02  0.20314579230E+02  0.17770000000E+01 0. -1.
         15    1    1    2    0    0 -0.11286785903E+02  0.98336209145E+00 -0.70431472828E+02  0.71359012260E+02  0.17770000000E+01 0.  1.
</event>
<event>
 6    1  0.1599106E-003  0.5082515E+03  0.7546771E-02  0.9381533E-01
        -11   -1    0    0    0    0  0.00000000000E+00  0.00000000000E+00  0.50000000000E+03  0.50000000000E+03  0.00000000000E+00 0.  1.
         11   -1    0    0    0    0 -0.00000000000E+00 -0.00000000000E+00 -0.50000000000E+03  0.50000000000E+03  0.00000000000E+00 0.  1.
        -11    1    1    2    0    0  0.65891571288E+01 -0.32343401886E+01  0.49169368706E+03  0.49174847213E+03  0.00000000000E+00 0.  1.
         11    1    1    2    0    0  0.44276087738E+01 -0.17505272931E+01 -0.32560561584E+03  0.32564042307E+03  0.00000000000E+00 0.  1.
        -15    1    1    2    0    0  0.26970631268E+02  0.14749500640E+00 -0.11829135462E+03  0.12134017889E+03  0.17770000000E+01 0.  1.
         15    1    1    2    0    0 -0.37987397171E+02  0.48373724753E+01 -0.47796716595E+02  0.61270925915E+02  0.17770000000E+01 0. -1.
</event>
<event>
 6    1  0.1599106E-003  0.5072743E+03  0.7546771E-02  0.9383678E-01
        -11   -1    0    0    0    0  0.00000000000E+00  0.00000000000E+00  0.50000000000E+03  0.50000000000E+03  0.00000000000E+00 0.  1.
         11   -1    0    0    0    0 -0.00000000000E+00 -0.00000000000E+00 -0.50000000000E+03  0.50000000000E+03  0.00000000000E+00 0.  1.
        -11    1    1    2    0    0 -0.90902453835E+01  0.23479659463E+02  0.40821050083E+03  0.40898623444E+03  0.00000000000E+00 0.  1.
         11    1    1    2    0    0  0.99073192313E+01  0.67705340898E+01 -0.49257957121E+03  0.49272571384E+03  0.00000000000E+00 0.  1.
        -15    1    1    2    0    0  0.10338555243E+02 -0.31347142348E+00  0.50954933767E+02  0.52024484553E+02  0.17770000000E+01 0. -1.
         15    1    1    2    0    0 -0.11155629091E+02 -0.29936722129E+02  0.33414136615E+02  0.46263567167E+02  0.17770000000E+01 0.  1.
</event>
<event>
 6    1  0.1599106E-003  0.3819880E+03  0.7546771E-02  0.9711171E-01
        -11   -1    0    0    0    0  0.00000000000E+00  0.00000000000E+00  0.50000000000E+03  0.50000000000E+03  0.00000000000E+00 0. -1.
         11   -1    0    0    0    0 -0.00000000000E+00 -0.00000000000E+00 -0.50000000000E+03  0.50000000000E+03  0.00000000000E+00 0.  1.
        -11    1    1    2    0    0 -0.88682757746E+02 -0.13464268554E+02  0.39881569320E+03  0.40877851606E+03  0.00000000000E+00 0. -1.
         11    1    1    2    0    0  0.56368531681E+01  0.10030173783E+02 -0.36047760579E+03  0.36066117448E+03  0.00000000000E+00 0.  1.
        -15    1    1    2    0    0  0.76716415466E+02  0.48549088500E+02 -0.11184319959E+03  0.14406415730E+03  0.17770000000E+01 0. -1.
         15    1    1    2    0    0  0.63294891117E+01 -0.45114993729E+02  0.73505112187E+02  0.86496152158E+02  0.17770000000E+01 0.  1.
</event>
<event>
 6    1  0.1599106E-003  0.5031235E+03  0.7546771E-02  0.9392848E-01
        -11   -1    0    0    0    0  0.00000000000E+00  0.00000000000E+00  0.50000000000E+03  0.50000000000E+03  0.00000000000E+00 0. -1.
         11   -1    0    0    0    0 -0.00000000000E+00 -0.00000000000E+00 -0.50000000000E+03  0.50000000000E+03  0.00000000000E+00 0.  1.
        -11    1    1    2    0    0 -0.56061552110E+01  0.90654111595E+00  0.35058854784E+03  0.35063454004E+03  0.00000000000E+00 0. -1.
         11    1    1    2    0    0 -0.12998719128E+01 -0.10415252557E+02 -0.49676563909E+03  0.49687651115E+03  0.00000000000E+00 0.  1.
        -15    1    1    2    0    0  0.51114219090E+01  0.89928560512E+01  0.56147852194E+01  0.11903009533E+02  0.17770000000E+01 0. -1.
         15    1    1    2    0    0  0.17946052148E+01  0.51585538973E+00  0.14056230604E+03  0.14058593928E+03  0.17770000000E+01 0.  1.
</event>
<event>
 6    1  0.1599106E-003  0.5026765E+03  0.7546771E-02  0.9393841E-01
        -11   -1    0    0    0    0  0.00000000000E+00  0.00000000000E+00  0.50000000000E+03  0.50000000000E+03  0.00000000000E+00 0. -1.
         11   -1    0    0    0    0 -0.00000000000E+00 -0.00000000000E+00 -0.50000000000E+03  0.50000000000E+03  0.00000000000E+00 0.  1.
        -11    1    1    2    0    0  0.74570992984E+01  0.79693198103E+00  0.35167285670E+03  0.35175281317E+03  0.00000000000E+00 0. -1.
         11    1    1    2    0    0  0.10453203627E+02  0.31285216273E+01 -0.49720377219E+03  0.49732348445E+03  0.00000000000E+00 0.  1.
        -15    1    1    2    0    0 -0.20367594072E+02  0.12043830914E+02  0.86775324770E+02  0.89961144220E+02  0.17770000000E+01 0.  1.
         15    1    1    2    0    0  0.24572911461E+01 -0.15969284522E+02  0.58755590712E+02  0.60962558155E+02  0.17770000000E+01 0. -1.
</event>
<event>
 6    1  0.1599106E-003  0.5001985E+03  0.7546771E-02  0.9399366E-01
        -11   -1    0    0    0    0  0.00000000000E+00  0.00000000000E+00  0.50000000000E+03  0.50000000000E+03  0.00000000000E+00 0. -1.
         11   -1    0    0    0    0 -0.00000000000E+00 -0.00000000000E+00 -0.50000000000E+03  0.50000000000E+03  0.00000000000E+00 0. -1.
        -11    1    1    2    0    0 -0.25858522782E+00  0.44815599779E+01  0.98456672764E+02  0.98558955240E+02  0.00000000000E+00 0. -1.
         11    1    1    2    0    0  0.98169238239E+01 -0.24992582244E+01 -0.49969879400E+03  0.49980146360E+03  0.00000000000E+00 0. -1.
        -15    1    1    2    0    0  0.20504940130E+01  0.34455645160E+01  0.15051808600E+03  0.15058196566E+03  0.17770000000E+01 0. -1.
         15    1    1    2    0    0 -0.11608832609E+02 -0.54278662695E+01  0.25072403524E+03  0.25105761551E+03  0.17770000000E+01 0.  1.
</event>
<event>
 6    1  0.1599106E-003  0.5076465E+03  0.7546771E-02  0.9382861E-01
        -11   -1    0    0    0    0  0.00000000000E+00  0.00000000000E+00  0.50000000000E+03  0.50000000000E+03  0.00000000000E+00 0.  1.
         11   -1    0    0    0    0 -0.00000000000E+00 -0.00000000000E+00 -0.50000000000E+03  0.50000000000E+03  0.00000000000E+00 0. -1.
        -11    1    1    2    0    0 -0.62877285463E+01 -0.21540562443E+01  0.47909463429E+03  0.47914073516E+03  0.00000000000E+00 0.  1.
         11    1    1    2    0    0  0.22570522925E+00  0.73681482677E+01 -0.49229833589E+03  0.49235352347E+03  0.00000000000E+00 0. -1.
        -15    1    1    2    0    0  0.15457110637E+01 -0.13828379645E+02  0.30937910964E+01  0.14364629429E+02  0.17770000000E+01 0. -1.
         15    1    1    2    0    0  0.45163122533E+01  0.86142876212E+01  0.10109910500E+02  0.14141111940E+02  0.17770000000E+01 0.  1.
</event>
<event>
 6    1  0.1599106E-003  0.5103717E+03  0.7546771E-02  0.9376897E-01
        -11   -1    0    0    0    0  0.00000000000E+00  0.00000000000E+00  0.50000000000E+03  0.50000000000E+03  0.00000000000E+00 0.  1.
         11   -1    0    0    0    0 -0.00000000000E+00 -0.00000000000E+00 -0.50000000000E+03  0.50000000000E+03  0.00000000000E+00 0. -1.
        -11    1    1    2    0    0 -0.27434706231E+01 -0.59945763214E+01  0.24853567035E+03  0.24862309026E+03  0.00000000000E+00 0.  1.
         11    1    1    2    0    0  0.18948495435E+01  0.23316326474E+02 -0.48906911017E+03  0.48962826313E+03  0.00000000000E+00 0. -1.
        -15    1    1    2    0    0  0.10453457955E+02  0.66562852189E+01  0.23492317878E+03  0.23525653779E+03  0.17770000000E+01 0. -1.
         15    1    1    2    0    0 -0.96048368758E+01 -0.23978035371E+02  0.56102610388E+01  0.26492108817E+02  0.17770000000E+01 0.  1.
</event>
<event>
 6    1  0.1599106E-003  0.5025717E+03  0.7546771E-02  0.9394074E-01
        -11   -1    0    0    0    0  0.00000000000E+00  0.00000000000E+00  0.50000000000E+03  0.50000000000E+03  0.00000000000E+00 0. -1.
         11   -1    0    0    0    0 -0.00000000000E+00 -0.00000000000E+00 -0.50000000000E+03  0.50000000000E+03  0.00000000000E+00 0.  1.
        -11    1    1    2    0    0 -0.11023760092E+01  0.27246764055E+01  0.83025928369E+02  0.83077938563E+02  0.00000000000E+00 0. -1.
         11    1    1    2    0    0 -0.11788025985E+02 -0.82983594946E+01 -0.49721938272E+03  0.49742832135E+03  0.00000000000E+00 0.  1.
        -15    1    1    2    0    0  0.30613371222E+01 -0.63486327825E+00 -0.13074058544E+01  0.38264703613E+01  0.17770000000E+01 0.  1.
         15    1    1    2    0    0  0.98290648718E+01  0.62085463673E+01  0.41550086020E+03  0.41566726973E+03  0.17770000000E+01 0. -1.
</event>
<event>
 6    1  0.1599106E-003  0.5002220E+03  0.7546771E-02  0.9399313E-01
        -11   -1    0    0    0    0  0.00000000000E+00  0.00000000000E+00  0.50000000000E+03  0.50000000000E+03  0.00000000000E+00 0. -1.
         11   -1    0    0    0    0 -0.00000000000E+00 -0.00000000000E+00 -0.50000000000E+03  0.50000000000E+03  0.00000000000E+00 0.  1.
        -11    1    1    2    0    0 -0.80104006551E+01 -0.21442475010E+01  0.49970922014E+03  0.49977801974E+03  0.00000000000E+00 0. -1.
         11    1    1    2    0    0 -0.50944772040E+01 -0.48262701517E+00 -0.20494947723E+03  0.20501335285E+03  0.00000000000E+00 0.  1.
        -15    1    1    2    0    0  0.74326711054E+01 -0.84958893881E-01 -0.22844833093E+03  0.22857613492E+03  0.17770000000E+01 0.  1.
         15    1    1    2    0    0  0.56722067538E+01  0.27118334101E+01 -0.66311411974E+02  0.66632492500E+02  0.17770000000E+01 0. -1.
</event>
<event>
 6    1  0.1599106E-003  0.5001240E+03  0.7546771E-02  0.9399532E-01
        -11   -1    0    0    0    0  0.00000000000E+00  0.00000000000E+00  0.50000000000E+03  0.50000000000E+03  0.00000000000E+00 0. -1.
         11   -1    0    0    0    0 -0.00000000000E+00 -0.00000000000E+00 -0.50000000000E+03  0.50000000000E+03  0.00000000000E+00 0.  1.
        -11    1    1    2    0    0  0.53166881892E+01  0.65065644209E+01  0.49980540341E+03  0.49987602846E+03  0.00000000000E+00 0. -1.
         11    1    1    2    0    0  0.17180119656E+00  0.92695248786E+00 -0.47203612448E+02  0.47213025583E+02  0.00000000000E+00 0.  1.
        -15    1    1    2    0    0  0.40096921780E+01 -0.91315569978E+00 -0.78628316673E+02  0.78755834048E+02  0.17770000000E+01 0. -1.
         15    1    1    2    0    0 -0.94981815637E+01 -0.65203612090E+01 -0.37397347429E+03  0.37415511191E+03  0.17770000000E+01 0.  1.
</event>
<event>
 6    1  0.1599106E-003  0.5052062E+03  0.7546771E-02  0.9388235E-01
        -11   -1    0    0    0    0  0.00000000000E+00  0.00000000000E+00  0.50000000000E+03  0.50000000000E+03  0.00000000000E+00 0. -1.
         11   -1    0    0    0    0 -0.00000000000E+00 -0.00000000000E+00 -0.50000000000E+03  0.50000000000E+03  0.00000000000E+00 0. -1.
        -11    1    1    2    0    0  0.46806435026E+01 -0.24725866958E+02  0.49415347524E+03  0.49479382981E+03  0.00000000000E+00 0. -1.
         11    1    1    2    0    0  0.11544142788E+02  0.10102307818E+01 -0.35296363299E+03  0.35315381070E+03  0.00000000000E+00 0. -1.
        -15    1    1    2    0    0 -0.15977056096E+02  0.58917414386E+01 -0.10380907436E+02  0.20022485033E+02  0.17770000000E+01 0.  1.
         15    1    1    2    0    0 -0.24773019443E+00  0.17823894738E+02 -0.13080893482E+03  0.13202987446E+03  0.17770000000E+01 0. -1.
</event>
<event>
 6    1  0.1599106E-003  0.5135189E+03  0.7546771E-02  0.9370058E-01
        -11   -1    0    0    0    0  0.00000000000E+00  0.00000000000E+00  0.50000000000E+03  0.50000000000E+03  0.00000000000E+00 0.  1.
         11   -1    0    0    0    0 -0.00000000000E+00 -0.00000000000E+00 -0.50000000000E+03  0.50000000000E+03  0.00000000000E+00 0.  1.
        -11    1    1    2    0    0  0.31244054672E+01  0.10167282151E+02  0.48636481062E+03  0.48648110399E+03  0.00000000000E+00 0.  1.
         11    1    1    2    0    0 -0.44045531660E+01  0.80276816189E+01 -0.46944394073E+03  0.46953323338E+03  0.00000000000E+00 0.  1.
        -15    1    1    2    0    0  0.39652904892E+01  0.80946797824E+01 -0.14793654511E+02  0.17414284718E+02  0.17770000000E+01 0. -1.
         15    1    1    2    0    0 -0.26851427905E+01 -0.26289643553E+02 -0.21272153770E+01  0.26571377913E+02  0.17770000000E+01 0.  1.
</event>
<event>
 6    1  0.1599106E-003  0.4673272E+03  0.7546771E-02  0.9476040E-01
        -11   -1    0    0    0    0  0.00000000000E+00  0.00000000000E+00  0.50000000000E+03  0.50000000000E+03  0.00000000000E+00 0. -1.
         11   -1    0    0    0    0 -0.00000000000E+00 -0.00000000000E+00 -0.50000000000E+03  0.50000000000E+03  0.00000000000E+00 0. -1.
        -11    1    1    2    0    0  0.59887487413E+00 -0.28474118560E+00  0.20509113636E+02  0.20519831159E+02  0.00000000000E+00 0. -1.
         11    1    1    2    0    0 -0.44054171098E+02  0.95067063000E+01 -0.48012246678E+03  0.48223306664E+03  0.00000000000E+00 0. -1.
        -15    1    1    2    0    0  0.36039874238E+02  0.23124911705E+02  0.70124581775E+01  0.43427714367E+02  0.17770000000E+01 0.  1.
         15    1    1    2    0    0  0.74154219853E+01 -0.32346876819E+02  0.45260089496E+03  0.45381938783E+03  0.17770000000E+01 0. -1.
</event>
<event>
 6    1  0.1599106E-003  0.5026597E+03  0.7546771E-02  0.9393878E-01
        -11   -1    0    0    0    0  0.00000000000E+00  0.00000000000E+00  0.50000000000E+03  0.50000000000E+03  0.00000000000E+00 0.  1.
         11   -1    0    0    0    0 -0.00000000000E+00 -0.00000000000E+00 -0.50000000000E+03  0.50000000000E+03  0.00000000000E+00 0. -1.
        -11    1    1    2    0    0 -0.46908728593E+01 -0.54153509513E+01  0.34577073127E+03  0.34584494924E+03  0.00000000000E+00 0.  1.
         11    1    1    2    0    0 -0.37181911909E+01  0.11460535826E+02 -0.49719434065E+03  0.49734030724E+03  0.00000000000E+00 0. -1.
        -15    1    1    2    0    0  0.14798406231E+02 -0.19923192877E+02  0.81209381838E+02  0.84935551267E+02  0.17770000000E+01 0. -1.
         15    1    1    2    0    0 -0.63893421806E+01  0.13878008002E+02  0.70214227546E+02  0.71879192250E+02  0.17770000000E+01 0.  1.
</event>
<event>
 6    1  0.1599106E-003  0.4884359E+03  0.7546771E-02  0.9426064E-01
        -11   -1    0    0    0    0  0.00000000000E+00  0.00000000000E+00  0.50000000000E+03  0.50000000000E+03  0.00000000000E+00 0. -1.
         11   -1    0    0    0    0 -0.00000000000E+00 -0.00000000000E+00 -0.50000000000E+03  0.50000000000E+03  0.00000000000E+00 0. -1.
        -11    1    1    2    0    0  0.49141950886E+00  0.91468227513E+01  0.49215771761E+03  0.49224295309E+03  0.00000000000E+00 0. -1.
         11    1    1    2    0    0 -0.94702628022E+01  0.35379512484E+01 -0.48467569820E+03  0.48478112113E+03  0.00000000000E+00 0. -1.
        -15    1    1    2    0    0  0.95009559319E+01 -0.75846343403E+01 -0.11015066039E+02  0.16501037863E+02  0.17770000000E+01 0. -1.
         15    1    1    2    0    0 -0.52211263859E+00 -0.51001396594E+01  0.35330466237E+01  0.64748879217E+01  0.17770000000E+01 0.  1.
</event>
<event>
 6    1  0.1599106E-003  0.5122486E+03  0.7546771E-02  0.9372812E-01
        -11   -1    0    0    0    0  0.00000000000E+00  0.00000000000E+00  0.50000000000E+03  0.50000000000E+03  0.00000000000E+00 0.  1.
         11   -1    0    0    0    0 -0.00000000000E+00 -0.00000000000E+00 -0.50000000000E+03  0.50000000000E+03  0.00000000000E+00 0. -1.
        -11    1    1    2    0    0  0.15220661430E+02 -0.10298226708E+02  0.48740509467E+03  0.48775142062E+03  0.00000000000E+00 0.  1.
         11    1    1    2    0    0 -0.41167218315E+01 -0.79244143573E+01 -0.42785980377E+03  0.42795298272E+03  0.00000000000E+00 0. -1.
        -15    1    1    2    0    0 -0.12746391843E+02 -0.14424206153E+02 -0.38781011420E+01  0.19716126030E+02  0.17770000000E+01 0.  1.
         15    1    1    2    0    0  0.16424522442E+01  0.32646847219E+02 -0.55667189756E+02  0.64579470631E+02  0.17770000000E+01 0. -1.
</event>
<event>
 6    1  0.1599106E-003  0.5018124E+03  0.7546771E-02  0.9395763E-01
        -11   -1    0    0    0    0  0.00000000000E+00  0.00000000000E+00  0.50000000000E+03  0.50000000000E+03  0.00000000000E+00 0.  1.
         11   -1    0    0    0    0 -0.00000000000E+00 -0.00000000000E+00 -0.50000000000E+03  0.50000000000E+03  0.00000000000E+00 0. -1.
        -11    1    1    2    0    0 -0.33956120273E+01  0.59037250862E+01  0.17259367233E+03  0.17272799391E+03  0.00000000000E+00 0.  1.
         11    1    1    2    0    0 -0.19935817551E+02 -0.19969656435E+01 -0.49778454202E+03  0.49818759014E+03  0.00000000000E+00 0. -1.
        -15    1    1    2    0    0  0.11078889508E+02 -0.50524782332E+01  0.18972818083E+02  0.22614041745E+02  0.17770000000E+01 0. -1.
         15    1    1    2    0    0  0.12252540070E+02  0.11457187905E+01  0.30621805160E+03  0.30647037421E+03  0.17770000000E+01 0.  1.
</event>
<event>
 6    1  0.1599106E-003  0.5289393E+03  0.7546771E-02  0.9337287E-01
        -11   -1    0    0    0    0  0.00000000000E+00  0.00000000000E+00  0.50000000000E+03  0.50000000000E+03  0.00000000000E+00 0. -1.
         11   -1    0    0    0    0 -0.00000000000E+00 -0.00000000000E+00 -0.50000000000E+03  0.50000000000E+03  0.00000000000E+00 0.  1.
        -11    1    1    2    0    0 -0.53576731009E+01  0.10052708805E+02  0.47092294363E+03  0.47106069720E+03  0.00000000000E+00 0. -1.
         11    1    1    2    0    0 -0.14709758142E+01  0.11819831617E+02 -0.41249753144E+03  0.41266946293E+03  0.00000000000E+00 0.  1.
        -15    1    1    2    0    0 -0.17858222632E+02 -0.55748399377E+02 -0.33522037723E+02  0.67480996516E+02  0.17770000000E+01 0. -1.
         15    1    1    2    0    0  0.24686871547E+02  0.33875858955E+02 -0.24903374464E+02  0.48788843350E+02  0.17770000000E+01 0.  1.
</event>
<event>
 6    1  0.1599106E-003  0.5027268E+03  0.7546771E-02  0.9393729E-01
        -11   -1    0    0    0    0  0.00000000000E+00  0.00000000000E+00  0.50000000000E+03  0.50000000000E+03  0.00000000000E+00 0. -1.
         11   -1    0    0    0    0 -0.00000000000E+00 -0.00000000000E+00 -0.50000000000E+03  0.50000000000E+03  0.00000000000E+00 0.  1.
        -11    1    1    2    0    0 -0.29816080964E-02  0.12727449199E+02  0.49711027976E+03  0.49727318269E+03  0.00000000000E+00 0. -1.
         11    1    1    2    0    0 -0.18638893262E+02 -0.29631057508E+01 -0.29002788773E+03  0.29064129782E+03  0.00000000000E+00 0.  1.
        -15    1    1    2    0    0  0.19215708610E+02  0.34134178156E+00 -0.19608950732E+03  0.19703708428E+03  0.17770000000E+01 0.  1.
         15    1    1    2    0    0 -0.57383373987E+00 -0.10105685230E+02 -0.10992884720E+02  0.15048435220E+02  0.17770000000E+01 0. -1.
</event>
<event>
 6    1  0.1599106E-003  0.5007237E+03  0.7546771E-02  0.9398192E-01
        -11   -1    0    0    0    0  0.00000000000E+00  0.00000000000E+00  0.50000000000E+03  0.50000000000E+03  0.00000000000E+00 0. -1.
         11   -1    0    0    0    0 -0.00000000000E+00 -0.00000000000E+00 -0.50000000000E+03  0.50000000000E+03  0.00000000000E+00 0. -1.
        -11    1    1    2    0    0  0.68129115838E+01  0.34111569754E+01  0.29677785017E+03  0.29687563744E+03  0.00000000000E+00 0. -1.
         11    1    1    2    0    0 -0.16065541614E+01 -0.87831045352E+01 -0.49919646541E+03  0.49927631129E+03  0.00000000000E+00 0. -1.
        -15    1    1    2    0    0  0.80890816949E+01  0.25032229199E+01  0.44395794896E+02  0.45231003760E+02  0.17770000000E+01 0.  1.
         15    1    1    2    0    0 -0.13295439117E+02  0.28687246399E+01  0.15802282034E+03  0.15861704751E+03  0.17770000000E+01 0. -1.
</event>
<event>
 6    1  0.1599106E-003  0.5007157E+03  0.7546771E-02  0.9398210E-01
        -11   -1    0    0    0    0  0.00000000000E+00  0.00000000000E+00  0.50000000000E+03  0.50000000000E+03  0.00000000000E+00 0. -1.
         11   -1    0    0    0    0 -0.00000000000E+00 -0.00000000000E+00 -0.50000000000E+03  0.50000000000E+03  0.00000000000E+00 0. -1.
        -11    1    1    2    0    0 -0.63966975101E+01 -0.28507484271E+01  0.49923518891E+03  0.49928430614E+03  0.00000000000E+00 0. -1.
         11    1    1    2    0    0  0.76117582476E+00 -0.49893122752E+01 -0.33261046415E+03  0.33264875393E+03  0.00000000000E+00 0. -1.
        -15    1    1    2    0    0  0.55904179130E+01  0.84585443557E+01 -0.16560834759E+03  0.16592794299E+03  0.17770000000E+01 0. -1.
         15    1    1    2    0    0  0.45103772317E-01 -0.61848365337E+00 -0.10163771693E+01  0.21389969449E+01  0.17770000000E+01 0. -1.
</event>
<event>
 6    1  0.1599106E-003  0.4884515E+03  0.7546771E-02  0.9426028E-01
        -11   -1    0    0    0    0  0.00000000000E+00  0.00000000000E+00  0.50000000000E+03  0.50000000000E+03  0.00000000000E+00 0.  1.
         11   -1    0    0    0    0 -0.00000000000E+00 -0.00000000000E+00 -0.50000000000E+03  0.50000000000E+03  0.00000000000E+00 0.  1.
        -11    1    1    2    0    0  0.58954112479E+01  0.49448803946E+01  0.48726917471E+03  0.48732992555E+03  0.00000000000E+00 0.  1.
         11    1    1    2    0    0  0.11228406814E+02 -0.31845542094E+01 -0.48958840214E+03  0.48972749771E+03  0.00000000000E+00 0.  1.
        -15    1    1    2    0    0 -0.17129344694E+01 -0.94352061845E+00 -0.50874399438E+01  0.57327262132E+01  0.17770000000E+01 0. -1.
         15    1    1    2    0    0 -0.15410883593E+02 -0.81680556677E+00  0.74066673739E+01  0.17209850523E+02  0.17770000000E+01 0.  1.
</event>
<event>
 6    1  0.1599106E-003  0.5004016E+03  0.7546771E-02  0.9398912E-01
        -11   -1    0    0    0    0  0.00000000000E+00  0.00000000000E+00  0.50000000000E+03  0.50000000000E+03  0.00000000000E+00 0. -1.
         11   -1    0    0    0    0 -0.00000000000E+00 -0.00000000000E+00 -0.50000000000E+03  0.50000000000E+03  0.00000000000E+00 0. -1.
        -11    1    1    2    0    0  0.53405809406E+01 -0.50517951403E+01  0.49954430909E+03  0.49959839790E+03  0.00000000000E+00 0. -1.
         11    1    1    2    0    0 -0.13849213976E+01  0.72506555853E+01 -0.38113323091E+03  0.38120470842E+03  0.00000000000E+00 0. -1.
        -15    1    1    2    0    0  0.39045543811E+01 -0.34446948765E+01 -0.49763144673E+02  0.50066353617E+02  0.17770000000E+01 0.  1.
         15    1    1    2    0    0 -0.78602139241E+01  0.12458344315E+01 -0.68647933506E+02  0.69130540067E+02  0.17770000000E+01 0.  1.
</event>
<event>
 6    1  0.1599106E-003  0.5063388E+03  0.7546771E-02  0.9385737E-01
        -11   -1    0    0    0    0  0.00000000000E+00  0.00000000000E+00  0.50000000000E+03  0.50000000000E+03  0.00000000000E+00 0. -1.
         11   -1    0    0    0    0 -0.00000000000E+00 -0.00000000000E+00 -0.50000000000E+03  0.50000000000E+03  0.00000000000E+00 0. -1.
        -11    1    1    2    0    0 -0.82829052744E+01  0.71578357029E+01  0.49353979701E+03  0.49366119188E+03  0.00000000000E+00 0. -1.
         11    1    1    2    0    0 -0.16736314623E+01  0.53203385891E+01 -0.27963288229E+03  0.27968849798E+03  0.00000000000E+00 0. -1.
        -15    1    1    2    0    0  0.13911586662E+02  0.28239217524E+01 -0.20971530937E+03  0.21020270096E+03  0.17770000000E+01 0. -1.
         15    1    1    2    0    0 -0.39550499248E+01 -0.15302096044E+02 -0.41916053548E+01  0.16447609179E+02  0.17770000000E+01 0.  1.
</event>
<event>
 6    1  0.1599106E-003  0.5069751E+03  0.7546771E-02  0.9384336E-01
        -11   -1    0    0    0    0  0.00000000000E+00  0.00000000000E+00  0.50000000000E+03  0.50000000000E+03  0.00000000000E+00 0.  1.
         11   -1    0    0    0    0 -0.00000000000E+00 -0.00000000000E+00 -0.50000000000E+03  0.50000000000E+03  0.00000000000E+00 0.  1.
        -11    1    1    2    0    0  0.13405147979E+01 -0.19451356795E+01  0.10754897012E+03  0.10757491114E+03  0.00000000000E+00 0.  1.
         11    1    1    2    0    0  0.18793829802E-01  0.14407938688E+02 -0.49281428628E+03  0.49302485719E+03  0.00000000000E+00 0.  1.
        -15    1    1    2    0    0 -0.13453985388E+02  0.76891200270E+01  0.37205295691E+03  0.37237976954E+03  0.17770000000E+01 0.  1.
         15    1    1    2    0    0  0.12094676760E+02 -0.20151923036E+02  0.13212359250E+02  0.27020462134E+02  0.17770000000E+01 0. -1.
</event>
<event>
 6    1  0.1599106E-003  0.5121037E+03  0.7546771E-02  0.9373127E-01
        -11   -1    0    0    0    0  0.00000000000E+00  0.00000000000E+00  0.50000000000E+03  0.50000000000E+03  0.00000000000E+00 0.  1.
         11   -1    0    0    0    0 -0.00000000000E+00 -0.00000000000E+00 -0.50000000000E+03  0.50000000000E+03  0.00000000000E+00 0. -1.
        -11    1    1    2    0    0  0.46060967657E+02 -0.64346101444E+01  0.48567457704E+03  0.48789631249E+03  0.00000000000E+00 0.  1.
         11    1    1    2    0    0  0.72663534600E+01 -0.12707456462E+01 -0.36355180679E+03  0.36362663668E+03  0.00000000000E+00 0. -1.
        -15    1    1    2    0    0 -0.42119472871E+02 -0.16425042542E+01 -0.22574325264E+02  0.47848779559E+02  0.17770000000E+01 0.  1.
         15    1    1    2    0    0 -0.11207848246E+02  0.93478600448E+01 -0.99548444994E+02  0.10062827127E+03  0.17770000000E+01 0. -1.
</event>
<event>
 6    1  0.1599106E-003  0.5025905E+03  0.7546771E-02  0.9394032E-01
        -11   -1    0    0    0    0  0.00000000000E+00  0.00000000000E+00  0.50000000000E+03  0.50000000000E+03  0.00000000000E+00 0.  1.
         11   -1    0    0    0    0 -0.00000000000E+00 -0.00000000000E+00 -0.50000000000E+03  0.50000000000E+03  0.00000000000E+00 0.  1.
        -11    1    1    2    0    0 -0.18104854754E+01  0.83658983602E+01  0.41156961949E+03  0.41165861804E+03  0.00000000000E+00 0.  1.
         11    1    1    2    0    0  0.26948966952E+01  0.87246611296E+01 -0.49732570062E+03  0.49740952411E+03  0.00000000000E+00 0.  1.
        -15    1    1    2    0    0  0.73794481889E+00  0.29489573038E+01  0.47918157200E+02  0.48047356121E+02  0.17770000000E+01 0. -1.
         15    1    1    2    0    0 -0.16223560387E+01 -0.20039516794E+02  0.37837923928E+02  0.42884501730E+02  0.17770000000E+01 0.  1.
</event>
<event>
 6    1  0.1599106E-003  0.4830286E+03  0.7546771E-02  0.9438606E-01
        -11   -1    0    0    0    0  0.00000000000E+00  0.00000000000E+00  0.50000000000E+03  0.50000000000E+03  0.00000000000E+00 0. -1.
         11   -1    0    0    0    0 -0.00000000000E+00 -0.00000000000E+00 -0.50000000000E+03  0.50000000000E+03  0.00000000000E+00 0.  1.
        -11    1    1    2    0    0 -0.15979460946E+01 -0.15660719451E+02  0.48815678177E+03  0.48841053956E+03  0.00000000000E+00 0. -1.
         11    1    1    2    0    0 -0.65812695024E+01 -0.28699626722E+01 -0.47785992414E+03  0.47791385928E+03  0.00000000000E+00 0.  1.
        -15    1    1    2    0    0 -0.88330682020E+01  0.54564290925E+01 -0.33820788597E+01  0.11063087214E+02  0.17770000000E+01 0. -1.
         15    1    1    2    0    0  0.17012283799E+02  0.13074253031E+02 -0.69147787668E+01  0.22612513942E+02  0.17770000000E+01 0.  1.
</event>
<event>
 6    1  0.2204359E-003  0.5001152E+03  0.7546771E-02  0.9399552E-01
        -11   -1    0    0    0    0  0.00000000000E+00  0.00000000000E+00  0.50000000000E+03  0.50000000000E+03  0.00000000000E+00 0. -1.
         11   -1    0    0    0    0 -0.00000000000E+00 -0.00000000000E+00 -0.50000000000E+03  0.50000000000E+03  0.00000000000E+00 0. -1.
        -11    1    1    2    0    0 -0.76273462622E+01 -0.21104618421E+01  0.49982216671E+03  0.49988481552E+03  0.00000000000E+00 0. -1.
         11    1    1    2    0    0  0.12922538171E+01 -0.13600962458E+01 -0.12758997375E+03  0.12760376634E+03  0.00000000000E+00 0. -1.
        -15    1    1    2    0    0 -0.22377605669E+01  0.55844034013E+00 -0.20791248409E+03  0.20793286945E+03  0.17770000000E+01 0. -1.
         15    1    1    2    0    0  0.85728530119E+01  0.29121177478E+01 -0.16431970887E+03  0.16457854869E+03  0.17770000000E+01 0. -1.
</event>
<event>
 6    1  0.1599106E-003  0.5023936E+03  0.7546771E-02  0.9394470E-01
        -11   -1    0    0    0    0  0.00000000000E+00  0.00000000000E+00  0.50000000000E+03  0.50000000000E+03  0.00000000000E+00 0. -1.
         11   -1    0    0    0    0 -0.00000000000E+00 -0.00000000000E+00 -0.50000000000E+03  0.50000000000E+03  0.00000000000E+00 0.  1.
        -11    1    1    2    0    0  0.72422765620E+01 -0.15495622420E+01  0.36647894332E+03  0.36655377179E+03  0.00000000000E+00 0. -1.
         11    1    1    2    0    0  0.54692185804E+01 -0.58153935775E+01 -0.49754231746E+03  0.49760635930E+03  0.00000000000E+00 0.  1.
        -15    1    1    2    0    0 -0.82397164819E+01  0.33091906785E+01  0.12885152418E+03  0.12916933337E+03  0.17770000000E+01 0.  1.
         15    1    1    2    0    0 -0.44717786605E+01  0.40557651410E+01  0.22118499540E+01  0.66705355472E+01  0.17770000000E+01 0. -1.
</event>
<event>
 6    1  0.1599106E-003  0.5018381E+03  0.7546771E-02  0.9395706E-01
        -11   -1    0    0    0    0  0.00000000000E+00  0.00000000000E+00  0.50000000000E+03  0.50000000000E+03  0.00000000000E+00 0. -1.
         11   -1    0    0    0    0 -0.00000000000E+00 -0.00000000000E+00 -0.50000000000E+03  0.50000000000E+03  0.00000000000E+00 0.  1.
        -11    1    1    2    0    0  0.17769817412E+01  0.24724858034E+01  0.17905726596E+03  0.17908315203E+03  0.00000000000E+00 0. -1.
         11    1    1    2    0    0  0.11225399657E+02 -0.99400404058E+01 -0.49793624099E+03  0.49816193561E+03  0.00000000000E+00 0.  1.
        -15    1    1    2    0    0 -0.32549403711E+01  0.43888124365E+01  0.26014711198E+01  0.63072729772E+01  0.17770000000E+01 0.  1.
         15    1    1    2    0    0 -0.97474410271E+01  0.30787421660E+01  0.31627750391E+03  0.31644763938E+03  0.17770000000E+01 0. -1.
</event>
<event>
 6    1  0.1599106E-003  0.5108044E+03  0.7546771E-02  0.9375953E-01
        -11   -1    0    0    0    0  0.00000000000E+00  0.00000000000E+00  0.50000000000E+03  0.50000000000E+03  0.00000000000E+00 0.  1.
         11   -1    0    0    0    0 -0.00000000000E+00 -0.00000000000E+00 -0.50000000000E+03  0.50000000000E+03  0.00000000000E+00 0. -1.
        -11    1    1    2    0    0  0.15897139631E+02 -0.32903821484E+02  0.48782878987E+03  0.48919557310E+03  0.00000000000E+00 0.  1.
         11    1    1    2    0    0 -0.19506756108E+02  0.19016448171E+02 -0.20965978705E+03  0.21142224372E+03  0.00000000000E+00 0. -1.
        -15    1    1    2    0    0  0.39539450601E+02  0.31644087600E+02 -0.64732115116E+02  0.82207790934E+02  0.17770000000E+01 0.  1.
         15    1    1    2    0    0 -0.35929834124E+02 -0.17756714286E+02 -0.21343688771E+03  0.21717439224E+03  0.17770000000E+01 0. -1.
</event>
<event>
 6    1  0.1599106E-003  0.5007174E+03  0.7546771E-02  0.9398206E-01
        -11   -1    0    0    0    0  0.00000000000E+00  0.00000000000E+00  0.50000000000E+03  0.50000000000E+03  0.00000000000E+00 0.  1.
         11   -1    0    0    0    0 -0.00000000000E+00 -0.00000000000E+00 -0.50000000000E+03  0.50000000000E+03  0.00000000000E+00 0. -1.
        -11    1    1    2    0    0 -0.79720608135E+01  0.73189220845E+01  0.49916529188E+03  0.49928259432E+03  0.00000000000E+00 0.  1.
         11    1    1    2    0    0  0.86095151281E+00 -0.22835370837E+01 -0.17196929108E+03  0.17198660661E+03  0.00000000000E+00 0. -1.
        -15    1    1    2    0    0 -0.32515107776E+01 -0.12358004365E+02 -0.26025910364E+03  0.26057868553E+03  0.17770000000E+01 0.  1.
         15    1    1    2    0    0  0.10362620078E+02  0.73226193645E+01 -0.66936897158E+02  0.68152113536E+02  0.17770000000E+01 0. -1.
</event>
<event>
 6    1  0.1599106E-003  0.5005167E+03  0.7546771E-02  0.9398654E-01
        -11   -1    0    0    0    0  0.00000000000E+00  0.00000000000E+00  0.50000000000E+03  0.50000000000E+03  0.00000000000E+00 0. -1.
         11   -1    0    0    0    0 -0.00000000000E+00 -0.00000000000E+00 -0.50000000000E+03  0.50000000000E+03  0.00000000000E+00 0.  1.
        -11    1    1    2    0    0 -0.53914980699E+01  0.12864328289E+02  0.49928854230E+03  0.49948334073E+03  0.00000000000E+00 0. -1.
         11    1    1    2    0    0  0.37743540967E+00 -0.55652575450E+01 -0.37706630525E+03  0.37710756171E+03  0.00000000000E+00 0.  1.
        -15    1    1    2    0    0  0.39617906323E+01  0.37532381634E+01 -0.47548022569E+02  0.47893159855E+02  0.17770000000E+01 0.  1.
         15    1    1    2    0    0  0.10522720279E+01 -0.11052308907E+02 -0.74674214488E+02  0.75515937702E+02  0.17770000000E+01 0. -1.
</event>
<event>
 6    1  0.1599106E-003  0.5073972E+03  0.7546771E-02  0.9383408E-01
        -11   -1    0    0    0    0  0.00000000000E+00  0.00000000000E+00  0.50000000000E+03  0.50000000000E+03  0.00000000000E+00 0. -1.
         11   -1    0    0    0    0 -0.00000000000E+00 -0.00000000000E+00 -0.50000000000E+03  0.50000000000E+03  0.00000000000E+00 0. -1.
        -11    1    1    2    0    0 -0.83269791786E+00 -0.47767006435E+01  0.32184078002E+03  0.32187730261E+03  0.00000000000E+00 0. -1.
         11    1    1    2    0    0  0.10388344752E+02 -0.36287213888E+01 -0.49247992003E+03  0.49260283896E+03  0.00000000000E+00 0. -1.
        -15    1    1    2    0    0 -0.37402270244E+02  0.50660567505E+01  0.13469128411E+03  0.13989100935E+03  0.17770000000E+01 0. -1.
         15    1    1    2    0    0  0.27846623410E+02  0.33393652818E+01  0.35947855896E+02  0.45628849080E+02  0.17770000000E+01 0.  1.
</event>
<event>
 6    1  0.1599106E-003  0.4015169E+03  0.7546771E-02  0.9651929E-01
        -11   -1    0    0    0    0  0.00000000000E+00  0.00000000000E+00  0.50000000000E+03  0.50000000000E+03  0.00000000000E+00 0.  1.
         11   -1    0    0    0    0 -0.00000000000E+00 -0.00000000000E+00 -0.50000000000E+03  0.50000000000E+03  0.00000000000E+00 0. -1.
        -11    1    1    2    0    0 -0.49529760993E+01 -0.74637777764E+01  0.39283216733E+03  0.39293428412E+03  0.00000000000E+00 0.  1.
         11    1    1    2    0    0 -0.29583422540E+02  0.23533830639E+02 -0.40943238295E+03  0.41117380301E+03  0.00000000000E+00 0. -1.
        -15    1    1    2    0    0  0.32099340206E+02 -0.57363964209E+01 -0.86381949246E+02  0.92348647906E+02  0.17770000000E+01 0. -1.
         15    1    1    2    0    0  0.24370584331E+01 -0.10333656441E+02  0.10298216487E+03  0.10354326496E+03  0.17770000000E+01 0.  1.
</event>
<event>
 6    1  0.1599106E-003  0.4825032E+03  0.7546771E-02  0.9439834E-01
        -11   -1    0    0    0    0  0.00000000000E+00  0.00000000000E+00  0.50000000000E+03  0.50000000000E+03  0.00000000000E+00 0. -1.
         11   -1    0    0    0    0 -0.00000000000E+00 -0.00000000000E+00 -0.50000000000E+03  0.50000000000E+03  0.00000000000E+00 0. -1.
        -11    1    1    2    0    0  0.64548448314E+01 -0.46228928180E+01  0.48621852986E+03  0.48628334841E+03  0.00000000000E+00 0. -1.
         11    1    1    2    0    0  0.69317323151E+01  0.74263349498E+01 -0.47874111460E+03  0.47884888449E+03  0.00000000000E+00 0. -1.
        -15    1    1    2    0    0 -0.16836783288E+02  0.49917651589E+01  0.61535779819E+01  0.18692759076E+02  0.17770000000E+01 0.  1.
         15    1    1    2    0    0  0.34502061411E+01 -0.77952072907E+01 -0.13630993240E+02  0.16175008032E+02  0.17770000000E+01 0. -1.
</event>
<event>
 6    1  0.1599106E-003  0.5045681E+03  0.7546771E-02  0.9389646E-01
        -11   -1    0    0    0    0  0.00000000000E+00  0.00000000000E+00  0.50000000000E+03  0.50000000000E+03  0.00000000000E+00 0. -1.
         11   -1    0    0    0    0 -0.00000000000E+00 -0.00000000000E+00 -0.50000000000E+03  0.50000000000E+03  0.00000000000E+00 0. -1.
        -11    1    1    2    0    0 -0.53380893541E+00 -0.64853872582E+01  0.46413803921E+03  0.46418365400E+03  0.00000000000E+00 0. -1.
         11    1    1    2    0    0 -0.93078377580E+01  0.31392509989E+01 -0.49533454938E+03  0.49543193937E+03  0.00000000000E+00 0. -1.
        -15    1    1    2    0    0 -0.28901958764E+01  0.54868925124E+01  0.25247261535E+02  0.26058418327E+02  0.17770000000E+01 0. -1.
         15    1    1    2    0    0  0.12731842570E+02 -0.21407562531E+01  0.59492486298E+01  0.14325988302E+02  0.17770000000E+01 0.  1.
</event>
<event>
 6    1  0.1599106E-003  0.5084196E+03  0.7546771E-02  0.9381165E-01
        -11   -1    0    0    0    0  0.00000000000E+00  0.00000000000E+00  0.50000000000E+03  0.50000000000E+03  0.00000000000E+00 0.  1.
         11   -1    0    0    0    0 -0.00000000000E+00 -0.00000000000E+00 -0.50000000000E+03  0.50000000000E+03  0.00000000000E+00 0.  1.
        -11    1    1    2    0    0  0.41794153148E+01 -0.10032619839E+02  0.49146021016E+03  0.49158036895E+03  0.00000000000E+00 0.  1.
         11    1    1    2    0    0 -0.27918906786E+01  0.14222921859E+02 -0.46768073211E+03  0.46790528246E+03  0.00000000000E+00 0.  1.
        -15    1    1    2    0    0 -0.38603688575E+01 -0.12450770556E+02 -0.27860544687E+02  0.30810579585E+02  0.17770000000E+01 0. -1.
         15    1    1    2    0    0  0.24728442214E+01  0.82604685362E+01  0.40810666432E+01  0.97037690063E+01  0.17770000000E+01 0.  1.
</event>
<event>
 6    1  0.1599106E-003  0.5001557E+03  0.7546771E-02  0.9399461E-01
        -11   -1    0    0    0    0  0.00000000000E+00  0.00000000000E+00  0.50000000000E+03  0.50000000000E+03  0.00000000000E+00 0.  1.
         11   -1    0    0    0    0 -0.00000000000E+00 -0.00000000000E+00 -0.50000000000E+03  0.50000000000E+03  0.00000000000E+00 0.  1.
        -11    1    1    2    0    0  0.99704865789E+00  0.59254618157E+00  0.62758730707E+02  0.62769447162E+02  0.00000000000E+00 0.  1.
         11    1    1    2    0    0  0.44700628876E+01  0.61240177928E+01 -0.49978675927E+03  0.49984426555E+03  0.00000000000E+00 0.  1.
        -15    1    1    2    0    0 -0.16191842127E+01 -0.63317711132E+01  0.40718531509E+03  0.40724163790E+03  0.17770000000E+01 0.  1.
         15    1    1    2    0    0 -0.38479273328E+01 -0.38479286117E+00  0.29842713473E+02  0.30144649389E+02  0.17770000000E+01 0. -1.
</event>
<event>
 6    1  0.1599106E-003  0.5040727E+03  0.7546771E-02  0.9390743E-01
        -11   -1    0    0    0    0  0.00000000000E+00  0.00000000000E+00  0.50000000000E+03  0.50000000000E+03  0.00000000000E+00 0. -1.
         11   -1    0    0    0    0 -0.00000000000E+00 -0.00000000000E+00 -0.50000000000E+03  0.50000000000E+03  0.00000000000E+00 0. -1.
        -11    1    1    2    0    0 -0.11290013759E+02 -0.51973970121E+01  0.49577154352E+03  0.49592731394E+03  0.00000000000E+00 0. -1.
         11    1    1    2    0    0 -0.62222349427E+01 -0.21778487804E+01 -0.40883353739E+03  0.40888668422E+03  0.00000000000E+00 0. -1.
        -15    1    1    2    0    0  0.14182111490E+02  0.60518974005E+01 -0.10721035973E+02  0.18864148265E+02  0.17770000000E+01 0.  1.
         15    1    1    2    0    0  0.33301372121E+01  0.13233483921E+01 -0.76216970155E+02  0.76321853577E+02  0.17770000000E+01 0.  1.
</event>
<event>
 6    1  0.1731115E-003  0.5148851E+03  0.7546771E-02  0.9367106E-01
        -11   -1    0    0    0    0  0.00000000000E+00  0.00000000000E+00  0.50000000000E+03  0.50000000000E+03  0.00000000000E+00 0. -1.
         11   -1    0    0    0    0 -0.00000000000E+00 -0.00000000000E+00 -0.50000000000E+03  0.50000000000E+03  0.00000000000E+00 0.  1.
        -11    1    1    2    0    0  0.24225859109E+01 -0.61181338342E+01  0.48507024761E+03  0.48511487877E+03  0.00000000000E+00 0. -1.
         11    1    1    2    0    0 -0.22276255289E+02 -0.23622822899E+02 -0.18126187549E+03  0.18414705215E+03  0.00000000000E+00 0.  1.
        -15    1    1    2    0    0  0.83967816965E+01  0.22476938855E+02 -0.31321312561E+03  0.31413585995E+03  0.17770000000E+01 0.  1.
         15    1    1    2    0    0  0.11456887681E+02  0.72640178778E+01  0.94047534783E+01  0.16602209132E+02  0.17770000000E+01 0. -1.
</event>
<event>
 6    1  0.1599106E-003  0.5000944E+03  0.7546771E-02  0.9399599E-01
        -11   -1    0    0    0    0  0.00000000000E+00  0.00000000000E+00  0.50000000000E+03  0.50000000000E+03  0.00000000000E+00 0. -1.
         11   -1    0    0    0    0 -0.00000000000E+00 -0.00000000000E+00 -0.50000000000E+03  0.50000000000E+03  0.00000000000E+00 0.  1.
        -11    1    1    2    0    0 -0.21246456863E+01  0.47976606485E+01  0.29044677785E+03  0.29049416935E+03  0.00000000000E+00 0. -1.
         11    1    1    2    0    0  0.27713433848E+01 -0.61444074321E+01 -0.49986019210E+03  0.49990563683E+03  0.00000000000E+00 0.  1.
        -15    1    1    2    0    0  0.15910172618E+01  0.38261142991E+01  0.76349339439E+02  0.76482349913E+02  0.17770000000E+01 0.  1.
         15    1    1    2    0    0 -0.22377149604E+01 -0.24793675155E+01  0.13306407481E+03  0.13311784391E+03  0.17770000000E+01 0. -1.
</event>
<event>
 6    1  0.1599106E-003  0.5316845E+03  0.7546771E-02  0.9331577E-01
        -11   -1    0    0    0    0  0.00000000000E+00  0.00000000000E+00  0.50000000000E+03  0.50000000000E+03  0.00000000000E+00 0. -1.
         11   -1    0    0    0    0 -0.00000000000E+00 -0.00000000000E+00 -0.50000000000E+03  0.50000000000E+03  0.00000000000E+00 0. -1.
        -11    1    1    2    0    0 -0.77409374740E+01 -0.25887390424E+01  0.46182421519E+03  0.46189634055E+03  0.00000000000E+00 0. -1.
         11    1    1    2    0    0  0.64956545806E+01  0.98736895994E+00 -0.46826937463E+03  0.46831546595E+03  0.00000000000E+00 0. -1.
        -15    1    1    2    0    0  0.38354491342E+01  0.17399886679E+02 -0.27154624476E+02  0.32526882512E+02  0.17770000000E+01 0. -1.
         15    1    1    2    0    0 -0.25901662408E+01 -0.15798516597E+02  0.33599783923E+02  0.37261310987E+02  0.17770000000E+01 0.  1.
</event>
<event>
 6    1  0.1599106E-003  0.5065008E+03  0.7546771E-02  0.9385380E-01
        -11   -1    0    0    0    0  0.00000000000E+00  0.00000000000E+00  0.50000000000E+03  0.50000000000E+03  0.00000000000E+00 0.  1.
         11   -1    0    0    0    0 -0.00000000000E+00 -0.00000000000E+00 -0.50000000000E+03  0.50000000000E+03  0.00000000000E+00 0. -1.
        -11    1    1    2    0    0  0.11386940306E+02 -0.60698712311E+01  0.49333045913E+03  0.49349918708E+03  0.00000000000E+00 0.  1.
         11    1    1    2    0    0  0.61525041145E+00 -0.69635790149E+01 -0.47869709621E+03  0.47874813826E+03  0.00000000000E+00 0. -1.
        -15    1    1    2    0    0 -0.71233292458E+01  0.10084396413E+02 -0.17205001439E+02  0.21251039365E+02  0.17770000000E+01 0.  1.
         15    1    1    2    0    0 -0.48788614713E+01  0.29490538325E+01  0.25716385266E+01  0.65016352924E+01  0.17770000000E+01 0. -1.
</event>
<event>
 6    1  0.1599106E-003  0.4738396E+03  0.7546771E-02  0.9460327E-01
        -11   -1    0    0    0    0  0.00000000000E+00  0.00000000000E+00  0.50000000000E+03  0.50000000000E+03  0.00000000000E+00 0. -1.
         11   -1    0    0    0    0 -0.00000000000E+00 -0.00000000000E+00 -0.50000000000E+03  0.50000000000E+03  0.00000000000E+00 0.  1.
        -11    1    1    2    0    0  0.93748047084E+00 -0.10053319521E+02  0.48125031755E+03  0.48135622593E+03  0.00000000000E+00 0. -1.
         11    1    1    2    0    0 -0.29377766652E+02  0.98860662308E+00 -0.46598955613E+03  0.46691572788E+03  0.00000000000E+00 0.  1.
        -15    1    1    2    0    0  0.60496229419E+01  0.78440112957E+01  0.12467814674E+02  0.16022814444E+02  0.17770000000E+01 0. -1.
         15    1    1    2    0    0  0.22390663239E+02  0.12207016026E+01 -0.27728576096E+02  0.35705231745E+02  0.17770000000E+01 0.  1.
</event>
<event>
 6    1  0.1599106E-003  0.5024918E+03  0.7546771E-02  0.9394251E-01
        -11   -1    0    0    0    0  0.00000000000E+00  0.00000000000E+00  0.50000000000E+03  0.50000000000E+03  0.00000000000E+00 0. -1.
         11   -1    0    0    0    0 -0.00000000000E+00 -0.00000000000E+00 -0.50000000000E+03  0.50000000000E+03  0.00000000000E+00 0. -1.
        -11    1    1    2    0    0  0.82270956883E+01  0.50334736374E+01  0.49741465908E+03  0.49750815473E+03  0.00000000000E+00 0. -1.
         11    1    1    2    0    0 -0.11577746711E+01  0.82723944785E+01 -0.45359591519E+03  0.45367281958E+03  0.00000000000E+00 0. -1.
        -15    1    1    2    0    0 -0.76620015162E+01 -0.11706465407E+02 -0.44136896097E+02  0.46335417616E+02  0.17770000000E+01 0. -1.
         15    1    1    2    0    0  0.59268049903E+00 -0.15994027094E+01  0.31815220746E+00  0.24836080665E+01  0.17770000000E+01 0.  1.
</event>
<event>
 6    1  0.1599106E-003  0.5080849E+03  0.7546771E-02  0.9381899E-01
        -11   -1    0    0    0    0  0.00000000000E+00  0.00000000000E+00  0.50000000000E+03  0.50000000000E+03  0.00000000000E+00 0.  1.
         11   -1    0    0    0    0 -0.00000000000E+00 -0.00000000000E+00 -0.50000000000E+03  0.50000000000E+03  0.00000000000E+00 0. -1.
        -11    1    1    2    0    0  0.81631241185E+01  0.77053424867E-01  0.49184736994E+03  0.49191511245E+03  0.00000000000E+00 0.  1.
         11    1    1    2    0    0  0.76324268076E+01  0.28653260200E+01 -0.47077885095E+03  0.47084943510E+03  0.00000000000E+00 0. -1.
        -15    1    1    2    0    0  0.45394297011E+01 -0.81679749849E+00 -0.15061092526E+02  0.15851429501E+02  0.17770000000E+01 0.  1.
         15    1    1    2    0    0 -0.20334980627E+02 -0.21255819464E+01 -0.60074264660E+01  0.21384022949E+02  0.17770000000E+01 0. -1.
</event>
<event>
 6    1  0.1599106E-003  0.5000611E+03  0.7546771E-02  0.9399673E-01
        -11   -1    0    0    0    0  0.00000000000E+00  0.00000000000E+00  0.50000000000E+03  0.50000000000E+03  0.00000000000E+00 0. -1.
         11   -1    0    0    0    0 -0.00000000000E+00 -0.00000000000E+00 -0.50000000000E+03  0.50000000000E+03  0.00000000000E+00 0. -1.
        -11    1    1    2    0    0 -0.68641592965E+00 -0.55853926047E+00  0.23241279009E+02  0.23258120795E+02  0.00000000000E+00 0. -1.
         11    1    1    2    0    0 -0.11111583213E+02 -0.40389833813E+01 -0.49979905312E+03  0.49993887043E+03  0.00000000000E+00 0. -1.
        -15    1    1    2    0    0  0.69507748190E+00 -0.12943329146E+01  0.11339119186E+03  0.11341463111E+03  0.17770000000E+01 0.  1.
         15    1    1    2    0    0  0.11102921661E+02  0.58918555564E+01  0.36316658225E+03  0.36338837767E+03  0.17770000000E+01 0. -1.
</event>
<event>
 6    1  0.1599106E-003  0.5023535E+03  0.7546771E-02  0.9394559E-01
        -11   -1    0    0    0    0  0.00000000000E+00  0.00000000000E+00  0.50000000000E+03  0.50000000000E+03  0.00000000000E+00 0. -1.
         11   -1    0    0    0    0 -0.00000000000E+00 -0.00000000000E+00 -0.50000000000E+03  0.50000000000E+03  0.00000000000E+00 0.  1.
        -11    1    1    2    0    0  0.14542213078E+01  0.68380193894E+01  0.49759741549E+03  0.49764652231E+03  0.00000000000E+00 0. -1.
         11    1    1    2    0    0  0.21491553200E+01  0.78658927748E+01 -0.41595726337E+03  0.41603718114E+03  0.00000000000E+00 0.  1.
        -15    1    1    2    0    0 -0.17895489205E+01 -0.27480444666E+01 -0.67593963817E+02  0.67696793921E+02  0.17770000000E+01 0.  1.
         15    1    1    2    0    0 -0.18138277074E+01 -0.11955867698E+02 -0.14046188297E+02  0.18619502626E+02  0.17770000000E+01 0.  1.
</event>
<event>
 6    1  0.1599106E-003  0.5034465E+03  0.7546771E-02  0.9392131E-01
        -11   -1    0    0    0    0  0.00000000000E+00  0.00000000000E+00  0.50000000000E+03  0.50000000000E+03  0.00000000000E+00 0.  1.
         11   -1    0    0    0    0 -0.00000000000E+00 -0.00000000000E+00 -0.50000000000E+03  0.50000000000E+03  0.00000000000E+00 0.  1.
        -11    1    1    2    0    0 -0.59753064441E+01  0.18347781554E+00  0.43746934879E+03  0.43751019312E+03  0.00000000000E+00 0.  1.
         11    1    1    2    0    0  0.38976547135E+01 -0.56728482259E+01 -0.49650583395E+03  0.49655353797E+03  0.00000000000E+00 0.  1.
        -15    1    1    2    0    0  0.72172102460E+01  0.58162259368E+01  0.59706039231E+02  0.60447377590E+02  0.17770000000E+01 0. -1.
         15    1    1    2    0    0 -0.51395585154E+01 -0.32685552644E+00 -0.66955407319E+00  0.54888913202E+01  0.17770000000E+01 0.  1.
</event>
<event>
 6    1  0.1599106E-003  0.5014856E+03  0.7546771E-02  0.9396492E-01
        -11   -1    0    0    0    0  0.00000000000E+00  0.00000000000E+00  0.50000000000E+03  0.50000000000E+03  0.00000000000E+00 0. -1.
         11   -1    0    0    0    0 -0.00000000000E+00 -0.00000000000E+00 -0.50000000000E+03  0.50000000000E+03  0.00000000000E+00 0. -1.
        -11    1    1    2    0    0  0.22206830663E+00  0.14096670626E+02  0.49831499507E+03  0.49851439272E+03  0.00000000000E+00 0. -1.
         11    1    1    2    0    0 -0.60725589570E+00  0.63225407013E+01 -0.30202818215E+03  0.30209496205E+03  0.00000000000E+00 0. -1.
        -15    1    1    2    0    0 -0.11062690384E+02 -0.96378893516E+01 -0.14412991067E+03  0.14488568221E+03  0.17770000000E+01 0. -1.
         15    1    1    2    0    0  0.11447877973E+02 -0.10781321976E+02 -0.52156902244E+02  0.54504963025E+02  0.17770000000E+01 0.  1.
</event>
<event>
 6    1  0.1599106E-003  0.5025477E+03  0.7546771E-02  0.9394127E-01
        -11   -1    0    0    0    0  0.00000000000E+00  0.00000000000E+00  0.50000000000E+03  0.50000000000E+03  0.00000000000E+00 0.  1.
         11   -1    0    0    0    0 -0.00000000000E+00 -0.00000000000E+00 -0.50000000000E+03  0.50000000000E+03  0.00000000000E+00 0.  1.
        -11    1    1    2    0    0  0.71137415379E+01  0.40673276386E+01  0.47821598664E+03  0.47828618875E+03  0.00000000000E+00 0.  1.
         11    1    1    2    0    0 -0.77870626526E+01  0.19743027269E+01 -0.49738744289E+03  0.49745231386E+03  0.00000000000E+00 0.  1.
        -15    1    1    2    0    0 -0.41374035947E+01 -0.22137749987E+01  0.16639104023E+02  0.17379195031E+02  0.17770000000E+01 0. -1.
         15    1    1    2    0    0  0.48107247095E+01 -0.38278553668E+01  0.25323522367E+01  0.68823023611E+01  0.17770000000E+01 0.  1.
</event>
<event>
 6    1  0.1599106E-003  0.5170516E+03  0.7546771E-02  0.9362443E-01
        -11   -1    0    0    0    0  0.00000000000E+00  0.00000000000E+00  0.50000000000E+03  0.50000000000E+03  0.00000000000E+00 0. -1.
         11   -1    0    0    0    0 -0.00000000000E+00 -0.00000000000E+00 -0.50000000000E+03  0.50000000000E+03  0.00000000000E+00 0.  1.
        -11    1    1    2    0    0  0.58576976474E+02 -0.57081451301E+01  0.47934880991E+03  0.48294836852E+03  0.00000000000E+00 0. -1.
         11    1    1    2    0    0 -0.13447450320E+02  0.27854266518E+01 -0.42134230323E+03  0.42156604348E+03  0.00000000000E+00 0.  1.
        -15    1    1    2    0    0 -0.20010970174E+02 -0.98601088910E+00  0.10287579723E+02  0.22592104159E+02  0.17770000000E+01 0. -1.
         15    1    1    2    0    0 -0.25118555980E+02  0.39087293674E+01 -0.68294086406E+02  0.72893483844E+02  0.17770000000E+01 0.  1.
</event>
<event>
 6    1  0.1599106E-003  0.4584990E+03  0.7546771E-02  0.9497782E-01
        -11   -1    0    0    0    0  0.00000000000E+00  0.00000000000E+00  0.50000000000E+03  0.50000000000E+03  0.00000000000E+00 0. -1.
         11   -1    0    0    0    0 -0.00000000000E+00 -0.00000000000E+00 -0.50000000000E+03  0.50000000000E+03  0.00000000000E+00 0.  1.
        -11    1    1    2    0    0 -0.92023083011E+01  0.55305916326E+01  0.46531040128E+03  0.46543424827E+03  0.00000000000E+00 0. -1.
         11    1    1    2    0    0  0.83344843367E+01  0.22609267152E+02 -0.45145774689E+03  0.45210036476E+03  0.00000000000E+00 0.  1.
        -15    1    1    2    0    0  0.10199231510E+02 -0.87874166460E+01  0.30370126840E+02  0.33267782433E+02  0.17770000000E+01 0.  1.
         15    1    1    2    0    0 -0.93314075454E+01 -0.19352442138E+02 -0.44222781231E+02  0.49197604538E+02  0.17770000000E+01 0. -1.
</event>
<event>
 6    1  0.1599106E-003  0.4699930E+03  0.7546771E-02  0.9469575E-01
        -11   -1    0    0    0    0  0.00000000000E+00  0.00000000000E+00  0.50000000000E+03  0.50000000000E+03  0.00000000000E+00 0.  1.
         11   -1    0    0    0    0 -0.00000000000E+00 -0.00000000000E+00 -0.50000000000E+03  0.50000000000E+03  0.00000000000E+00 0.  1.
        -11    1    1    2    0    0  0.80404716515E+00  0.10214751668E+01  0.26393956172E+02  0.26425949855E+02  0.00000000000E+00 0.  1.
         11    1    1    2    0    0 -0.41595540199E+02  0.14442970040E+02 -0.48965557897E+03  0.49163133990E+03  0.00000000000E+00 0.  1.
        -15    1    1    2    0    0  0.45034601674E+02  0.12159263907E+02  0.44725962455E+03  0.44968910652E+03  0.17770000000E+01 0.  1.
         15    1    1    2    0    0 -0.42431086406E+01 -0.27623709113E+02  0.16001998255E+02  0.32253603725E+02  0.17770000000E+01 0. -1.
</event>
<event>
 6    1  0.1599106E-003  0.5006651E+03  0.7546771E-02  0.9398323E-01
        -11   -1    0    0    0    0  0.00000000000E+00  0.00000000000E+00  0.50000000000E+03  0.50000000000E+03  0.00000000000E+00 0. -1.
         11   -1    0    0    0    0 -0.00000000000E+00 -0.00000000000E+00 -0.50000000000E+03  0.50000000000E+03  0.00000000000E+00 0.  1.
        -11    1    1    2    0    0  0.66409905878E+01  0.49983267093E+01  0.49926573620E+03  0.49933491904E+03  0.00000000000E+00 0. -1.
         11    1    1    2    0    0 -0.17894684103E+02  0.97061753169E+00 -0.35748630953E+03  0.35793522224E+03  0.00000000000E+00 0.  1.
        -15    1    1    2    0    0  0.96948095665E+01 -0.15524988581E+01 -0.62415826576E+02  0.63208327943E+02  0.17770000000E+01 0. -1.
         15    1    1    2    0    0  0.15588839490E+01 -0.44164453829E+01 -0.79363600092E+02  0.79521530780E+02  0.17770000000E+01 0.  1.
</event>
<event>
 6    1  0.1599106E-003  0.5060878E+03  0.7546771E-02  0.9386290E-01
        -11   -1    0    0    0    0  0.00000000000E+00  0.00000000000E+00  0.50000000000E+03  0.50000000000E+03  0.00000000000E+00 0. -1.
         11   -1    0    0    0    0 -0.00000000000E+00 -0.00000000000E+00 -0.50000000000E+03  0.50000000000E+03  0.00000000000E+00 0. -1.
        -11    1    1    2    0    0 -0.24196015318E+01  0.91815304873E+01  0.45842137059E+03  0.45851969204E+03  0.00000000000E+00 0. -1.
         11    1    1    2    0    0  0.65016152563E+01  0.19189644644E+02 -0.49349640714E+03  0.49391215547E+03  0.00000000000E+00 0. -1.
        -15    1    1    2    0    0 -0.18695080647E+01 -0.26473884134E+02  0.23476362963E+02  0.35477583747E+02  0.17770000000E+01 0. -1.
         15    1    1    2    0    0 -0.22125056599E+01 -0.18972909972E+01  0.11598673590E+02  0.12090568740E+02  0.17770000000E+01 0. -1.
</event>
<event>
 6    1  0.1599106E-003  0.5049238E+03  0.7546771E-02  0.9388859E-01
        -11   -1    0    0    0    0  0.00000000000E+00  0.00000000000E+00  0.50000000000E+03  0.50000000000E+03  0.00000000000E+00 0.  1.
         11   -1    0    0    0    0 -0.00000000000E+00 -0.00000000000E+00 -0.50000000000E+03  0.50000000000E+03  0.00000000000E+00 0.  1.
        -11    1    1    2    0    0  0.37416328734E+01  0.18273339847E+02  0.49472465845E+03  0.49507615823E+03  0.00000000000E+00 0.  1.
         11    1    1    2    0    0  0.22330580341E+02 -0.37282603855E+01 -0.40826927195E+03  0.40889650666E+03  0.00000000000E+00 0.  1.
        -15    1    1    2    0    0 -0.14544321256E+02  0.47100154818E+00 -0.67882808448E+02  0.69447768395E+02  0.17770000000E+01 0. -1.
         15    1    1    2    0    0 -0.11527891958E+02 -0.15016081010E+02 -0.18572578055E+02  0.26579566711E+02  0.17770000000E+01 0.  1.
</event>
<event>
 6    1  0.1599106E-003  0.5020302E+03  0.7546771E-02  0.9395278E-01
        -11   -1    0    0    0    0  0.00000000000E+00  0.00000000000E+00  0.50000000000E+03  0.50000000000E+03  0.00000000000E+00 0. -1.
         11   -1    0    0    0    0 -0.00000000000E+00 -0.00000000000E+00 -0.50000000000E+03  0.50000000000E+03  0.00000000000E+00 0.  1.
        -11    1    1    2    0    0  0.32362885348E+02 -0.94090529747E+01  0.49682799617E+03  0.49796982279E+03  0.00000000000E+00 0. -1.
         11    1    1    2    0    0 -0.12476305668E+01 -0.23236841522E+01 -0.18019518843E+03  0.18021448894E+03  0.00000000000E+00 0.  1.
        -15    1    1    2    0    0 -0.51538908536E+01  0.44860896420E+00 -0.24064151903E+03  0.24070368143E+03  0.17770000000E+01 0. -1.
         15    1    1    2    0    0 -0.25961363928E+02  0.11284128163E+02 -0.75991288715E+02  0.81112006848E+02  0.17770000000E+01 0.  1.
</event>
<event>
 6    1  0.1599106E-003  0.5054932E+03  0.7546771E-02  0.9387601E-01
        -11   -1    0    0    0    0  0.00000000000E+00  0.00000000000E+00  0.50000000000E+03  0.50000000000E+03  0.00000000000E+00 0.  1.
         11   -1    0    0    0    0 -0.00000000000E+00 -0.00000000000E+00 -0.50000000000E+03  0.50000000000E+03  0.00000000000E+00 0.  1.
        -11    1    1    2    0    0  0.24306526357E+01 -0.76967887870E+01  0.49444093189E+03  0.49450680860E+03  0.00000000000E+00 0.  1.
         11    1    1    2    0    0 -0.13371232942E+01 -0.88657866465E+01 -0.40181651146E+03  0.40191653232E+03  0.00000000000E+00 0.  1.
        -15    1    1    2    0    0  0.19493677543E+01 -0.18688348845E+01 -0.81898608956E+02  0.81962384399E+02  0.17770000000E+01 0. -1.
         15    1    1    2    0    0 -0.30428970958E+01  0.18431410318E+02 -0.10725811475E+02  0.21614274678E+02  0.17770000000E+01 0.  1.
</event>
<event>
 6    1  0.1599106E-003  0.5069688E+03  0.7546771E-02  0.9384350E-01
        -11   -1    0    0    0    0  0.00000000000E+00  0.00000000000E+00  0.50000000000E+03  0.50000000000E+03  0.00000000000E+00 0.  1.
         11   -1    0    0    0    0 -0.00000000000E+00 -0.00000000000E+00 -0.50000000000E+03  0.50000000000E+03  0.00000000000E+00 0.  1.
        -11    1    1    2    0    0 -0.74780705428E+00  0.69686527155E+01  0.46565602962E+03  0.46570877086E+03  0.00000000000E+00 0.  1.
         11    1    1    2    0    0  0.18918196772E+02  0.14712785249E+01 -0.49266586593E+03  0.49303115346E+03  0.00000000000E+00 0.  1.
        -15    1    1    2    0    0  0.28440033064E+01 -0.41064948564E+01  0.16443283661E+02  0.17276890964E+02  0.17770000000E+01 0. -1.
         15    1    1    2    0    0 -0.21014393024E+02 -0.43334363840E+01  0.10566552647E+02  0.23983184712E+02  0.17770000000E+01 0.  1.
</event>
<event>
 6    1  0.1599106E-003  0.5064314E+03  0.7546771E-02  0.9385533E-01
        -11   -1    0    0    0    0  0.00000000000E+00  0.00000000000E+00  0.50000000000E+03  0.50000000000E+03  0.00000000000E+00 0. -1.
         11   -1    0    0    0    0 -0.00000000000E+00 -0.00000000000E+00 -0.50000000000E+03  0.50000000000E+03  0.00000000000E+00 0. -1.
        -11    1    1    2    0    0 -0.17066993313E+01  0.60805143063E+01  0.42723899237E+03  0.42728566800E+03  0.00000000000E+00 0. -1.
         11    1    1    2    0    0 -0.59938896874E+01  0.94122327069E+01 -0.49344239597E+03  0.49356855145E+03  0.00000000000E+00 0. -1.
        -15    1    1    2    0    0  0.54155026232E+01 -0.78828337008E+00  0.63690509723E+02  0.63949885201E+02  0.17770000000E+01 0.  1.
         15    1    1    2    0    0  0.22850863955E+01 -0.14704463643E+02  0.25128938807E+01  0.15195895351E+02  0.17770000000E+01 0. -1.
</event>
<event>
 6    1  0.1599106E-003  0.5088128E+03  0.7546771E-02  0.9380303E-01
        -11   -1    0    0    0    0  0.00000000000E+00  0.00000000000E+00  0.50000000000E+03  0.50000000000E+03  0.00000000000E+00 0. -1.
         11   -1    0    0    0    0 -0.00000000000E+00 -0.00000000000E+00 -0.50000000000E+03  0.50000000000E+03  0.00000000000E+00 0. -1.
        -11    1    1    2    0    0  0.78297813404E+01  0.26254452942E+01  0.44271995645E+03  0.44279697185E+03  0.00000000000E+00 0. -1.
         11    1    1    2    0    0  0.19648829952E+01  0.95059942630E+01 -0.49109126806E+03  0.49118719269E+03  0.00000000000E+00 0. -1.
        -15    1    1    2    0    0  0.54259006756E-01  0.11762567410E+02  0.89248460971E+00  0.11929593199E+02  0.17770000000E+01 0. -1.
         15    1    1    2    0    0 -0.98489233424E+01 -0.23894006967E+02  0.47478827002E+02  0.54086242266E+02  0.17770000000E+01 0.  1.
</event>
<event>
 6    1  0.1599106E-003  0.5024494E+03  0.7546771E-02  0.9394346E-01
        -11   -1    0    0    0    0  0.00000000000E+00  0.00000000000E+00  0.50000000000E+03  0.50000000000E+03  0.00000000000E+00 0. -1.
         11   -1    0    0    0    0 -0.00000000000E+00 -0.00000000000E+00 -0.50000000000E+03  0.50000000000E+03  0.00000000000E+00 0.  1.
        -11    1    1    2    0    0 -0.27194095863E+01  0.60042437943E+01  0.45719047731E+03  0.45723798910E+03  0.00000000000E+00 0. -1.
         11    1    1    2    0    0 -0.52567467579E+01 -0.47864715560E+01 -0.49749982017E+03  0.49755061528E+03  0.00000000000E+00 0.  1.
        -15    1    1    2    0    0  0.39198494844E+01  0.34207566482E+01  0.12616694850E+01  0.56405970354E+01  0.17770000000E+01 0.  1.
         15    1    1    2    0    0  0.40563068598E+01 -0.46385288865E+01  0.39047673372E+02  0.39570798581E+02  0.17770000000E+01 0. -1.
</event>
<event>
 6    1  0.1599106E-003  0.4867357E+03  0.7546771E-02  0.9429989E-01
        -11   -1    0    0    0    0  0.00000000000E+00  0.00000000000E+00  0.50000000000E+03  0.50000000000E+03  0.00000000000E+00 0.  1.
         11   -1    0    0    0    0 -0.00000000000E+00 -0.00000000000E+00 -0.50000000000E+03  0.50000000000E+03  0.00000000000E+00 0.  1.
        -11    1    1    2    0    0 -0.12023912599E+01  0.69563534343E+01  0.49135479824E+03  0.49140550907E+03  0.00000000000E+00 0.  1.
         11    1    1    2    0    0 -0.11709804375E+02  0.21292020348E+01 -0.48209105197E+03  0.48223794481E+03  0.00000000000E+00 0.  1.
        -15    1    1    2    0    0  0.66818791145E+00 -0.68071295561E+01  0.39631700835E+01  0.81023412659E+01  0.17770000000E+01 0.  1.
         15    1    1    2    0    0  0.12244007724E+02 -0.22784259129E+01 -0.13226916346E+02  0.18254204852E+02  0.17770000000E+01 0. -1.
</event>
<event>
 6    1  0.1599106E-003  0.4614384E+03  0.7546771E-02  0.9490485E-01
        -11   -1    0    0    0    0  0.00000000000E+00  0.00000000000E+00  0.50000000000E+03  0.50000000000E+03  0.00000000000E+00 0. -1.
         11   -1    0    0    0    0 -0.00000000000E+00 -0.00000000000E+00 -0.50000000000E+03  0.50000000000E+03  0.00000000000E+00 0.  1.
        -11    1    1    2    0    0  0.89319139572E+01  0.12190586071E+02  0.46017565802E+03  0.46042374582E+03  0.00000000000E+00 0. -1.
         11    1    1    2    0    0 -0.12713170996E+02 -0.13087257939E+02 -0.46210309780E+03  0.46246315965E+03  0.00000000000E+00 0.  1.
        -15    1    1    2    0    0 -0.33180233467E+01 -0.82835748411E+01 -0.36144485272E+02  0.37272086548E+02  0.17770000000E+01 0.  1.
         15    1    1    2    0    0  0.70992803856E+01  0.91802467096E+01  0.38071925047E+02  0.39841007987E+02  0.17770000000E+01 0. -1.
</event>
<event>
 6    1  0.1599106E-003  0.5078124E+03  0.7546771E-02  0.9382497E-01
        -11   -1    0    0    0    0  0.00000000000E+00  0.00000000000E+00  0.50000000000E+03  0.50000000000E+03  0.00000000000E+00 0. -1.
         11   -1    0    0    0    0 -0.00000000000E+00 -0.00000000000E+00 -0.50000000000E+03  0.50000000000E+03  0.00000000000E+00 0.  1.
        -11    1    1    2    0    0  0.98169703817E+01  0.33623503202E+01  0.45944302774E+03  0.45956019632E+03  0.00000000000E+00 0. -1.
         11    1    1    2    0    0  0.11934318776E+02  0.81687403050E+01 -0.49197508409E+03  0.49218760615E+03  0.00000000000E+00 0.  1.
        -15    1    1    2    0    0 -0.21809428621E+02 -0.20733315520E+01  0.10810602561E+02  0.24494422574E+02  0.17770000000E+01 0. -1.
         15    1    1    2    0    0  0.58139463329E-01 -0.94577590732E+01  0.21721453790E+02  0.23757774951E+02  0.17770000000E+01 0.  1.
</event>
<event>
 6    1  0.1599106E-003  0.5154650E+03  0.7546771E-02  0.9365855E-01
        -11   -1    0    0    0    0  0.00000000000E+00  0.00000000000E+00  0.50000000000E+03  0.50000000000E+03  0.00000000000E+00 0. -1.
         11   -1    0    0    0    0 -0.00000000000E+00 -0.00000000000E+00 -0.50000000000E+03  0.50000000000E+03  0.00000000000E+00 0. -1.
        -11    1    1    2    0    0  0.87190727812E+01 -0.11417010771E+02  0.48432197396E+03  0.48453497791E+03  0.00000000000E+00 0. -1.
         11    1    1    2    0    0 -0.45508422190E+00  0.72889158002E+01 -0.47413417188E+03  0.47419041359E+03  0.00000000000E+00 0. -1.
        -15    1    1    2    0    0  0.51002085963E+01  0.53413036642E+01 -0.22021624434E+02  0.23294877640E+02  0.17770000000E+01 0.  1.
         15    1    1    2    0    0 -0.13364197156E+02 -0.12132086934E+01  0.11833822361E+02  0.17979730855E+02  0.17770000000E+01 0. -1.
</event>
<event>
 6    1  0.1599106E-003  0.5095407E+03  0.7546771E-02  0.9378711E-01
        -11   -1    0    0    0    0  0.00000000000E+00  0.00000000000E+00  0.50000000000E+03  0.50000000000E+03  0.00000000000E+00 0.  1.
         11   -1    0    0    0    0 -0.00000000000E+00 -0.00000000000E+00 -0.50000000000E+03  0.50000000000E+03  0.00000000000E+00 0. -1.
        -11    1    1    2    0    0  0.85999077870E+01  0.11740141110E+02  0.49024331729E+03  0.49045927403E+03  0.00000000000E+00 0.  1.
         11    1    1    2    0    0 -0.44155415942E+01  0.10722352426E+02 -0.45715272750E+03  0.45729977270E+03  0.00000000000E+00 0. -1.
        -15    1    1    2    0    0  0.11193567078E+02 -0.17450664906E+02 -0.28586512724E+02  0.35357716108E+02  0.17770000000E+01 0. -1.
         15    1    1    2    0    0 -0.15377933271E+02 -0.50118286299E+01 -0.45040770651E+01  0.16883237163E+02  0.17770000000E+01 0.  1.
</event>
<event>
 6    1  0.1599106E-003  0.4923980E+03  0.7546771E-02  0.9416982E-01
        -11   -1    0    0    0    0  0.00000000000E+00  0.00000000000E+00  0.50000000000E+03  0.50000000000E+03  0.00000000000E+00 0.  1.
         11   -1    0    0    0    0 -0.00000000000E+00 -0.00000000000E+00 -0.50000000000E+03  0.50000000000E+03  0.00000000000E+00 0. -1.
        -11    1    1    2    0    0 -0.99225168630E+01  0.43059695944E+00  0.49191325403E+03  0.49201350718E+03  0.00000000000E+00 0.  1.
         11    1    1    2    0    0  0.56728004039E+01  0.49438467994E+01 -0.49274917983E+03  0.49280663197E+03  0.00000000000E+00 0. -1.
        -15    1    1    2    0    0  0.58744090508E+01 -0.97282097579E-01  0.51002785212E+01  0.79805210041E+01  0.17770000000E+01 0. -1.
         15    1    1    2    0    0 -0.16246925917E+01 -0.52771616612E+01 -0.42643527178E+01  0.71993398530E+01  0.17770000000E+01 0.  1.
</event>
<event>
 6    1  0.1599106E-003  0.5065154E+03  0.7546771E-02  0.9385348E-01
        -11   -1    0    0    0    0  0.00000000000E+00  0.00000000000E+00  0.50000000000E+03  0.50000000000E+03  0.00000000000E+00 0. -1.
         11   -1    0    0    0    0 -0.00000000000E+00 -0.00000000000E+00 -0.50000000000E+03  0.50000000000E+03  0.00000000000E+00 0.  1.
        -11    1    1    2    0    0  0.11127975709E+02 -0.34540528080E+00  0.49335903005E+03  0.49348463368E+03  0.00000000000E+00 0. -1.
         11    1    1    2    0    0  0.90979162960E+01 -0.58050911178E+01 -0.43576286403E+03  0.43589648408E+03  0.00000000000E+00 0.  1.
        -15    1    1    2    0    0  0.34450195444E+01  0.13745567812E+02 -0.11991860949E+02  0.18648626013E+02  0.17770000000E+01 0. -1.
         15    1    1    2    0    0 -0.23670911549E+02 -0.75950714137E+01 -0.45604305067E+02  0.51970256234E+02  0.17770000000E+01 0.  1.
</event>
<event>
 6    1  0.1599106E-003  0.5027877E+03  0.7546771E-02  0.9393594E-01
        -11   -1    0    0    0    0  0.00000000000E+00  0.00000000000E+00  0.50000000000E+03  0.50000000000E+03  0.00000000000E+00 0.  1.
         11   -1    0    0    0    0 -0.00000000000E+00 -0.00000000000E+00 -0.50000000000E+03  0.50000000000E+03  0.00000000000E+00 0.  1.
        -11    1    1    2    0    0  0.57422185447E+01 -0.84870420021E+01  0.38326709131E+03  0.38340405088E+03  0.00000000000E+00 0.  1.
         11    1    1    2    0    0  0.44561743783E+01 -0.15473553050E+02 -0.49695149107E+03  0.49721230155E+03  0.00000000000E+00 0.  1.
        -15    1    1    2    0    0 -0.86435504511E+01  0.20341339803E+02  0.41345319534E+02  0.46915607699E+02  0.17770000000E+01 0.  1.
         15    1    1    2    0    0 -0.15548424718E+01  0.36192552487E+01  0.72339080234E+02  0.72468039864E+02  0.17770000000E+01 0. -1.
</event>
<event>
 6    1  0.1599106E-003  0.5009591E+03  0.7546771E-02  0.9397666E-01
        -11   -1    0    0    0    0  0.00000000000E+00  0.00000000000E+00  0.50000000000E+03  0.50000000000E+03  0.00000000000E+00 0.  1.
         11   -1    0    0    0    0 -0.00000000000E+00 -0.00000000000E+00 -0.50000000000E+03  0.50000000000E+03  0.00000000000E+00 0.  1.
        -11    1    1    2    0    0  0.82617435341E+01 -0.30374746269E+00  0.25365285164E+03  0.25378754464E+03  0.00000000000E+00 0.  1.
         11    1    1    2    0    0 -0.47480289082E+01  0.12376246762E+02 -0.49886480338E+03  0.49904088742E+03  0.00000000000E+00 0.  1.
        -15    1    1    2    0    0  0.40713178027E+01 -0.58429051440E+01  0.14573066527E+02  0.16317082036E+02  0.17770000000E+01 0. -1.
         15    1    1    2    0    0 -0.75850324285E+01 -0.62295941557E+01  0.23063888522E+03  0.23085448591E+03  0.17770000000E+01 0.  1.
</event>
<event>
 6    1  0.1599106E-003  0.5004354E+03  0.7546771E-02  0.9398836E-01
        -11   -1    0    0    0    0  0.00000000000E+00  0.00000000000E+00  0.50000000000E+03  0.50000000000E+03  0.00000000000E+00 0.  1.
         11   -1    0    0    0    0 -0.00000000000E+00 -0.00000000000E+00 -0.50000000000E+03  0.50000000000E+03  0.00000000000E+00 0. -1.
        -11    1    1    2    0    0  0.56891467453E+01 -0.38401723448E+01  0.49951748183E+03  0.49956463842E+03  0.00000000000E+00 0.  1.
         11    1    1    2    0    0 -0.26046992361E+01 -0.34065602538E+01 -0.14898177915E+03  0.14904348235E+03  0.00000000000E+00 0. -1.
        -15    1    1    2    0    0  0.75431715842E+01 -0.33153012159E+01 -0.17733241919E+03  0.17753263161E+03  0.17770000000E+01 0.  1.
         15    1    1    2    0    0 -0.10627619093E+02  0.10562033814E+02 -0.17320328348E+03  0.17385924762E+03  0.17770000000E+01 0. -1.
</event>
<event>
 6    1  0.1599106E-003  0.5072257E+03  0.7546771E-02  0.9383785E-01
        -11   -1    0    0    0    0  0.00000000000E+00  0.00000000000E+00  0.50000000000E+03  0.50000000000E+03  0.00000000000E+00 0.  1.
         11   -1    0    0    0    0 -0.00000000000E+00 -0.00000000000E+00 -0.50000000000E+03  0.50000000000E+03  0.00000000000E+00 0.  1.
        -11    1    1    2    0    0  0.80799278057E+01 -0.23511868941E+02  0.49214674667E+03  0.49277430277E+03  0.00000000000E+00 0.  1.
         11    1    1    2    0    0  0.15069785269E+02 -0.37596754785E+01 -0.40072122356E+03  0.40102210987E+03  0.00000000000E+00 0.  1.
        -15    1    1    2    0    0 -0.32515203410E+02  0.10290928468E+02 -0.64375292542E+02  0.72873024367E+02  0.17770000000E+01 0. -1.
         15    1    1    2    0    0  0.93654903355E+01  0.16980615952E+02 -0.27050230561E+02  0.33330562997E+02  0.17770000000E+01 0.  1.
</event>
<event>
 6    1  0.1599106E-003  0.5209436E+03  0.7546771E-02  0.9354129E-01
        -11   -1    0    0    0    0  0.00000000000E+00  0.00000000000E+00  0.50000000000E+03  0.50000000000E+03  0.00000000000E+00 0.  1.
         11   -1    0    0    0    0 -0.00000000000E+00 -0.00000000000E+00 -0.50000000000E+03  0.50000000000E+03  0.00000000000E+00 0.  1.
        -11    1    1    2    0    0 -0.51248702327E+01  0.95564981855E+01  0.47893366902E+03  0.47905641659E+03  0.00000000000E+00 0.  1.
         11    1    1    2    0    0  0.67075095322E+01  0.15375926138E+01 -0.46266716011E+03  0.46271833324E+03  0.00000000000E+00 0.  1.
        -15    1    1    2    0    0  0.63309454777E+01 -0.29438073978E+02  0.31274737170E+01  0.30325235218E+02  0.17770000000E+01 0. -1.
         15    1    1    2    0    0 -0.79135847771E+01  0.18343983179E+02 -0.19393982633E+02  0.27900014951E+02  0.17770000000E+01 0. -1.
</event>
<event>
 6    1  0.1599106E-003  0.5007719E+03  0.7546771E-02  0.9398084E-01
        -11   -1    0    0    0    0  0.00000000000E+00  0.00000000000E+00  0.50000000000E+03  0.50000000000E+03  0.00000000000E+00 0.  1.
         11   -1    0    0    0    0 -0.00000000000E+00 -0.00000000000E+00 -0.50000000000E+03  0.50000000000E+03  0.00000000000E+00 0.  1.
        -11    1    1    2    0    0  0.26314053192E+01 -0.68060138757E+01  0.43728525923E+03  0.43734613758E+03  0.00000000000E+00 0.  1.
         11    1    1    2    0    0  0.68843545876E+01  0.12520162482E+02 -0.49902361835E+03  0.49922812469E+03  0.00000000000E+00 0.  1.
        -15    1    1    2    0    0 -0.37055316649E+01  0.20201437088E+01  0.23555062010E+02  0.23996054276E+02  0.17770000000E+01 0.  1.
         15    1    1    2    0    0 -0.58102282419E+01 -0.77342923155E+01  0.38183297113E+02  0.39429683454E+02  0.17770000000E+01 0. -1.
</event>
<event>
 6    1  0.1599106E-003  0.5014240E+03  0.7546771E-02  0.9396629E-01
        -11   -1    0    0    0    0  0.00000000000E+00  0.00000000000E+00  0.50000000000E+03  0.50000000000E+03  0.00000000000E+00 0.  1.
         11   -1    0    0    0    0 -0.00000000000E+00 -0.00000000000E+00 -0.50000000000E+03  0.50000000000E+03  0.00000000000E+00 0. -1.
        -11    1    1    2    0    0  0.33314205763E+01 -0.12517771319E+01  0.19406889006E+03  0.19410151828E+03  0.00000000000E+00 0.  1.
         11    1    1    2    0    0  0.70971180063E+01  0.23621390220E+01 -0.49851993168E+03  0.49857604342E+03  0.00000000000E+00 0. -1.
        -15    1    1    2    0    0 -0.21001696764E+01  0.83909937564E+01  0.13748877531E+02  0.16340405480E+02  0.17770000000E+01 0. -1.
         15    1    1    2    0    0 -0.83283689062E+01 -0.95013556464E+01  0.29070216409E+03  0.29098203282E+03  0.17770000000E+01 0.  1.
</event>
<event>
 6    1  0.1599106E-003  0.5094098E+03  0.7546771E-02  0.9378997E-01
        -11   -1    0    0    0    0  0.00000000000E+00  0.00000000000E+00  0.50000000000E+03  0.50000000000E+03  0.00000000000E+00 0.  1.
         11   -1    0    0    0    0 -0.00000000000E+00 -0.00000000000E+00 -0.50000000000E+03  0.50000000000E+03  0.00000000000E+00 0.  1.
        -11    1    1    2    0    0 -0.46504931665E+01 -0.79979660157E+01  0.49050292011E+03  0.49059016417E+03  0.00000000000E+00 0.  1.
         11    1    1    2    0    0 -0.46149686075E+01  0.11591045775E+02 -0.47669375480E+03  0.47685698710E+03  0.00000000000E+00 0.  1.
        -15    1    1    2    0    0  0.94081518634E+01 -0.25791247841E+01 -0.21988194667E+02  0.24120606125E+02  0.17770000000E+01 0.  1.
         15    1    1    2    0    0 -0.14269008937E+00 -0.10139549756E+01  0.81790293578E+01  0.84322426073E+01  0.17770000000E+01 0. -1.
</event>
<event>
 6    1  0.1599106E-003  0.5013750E+03  0.7546771E-02  0.9396738E-01
        -11   -1    0    0    0    0  0.00000000000E+00  0.00000000000E+00  0.50000000000E+03  0.50000000000E+03  0.00000000000E+00 0. -1.
         11   -1    0    0    0    0 -0.00000000000E+00 -0.00000000000E+00 -0.50000000000E+03  0.50000000000E+03  0.00000000000E+00 0.  1.
        -11    1    1    2    0    0  0.42591099634E+00 -0.15072675673E+01  0.45633222495E+02  0.45660094733E+02  0.00000000000E+00 0. -1.
         11    1    1    2    0    0 -0.45480916184E+01 -0.63198931283E+01 -0.49856420456E+03  0.49862500163E+03  0.00000000000E+00 0.  1.
        -15    1    1    2    0    0 -0.40405568145E+01 -0.10735830567E+02  0.37467306269E+03  0.37485283218E+03  0.17770000000E+01 0. -1.
         15    1    1    2    0    0  0.81627374366E+01  0.18562991263E+02  0.78257919368E+02  0.80862071455E+02  0.17770000000E+01 0.  1.
</event>
<event>
 6    1  0.1599106E-003  0.5167706E+03  0.7546771E-02  0.9363047E-01
        -11   -1    0    0    0    0  0.00000000000E+00  0.00000000000E+00  0.50000000000E+03  0.50000000000E+03  0.00000000000E+00 0.  1.
         11   -1    0    0    0    0 -0.00000000000E+00 -0.00000000000E+00 -0.50000000000E+03  0.50000000000E+03  0.00000000000E+00 0.  1.
        -11    1    1    2    0    0 -0.79597279635E+01 -0.18434109611E+01  0.28020330054E+03  0.28032239487E+03  0.00000000000E+00 0.  1.
         11    1    1    2    0    0  0.86108861958E+01  0.67453879662E+00 -0.48315215536E+03  0.48322935299E+03  0.00000000000E+00 0.  1.
        -15    1    1    2    0    0 -0.11302471252E+02 -0.25260528759E+01 -0.14532533775E+02  0.18667594019E+02  0.17770000000E+01 0.  1.
         15    1    1    2    0    0  0.10651313020E+02  0.36949250403E+01  0.21748138859E+03  0.21778065812E+03  0.17770000000E+01 0.  1.
</event>
<event>
 6    1  0.1599106E-003  0.5008645E+03  0.7546771E-02  0.9397878E-01
        -11   -1    0    0    0    0  0.00000000000E+00  0.00000000000E+00  0.50000000000E+03  0.50000000000E+03  0.00000000000E+00 0. -1.
         11   -1    0    0    0    0 -0.00000000000E+00 -0.00000000000E+00 -0.50000000000E+03  0.50000000000E+03  0.00000000000E+00 0.  1.
        -11    1    1    2    0    0  0.14219503468E+02  0.14697599217E+02  0.49871642956E+03  0.49913554353E+03  0.00000000000E+00 0. -1.
         11    1    1    2    0    0 -0.20098615432E+01  0.94473827869E+00 -0.11053806525E+03  0.11056037239E+03  0.00000000000E+00 0.  1.
        -15    1    1    2    0    0 -0.10716297723E+02 -0.81105972170E+01 -0.44126457567E+02  0.46161919485E+02  0.17770000000E+01 0. -1.
         15    1    1    2    0    0 -0.14933442016E+01 -0.75317402790E+01 -0.34405190675E+03  0.34414216460E+03  0.17770000000E+01 0.  1.
</event>
<event>
 6    1  0.1599106E-003  0.4934705E+03  0.7546771E-02  0.9414540E-01
        -11   -1    0    0    0    0  0.00000000000E+00  0.00000000000E+00  0.50000000000E+03  0.50000000000E+03  0.00000000000E+00 0. -1.
         11   -1    0    0    0    0 -0.00000000000E+00 -0.00000000000E+00 -0.50000000000E+03  0.50000000000E+03  0.00000000000E+00 0.  1.
        -11    1    1    2    0    0  0.61413639544E+01  0.50332044252E+01  0.49303429620E+03  0.49309823233E+03  0.00000000000E+00 0. -1.
         11    1    1    2    0    0  0.39410102974E+01 -0.72399980004E+01 -0.49382825758E+03  0.49389705113E+03  0.00000000000E+00 0.  1.
        -15    1    1    2    0    0 -0.49500758176E+01 -0.22282734806E+01 -0.92186349188E+00  0.57858460576E+01  0.17770000000E+01 0.  1.
         15    1    1    2    0    0 -0.51322984342E+01  0.44350670558E+01  0.17158248716E+01  0.72188704793E+01  0.17770000000E+01 0. -1.
</event>
<event>
 6    1  0.1599106E-003  0.5000586E+03  0.7546771E-02  0.9399679E-01
        -11   -1    0    0    0    0  0.00000000000E+00  0.00000000000E+00  0.50000000000E+03  0.50000000000E+03  0.00000000000E+00 0. -1.
         11   -1    0    0    0    0 -0.00000000000E+00 -0.00000000000E+00 -0.50000000000E+03  0.50000000000E+03  0.00000000000E+00 0.  1.
        -11    1    1    2    0    0 -0.18324205261E+00 -0.48144317653E+00  0.91779312261E+01  0.91923765575E+01  0.00000000000E+00 0. -1.
         11    1    1    2    0    0  0.42791997553E+00 -0.71120804053E+01 -0.49989061085E+03  0.49994138419E+03  0.00000000000E+00 0.  1.
        -15    1    1    2    0    0 -0.14772863410E+01  0.80890942406E+01  0.45853122567E+03  0.45860839336E+03  0.17770000000E+01 0. -1.
         15    1    1    2    0    0  0.12326084181E+01 -0.49557065878E+00  0.32181453962E+02  0.32257845896E+02  0.17770000000E+01 0. -1.
</event>
<event>
 6    1  0.1599106E-003  0.3231329E+03  0.7546771E-02  0.9915509E-01
        -11   -1    0    0    0    0  0.00000000000E+00  0.00000000000E+00  0.50000000000E+03  0.50000000000E+03  0.00000000000E+00 0. -1.
         11   -1    0    0    0    0 -0.00000000000E+00 -0.00000000000E+00 -0.50000000000E+03  0.50000000000E+03  0.00000000000E+00 0.  1.
        -11    1    1    2    0    0  0.36937694547E+02  0.33650276646E+02  0.22037767684E+03  0.22597135846E+03  0.00000000000E+00 0. -1.
         11    1    1    2    0    0  0.21844152815E+02  0.34632007000E+02 -0.38193718012E+03  0.38412569880E+03  0.00000000000E+00 0.  1.
        -15    1    1    2    0    0 -0.24644670928E+02 -0.33116135024E+02  0.26881239271E+03  0.27196929681E+03  0.17770000000E+01 0. -1.
         15    1    1    2    0    0 -0.34137176433E+02 -0.35166148621E+02 -0.10725288942E+03  0.11793364593E+03  0.17770000000E+01 0.  1.
</event>
<event>
 6    1  0.1599106E-003  0.5001325E+03  0.7546771E-02  0.9399513E-01
        -11   -1    0    0    0    0  0.00000000000E+00  0.00000000000E+00  0.50000000000E+03  0.50000000000E+03  0.00000000000E+00 0. -1.
         11   -1    0    0    0    0 -0.00000000000E+00 -0.00000000000E+00 -0.50000000000E+03  0.50000000000E+03  0.00000000000E+00 0.  1.
        -11    1    1    2    0    0  0.34078791152E+01 -0.37635011810E+01  0.28781474299E+03  0.28785952106E+03  0.00000000000E+00 0. -1.
         11    1    1    2    0    0  0.11914713819E+01  0.11575260192E+02 -0.49973199751E+03  0.49986745802E+03  0.00000000000E+00 0.  1.
        -15    1    1    2    0    0 -0.46330661658E+01 -0.89035639357E+01  0.17339994259E+03  0.17369927050E+03  0.17770000000E+01 0. -1.
         15    1    1    2    0    0  0.33715668749E-01  0.10918049248E+01  0.38517311925E+02  0.38573750423E+02  0.17770000000E+01 0. -1.
</event>
<event>
 6    1  0.1599106E-003  0.5014599E+03  0.7546771E-02  0.9396549E-01
        -11   -1    0    0    0    0  0.00000000000E+00  0.00000000000E+00  0.50000000000E+03  0.50000000000E+03  0.00000000000E+00 0. -1.
         11   -1    0    0    0    0 -0.00000000000E+00 -0.00000000000E+00 -0.50000000000E+03  0.50000000000E+03  0.00000000000E+00 0. -1.
        -11    1    1    2    0    0 -0.94829091738E+01  0.12132957082E+01  0.49844846659E+03  0.49854014031E+03  0.00000000000E+00 0. -1.
         11    1    1    2    0    0 -0.45386699210E+01  0.73701163838E+01 -0.43506257152E+03  0.43514866342E+03  0.00000000000E+00 0. -1.
        -15    1    1    2    0    0  0.10520297383E+02 -0.10488807344E+02 -0.52273524524E+02  0.54372519085E+02  0.17770000000E+01 0. -1.
         15    1    1    2    0    0  0.35012817118E+01  0.19053952515E+01 -0.11112370547E+02  0.11938677182E+02  0.17770000000E+01 0.  1.
</event>
<event>
 6    1  0.1599106E-003  0.5064516E+03  0.7546771E-02  0.9385488E-01
        -11   -1    0    0    0    0  0.00000000000E+00  0.00000000000E+00  0.50000000000E+03  0.50000000000E+03  0.00000000000E+00 0. -1.
         11   -1    0    0    0    0 -0.00000000000E+00 -0.00000000000E+00 -0.50000000000E+03  0.50000000000E+03  0.00000000000E+00 0. -1.
        -11    1    1    2    0    0 -0.37001739866E+01  0.14719767227E+02  0.40192086497E+03  0.40220734023E+03  0.00000000000E+00 0. -1.
         11    1    1    2    0    0  0.91613220346E+01  0.10971102688E+02 -0.49334134640E+03  0.49354835526E+03  0.00000000000E+00 0. -1.
        -15    1    1    2    0    0 -0.18085822702E+02  0.31322702211E+01  0.30133791644E+02  0.35328617683E+02  0.17770000000E+01 0.  1.
         15    1    1    2    0    0  0.12624674654E+02 -0.28823140135E+02  0.61286689784E+02  0.68915686829E+02  0.17770000000E+01 0. -1.
</event>
<event>
 6    1  0.1599106E-003  0.5015233E+03  0.7546771E-02  0.9396408E-01
        -11   -1    0    0    0    0  0.00000000000E+00  0.00000000000E+00  0.50000000000E+03  0.50000000000E+03  0.00000000000E+00 0. -1.
         11   -1    0    0    0    0 -0.00000000000E+00 -0.00000000000E+00 -0.50000000000E+03  0.50000000000E+03  0.00000000000E+00 0.  1.
        -11    1    1    2    0    0 -0.40479414959E+01  0.26184604937E+02  0.49777199430E+03  0.49847665710E+03  0.00000000000E+00 0. -1.
         11    1    1    2    0    0  0.53041368348E+01 -0.29756554803E+01 -0.10933796886E+03  0.10950698529E+03  0.00000000000E+00 0.  1.
        -15    1    1    2    0    0 -0.14114020838E+02 -0.27814820405E+02 -0.15178176222E+03  0.15496364376E+03  0.17770000000E+01 0. -1.
         15    1    1    2    0    0  0.12857825499E+02  0.46058709482E+01 -0.23665226322E+03  0.23705271384E+03  0.17770000000E+01 0.  1.
</event>
<event>
 6    1  0.1599106E-003  0.5082877E+03  0.7546771E-02  0.9381454E-01
        -11   -1    0    0    0    0  0.00000000000E+00  0.00000000000E+00  0.50000000000E+03  0.50000000000E+03  0.00000000000E+00 0. -1.
         11   -1    0    0    0    0 -0.00000000000E+00 -0.00000000000E+00 -0.50000000000E+03  0.50000000000E+03  0.00000000000E+00 0. -1.
        -11    1    1    2    0    0  0.59170612548E+01 -0.28929551050E+01  0.47704000580E+03  0.47708547236E+03  0.00000000000E+00 0. -1.
         11    1    1    2    0    0 -0.75245767068E+01 -0.40746291715E+01 -0.49163785987E+03  0.49171232150E+03  0.00000000000E+00 0. -1.
        -15    1    1    2    0    0  0.44316569787E+01 -0.94372889941E+01  0.36008846697E+01  0.11172560429E+02  0.17770000000E+01 0. -1.
         15    1    1    2    0    0 -0.28241415267E+01  0.16404873271E+02  0.10996969398E+02  0.20029645712E+02  0.17770000000E+01 0.  1.
</event>
<event>
 6    1  0.1599106E-003  0.5020270E+03  0.7546771E-02  0.9395286E-01
        -11   -1    0    0    0    0  0.00000000000E+00  0.00000000000E+00  0.50000000000E+03  0.50000000000E+03  0.00000000000E+00 0. -1.
         11   -1    0    0    0    0 -0.00000000000E+00 -0.00000000000E+00 -0.50000000000E+03  0.50000000000E+03  0.00000000000E+00 0.  1.
        -11    1    1    2    0    0 -0.11542182592E+02 -0.40398067789E+00  0.49783905935E+03  0.49797300548E+03  0.00000000000E+00 0. -1.
         11    1    1    2    0    0  0.27783672312E+01  0.58194219649E+01 -0.42542677100E+03  0.42547564264E+03  0.00000000000E+00 0.  1.
        -15    1    1    2    0    0  0.10367106059E+02 -0.56962898247E+00 -0.12289507241E+02  0.16186138590E+02  0.17770000000E+01 0.  1.
         15    1    1    2    0    0 -0.16032906987E+01 -0.48458123045E+01 -0.60122781109E+02  0.60365213288E+02  0.17770000000E+01 0. -1.
</event>
<event>
 6    1  0.1599106E-003  0.5018585E+03  0.7546771E-02  0.9395661E-01
        -11   -1    0    0    0    0  0.00000000000E+00  0.00000000000E+00  0.50000000000E+03  0.50000000000E+03  0.00000000000E+00 0.  1.
         11   -1    0    0    0    0 -0.00000000000E+00 -0.00000000000E+00 -0.50000000000E+03  0.50000000000E+03  0.00000000000E+00 0. -1.
        -11    1    1    2    0    0 -0.13503735210E+02  0.94313206618E+01  0.49786916124E+03  0.49814154855E+03  0.00000000000E+00 0.  1.
         11    1    1    2    0    0 -0.10543627113E+01  0.14746192096E+01 -0.70109125138E+02  0.70132557420E+02  0.00000000000E+00 0. -1.
        -15    1    1    2    0    0  0.38844193859E+01 -0.12878569798E+02 -0.22209632768E+02  0.26026367221E+02  0.17770000000E+01 0.  1.
         15    1    1    2    0    0  0.10673678536E+02  0.19726299270E+01 -0.40555040333E+03  0.40569952681E+03  0.17770000000E+01 0. -1.
</event>
<event>
 6    1  0.1599106E-003  0.5005818E+03  0.7546771E-02  0.9398509E-01
        -11   -1    0    0    0    0  0.00000000000E+00  0.00000000000E+00  0.50000000000E+03  0.50000000000E+03  0.00000000000E+00 0.  1.
         11   -1    0    0    0    0 -0.00000000000E+00 -0.00000000000E+00 -0.50000000000E+03  0.50000000000E+03  0.00000000000E+00 0. -1.
        -11    1    1    2    0    0 -0.11374180246E+01 -0.13752685214E+01  0.12198686764E+03  0.12199992196E+03  0.00000000000E+00 0.  1.
         11    1    1    2    0    0 -0.52588042152E+01  0.11246029162E+02 -0.49926390916E+03  0.49941824074E+03  0.00000000000E+00 0. -1.
        -15    1    1    2    0    0  0.11167776242E+01  0.86078249490E+01  0.21143451565E+03  0.21162006989E+03  0.17770000000E+01 0. -1.
         15    1    1    2    0    0  0.52794446156E+01 -0.18478585590E+02  0.16584252587E+03  0.16696176741E+03  0.17770000000E+01 0.  1.
</event>
<event>
 6    1  0.1599106E-003  0.5002672E+03  0.7546771E-02  0.9399212E-01
        -11   -1    0    0    0    0  0.00000000000E+00  0.00000000000E+00  0.50000000000E+03  0.50000000000E+03  0.00000000000E+00 0.  1.
         11   -1    0    0    0    0 -0.00000000000E+00 -0.00000000000E+00 -0.50000000000E+03  0.50000000000E+03  0.00000000000E+00 0.  1.
        -11    1    1    2    0    0 -0.17573031141E+01 -0.14128691643E+01  0.11622563029E+03  0.11624750083E+03  0.00000000000E+00 0.  1.
         11    1    1    2    0    0 -0.42593911882E+01 -0.57854193872E+01 -0.49968118024E+03  0.49973282399E+03  0.00000000000E+00 0.  1.
        -15    1    1    2    0    0  0.12200301466E+02  0.46108121744E+01  0.29460422225E+03  0.29489813909E+03  0.17770000000E+01 0.  1.
         15    1    1    2    0    0 -0.61836071637E+01  0.25874763772E+01  0.88851327698E+02  0.89121536086E+02  0.17770000000E+01 0. -1.
</event>
<event>
 6    1  0.1599106E-003  0.5087900E+03  0.7546771E-02  0.9380353E-01
        -11   -1    0    0    0    0  0.00000000000E+00  0.00000000000E+00  0.50000000000E+03  0.50000000000E+03  0.00000000000E+00 0.  1.
         11   -1    0    0    0    0 -0.00000000000E+00 -0.00000000000E+00 -0.50000000000E+03  0.50000000000E+03  0.00000000000E+00 0.  1.
        -11    1    1    2    0    0 -0.64421429356E+01 -0.27401920313E+01  0.49116012545E+03  0.49121001485E+03  0.00000000000E+00 0.  1.
         11    1    1    2    0    0  0.13902450058E+01 -0.95154986728E+01 -0.46889264144E+03  0.46899124373E+03  0.00000000000E+00 0.  1.
        -15    1    1    2    0    0  0.99795992413E-01  0.90039088753E+01 -0.29140951422E+02  0.30552137619E+02  0.17770000000E+01 0.  1.
         15    1    1    2    0    0  0.49521019373E+01  0.32517818289E+01  0.68734674108E+01  0.92466038040E+01  0.17770000000E+01 0. -1.
</event>
<event>
 6    1  0.1599106E-003  0.5108694E+03  0.7546771E-02  0.9375812E-01
        -11   -1    0    0    0    0  0.00000000000E+00  0.00000000000E+00  0.50000000000E+03  0.50000000000E+03  0.00000000000E+00 0.  1.
         11   -1    0    0    0    0 -0.00000000000E+00 -0.00000000000E+00 -0.50000000000E+03  0.50000000000E+03  0.00000000000E+00 0.  1.
        -11    1    1    2    0    0 -0.67803862841E+00  0.80816483401E+01  0.48906334654E+03  0.48913058554E+03  0.00000000000E+00 0.  1.
         11    1    1    2    0    0  0.63716698744E+01  0.21890151145E+01 -0.45677768303E+03  0.45682736529E+03  0.00000000000E+00 0.  1.
        -15    1    1    2    0    0 -0.74431549835E+01 -0.84674558234E+00 -0.40542413905E+02  0.41266967280E+02  0.17770000000E+01 0.  1.
         15    1    1    2    0    0  0.17495237375E+01 -0.94239178723E+01  0.82567503928E+01  0.12775081895E+02  0.17770000000E+01 0. -1.
</event>
<event>
 6    1  0.1599106E-003  0.5032882E+03  0.7546771E-02  0.9392482E-01
        -11   -1    0    0    0    0  0.00000000000E+00  0.00000000000E+00  0.50000000000E+03  0.50000000000E+03  0.00000000000E+00 0. -1.
         11   -1    0    0    0    0 -0.00000000000E+00 -0.00000000000E+00 -0.50000000000E+03  0.50000000000E+03  0.00000000000E+00 0.  1.
        -11    1    1    2    0    0 -0.58252605803E+01 -0.26205290590E+01  0.41781312781E+03  0.41786195162E+03  0.00000000000E+00 0. -1.
         11    1    1    2    0    0 -0.45522216059E+01  0.65861195764E+01 -0.49664731750E+03  0.49671184572E+03  0.00000000000E+00 0.  1.
        -15    1    1    2    0    0  0.15825762747E+02 -0.62100117186E+01  0.77184216868E+02  0.79054285618E+02  0.17770000000E+01 0. -1.
         15    1    1    2    0    0 -0.54482805604E+01  0.22444212012E+01  0.16499728198E+01  0.63719170506E+01  0.17770000000E+01 0.  1.
</event>
<event>
 6    1  0.1599106E-003  0.4960523E+03  0.7546771E-02  0.9408686E-01
        -11   -1    0    0    0    0  0.00000000000E+00  0.00000000000E+00  0.50000000000E+03  0.50000000000E+03  0.00000000000E+00 0.  1.
         11   -1    0    0    0    0 -0.00000000000E+00 -0.00000000000E+00 -0.50000000000E+03  0.50000000000E+03  0.00000000000E+00 0.  1.
        -11    1    1    2    0    0 -0.62005733095E+01  0.12360182342E+01  0.22379036466E+02  0.23255023620E+02  0.00000000000E+00 0.  1.
         11    1    1    2    0    0  0.12153126960E+02  0.92277391230E+02 -0.48239562936E+03  0.49129253878E+03  0.00000000000E+00 0.  1.
        -15    1    1    2    0    0 -0.97127628871E+01 -0.82446720143E+02  0.12403942475E+03  0.14926733081E+03  0.17770000000E+01 0. -1.
         15    1    1    2    0    0  0.37602092370E+01 -0.11066689321E+02  0.33597716815E+03  0.33618510679E+03  0.17770000000E+01 0.  1.
</event>
<event>
 6    1  0.1599106E-003  0.5036760E+03  0.7546771E-02  0.9391622E-01
        -11   -1    0    0    0    0  0.00000000000E+00  0.00000000000E+00  0.50000000000E+03  0.50000000000E+03  0.00000000000E+00 0. -1.
         11   -1    0    0    0    0 -0.00000000000E+00 -0.00000000000E+00 -0.50000000000E+03  0.50000000000E+03  0.00000000000E+00 0.  1.
        -11    1    1    2    0    0  0.11602923120E+02  0.26911880029E+01  0.22429263692E+03  0.22460867591E+03  0.00000000000E+00 0. -1.
         11    1    1    2    0    0  0.11049249807E+02 -0.44008607929E+01 -0.49618152470E+03  0.49632404632E+03  0.00000000000E+00 0.  1.
        -15    1    1    2    0    0 -0.12787005272E+02  0.85500257474E+01  0.13945411105E+02  0.20838489965E+02  0.17770000000E+01 0. -1.
         15    1    1    2    0    0 -0.98651676551E+01 -0.68403529574E+01  0.25794347668E+03  0.25822878780E+03  0.17770000000E+01 0.  1.
</event>
<event>
 6    1  0.1599106E-003  0.4495153E+03  0.7546771E-02  0.9520448E-01
        -11   -1    0    0    0    0  0.00000000000E+00  0.00000000000E+00  0.50000000000E+03  0.50000000000E+03  0.00000000000E+00 0. -1.
         11   -1    0    0    0    0 -0.00000000000E+00 -0.00000000000E+00 -0.50000000000E+03  0.50000000000E+03  0.00000000000E+00 0.  1.
        -11    1    1    2    0    0  0.18868974929E+01  0.56480995948E+02  0.44601084136E+03  0.44957683870E+03  0.00000000000E+00 0. -1.
         11    1    1    2    0    0  0.12657841206E+02 -0.41269217760E+02 -0.44762497916E+03  0.44970155798E+03  0.00000000000E+00 0.  1.
        -15    1    1    2    0    0 -0.35285817520E+02  0.20863933699E+02 -0.27948658977E+02  0.49645522608E+02  0.17770000000E+01 0.  1.
         15    1    1    2    0    0  0.20741078821E+02 -0.36075711888E+02  0.29562796772E+02  0.51076080712E+02  0.17770000000E+01 0. -1.
</event>
<event>
 6    1  0.1599106E-003  0.5007342E+03  0.7546771E-02  0.9398168E-01
        -11   -1    0    0    0    0  0.00000000000E+00  0.00000000000E+00  0.50000000000E+03  0.50000000000E+03  0.00000000000E+00 0.  1.
         11   -1    0    0    0    0 -0.00000000000E+00 -0.00000000000E+00 -0.50000000000E+03  0.50000000000E+03  0.00000000000E+00 0. -1.
        -11    1    1    2    0    0 -0.23740338105E+02 -0.20083447060E+02  0.49829647904E+03  0.49926579045E+03  0.00000000000E+00 0.  1.
         11    1    1    2    0    0  0.38987945514E+01  0.77355119773E+01 -0.26708162924E+03  0.26722207136E+03  0.00000000000E+00 0. -1.
        -15    1    1    2    0    0  0.13354660088E+01 -0.60535631618E+01 -0.51995210144E+02  0.52393594106E+02  0.17770000000E+01 0.  1.
         15    1    1    2    0    0  0.18506077545E+02  0.18401498245E+02 -0.17921963965E+03  0.18111854408E+03  0.17770000000E+01 0. -1.
</event>
<event>
 6    1  0.1599106E-003  0.5074854E+03  0.7546771E-02  0.9383215E-01
        -11   -1    0    0    0    0  0.00000000000E+00  0.00000000000E+00  0.50000000000E+03  0.50000000000E+03  0.00000000000E+00 0. -1.
         11   -1    0    0    0    0 -0.00000000000E+00 -0.00000000000E+00 -0.50000000000E+03  0.50000000000E+03  0.00000000000E+00 0.  1.
        -11    1    1    2    0    0 -0.31668147178E+02  0.32429463346E+02  0.32874209290E+03  0.33185223411E+03  0.00000000000E+00 0. -1.
         11    1    1    2    0    0  0.10450325448E+02 -0.32781591673E+01 -0.49239277910E+03  0.49251457292E+03  0.00000000000E+00 0.  1.
        -15    1    1    2    0    0 -0.11050647068E+02 -0.11938676348E+02  0.13900637606E+02  0.21471708092E+02  0.17770000000E+01 0.  1.
         15    1    1    2    0    0  0.32268468798E+02 -0.17212627831E+02  0.14975004860E+03  0.15416148488E+03  0.17770000000E+01 0. -1.
</event>
<event>
 6    1  0.1599106E-003  0.5008262E+03  0.7546771E-02  0.9397963E-01
        -11   -1    0    0    0    0  0.00000000000E+00  0.00000000000E+00  0.50000000000E+03  0.50000000000E+03  0.00000000000E+00 0. -1.
         11   -1    0    0    0    0 -0.00000000000E+00 -0.00000000000E+00 -0.50000000000E+03  0.50000000000E+03  0.00000000000E+00 0. -1.
        -11    1    1    2    0    0 -0.22030708515E+01 -0.45747941341E+01  0.19042987226E+03  0.19049755513E+03  0.00000000000E+00 0. -1.
         11    1    1    2    0    0  0.56903852958E+01 -0.87319037365E+01 -0.49906496104E+03  0.49917377932E+03  0.00000000000E+00 0. -1.
        -15    1    1    2    0    0 -0.34144063045E+00  0.50311913414E+01  0.28464846828E+03  0.28469867877E+03  0.17770000000E+01 0. -1.
         15    1    1    2    0    0 -0.31458738138E+01  0.82755065292E+01  0.23986620501E+02  0.25629986782E+02  0.17770000000E+01 0.  1.
</event>
<event>
 6    1  0.1599106E-003  0.4653022E+03  0.7546771E-02  0.9480982E-01
        -11   -1    0    0    0    0  0.00000000000E+00  0.00000000000E+00  0.50000000000E+03  0.50000000000E+03  0.00000000000E+00 0. -1.
         11   -1    0    0    0    0 -0.00000000000E+00 -0.00000000000E+00 -0.50000000000E+03  0.50000000000E+03  0.00000000000E+00 0.  1.
        -11    1    1    2    0    0 -0.54099647790E+00  0.64093250971E+01  0.46461865425E+03  0.46466317479E+03  0.00000000000E+00 0. -1.
         11    1    1    2    0    0 -0.83483189966E+01 -0.19178152257E+02 -0.46560215904E+03  0.46607173960E+03  0.00000000000E+00 0.  1.
        -15    1    1    2    0    0  0.27454897400E+02  0.19881148680E+02 -0.20728118856E+02  0.39772403805E+02  0.17770000000E+01 0.  1.
         15    1    1    2    0    0 -0.18565581926E+02 -0.71123215200E+01  0.21711623644E+02  0.29492681803E+02  0.17770000000E+01 0. -1.
</event>
<event>
 6    1  0.1599106E-003  0.5098626E+03  0.7546771E-02  0.9378008E-01
        -11   -1    0    0    0    0  0.00000000000E+00  0.00000000000E+00  0.50000000000E+03  0.50000000000E+03  0.00000000000E+00 0. -1.
         11   -1    0    0    0    0 -0.00000000000E+00 -0.00000000000E+00 -0.50000000000E+03  0.50000000000E+03  0.00000000000E+00 0. -1.
        -11    1    1    2    0    0  0.49648470493E+01  0.12836239885E+02  0.48994408435E+03  0.49013735273E+03  0.00000000000E+00 0. -1.
         11    1    1    2    0    0 -0.58973610188E+01  0.16065800254E+01 -0.36258898327E+03  0.36264049795E+03  0.00000000000E+00 0. -1.
        -15    1    1    2    0    0  0.61480244814E+01 -0.23707733413E+01 -0.13272969256E+03  0.13290503296E+03  0.17770000000E+01 0.  1.
         15    1    1    2    0    0 -0.52155105119E+01 -0.12072046569E+02  0.53745914749E+01  0.14317116357E+02  0.17770000000E+01 0.  1.
</event>
<event>
 6    1  0.1599106E-003  0.5023047E+03  0.7546771E-02  0.9394667E-01
        -11   -1    0    0    0    0  0.00000000000E+00  0.00000000000E+00  0.50000000000E+03  0.50000000000E+03  0.00000000000E+00 0. -1.
         11   -1    0    0    0    0 -0.00000000000E+00 -0.00000000000E+00 -0.50000000000E+03  0.50000000000E+03  0.00000000000E+00 0. -1.
        -11    1    1    2    0    0  0.63244455693E+01 -0.56440509767E+01  0.47981785355E+03  0.47989272396E+03  0.00000000000E+00 0. -1.
         11    1    1    2    0    0 -0.19749351005E+01  0.73200927127E+01 -0.49763752079E+03  0.49769527447E+03  0.00000000000E+00 0. -1.
        -15    1    1    2    0    0  0.16016263115E+01 -0.32851683639E+01  0.14750046137E+02  0.15299644704E+02  0.17770000000E+01 0. -1.
         15    1    1    2    0    0 -0.59511367803E+01  0.16091266279E+01  0.30696211075E+01  0.71123568686E+01  0.17770000000E+01 0.  1.
</event>
<event>
 6    1  0.1599106E-003  0.5005819E+03  0.7546771E-02  0.9398509E-01
        -11   -1    0    0    0    0  0.00000000000E+00  0.00000000000E+00  0.50000000000E+03  0.50000000000E+03  0.00000000000E+00 0.  1.
         11   -1    0    0    0    0 -0.00000000000E+00 -0.00000000000E+00 -0.50000000000E+03  0.50000000000E+03  0.00000000000E+00 0. -1.
        -11    1    1    2    0    0  0.98305805826E+01 -0.21418058924E+01  0.33609784289E+03  0.33624840169E+03  0.00000000000E+00 0.  1.
         11    1    1    2    0    0  0.13237821703E+01 -0.87234745012E+01 -0.49934013373E+03  0.49941808194E+03  0.00000000000E+00 0. -1.
        -15    1    1    2    0    0  0.36143199570E+00  0.35086140574E+01  0.66200111191E+02  0.66317821559E+02  0.17770000000E+01 0.  1.
         15    1    1    2    0    0 -0.11515794749E+02  0.73566663363E+01  0.97042179656E+02  0.98015694813E+02  0.17770000000E+01 0. -1.
</event>
<event>
 6    1  0.1599106E-003  0.5156495E+03  0.7546771E-02  0.9365458E-01
        -11   -1    0    0    0    0  0.00000000000E+00  0.00000000000E+00  0.50000000000E+03  0.50000000000E+03  0.00000000000E+00 0.  1.
         11   -1    0    0    0    0 -0.00000000000E+00 -0.00000000000E+00 -0.50000000000E+03  0.50000000000E+03  0.00000000000E+00 0. -1.
        -11    1    1    2    0    0 -0.34948487855E+01  0.67377441709E+01  0.48429102063E+03  0.48435049688E+03  0.00000000000E+00 0.  1.
         11    1    1    2    0    0  0.70300707888E+01 -0.11382178696E+02 -0.46921612748E+03  0.46940680670E+03  0.00000000000E+00 0. -1.
        -15    1    1    2    0    0  0.15492614569E+02 -0.41871245657E+01  0.52512337806E+01  0.16978995952E+02  0.17770000000E+01 0. -1.
         15    1    1    2    0    0 -0.19027836572E+02  0.88315590907E+01 -0.20326126922E+02  0.29263700470E+02  0.17770000000E+01 0.  1.
</event>
<event>
 6    1  0.1599106E-003  0.5008894E+03  0.7546771E-02  0.9397822E-01
        -11   -1    0    0    0    0  0.00000000000E+00  0.00000000000E+00  0.50000000000E+03  0.50000000000E+03  0.00000000000E+00 0.  1.
         11   -1    0    0    0    0 -0.00000000000E+00 -0.00000000000E+00 -0.50000000000E+03  0.50000000000E+03  0.00000000000E+00 0. -1.
        -11    1    1    2    0    0  0.14554805057E+01 -0.33412590909E+01  0.17003906889E+03  0.17007812142E+03  0.00000000000E+00 0.  1.
         11    1    1    2    0    0  0.16248487687E+02 -0.82555863684E+01 -0.49877774312E+03  0.49911061409E+03  0.00000000000E+00 0. -1.
        -15    1    1    2    0    0 -0.17867633138E+02 -0.61510644851E+01  0.15430022349E+03  0.15546319373E+03  0.17770000000E+01 0. -1.
         15    1    1    2    0    0  0.16366494535E+00  0.17747909944E+02  0.17443845074E+03  0.17534807076E+03  0.17770000000E+01 0.  1.
</event>
<event>
 6    1  0.1599106E-003  0.5155194E+03  0.7546771E-02  0.9365738E-01
        -11   -1    0    0    0    0  0.00000000000E+00  0.00000000000E+00  0.50000000000E+03  0.50000000000E+03  0.00000000000E+00 0. -1.
         11   -1    0    0    0    0 -0.00000000000E+00 -0.00000000000E+00 -0.50000000000E+03  0.50000000000E+03  0.00000000000E+00 0.  1.
        -11    1    1    2    0    0  0.43776815713E+01 -0.44406786260E+01  0.46178910016E+03  0.46183119941E+03  0.00000000000E+00 0. -1.
         11    1    1    2    0    0  0.25209466883E+01 -0.23215255638E+02 -0.48391751717E+03  0.48448061540E+03  0.00000000000E+00 0.  1.
        -15    1    1    2    0    0 -0.11580521192E+02  0.18191434230E+02 -0.69293986000E+01  0.22720278264E+02  0.17770000000E+01 0. -1.
         15    1    1    2    0    0  0.46818929325E+01  0.94645000344E+01  0.29057815615E+02  0.30967906930E+02  0.17770000000E+01 0.  1.
</event>
<event>
 6    1  0.1599106E-003  0.5012401E+03  0.7546771E-02  0.9397039E-01
        -11   -1    0    0    0    0  0.00000000000E+00  0.00000000000E+00  0.50000000000E+03  0.50000000000E+03  0.00000000000E+00 0.  1.
         11   -1    0    0    0    0 -0.00000000000E+00 -0.00000000000E+00 -0.50000000000E+03  0.50000000000E+03  0.00000000000E+00 0.  1.
        -11    1    1    2    0    0  0.28904929538E+01  0.61013979334E+01  0.45313382190E+03  0.45318411551E+03  0.00000000000E+00 0.  1.
         11    1    1    2    0    0 -0.56302287230E+01  0.41406248467E+01 -0.49871093256E+03  0.49875990066E+03  0.00000000000E+00 0.  1.
        -15    1    1    2    0    0 -0.14999869977E+01 -0.88922304612E+01  0.19694671474E+02  0.21733833924E+02  0.17770000000E+01 0.  1.
         15    1    1    2    0    0  0.42397227669E+01 -0.13497923190E+01  0.25882439188E+02  0.26322149908E+02  0.17770000000E+01 0. -1.
</event>
<event>
 6    1  0.1599106E-003  0.5182023E+03  0.7546771E-02  0.9359977E-01
        -11   -1    0    0    0    0  0.00000000000E+00  0.00000000000E+00  0.50000000000E+03  0.50000000000E+03  0.00000000000E+00 0.  1.
         11   -1    0    0    0    0 -0.00000000000E+00 -0.00000000000E+00 -0.50000000000E+03  0.50000000000E+03  0.00000000000E+00 0. -1.
        -11    1    1    2    0    0  0.15493113571E+02  0.53690034075E+01  0.48151855920E+03  0.48179766046E+03  0.00000000000E+00 0.  1.
         11    1    1    2    0    0 -0.12156323186E+02  0.18510381748E+01 -0.46288794623E+03  0.46305124263E+03  0.00000000000E+00 0. -1.
        -15    1    1    2    0    0  0.62866430611E+01 -0.50634889446E+01 -0.34997394176E+02  0.35960202021E+02  0.17770000000E+01 0. -1.
         15    1    1    2    0    0 -0.96234334464E+01 -0.21565526377E+01  0.16366781208E+02  0.19190894890E+02  0.17770000000E+01 0.  1.
</event>
<event>
 6    1  0.1599106E-003  0.5001210E+03  0.7546771E-02  0.9399539E-01
        -11   -1    0    0    0    0  0.00000000000E+00  0.00000000000E+00  0.50000000000E+03  0.50000000000E+03  0.00000000000E+00 0. -1.
         11   -1    0    0    0    0 -0.00000000000E+00 -0.00000000000E+00 -0.50000000000E+03  0.50000000000E+03  0.00000000000E+00 0.  1.
        -11    1    1    2    0    0  0.83535165608E+01  0.44495504265E+01  0.49978939642E+03  0.49987900587E+03  0.00000000000E+00 0. -1.
         11    1    1    2    0    0 -0.45127591638E+01  0.76086974389E+00 -0.23674824781E+03  0.23679247614E+03  0.00000000000E+00 0.  1.
        -15    1    1    2    0    0 -0.10451683634E+01 -0.18616257426E+01 -0.15787151248E+02  0.16029656916E+02  0.17770000000E+01 0. -1.
         15    1    1    2    0    0 -0.27955890336E+01 -0.33487944277E+01 -0.24725399737E+03  0.24729886107E+03  0.17770000000E+01 0.  1.
</event>
<event>
 6    1  0.1599106E-003  0.4823928E+03  0.7546771E-02  0.9440093E-01
        -11   -1    0    0    0    0  0.00000000000E+00  0.00000000000E+00  0.50000000000E+03  0.50000000000E+03  0.00000000000E+00 0. -1.
         11   -1    0    0    0    0 -0.00000000000E+00 -0.00000000000E+00 -0.50000000000E+03  0.50000000000E+03  0.00000000000E+00 0.  1.
        -11    1    1    2    0    0  0.83257779065E+01 -0.10036893696E+01  0.48387860760E+03  0.48395127116E+03  0.00000000000E+00 0. -1.
         11    1    1    2    0    0  0.84047713254E+01  0.60774682998E+01 -0.48088556829E+03  0.48099740705E+03  0.00000000000E+00 0.  1.
        -15    1    1    2    0    0 -0.68597748634E+01  0.16166466218E+01  0.13077260537E+02  0.14961367906E+02  0.17770000000E+01 0.  1.
         15    1    1    2    0    0 -0.98707743685E+01 -0.66904255521E+01 -0.16070299843E+02  0.20089953876E+02  0.17770000000E+01 0. -1.
</event>
<event>
 6    1  0.1599106E-003  0.5001496E+03  0.7546771E-02  0.9399475E-01
        -11   -1    0    0    0    0  0.00000000000E+00  0.00000000000E+00  0.50000000000E+03  0.50000000000E+03  0.00000000000E+00 0.  1.
         11   -1    0    0    0    0 -0.00000000000E+00 -0.00000000000E+00 -0.50000000000E+03  0.50000000000E+03  0.00000000000E+00 0.  1.
        -11    1    1    2    0    0  0.48668924620E+01  0.62151128438E+01  0.49978801445E+03  0.49985035126E+03  0.00000000000E+00 0.  1.
         11    1    1    2    0    0 -0.15334827414E+01  0.33808379609E+01 -0.85760808662E+02  0.85841120315E+02  0.00000000000E+00 0.  1.
        -15    1    1    2    0    0  0.96727957000E+00  0.17549590463E+01 -0.11248467343E+03  0.11251655433E+03  0.17770000000E+01 0.  1.
         15    1    1    2    0    0 -0.43006892906E+01 -0.11350909851E+02 -0.30154253235E+03  0.30179197410E+03  0.17770000000E+01 0.  1.
</event>
<event>
 6    1  0.1599106E-003  0.5007989E+03  0.7546771E-02  0.9398024E-01
        -11   -1    0    0    0    0  0.00000000000E+00  0.00000000000E+00  0.50000000000E+03  0.50000000000E+03  0.00000000000E+00 0. -1.
         11   -1    0    0    0    0 -0.00000000000E+00 -0.00000000000E+00 -0.50000000000E+03  0.50000000000E+03  0.00000000000E+00 0. -1.
        -11    1    1    2    0    0 -0.57207234927E+01 -0.73464391904E+01  0.49911420773E+03  0.49920105089E+03  0.00000000000E+00 0. -1.
         11    1    1    2    0    0  0.53602517406E+00 -0.40938545321E+01 -0.11484804084E+03  0.11492223219E+03  0.00000000000E+00 0. -1.
        -15    1    1    2    0    0 -0.25663717930E+01 -0.10849316651E+01 -0.34708320219E+01  0.47924675087E+01  0.17770000000E+01 0. -1.
         15    1    1    2    0    0  0.77510701116E+01  0.12525225388E+02 -0.38079533487E+03  0.38108424941E+03  0.17770000000E+01 0. -1.
</event>
<event>
 6    1  0.1599106E-003  0.5504696E+03  0.7546771E-02  0.9293462E-01
        -11   -1    0    0    0    0  0.00000000000E+00  0.00000000000E+00  0.50000000000E+03  0.50000000000E+03  0.00000000000E+00 0.  1.
         11   -1    0    0    0    0 -0.00000000000E+00 -0.00000000000E+00 -0.50000000000E+03  0.50000000000E+03  0.00000000000E+00 0. -1.
        -11    1    1    2    0    0  0.10590587023E+02  0.59670830288E+01  0.31661401585E+03  0.31684728443E+03  0.00000000000E+00 0.  1.
         11    1    1    2    0    0 -0.25886184948E+02 -0.83045999913E+01 -0.44870765137E+03  0.44953044096E+03  0.00000000000E+00 0. -1.
        -15    1    1    2    0    0  0.26215325521E+02  0.10110022500E+02 -0.46585767505E+02  0.54432043046E+02  0.17770000000E+01 0. -1.
         15    1    1    2    0    0 -0.10919727596E+02 -0.77725055373E+01  0.17867940302E+03  0.17919023156E+03  0.17770000000E+01 0. -1.
</event>
<event>
 6    1  0.1599106E-003  0.5046593E+03  0.7546771E-02  0.9389444E-01
        -11   -1    0    0    0    0  0.00000000000E+00  0.00000000000E+00  0.50000000000E+03  0.50000000000E+03  0.00000000000E+00 0. -1.
         11   -1    0    0    0    0 -0.00000000000E+00 -0.00000000000E+00 -0.50000000000E+03  0.50000000000E+03  0.00000000000E+00 0. -1.
        -11    1    1    2    0    0  0.73510665260E+01 -0.21799033470E+01  0.49528138462E+03  0.49534073133E+03  0.00000000000E+00 0. -1.
         11    1    1    2    0    0  0.71620040743E+01  0.16943667910E+01 -0.46632635440E+03  0.46638442726E+03  0.00000000000E+00 0. -1.
        -15    1    1    2    0    0 -0.38647838869E+01  0.23834536968E+01 -0.26626318386E+02  0.27069096140E+02  0.17770000000E+01 0.  1.
         15    1    1    2    0    0 -0.10648286713E+02 -0.18979171409E+01 -0.23287118388E+01  0.11205745278E+02  0.17770000000E+01 0. -1.
</event>
<event>
 6    1  0.1599106E-003  0.5054109E+03  0.7546771E-02  0.9387783E-01
        -11   -1    0    0    0    0  0.00000000000E+00  0.00000000000E+00  0.50000000000E+03  0.50000000000E+03  0.00000000000E+00 0. -1.
         11   -1    0    0    0    0 -0.00000000000E+00 -0.00000000000E+00 -0.50000000000E+03  0.50000000000E+03  0.00000000000E+00 0. -1.
        -11    1    1    2    0    0  0.75744274932E+01  0.57075653601E+00  0.20142893078E+03  0.20157210093E+03  0.00000000000E+00 0. -1.
         11    1    1    2    0    0 -0.78648860865E+01 -0.13078961565E+01 -0.49452484359E+03  0.49458911022E+03  0.00000000000E+00 0. -1.
        -15    1    1    2    0    0 -0.61985841924E+01 -0.78888221924E-01  0.29628045242E+03  0.29635062491E+03  0.17770000000E+01 0.  1.
         15    1    1    2    0    0  0.64890427858E+01  0.81602784241E+00 -0.31845396105E+01  0.74881639436E+01  0.17770000000E+01 0.  1.
</event>
<event>
 6    1  0.1599106E-003  0.4488772E+03  0.7546771E-02  0.9522079E-01
        -11   -1    0    0    0    0  0.00000000000E+00  0.00000000000E+00  0.50000000000E+03  0.50000000000E+03  0.00000000000E+00 0.  1.
         11   -1    0    0    0    0 -0.00000000000E+00 -0.00000000000E+00 -0.50000000000E+03  0.50000000000E+03  0.00000000000E+00 0. -1.
        -11    1    1    2    0    0 -0.11205019747E+01 -0.88094461303E+02  0.20602620731E+03  0.22407295182E+03  0.00000000000E+00 0.  1.
         11    1    1    2    0    0 -0.86473196108E+02 -0.79275007166E+02 -0.34433409478E+03  0.36376930772E+03  0.00000000000E+00 0. -1.
        -15    1    1    2    0    0  0.39824886262E+01  0.19120638312E+03  0.22092400083E+03  0.29220936507E+03  0.17770000000E+01 0.  1.
         15    1    1    2    0    0  0.83611209456E+02 -0.23836914652E+02 -0.82616113353E+02  0.11994837540E+03  0.17770000000E+01 0. -1.
</event>
<event>
 6    1  0.1599106E-003  0.5010551E+03  0.7546771E-02  0.9397452E-01
        -11   -1    0    0    0    0  0.00000000000E+00  0.00000000000E+00  0.50000000000E+03  0.50000000000E+03  0.00000000000E+00 0.  1.
         11   -1    0    0    0    0 -0.00000000000E+00 -0.00000000000E+00 -0.50000000000E+03  0.50000000000E+03  0.00000000000E+00 0. -1.
        -11    1    1    2    0    0 -0.51027176062E+01 -0.45592300562E+01  0.41250112789E+03  0.41255788057E+03  0.00000000000E+00 0.  1.
         11    1    1    2    0    0  0.36174476717E+01 -0.71801007283E+01 -0.49888007763E+03  0.49894485830E+03  0.00000000000E+00 0. -1.
        -15    1    1    2    0    0 -0.10854353725E+01  0.47118344546E+01  0.72056701865E+02  0.72240608847E+02  0.17770000000E+01 0.  1.
         15    1    1    2    0    0  0.25707053070E+01  0.70274963300E+01  0.14322247869E+02  0.16256652284E+02  0.17770000000E+01 0. -1.
</event>
<event>
 6    1  0.2789133E-003  0.5258128E+03  0.7546771E-02  0.9343835E-01
        -11   -1    0    0    0    0  0.00000000000E+00  0.00000000000E+00  0.50000000000E+03  0.50000000000E+03  0.00000000000E+00 0.  1.
         11   -1    0    0    0    0 -0.00000000000E+00 -0.00000000000E+00 -0.50000000000E+03  0.50000000000E+03  0.00000000000E+00 0. -1.
        -11    1    1    2    0    0  0.23576705437E+00  0.26715450814E+02  0.29364861275E+03  0.29486145673E+03  0.00000000000E+00 0.  1.
         11    1    1    2    0    0  0.59103157929E+01 -0.74901820149E+01 -0.47409122001E+03  0.47418721994E+03  0.00000000000E+00 0. -1.
        -15    1    1    2    0    0 -0.16018359425E+01 -0.22980422730E+02  0.20466176271E+03  0.20596179391E+03  0.17770000000E+01 0.  1.
         15    1    1    2    0    0 -0.45442469048E+01  0.37551539310E+01 -0.24219155444E+02  0.24989529416E+02  0.17770000000E+01 0.  1.
</event>
<event>
 6    1  0.1599106E-003  0.5014839E+03  0.7546771E-02  0.9396495E-01
        -11   -1    0    0    0    0  0.00000000000E+00  0.00000000000E+00  0.50000000000E+03  0.50000000000E+03  0.00000000000E+00 0. -1.
         11   -1    0    0    0    0 -0.00000000000E+00 -0.00000000000E+00 -0.50000000000E+03  0.50000000000E+03  0.00000000000E+00 0. -1.
        -11    1    1    2    0    0 -0.13893964196E+02  0.88031375893E+01  0.45279010457E+03  0.45308875098E+03  0.00000000000E+00 0. -1.
         11    1    1    2    0    0  0.34295676233E+01 -0.12759452806E+02 -0.49834097813E+03  0.49851609408E+03  0.00000000000E+00 0. -1.
        -15    1    1    2    0    0  0.54812022109E+01 -0.38224518602E+01  0.17999417478E+02  0.19281894991E+02  0.17770000000E+01 0.  1.
         15    1    1    2    0    0  0.49831943616E+01  0.77787670770E+01  0.27551456084E+02  0.29113259945E+02  0.17770000000E+01 0.  1.
</event>
<event>
 6    1  0.1599106E-003  0.3803841E+03  0.7546771E-02  0.9716204E-01
        -11   -1    0    0    0    0  0.00000000000E+00  0.00000000000E+00  0.50000000000E+03  0.50000000000E+03  0.00000000000E+00 0. -1.
         11   -1    0    0    0    0 -0.00000000000E+00 -0.00000000000E+00 -0.50000000000E+03  0.50000000000E+03  0.00000000000E+00 0.  1.
        -11    1    1    2    0    0  0.15003136324E+02 -0.33702299054E+02  0.40068261833E+03  0.40237731011E+03  0.00000000000E+00 0. -1.
         11    1    1    2    0    0  0.27126604813E+01 -0.11811323751E+01 -0.13318207301E+03  0.13321493224E+03  0.00000000000E+00 0.  1.
        -15    1    1    2    0    0 -0.14057232486E+02  0.43488628260E+02  0.93075207244E+02  0.10370640533E+03  0.17770000000E+01 0. -1.
         15    1    1    2    0    0 -0.36585643194E+01 -0.86051968315E+01 -0.36057575256E+03  0.36070135232E+03  0.17770000000E+01 0.  1.
</event>
<event>
 6    1  0.1599106E-003  0.5031934E+03  0.7546771E-02  0.9392692E-01
        -11   -1    0    0    0    0  0.00000000000E+00  0.00000000000E+00  0.50000000000E+03  0.50000000000E+03  0.00000000000E+00 0.  1.
         11   -1    0    0    0    0 -0.00000000000E+00 -0.00000000000E+00 -0.50000000000E+03  0.50000000000E+03  0.00000000000E+00 0. -1.
        -11    1    1    2    0    0 -0.37078603558E+01  0.28338705133E+01  0.22953977371E+03  0.22958720950E+03  0.00000000000E+00 0.  1.
         11    1    1    2    0    0 -0.68991108881E+01 -0.13120301651E+02 -0.49658537134E+03  0.49680657310E+03  0.00000000000E+00 0. -1.
        -15    1    1    2    0    0  0.18076890203E+02  0.59283536831E+01  0.25324454006E+02  0.31723887475E+02  0.17770000000E+01 0. -1.
         15    1    1    2    0    0 -0.74699189592E+01  0.43580774546E+01  0.24172114362E+03  0.24188232992E+03  0.17770000000E+01 0.  1.
</event>
<event>
 6    1  0.1599106E-003  0.5120901E+03  0.7546771E-02  0.9373156E-01
        -11   -1    0    0    0    0  0.00000000000E+00  0.00000000000E+00  0.50000000000E+03  0.50000000000E+03  0.00000000000E+00 0. -1.
         11   -1    0    0    0    0 -0.00000000000E+00 -0.00000000000E+00 -0.50000000000E+03  0.50000000000E+03  0.00000000000E+00 0.  1.
        -11    1    1    2    0    0 -0.52331701775E+01  0.70706328724E+01  0.46348013285E+03  0.46356360240E+03  0.00000000000E+00 0. -1.
         11    1    1    2    0    0  0.45141233720E+01 -0.89382637254E+01 -0.48780714724E+03  0.48790991255E+03  0.00000000000E+00 0.  1.
        -15    1    1    2    0    0  0.84215060967E+00  0.10664502861E+02 -0.89498030034E+01  0.14060495785E+02  0.17770000000E+01 0. -1.
         15    1    1    2    0    0 -0.12310380418E+00 -0.87968720082E+01  0.33276817386E+02  0.34465989265E+02  0.17770000000E+01 0.  1.
</event>
<event>
 6    1  0.1599106E-003  0.5014206E+03  0.7546771E-02  0.9396637E-01
        -11   -1    0    0    0    0  0.00000000000E+00  0.00000000000E+00  0.50000000000E+03  0.50000000000E+03  0.00000000000E+00 0.  1.
         11   -1    0    0    0    0 -0.00000000000E+00 -0.00000000000E+00 -0.50000000000E+03  0.50000000000E+03  0.00000000000E+00 0.  1.
        -11    1    1    2    0    0 -0.73831530020E+01 -0.13714051972E+01  0.49852284934E+03  0.49857940493E+03  0.00000000000E+00 0.  1.
         11    1    1    2    0    0 -0.12759341990E+02 -0.29429805310E+01 -0.40763760220E+03  0.40784785970E+03  0.00000000000E+00 0.  1.
        -15    1    1    2    0    0  0.19684694996E+02  0.39304547488E+01 -0.86246308193E+02  0.88569289811E+02  0.17770000000E+01 0. -1.
         15    1    1    2    0    0  0.45779999524E+00  0.38393097939E+00 -0.46389389536E+01  0.50034455576E+01  0.17770000000E+01 0.  1.
</event>
<event>
 6    1  0.1599106E-003  0.5043030E+03  0.7546771E-02  0.9390233E-01
        -11   -1    0    0    0    0  0.00000000000E+00  0.00000000000E+00  0.50000000000E+03  0.50000000000E+03  0.00000000000E+00 0.  1.
         11   -1    0    0    0    0 -0.00000000000E+00 -0.00000000000E+00 -0.50000000000E+03  0.50000000000E+03  0.00000000000E+00 0. -1.
        -11    1    1    2    0    0 -0.59274640097E+01  0.49465193313E+01  0.44172695238E+03  0.44179441298E+03  0.00000000000E+00 0.  1.
         11    1    1    2    0    0  0.38765141293E+00  0.85827305241E+01 -0.49562257385E+03  0.49569703373E+03  0.00000000000E+00 0. -1.
        -15    1    1    2    0    0  0.82126148304E+01  0.27059397224E+01  0.39808113284E+02  0.40775148858E+02  0.17770000000E+01 0. -1.
         15    1    1    2    0    0 -0.26728022336E+01 -0.16235189578E+02  0.14087508185E+02  0.21733404433E+02  0.17770000000E+01 0.  1.
</event>
<event>
 6    1  0.1599106E-003  0.5006375E+03  0.7546771E-02  0.9398384E-01
        -11   -1    0    0    0    0  0.00000000000E+00  0.00000000000E+00  0.50000000000E+03  0.50000000000E+03  0.00000000000E+00 0.  1.
         11   -1    0    0    0    0 -0.00000000000E+00 -0.00000000000E+00 -0.50000000000E+03  0.50000000000E+03  0.00000000000E+00 0.  1.
        -11    1    1    2    0    0 -0.33908031021E+01  0.77354113743E+01  0.49929102686E+03  0.49936245718E+03  0.00000000000E+00 0.  1.
         11    1    1    2    0    0  0.24079731033E+01  0.58381236847E+01 -0.27389987633E+03  0.27397267067E+03  0.00000000000E+00 0.  1.
        -15    1    1    2    0    0 -0.15470511468E+01 -0.88526387910E+01 -0.34657809791E+02  0.35848069534E+02  0.17770000000E+01 0. -1.
         15    1    1    2    0    0  0.25298811456E+01 -0.47208962681E+01 -0.19073334074E+03  0.19081680261E+03  0.17770000000E+01 0.  1.
</event>
<event>
 6    1  0.1599106E-003  0.5024754E+03  0.7546771E-02  0.9394288E-01
        -11   -1    0    0    0    0  0.00000000000E+00  0.00000000000E+00  0.50000000000E+03  0.50000000000E+03  0.00000000000E+00 0.  1.
         11   -1    0    0    0    0 -0.00000000000E+00 -0.00000000000E+00 -0.50000000000E+03  0.50000000000E+03  0.00000000000E+00 0. -1.
        -11    1    1    2    0    0  0.48235862761E+01 -0.19019226304E+02  0.49713751370E+03  0.49752457776E+03  0.00000000000E+00 0.  1.
         11    1    1    2    0    0  0.40388211509E+01  0.31356658761E+02 -0.42376142044E+03  0.42493916456E+03  0.00000000000E+00 0. -1.
        -15    1    1    2    0    0 -0.67110669154E+00  0.46844836722E+01 -0.26281546825E+02  0.26763262208E+02  0.17770000000E+01 0. -1.
         15    1    1    2    0    0 -0.81913007355E+01 -0.17021916129E+02 -0.47094546431E+02  0.50772995470E+02  0.17770000000E+01 0.  1.
</event>
<event>
 6    1  0.1599106E-003  0.5133023E+03  0.7546771E-02  0.9370527E-01
        -11   -1    0    0    0    0  0.00000000000E+00  0.00000000000E+00  0.50000000000E+03  0.50000000000E+03  0.00000000000E+00 0. -1.
         11   -1    0    0    0    0 -0.00000000000E+00 -0.00000000000E+00 -0.50000000000E+03  0.50000000000E+03  0.00000000000E+00 0.  1.
        -11    1    1    2    0    0  0.13349825982E+01 -0.74888889097E+01  0.48663827715E+03  0.48669772798E+03  0.00000000000E+00 0. -1.
         11    1    1    2    0    0  0.64581083909E+01  0.27136623254E+01 -0.46627945394E+03  0.46633207084E+03  0.00000000000E+00 0.  1.
        -15    1    1    2    0    0 -0.61684203199E+01 -0.31157702097E+01 -0.31953153168E+02  0.32740176536E+02  0.17770000000E+01 0.  1.
         15    1    1    2    0    0 -0.16246706692E+01  0.78909967939E+01  0.11594329962E+02  0.14230024647E+02  0.17770000000E+01 0.  1.
</event>
<event>
 6    1  0.1599106E-003  0.4327836E+03  0.7546771E-02  0.9564206E-01
        -11   -1    0    0    0    0  0.00000000000E+00  0.00000000000E+00  0.50000000000E+03  0.50000000000E+03  0.00000000000E+00 0. -1.
         11   -1    0    0    0    0 -0.00000000000E+00 -0.00000000000E+00 -0.50000000000E+03  0.50000000000E+03  0.00000000000E+00 0. -1.
        -11    1    1    2    0    0 -0.38425433285E+02 -0.57969276113E+02  0.46010423333E+03  0.46533091067E+03  0.00000000000E+00 0. -1.
         11    1    1    2    0    0 -0.26279057665E+01 -0.27936758981E+02 -0.40615834793E+03  0.40712648156E+03  0.00000000000E+00 0. -1.
        -15    1    1    2    0    0  0.24171384530E+02  0.20192341824E+02  0.11190976891E+02  0.33472110648E+02  0.17770000000E+01 0.  1.
         15    1    1    2    0    0  0.16881954521E+02  0.65713693270E+02 -0.65136862288E+02  0.94070497125E+02  0.17770000000E+01 0. -1.
</event>
<event>
 6    1  0.1599106E-003  0.5019431E+03  0.7546771E-02  0.9395472E-01
        -11   -1    0    0    0    0  0.00000000000E+00  0.00000000000E+00  0.50000000000E+03  0.50000000000E+03  0.00000000000E+00 0. -1.
         11   -1    0    0    0    0 -0.00000000000E+00 -0.00000000000E+00 -0.50000000000E+03  0.50000000000E+03  0.00000000000E+00 0.  1.
        -11    1    1    2    0    0 -0.51720458447E+01  0.93697406431E+00  0.34992561087E+03  0.34996508557E+03  0.00000000000E+00 0. -1.
         11    1    1    2    0    0 -0.10680634081E+02  0.13312345549E+02 -0.49776433871E+03  0.49805685557E+03  0.00000000000E+00 0.  1.
        -15    1    1    2    0    0  0.38041173179E+01 -0.17027582716E+02  0.12226632296E+03  0.12351769647E+03  0.17770000000E+01 0. -1.
         15    1    1    2    0    0  0.12048562608E+02  0.27782631032E+01  0.25572404886E+02  0.28460362391E+02  0.17770000000E+01 0.  1.
</event>
<event>
 6    1  0.1599106E-003  0.5048657E+03  0.7546771E-02  0.9388988E-01
        -11   -1    0    0    0    0  0.00000000000E+00  0.00000000000E+00  0.50000000000E+03  0.50000000000E+03  0.00000000000E+00 0.  1.
         11   -1    0    0    0    0 -0.00000000000E+00 -0.00000000000E+00 -0.50000000000E+03  0.50000000000E+03  0.00000000000E+00 0.  1.
        -11    1    1    2    0    0  0.87995720252E+01  0.56148663667E+01  0.41142346045E+03  0.41155585648E+03  0.00000000000E+00 0.  1.
         11    1    1    2    0    0  0.70414132373E+01 -0.28870362938E+00 -0.49508409793E+03  0.49513425338E+03  0.00000000000E+00 0.  1.
        -15    1    1    2    0    0 -0.66380307030E+01 -0.36448257078E+01 -0.12401040093E+01  0.78767882419E+01  0.17770000000E+01 0. -1.
         15    1    1    2    0    0 -0.92029545596E+01 -0.16813370295E+01  0.84900741481E+02  0.85433101898E+02  0.17770000000E+01 0.  1.
</event>
<event>
 6    1  0.1599106E-003  0.5014761E+03  0.7546771E-02  0.9396513E-01
        -11   -1    0    0    0    0  0.00000000000E+00  0.00000000000E+00  0.50000000000E+03  0.50000000000E+03  0.00000000000E+00 0. -1.
         11   -1    0    0    0    0 -0.00000000000E+00 -0.00000000000E+00 -0.50000000000E+03  0.50000000000E+03  0.00000000000E+00 0.  1.
        -11    1    1    2    0    0  0.71383302609E+01  0.23257821059E+01  0.49846732802E+03  0.49852386315E+03  0.00000000000E+00 0. -1.
         11    1    1    2    0    0 -0.16957780107E+02  0.71971681816E+01 -0.36555765271E+03  0.36602153351E+03  0.00000000000E+00 0.  1.
        -15    1    1    2    0    0 -0.21294279445E+01 -0.12922958801E+02 -0.56825068406E+02  0.58341952795E+02  0.17770000000E+01 0. -1.
         15    1    1    2    0    0  0.11948877790E+02  0.34000085132E+01 -0.76084606903E+02  0.77112650550E+02  0.17770000000E+01 0.  1.
</event>
<event>
 6    1  0.1599106E-003  0.5129063E+03  0.7546771E-02  0.9371385E-01
        -11   -1    0    0    0    0  0.00000000000E+00  0.00000000000E+00  0.50000000000E+03  0.50000000000E+03  0.00000000000E+00 0.  1.
         11   -1    0    0    0    0 -0.00000000000E+00 -0.00000000000E+00 -0.50000000000E+03  0.50000000000E+03  0.00000000000E+00 0.  1.
        -11    1    1    2    0    0  0.25108697218E+02 -0.71128073661E+01  0.41812166917E+03  0.41893528013E+03  0.00000000000E+00 0.  1.
         11    1    1    2    0    0  0.14977248684E+01 -0.10574833296E+02 -0.48697662461E+03  0.48709373142E+03  0.00000000000E+00 0.  1.
        -15    1    1    2    0    0 -0.21608653323E+02  0.32752232795E+02  0.23235212777E+02  0.45636339614E+02  0.17770000000E+01 0.  1.
         15    1    1    2    0    0 -0.49977687634E+01 -0.15064592133E+02  0.45619742658E+02  0.48334648834E+02  0.17770000000E+01 0. -1.
</event>
<event>
 6    1  0.1599106E-003  0.4564890E+03  0.7546771E-02  0.9502805E-01
        -11   -1    0    0    0    0  0.00000000000E+00  0.00000000000E+00  0.50000000000E+03  0.50000000000E+03  0.00000000000E+00 0. -1.
         11   -1    0    0    0    0 -0.00000000000E+00 -0.00000000000E+00 -0.50000000000E+03  0.50000000000E+03  0.00000000000E+00 0. -1.
        -11    1    1    2    0    0 -0.60590169080E+01  0.27348265068E+01  0.45247243481E+03  0.45252126494E+03  0.00000000000E+00 0. -1.
         11    1    1    2    0    0 -0.93150034130E+01  0.11074465132E+02 -0.46049853302E+03  0.46072585339E+03  0.00000000000E+00 0. -1.
        -15    1    1    2    0    0  0.15899200719E+02  0.25387617342E+02  0.29449870897E+02  0.42044837051E+02  0.17770000000E+01 0.  1.
         15    1    1    2    0    0 -0.52518039800E+00 -0.39196908981E+02 -0.21423772685E+02  0.44708044614E+02  0.17770000000E+01 0. -1.
</event>
<event>
 6    1  0.1599106E-003  0.5569810E+03  0.7546771E-02  0.9280625E-01
        -11   -1    0    0    0    0  0.00000000000E+00  0.00000000000E+00  0.50000000000E+03  0.50000000000E+03  0.00000000000E+00 0. -1.
         11   -1    0    0    0    0 -0.00000000000E+00 -0.00000000000E+00 -0.50000000000E+03  0.50000000000E+03  0.00000000000E+00 0.  1.
        -11    1    1    2    0    0  0.31988471432E+01  0.77260573375E+01  0.44294004479E+03  0.44301897009E+03  0.00000000000E+00 0. -1.
         11    1    1    2    0    0  0.43509591152E+02  0.21284191154E+02 -0.39598489184E+03  0.39893625541E+03  0.00000000000E+00 0.  1.
        -15    1    1    2    0    0 -0.12665157765E+02 -0.65639898450E+02  0.24147048171E+02  0.71100212054E+02  0.17770000000E+01 0.  1.
         15    1    1    2    0    0 -0.34043280530E+02  0.36629649958E+02 -0.71102201119E+02  0.86944562443E+02  0.17770000000E+01 0. -1.
</event>
<event>
 6    1  0.1599106E-003  0.5067548E+03  0.7546771E-02  0.9384821E-01
        -11   -1    0    0    0    0  0.00000000000E+00  0.00000000000E+00  0.50000000000E+03  0.50000000000E+03  0.00000000000E+00 0.  1.
         11   -1    0    0    0    0 -0.00000000000E+00 -0.00000000000E+00 -0.50000000000E+03  0.50000000000E+03  0.00000000000E+00 0.  1.
        -11    1    1    2    0    0  0.11604684101E+02  0.63610340476E+01  0.49306760851E+03  0.49324517029E+03  0.00000000000E+00 0.  1.
         11    1    1    2    0    0  0.64226879982E+01  0.44215056175E+01 -0.42941526754E+03  0.42948605639E+03  0.00000000000E+00 0.  1.
        -15    1    1    2    0    0 -0.12572976536E+02 -0.12185446787E+02 -0.49661703802E+01  0.18286208727E+02  0.17770000000E+01 0.  1.
         15    1    1    2    0    0 -0.54543955635E+01  0.14029071217E+01 -0.58686170586E+02  0.58982564597E+02  0.17770000000E+01 0. -1.
</event>
<event>
 6    1  0.1599106E-003  0.4877180E+03  0.7546771E-02  0.9427719E-01
        -11   -1    0    0    0    0  0.00000000000E+00  0.00000000000E+00  0.50000000000E+03  0.50000000000E+03  0.00000000000E+00 0. -1.
         11   -1    0    0    0    0 -0.00000000000E+00 -0.00000000000E+00 -0.50000000000E+03  0.50000000000E+03  0.00000000000E+00 0.  1.
        -11    1    1    2    0    0 -0.91735481155E+01  0.69024868373E+00  0.48688669340E+03  0.48697359542E+03  0.00000000000E+00 0. -1.
         11    1    1    2    0    0 -0.86852445367E+01  0.35333747762E+01 -0.48854649891E+03  0.48863646999E+03  0.00000000000E+00 0.  1.
        -15    1    1    2    0    0  0.14947909576E+02 -0.19036498492E+01  0.77474161642E+01  0.17036550991E+02  0.17770000000E+01 0.  1.
         15    1    1    2    0    0  0.29108830762E+01 -0.23199736107E+01 -0.60876106540E+01  0.73533835962E+01  0.17770000000E+01 0. -1.
</event>
<event>
 6    1  0.1599106E-003  0.5076927E+03  0.7546771E-02  0.9382759E-01
        -11   -1    0    0    0    0  0.00000000000E+00  0.00000000000E+00  0.50000000000E+03  0.50000000000E+03  0.00000000000E+00 0.  1.
         11   -1    0    0    0    0 -0.00000000000E+00 -0.00000000000E+00 -0.50000000000E+03  0.50000000000E+03  0.00000000000E+00 0.  1.
        -11    1    1    2    0    0  0.60564008984E+01  0.10465029466E+02  0.44864479524E+03  0.44880769727E+03  0.00000000000E+00 0.  1.
         11    1    1    2    0    0  0.70720469362E+01  0.11187579585E+01 -0.49225518604E+03  0.49230725533E+03  0.00000000000E+00 0.  1.
        -15    1    1    2    0    0 -0.13469997034E+02 -0.86565278332E+01  0.49504474080E+02  0.52059840349E+02  0.17770000000E+01 0.  1.
         15    1    1    2    0    0  0.34154919975E+00 -0.29272595914E+01 -0.58940832845E+01  0.68252070544E+01  0.17770000000E+01 0. -1.
</event>
<event>
 6    1  0.1599106E-003  0.5012083E+03  0.7546771E-02  0.9397110E-01
        -11   -1    0    0    0    0  0.00000000000E+00  0.00000000000E+00  0.50000000000E+03  0.50000000000E+03  0.00000000000E+00 0. -1.
         11   -1    0    0    0    0 -0.00000000000E+00 -0.00000000000E+00 -0.50000000000E+03  0.50000000000E+03  0.00000000000E+00 0. -1.
        -11    1    1    2    0    0  0.12060017848E+02 -0.11674993162E+02  0.49850923530E+03  0.49879174730E+03  0.00000000000E+00 0. -1.
         11    1    1    2    0    0  0.42217453358E+01  0.35787165797E+00 -0.27607868649E+03  0.27611119560E+03  0.00000000000E+00 0. -1.
        -15    1    1    2    0    0 -0.34134633164E+01  0.10840841480E+01 -0.17155088049E+03  0.17159746297E+03  0.17770000000E+01 0. -1.
         15    1    1    2    0    0 -0.12868299868E+02  0.10233037356E+02 -0.50879668319E+02  0.53499594131E+02  0.17770000000E+01 0.  1.
</event>
<event>
 6    1  0.1599106E-003  0.5059727E+03  0.7546771E-02  0.9386544E-01
        -11   -1    0    0    0    0  0.00000000000E+00  0.00000000000E+00  0.50000000000E+03  0.50000000000E+03  0.00000000000E+00 0. -1.
         11   -1    0    0    0    0 -0.00000000000E+00 -0.00000000000E+00 -0.50000000000E+03  0.50000000000E+03  0.00000000000E+00 0.  1.
        -11    1    1    2    0    0  0.70054537025E+01  0.12375911969E+02  0.47221085561E+03  0.47242494825E+03  0.00000000000E+00 0. -1.
         11    1    1    2    0    0 -0.11621344786E+02 -0.61936873475E+00 -0.49389016230E+03  0.49402725804E+03  0.00000000000E+00 0.  1.
        -15    1    1    2    0    0 -0.64559954253E+01 -0.11896825431E+02  0.15816144724E+02  0.20893120763E+02  0.17770000000E+01 0.  1.
         15    1    1    2    0    0  0.11071886509E+02  0.14028219668E+00  0.58631619714E+01  0.12654672942E+02  0.17770000000E+01 0. -1.
</event>
<event>
 6    1  0.1599106E-003  0.5150117E+03  0.7546771E-02  0.9366833E-01
        -11   -1    0    0    0    0  0.00000000000E+00  0.00000000000E+00  0.50000000000E+03  0.50000000000E+03  0.00000000000E+00 0. -1.
         11   -1    0    0    0    0 -0.00000000000E+00 -0.00000000000E+00 -0.50000000000E+03  0.50000000000E+03  0.00000000000E+00 0. -1.
        -11    1    1    2    0    0 -0.17812844073E+01  0.10690914706E+02  0.47391736036E+03  0.47404127783E+03  0.00000000000E+00 0. -1.
         11    1    1    2    0    0  0.10156242638E+02  0.51913632113E+00 -0.48488170939E+03  0.48498834096E+03  0.00000000000E+00 0. -1.
        -15    1    1    2    0    0 -0.29750536489E+01 -0.15436082247E+02  0.22457101558E+02  0.27470033104E+02  0.17770000000E+01 0.  1.
         15    1    1    2    0    0 -0.53999045822E+01  0.42260312202E+01 -0.11492752532E+02  0.13500348111E+02  0.17770000000E+01 0. -1.
</event>
<event>
 6    1  0.1599106E-003  0.5071584E+03  0.7546771E-02  0.9383933E-01
        -11   -1    0    0    0    0  0.00000000000E+00  0.00000000000E+00  0.50000000000E+03  0.50000000000E+03  0.00000000000E+00 0. -1.
         11   -1    0    0    0    0 -0.00000000000E+00 -0.00000000000E+00 -0.50000000000E+03  0.50000000000E+03  0.00000000000E+00 0.  1.
        -11    1    1    2    0    0 -0.12925399920E+01 -0.67684433391E+01  0.45320460469E+03  0.45325698692E+03  0.00000000000E+00 0. -1.
         11    1    1    2    0    0  0.20404840783E+02  0.63617911842E+01 -0.49237792327E+03  0.49284160664E+03  0.00000000000E+00 0.  1.
        -15    1    1    2    0    0 -0.10582436112E+02 -0.70820113707E+01 -0.22828731975E+00  0.12858953427E+02  0.17770000000E+01 0. -1.
         15    1    1    2    0    0 -0.85298646788E+01  0.74886635257E+01  0.39401605898E+02  0.41042453011E+02  0.17770000000E+01 0.  1.
</event>
<event>
 6    1  0.1599106E-003  0.5052109E+03  0.7546771E-02  0.9388225E-01
        -11   -1    0    0    0    0  0.00000000000E+00  0.00000000000E+00  0.50000000000E+03  0.50000000000E+03  0.00000000000E+00 0.  1.
         11   -1    0    0    0    0 -0.00000000000E+00 -0.00000000000E+00 -0.50000000000E+03  0.50000000000E+03  0.00000000000E+00 0.  1.
        -11    1    1    2    0    0  0.14598124721E+01  0.88589628732E+01  0.49470767772E+03  0.49478914567E+03  0.00000000000E+00 0.  1.
         11    1    1    2    0    0 -0.89103833990E+01  0.21621501309E+01 -0.32811968528E+03  0.32824776876E+03  0.00000000000E+00 0.  1.
        -15    1    1    2    0    0  0.16062439761E+02 -0.18976692559E+02 -0.26523007103E+02  0.36397039252E+02  0.17770000000E+01 0. -1.
         15    1    1    2    0    0 -0.86118688342E+01  0.79555795549E+01 -0.14006498534E+03  0.14056604632E+03  0.17770000000E+01 0.  1.
</event>
<event>
 6    1  0.1599106E-003  0.5020811E+03  0.7546771E-02  0.9395165E-01
        -11   -1    0    0    0    0  0.00000000000E+00  0.00000000000E+00  0.50000000000E+03  0.50000000000E+03  0.00000000000E+00 0. -1.
         11   -1    0    0    0    0 -0.00000000000E+00 -0.00000000000E+00 -0.50000000000E+03  0.50000000000E+03  0.00000000000E+00 0.  1.
        -11    1    1    2    0    0  0.78984221491E+01  0.45702577291E+01  0.49783523613E+03  0.49791886353E+03  0.00000000000E+00 0. -1.
         11    1    1    2    0    0 -0.63291873242E+01  0.65879303184E+01 -0.46052533527E+03  0.46061593966E+03  0.00000000000E+00 0.  1.
        -15    1    1    2    0    0  0.41054432148E+01 -0.18548148598E+01 -0.22368721536E+02  0.22886948995E+02  0.17770000000E+01 0.  1.
         15    1    1    2    0    0 -0.56746780398E+01 -0.93033731877E+01 -0.14941179321E+02  0.18578247819E+02  0.17770000000E+01 0. -1.
</event>
<event>
 6    1  0.1599106E-003  0.5126834E+03  0.7546771E-02  0.9371868E-01
        -11   -1    0    0    0    0  0.00000000000E+00  0.00000000000E+00  0.50000000000E+03  0.50000000000E+03  0.00000000000E+00 0.  1.
         11   -1    0    0    0    0 -0.00000000000E+00 -0.00000000000E+00 -0.50000000000E+03  0.50000000000E+03  0.00000000000E+00 0. -1.
        -11    1    1    2    0    0 -0.13591321272E+02  0.50901945236E+02  0.48446024091E+03  0.48731658812E+03  0.00000000000E+00 0.  1.
         11    1    1    2    0    0 -0.36927655489E+02  0.19264186949E+02 -0.11462594833E+03  0.12195847109E+03  0.00000000000E+00 0. -1.
        -15    1    1    2    0    0 -0.77644782788E+01 -0.23679683839E+02 -0.17297291832E+02  0.30386980491E+02  0.17770000000E+01 0.  1.
         15    1    1    2    0    0  0.58283455039E+02 -0.46486448346E+02 -0.35253700074E+03  0.36033796030E+03  0.17770000000E+01 0. -1.
</event>
<event>
 6    1  0.1599106E-003  0.5044633E+03  0.7546771E-02  0.9389878E-01
        -11   -1    0    0    0    0  0.00000000000E+00  0.00000000000E+00  0.50000000000E+03  0.50000000000E+03  0.00000000000E+00 0.  1.
         11   -1    0    0    0    0 -0.00000000000E+00 -0.00000000000E+00 -0.50000000000E+03  0.50000000000E+03  0.00000000000E+00 0.  1.
        -11    1    1    2    0    0 -0.14685653532E+02 -0.53391436341E+01  0.49529025033E+03  0.49553668578E+03  0.00000000000E+00 0.  1.
         11    1    1    2    0    0 -0.10328723088E+02 -0.20952965061E+01 -0.44979711408E+03  0.44992056701E+03  0.00000000000E+00 0.  1.
        -15    1    1    2    0    0  0.19525696844E+02  0.11445333682E+02 -0.30871318474E+02  0.38320288800E+02  0.17770000000E+01 0.  1.
         15    1    1    2    0    0  0.54886797754E+01 -0.40108935421E+01 -0.14621817784E+02  0.16222458414E+02  0.17770000000E+01 0. -1.
</event>
<event>
 6    1  0.1599106E-003  0.5020930E+03  0.7546771E-02  0.9395139E-01
        -11   -1    0    0    0    0  0.00000000000E+00  0.00000000000E+00  0.50000000000E+03  0.50000000000E+03  0.00000000000E+00 0.  1.
         11   -1    0    0    0    0 -0.00000000000E+00 -0.00000000000E+00 -0.50000000000E+03  0.50000000000E+03  0.00000000000E+00 0. -1.
        -11    1    1    2    0    0 -0.37496829238E+01 -0.38290721244E+01  0.39587730270E+03  0.39591357732E+03  0.00000000000E+00 0.  1.
         11    1    1    2    0    0 -0.67793520350E+01  0.33947935178E+00 -0.49786071290E+03  0.49790698359E+03  0.00000000000E+00 0. -1.
        -15    1    1    2    0    0  0.61851614501E+01  0.37765845674E+01  0.10112470321E+03  0.10139961608E+03  0.17770000000E+01 0.  1.
         15    1    1    2    0    0  0.43438735088E+01 -0.28699179481E+00  0.85870699803E+00  0.47798230155E+01  0.17770000000E+01 0. -1.
</event>
<event>
 6    1  0.1599106E-003  0.5070219E+03  0.7546771E-02  0.9384233E-01
        -11   -1    0    0    0    0  0.00000000000E+00  0.00000000000E+00  0.50000000000E+03  0.50000000000E+03  0.00000000000E+00 0. -1.
         11   -1    0    0    0    0 -0.00000000000E+00 -0.00000000000E+00 -0.50000000000E+03  0.50000000000E+03  0.00000000000E+00 0.  1.
        -11    1    1    2    0    0 -0.96655685277E+01 -0.92617507460E+01  0.49279633636E+03  0.49297812565E+03  0.00000000000E+00 0. -1.
         11    1    1    2    0    0  0.10614717621E+01 -0.63603531650E+01 -0.46395020158E+03  0.46399501114E+03  0.00000000000E+00 0.  1.
        -15    1    1    2    0    0  0.17820003944E+01  0.16839957377E+02 -0.31159322089E+02  0.35508038130E+02  0.17770000000E+01 0.  1.
         15    1    1    2    0    0  0.68220963712E+01 -0.12178534656E+01  0.23131873135E+01  0.75188250750E+01  0.17770000000E+01 0. -1.
</event>
<event>
 6    1  0.1599106E-003  0.4708591E+03  0.7546771E-02  0.9467484E-01
        -11   -1    0    0    0    0  0.00000000000E+00  0.00000000000E+00  0.50000000000E+03  0.50000000000E+03  0.00000000000E+00 0.  1.
         11   -1    0    0    0    0 -0.00000000000E+00 -0.00000000000E+00 -0.50000000000E+03  0.50000000000E+03  0.00000000000E+00 0.  1.
        -11    1    1    2    0    0 -0.53934880355E+01 -0.11108850269E+02  0.47273836284E+03  0.47289962568E+03  0.00000000000E+00 0.  1.
         11    1    1    2    0    0  0.11595708243E+02 -0.10027499819E+02 -0.46883372635E+03  0.46908429324E+03  0.00000000000E+00 0.  1.
        -15    1    1    2    0    0 -0.97176282944E+01  0.16013715676E+02 -0.27629009486E+02  0.33427403183E+02  0.17770000000E+01 0. -1.
         15    1    1    2    0    0  0.35154080871E+01  0.51226344114E+01  0.23724373002E+02  0.24588677896E+02  0.17770000000E+01 0.  1.
</event>
<event>
 6    1  0.1599106E-003  0.5019494E+03  0.7546771E-02  0.9395458E-01
        -11   -1    0    0    0    0  0.00000000000E+00  0.00000000000E+00  0.50000000000E+03  0.50000000000E+03  0.00000000000E+00 0.  1.
         11   -1    0    0    0    0 -0.00000000000E+00 -0.00000000000E+00 -0.50000000000E+03  0.50000000000E+03  0.00000000000E+00 0. -1.
        -11    1    1    2    0    0 -0.93112594219E+01  0.25794253503E+01  0.34815416024E+03  0.34828820290E+03  0.00000000000E+00 0.  1.
         11    1    1    2    0    0  0.12998303772E+02 -0.31460504770E+02 -0.49688599813E+03  0.49805061429E+03  0.00000000000E+00 0. -1.
        -15    1    1    2    0    0 -0.10641628710E+02  0.26660342532E+02  0.90851190369E+02  0.95294882580E+02  0.17770000000E+01 0. -1.
         15    1    1    2    0    0  0.69545843604E+01  0.22207368878E+01  0.57880647516E+02  0.58366300224E+02  0.17770000000E+01 0.  1.
</event>
<event>
 6    1  0.1599106E-003  0.4850684E+03  0.7546771E-02  0.9433854E-01
        -11   -1    0    0    0    0  0.00000000000E+00  0.00000000000E+00  0.50000000000E+03  0.50000000000E+03  0.00000000000E+00 0.  1.
         11   -1    0    0    0    0 -0.00000000000E+00 -0.00000000000E+00 -0.50000000000E+03  0.50000000000E+03  0.00000000000E+00 0. -1.
        -11    1    1    2    0    0 -0.52430413789E+01 -0.71865712941E+01  0.48618492062E+03  0.48626629878E+03  0.00000000000E+00 0.  1.
         11    1    1    2    0    0  0.81877095563E+01 -0.11863265233E+02 -0.48385008902E+03  0.48406475217E+03  0.00000000000E+00 0. -1.
        -15    1    1    2    0    0  0.46626977699E+01 -0.29183006716E+01 -0.26311602838E+01  0.63512174221E+01  0.17770000000E+01 0. -1.
         15    1    1    2    0    0 -0.76073659474E+01  0.21968137199E+02  0.29632867965E+00  0.23317731629E+02  0.17770000000E+01 0.  1.
</event>
<event>
 6    1  0.1599106E-003  0.5191198E+03  0.7546771E-02  0.9358015E-01
        -11   -1    0    0    0    0  0.00000000000E+00  0.00000000000E+00  0.50000000000E+03  0.50000000000E+03  0.00000000000E+00 0. -1.
         11   -1    0    0    0    0 -0.00000000000E+00 -0.00000000000E+00 -0.50000000000E+03  0.50000000000E+03  0.00000000000E+00 0. -1.
        -11    1    1    2    0    0 -0.71334179425E+01  0.33431648502E+01  0.48081562248E+03  0.48088015682E+03  0.00000000000E+00 0. -1.
         11    1    1    2    0    0 -0.59567424174E+01 -0.66870686023E+01 -0.44609266640E+03  0.44618254861E+03  0.00000000000E+00 0. -1.
        -15    1    1    2    0    0  0.22027063813E+02  0.12062528144E+02 -0.48262350800E+02  0.54434440928E+02  0.17770000000E+01 0.  1.
         15    1    1    2    0    0 -0.89369034533E+01 -0.87186243917E+01  0.13539394715E+02  0.18502853641E+02  0.17770000000E+01 0. -1.
</event>
<event>
 6    1  0.1599106E-003  0.5086668E+03  0.7546771E-02  0.9380623E-01
        -11   -1    0    0    0    0  0.00000000000E+00  0.00000000000E+00  0.50000000000E+03  0.50000000000E+03  0.00000000000E+00 0. -1.
         11   -1    0    0    0    0 -0.00000000000E+00 -0.00000000000E+00 -0.50000000000E+03  0.50000000000E+03  0.00000000000E+00 0.  1.
        -11    1    1    2    0    0 -0.50031618428E+01 -0.45804872474E+01  0.49128634793E+03  0.49133317429E+03  0.00000000000E+00 0. -1.
         11    1    1    2    0    0 -0.74948356814E+00  0.17834455472E+02 -0.28305503640E+03  0.28361731816E+03  0.00000000000E+00 0.  1.
        -15    1    1    2    0    0  0.31599362587E+02 -0.10933373802E+02 -0.19085016797E+03  0.19376532900E+03  0.17770000000E+01 0. -1.
         15    1    1    2    0    0 -0.25846717176E+02 -0.23205944222E+01 -0.17381143554E+02  0.31284178549E+02  0.17770000000E+01 0.  1.
</event>
<event>
 6    1  0.1599106E-003  0.5091466E+03  0.7546771E-02  0.9379573E-01
        -11   -1    0    0    0    0  0.00000000000E+00  0.00000000000E+00  0.50000000000E+03  0.50000000000E+03  0.00000000000E+00 0. -1.
         11   -1    0    0    0    0 -0.00000000000E+00 -0.00000000000E+00 -0.50000000000E+03  0.50000000000E+03  0.00000000000E+00 0. -1.
        -11    1    1    2    0    0  0.63087608885E+01  0.17035493028E+02  0.40246142661E+03  0.40287120572E+03  0.00000000000E+00 0. -1.
         11    1    1    2    0    0  0.65077062193E+01  0.86830410267E+01 -0.49073347340E+03  0.49085342757E+03  0.00000000000E+00 0. -1.
        -15    1    1    2    0    0 -0.20888502283E+02 -0.77379846948E+01  0.82148095120E+01  0.23808543825E+02  0.17770000000E+01 0. -1.
         15    1    1    2    0    0  0.80720351753E+01 -0.17980549360E+02  0.80057237280E+02  0.82466822887E+02  0.17770000000E+01 0.  1.
</event>
<event>
 6    1  0.1599106E-003  0.5013584E+03  0.7546771E-02  0.9396775E-01
        -11   -1    0    0    0    0  0.00000000000E+00  0.00000000000E+00  0.50000000000E+03  0.50000000000E+03  0.00000000000E+00 0. -1.
         11   -1    0    0    0    0 -0.00000000000E+00 -0.00000000000E+00 -0.50000000000E+03  0.50000000000E+03  0.00000000000E+00 0.  1.
        -11    1    1    2    0    0  0.27327636183E+01 -0.12452720546E+02  0.34334429200E+03  0.34358090909E+03  0.00000000000E+00 0. -1.
         11    1    1    2    0    0  0.60707528694E+01 -0.68322123118E+01 -0.49855778589E+03  0.49864155366E+03  0.00000000000E+00 0.  1.
        -15    1    1    2    0    0  0.13273909797E+00  0.15398386397E+02  0.57146815519E+02  0.59211858409E+02  0.17770000000E+01 0. -1.
         15    1    1    2    0    0 -0.89362555857E+01  0.38865464601E+01  0.98066678375E+02  0.98565678833E+02  0.17770000000E+01 0.  1.
</event>
<event>
 6    1  0.1599106E-003  0.5550654E+03  0.7546771E-02  0.9284382E-01
        -11   -1    0    0    0    0  0.00000000000E+00  0.00000000000E+00  0.50000000000E+03  0.50000000000E+03  0.00000000000E+00 0.  1.
         11   -1    0    0    0    0 -0.00000000000E+00 -0.00000000000E+00 -0.50000000000E+03  0.50000000000E+03  0.00000000000E+00 0. -1.
        -11    1    1    2    0    0 -0.74303129601E+01 -0.12001685627E+02  0.44471059233E+03  0.44493455804E+03  0.00000000000E+00 0.  1.
         11    1    1    2    0    0 -0.11904834607E+02 -0.85201425008E+01 -0.33747048014E+03  0.33778786668E+03  0.00000000000E+00 0. -1.
        -15    1    1    2    0    0 -0.81014805275E+01  0.10130172132E+03 -0.73893413568E+02  0.12566251241E+03  0.17770000000E+01 0. -1.
         15    1    1    2    0    0  0.27436628094E+02 -0.80779893190E+02 -0.33346698623E+02  0.91615062861E+02  0.17770000000E+01 0.  1.
</event>
<event>
 6    1  0.1599106E-003  0.5101283E+03  0.7546771E-02  0.9377428E-01
        -11   -1    0    0    0    0  0.00000000000E+00  0.00000000000E+00  0.50000000000E+03  0.50000000000E+03  0.00000000000E+00 0. -1.
         11   -1    0    0    0    0 -0.00000000000E+00 -0.00000000000E+00 -0.50000000000E+03  0.50000000000E+03  0.00000000000E+00 0.  1.
        -11    1    1    2    0    0 -0.17142826109E+02 -0.35455535726E+01  0.48955885250E+03  0.48987173576E+03  0.00000000000E+00 0. -1.
         11    1    1    2    0    0  0.17551420731E+02  0.26533475217E+02 -0.44423908337E+03  0.44537674038E+03  0.00000000000E+00 0.  1.
        -15    1    1    2    0    0 -0.16477076289E+02 -0.29633062874E+01 -0.62317401137E+01  0.17951811636E+02  0.17770000000E+01 0. -1.
         15    1    1    2    0    0  0.16068481667E+02 -0.20024615357E+02 -0.39088029012E+02  0.46799712225E+02  0.17770000000E+01 0.  1.
</event>
<event>
 6    1  0.1599106E-003  0.5007707E+03  0.7546771E-02  0.9398087E-01
        -11   -1    0    0    0    0  0.00000000000E+00  0.00000000000E+00  0.50000000000E+03  0.50000000000E+03  0.00000000000E+00 0. -1.
         11   -1    0    0    0    0 -0.00000000000E+00 -0.00000000000E+00 -0.50000000000E+03  0.50000000000E+03  0.00000000000E+00 0.  1.
        -11    1    1    2    0    0  0.19336542147E+01 -0.65548143738E+01  0.49918250642E+03  0.49922928533E+03  0.00000000000E+00 0. -1.
         11    1    1    2    0    0 -0.75241882808E+01  0.65131341483E+01 -0.45460185791E+03  0.45471076911E+03  0.00000000000E+00 0.  1.
        -15    1    1    2    0    0  0.14132596868E+01 -0.45597600930E+01 -0.18251502261E+02  0.18948978306E+02  0.17770000000E+01 0.  1.
         15    1    1    2    0    0  0.41772743793E+01  0.46014403184E+01 -0.26329146249E+02  0.27110967254E+02  0.17770000000E+01 0. -1.
</event>
<event>
 6    1  0.1599106E-003  0.5023760E+03  0.7546771E-02  0.9394509E-01
        -11   -1    0    0    0    0  0.00000000000E+00  0.00000000000E+00  0.50000000000E+03  0.50000000000E+03  0.00000000000E+00 0.  1.
         11   -1    0    0    0    0 -0.00000000000E+00 -0.00000000000E+00 -0.50000000000E+03  0.50000000000E+03  0.00000000000E+00 0. -1.
        -11    1    1    2    0    0  0.31119270301E+02 -0.33150822974E+01  0.25013332711E+03  0.25208347840E+03  0.00000000000E+00 0.  1.
         11    1    1    2    0    0 -0.12392495152E+02 -0.54685837552E+01 -0.49743959343E+03  0.49762398300E+03  0.00000000000E+00 0. -1.
        -15    1    1    2    0    0  0.46086509230E+01 -0.80134068222E+01  0.47896615057E+02  0.48812885749E+02  0.17770000000E+01 0. -1.
         15    1    1    2    0    0 -0.23335426073E+02  0.16797072875E+02  0.19940965126E+03  0.20147965285E+03  0.17770000000E+01 0.  1.
</event>
<event>
 6    1  0.1599106E-003  0.5155539E+03  0.7546771E-02  0.9365664E-01
        -11   -1    0    0    0    0  0.00000000000E+00  0.00000000000E+00  0.50000000000E+03  0.50000000000E+03  0.00000000000E+00 0. -1.
         11   -1    0    0    0    0 -0.00000000000E+00 -0.00000000000E+00 -0.50000000000E+03  0.50000000000E+03  0.00000000000E+00 0.  1.
        -11    1    1    2    0    0  0.24217886078E+01  0.67748253266E+01  0.48439271935E+03  0.48444614755E+03  0.00000000000E+00 0. -1.
         11    1    1    2    0    0 -0.25331051976E+02  0.12299086799E+02 -0.40976142301E+03  0.41072783387E+03  0.00000000000E+00 0.  1.
        -15    1    1    2    0    0 -0.36533107706E+01 -0.17438090326E+02  0.67885217080E+01  0.19148770973E+02  0.17770000000E+01 0. -1.
         15    1    1    2    0    0  0.26562574139E+02 -0.16358218000E+01 -0.81419818047E+02  0.85677247608E+02  0.17770000000E+01 0.  1.
</event>
<event>
 6    1  0.1599106E-003  0.5006322E+03  0.7546771E-02  0.9398396E-01
        -11   -1    0    0    0    0  0.00000000000E+00  0.00000000000E+00  0.50000000000E+03  0.50000000000E+03  0.00000000000E+00 0. -1.
         11   -1    0    0    0    0 -0.00000000000E+00 -0.00000000000E+00 -0.50000000000E+03  0.50000000000E+03  0.00000000000E+00 0.  1.
        -11    1    1    2    0    0 -0.54957282164E+01 -0.48560971073E+01  0.49931393307E+03  0.49936778877E+03  0.00000000000E+00 0. -1.
         11    1    1    2    0    0  0.69933416235E+01 -0.92372253682E+00 -0.47151487137E+03  0.47156763462E+03  0.00000000000E+00 0.  1.
        -15    1    1    2    0    0 -0.26143681635E+01  0.18101164289E+01 -0.84574856633E+01  0.92085957195E+01  0.17770000000E+01 0.  1.
         15    1    1    2    0    0  0.11167547563E+01  0.39697032152E+01 -0.19341576031E+02  0.19855980891E+02  0.17770000000E+01 0.  1.
</event>
<event>
 6    1  0.1599106E-003  0.5005686E+03  0.7546771E-02  0.9398538E-01
        -11   -1    0    0    0    0  0.00000000000E+00  0.00000000000E+00  0.50000000000E+03  0.50000000000E+03  0.00000000000E+00 0. -1.
         11   -1    0    0    0    0 -0.00000000000E+00 -0.00000000000E+00 -0.50000000000E+03  0.50000000000E+03  0.00000000000E+00 0.  1.
        -11    1    1    2    0    0  0.38294699104E+01 -0.11322864614E+01  0.28963664798E+03  0.28966417585E+03  0.00000000000E+00 0. -1.
         11    1    1    2    0    0  0.72747790846E+01  0.71826102141E+01 -0.49932671740E+03  0.49943135966E+03  0.00000000000E+00 0.  1.
        -15    1    1    2    0    0 -0.34196697535E+01  0.65571112712E+01  0.60917177691E+02  0.61390146737E+02  0.17770000000E+01 0.  1.
         15    1    1    2    0    0 -0.76845792415E+01 -0.12607435024E+02  0.14877289172E+03  0.14951431776E+03  0.17770000000E+01 0. -1.
</event>
<event>
 6    1  0.1599106E-003  0.5007869E+03  0.7546771E-02  0.9398051E-01
        -11   -1    0    0    0    0  0.00000000000E+00  0.00000000000E+00  0.50000000000E+03  0.50000000000E+03  0.00000000000E+00 0.  1.
         11   -1    0    0    0    0 -0.00000000000E+00 -0.00000000000E+00 -0.50000000000E+03  0.50000000000E+03  0.00000000000E+00 0.  1.
        -11    1    1    2    0    0 -0.39197961290E+01 -0.72909710043E+01  0.49914451364E+03  0.49921314943E+03  0.00000000000E+00 0.  1.
         11    1    1    2    0    0 -0.17388197286E+01 -0.10404969708E+02 -0.27954743972E+03  0.27974641722E+03  0.00000000000E+00 0.  1.
        -15    1    1    2    0    0  0.82173035026E+01  0.12776019674E+01 -0.72215834538E+02  0.72714791003E+02  0.17770000000E+01 0. -1.
         15    1    1    2    0    0 -0.25586876450E+01  0.16418338745E+02 -0.14738123938E+03  0.14832564235E+03  0.17770000000E+01 0.  1.
</event>
<event>
 6    1  0.1599106E-003  0.5080199E+03  0.7546771E-02  0.9382041E-01
        -11   -1    0    0    0    0  0.00000000000E+00  0.00000000000E+00  0.50000000000E+03  0.50000000000E+03  0.00000000000E+00 0.  1.
         11   -1    0    0    0    0 -0.00000000000E+00 -0.00000000000E+00 -0.50000000000E+03  0.50000000000E+03  0.00000000000E+00 0.  1.
        -11    1    1    2    0    0  0.67761749950E+01  0.14577969177E+01  0.49193130113E+03  0.49198012841E+03  0.00000000000E+00 0.  1.
         11    1    1    2    0    0  0.55539727712E+01 -0.11468190186E+02 -0.47848493117E+03  0.47865456789E+03  0.00000000000E+00 0.  1.
        -15    1    1    2    0    0 -0.17614875711E+02  0.47521403467E+01 -0.82241750718E+01  0.20091328199E+02  0.17770000000E+01 0. -1.
         15    1    1    2    0    0  0.52847279452E+01  0.52582529218E+01 -0.52221948849E+01  0.92739755046E+01  0.17770000000E+01 0.  1.
</event>
<event>
 6    1  0.1599106E-003  0.5107152E+03  0.7546771E-02  0.9376148E-01
        -11   -1    0    0    0    0  0.00000000000E+00  0.00000000000E+00  0.50000000000E+03  0.50000000000E+03  0.00000000000E+00 0. -1.
         11   -1    0    0    0    0 -0.00000000000E+00 -0.00000000000E+00 -0.50000000000E+03  0.50000000000E+03  0.00000000000E+00 0.  1.
        -11    1    1    2    0    0 -0.13040611581E+02  0.35533891807E+01  0.48137471444E+03  0.48156442957E+03  0.00000000000E+00 0. -1.
         11    1    1    2    0    0  0.15933601812E+02  0.14601357891E+00 -0.48902526788E+03  0.48928479806E+03  0.00000000000E+00 0.  1.
        -15    1    1    2    0    0 -0.12272270530E+02 -0.64451042260E+01  0.11891893786E+02  0.18350009790E+02  0.17770000000E+01 0.  1.
         15    1    1    2    0    0  0.93792802991E+01  0.27457014664E+01 -0.42413403458E+01  0.10800762584E+02  0.17770000000E+01 0. -1.
</event>
<event>
 6    1  0.1599106E-003  0.5085792E+03  0.7546771E-02  0.9380815E-01
        -11   -1    0    0    0    0  0.00000000000E+00  0.00000000000E+00  0.50000000000E+03  0.50000000000E+03  0.00000000000E+00 0.  1.
         11   -1    0    0    0    0 -0.00000000000E+00 -0.00000000000E+00 -0.50000000000E+03  0.50000000000E+03  0.00000000000E+00 0. -1.
        -11    1    1    2    0    0  0.44992869431E+01  0.87633787285E+01  0.45794884823E+03  0.45805478710E+03  0.00000000000E+00 0.  1.
         11    1    1    2    0    0  0.15139878873E+02 -0.13887581268E+02 -0.49099116805E+03  0.49142080537E+03  0.00000000000E+00 0. -1.
        -15    1    1    2    0    0 -0.54406632919E+01  0.15199154293E+02  0.41789771736E+01  0.16770112924E+02  0.17770000000E+01 0.  1.
         15    1    1    2    0    0 -0.14198502524E+02 -0.10074951754E+02  0.28863342644E+02  0.33754294606E+02  0.17770000000E+01 0. -1.
</event>
<event>
 6    1  0.1599106E-003  0.5003112E+03  0.7546771E-02  0.9399114E-01
        -11   -1    0    0    0    0  0.00000000000E+00  0.00000000000E+00  0.50000000000E+03  0.50000000000E+03  0.00000000000E+00 0.  1.
         11   -1    0    0    0    0 -0.00000000000E+00 -0.00000000000E+00 -0.50000000000E+03  0.50000000000E+03  0.00000000000E+00 0.  1.
        -11    1    1    2    0    0 -0.47704986572E+00  0.10774934053E+02  0.49957241971E+03  0.49968883249E+03  0.00000000000E+00 0.  1.
         11    1    1    2    0    0 -0.14290690412E+01  0.17564522318E+01 -0.12404562342E+03  0.12406628895E+03  0.00000000000E+00 0.  1.
        -15    1    1    2    0    0  0.60002470934E+01 -0.49517397179E+01 -0.52928807065E+02  0.53526993543E+02  0.17770000000E+01 0. -1.
         15    1    1    2    0    0 -0.40941281865E+01 -0.75796465674E+01 -0.32259798923E+03  0.32271788502E+03  0.17770000000E+01 0.  1.
</event>
<event>
 6    1  0.1599106E-003  0.5084900E+03  0.7546771E-02  0.9381010E-01
        -11   -1    0    0    0    0  0.00000000000E+00  0.00000000000E+00  0.50000000000E+03  0.50000000000E+03  0.00000000000E+00 0. -1.
         11   -1    0    0    0    0 -0.00000000000E+00 -0.00000000000E+00 -0.50000000000E+03  0.50000000000E+03  0.00000000000E+00 0.  1.
        -11    1    1    2    0    0  0.11264272516E+02 -0.78974416694E+01  0.49131739745E+03  0.49150995764E+03  0.00000000000E+00 0. -1.
         11    1    1    2    0    0  0.64818260743E+00  0.80349962461E+01 -0.45975430223E+03  0.45982496639E+03  0.00000000000E+00 0.  1.
        -15    1    1    2    0    0 -0.89916414512E+01 -0.80908647316E+00  0.59715191463E+01  0.10969093254E+02  0.17770000000E+01 0. -1.
         15    1    1    2    0    0 -0.29208136722E+01  0.67153189649E+00 -0.37534614372E+02  0.37695982712E+02  0.17770000000E+01 0.  1.
</event>
<event>
 6    1  0.1599106E-003  0.5056899E+03  0.7546771E-02  0.9387167E-01
        -11   -1    0    0    0    0  0.00000000000E+00  0.00000000000E+00  0.50000000000E+03  0.50000000000E+03  0.00000000000E+00 0.  1.
         11   -1    0    0    0    0 -0.00000000000E+00 -0.00000000000E+00 -0.50000000000E+03  0.50000000000E+03  0.00000000000E+00 0.  1.
        -11    1    1    2    0    0  0.14692712460E+02  0.26601589692E+01  0.49408451928E+03  0.49431008935E+03  0.00000000000E+00 0.  1.
         11    1    1    2    0    0  0.48898604184E+01 -0.87571951286E+00 -0.28538257223E+03  0.28542580498E+03  0.00000000000E+00 0.  1.
        -15    1    1    2    0    0 -0.15876058995E+02 -0.19998679441E+01 -0.54895763818E+01  0.17010052876E+02  0.17770000000E+01 0. -1.
         15    1    1    2    0    0 -0.37065138834E+01  0.21542848773E+00 -0.20321237067E+03  0.20325405279E+03  0.17770000000E+01 0. -1.
</event>
<event>
 6    1  0.1599106E-003  0.5046313E+03  0.7546771E-02  0.9389506E-01
        -11   -1    0    0    0    0  0.00000000000E+00  0.00000000000E+00  0.50000000000E+03  0.50000000000E+03  0.00000000000E+00 0. -1.
         11   -1    0    0    0    0 -0.00000000000E+00 -0.00000000000E+00 -0.50000000000E+03  0.50000000000E+03  0.00000000000E+00 0. -1.
        -11    1    1    2    0    0  0.67997660293E+01 -0.31394228330E+01  0.49531211006E+03  0.49536873051E+03  0.00000000000E+00 0. -1.
         11    1    1    2    0    0  0.15111220212E+02  0.75013624042E+01 -0.45059090927E+03  0.45090662773E+03  0.00000000000E+00 0. -1.
        -15    1    1    2    0    0  0.43094900117E+00  0.18801607713E+01  0.68001890143E+00  0.27094051513E+01  0.17770000000E+01 0. -1.
         15    1    1    2    0    0 -0.22341935242E+02 -0.62421003424E+01 -0.45401219698E+02  0.51015236607E+02  0.17770000000E+01 0.  1.
</event>
<event>
 6    1  0.1599106E-003  0.5028426E+03  0.7546771E-02  0.9393471E-01
        -11   -1    0    0    0    0  0.00000000000E+00  0.00000000000E+00  0.50000000000E+03  0.50000000000E+03  0.00000000000E+00 0.  1.
         11   -1    0    0    0    0 -0.00000000000E+00 -0.00000000000E+00 -0.50000000000E+03  0.50000000000E+03  0.00000000000E+00 0. -1.
        -11    1    1    2    0    0  0.39453526590E+02  0.47609628087E+01  0.49556654674E+03  0.49715736923E+03  0.00000000000E+00 0.  1.
         11    1    1    2    0    0 -0.41906042859E+01  0.40420053171E+01 -0.31409048763E+03  0.31414444670E+03  0.00000000000E+00 0. -1.
        -15    1    1    2    0    0 -0.22780814816E+01 -0.47778856456E+01 -0.10676920272E+03  0.10691509821E+03  0.17770000000E+01 0. -1.
         15    1    1    2    0    0 -0.32984840822E+02 -0.40250824802E+01 -0.74706856390E+02  0.81783085866E+02  0.17770000000E+01 0.  1.
</event>
<event>
 6    1  0.1599106E-003  0.5185822E+03  0.7546771E-02  0.9359164E-01
        -11   -1    0    0    0    0  0.00000000000E+00  0.00000000000E+00  0.50000000000E+03  0.50000000000E+03  0.00000000000E+00 0.  1.
         11   -1    0    0    0    0 -0.00000000000E+00 -0.00000000000E+00 -0.50000000000E+03  0.50000000000E+03  0.00000000000E+00 0. -1.
        -11    1    1    2    0    0  0.27599557167E+01  0.18930507897E+02  0.45978462222E+03  0.46018244243E+03  0.00000000000E+00 0.  1.
         11    1    1    2    0    0 -0.81613009469E+01 -0.10785224989E+02 -0.48122773662E+03  0.48141776286E+03  0.00000000000E+00 0. -1.
        -15    1    1    2    0    0  0.42300724064E+01  0.10823157894E+02 -0.13916645155E+02  0.18217162258E+02  0.17770000000E+01 0. -1.
         15    1    1    2    0    0  0.11712728238E+01 -0.18968440802E+02  0.35359759548E+02  0.40182632452E+02  0.17770000000E+01 0.  1.
</event>
<event>
 6    1  0.1599106E-003  0.5014237E+03  0.7546771E-02  0.9396630E-01
        -11   -1    0    0    0    0  0.00000000000E+00  0.00000000000E+00  0.50000000000E+03  0.50000000000E+03  0.00000000000E+00 0.  1.
         11   -1    0    0    0    0 -0.00000000000E+00 -0.00000000000E+00 -0.50000000000E+03  0.50000000000E+03  0.00000000000E+00 0. -1.
        -11    1    1    2    0    0 -0.33536986767E-01  0.95750019944E+00  0.14721071194E+01  0.17564255556E+01  0.00000000000E+00 0.  1.
         11    1    1    2    0    0 -0.11374895537E+02  0.39474881685E+02 -0.49581148483E+03  0.49751048533E+03  0.00000000000E+00 0. -1.
        -15    1    1    2    0    0  0.29439510771E+02 -0.17242813161E+02  0.40973225079E+03  0.41115407631E+03  0.17770000000E+01 0.  1.
         15    1    1    2    0    0 -0.18031078247E+02 -0.23189568723E+02  0.84607126918E+02  0.89579012802E+02  0.17770000000E+01 0. -1.
</event>
<event>
 6    1  0.1599106E-003  0.5010163E+03  0.7546771E-02  0.9397538E-01
        -11   -1    0    0    0    0  0.00000000000E+00  0.00000000000E+00  0.50000000000E+03  0.50000000000E+03  0.00000000000E+00 0. -1.
         11   -1    0    0    0    0 -0.00000000000E+00 -0.00000000000E+00 -0.50000000000E+03  0.50000000000E+03  0.00000000000E+00 0.  1.
        -11    1    1    2    0    0 -0.89185235017E+01  0.11736730662E+02  0.49876590149E+03  0.49898368250E+03  0.00000000000E+00 0. -1.
         11    1    1    2    0    0 -0.56275557869E+01 -0.44729418329E+01 -0.34809472862E+03  0.34816894848E+03  0.00000000000E+00 0.  1.
        -15    1    1    2    0    0  0.68685860905E+01  0.36892452194E+01 -0.20916436376E+02  0.22392923990E+02  0.17770000000E+01 0. -1.
         15    1    1    2    0    0  0.76774931981E+01 -0.10953034048E+02 -0.12975473649E+03  0.13045444503E+03  0.17770000000E+01 0.  1.
</event>
<event>
 6    1  0.1599106E-003  0.5043041E+03  0.7546771E-02  0.9390230E-01
        -11   -1    0    0    0    0  0.00000000000E+00  0.00000000000E+00  0.50000000000E+03  0.50000000000E+03  0.00000000000E+00 0.  1.
         11   -1    0    0    0    0 -0.00000000000E+00 -0.00000000000E+00 -0.50000000000E+03  0.50000000000E+03  0.00000000000E+00 0.  1.
        -11    1    1    2    0    0 -0.58428267231E+01  0.41622594057E+01  0.48817752531E+03  0.48823023180E+03  0.00000000000E+00 0.  1.
         11    1    1    2    0    0 -0.56931316360E+00 -0.80192505955E+01 -0.49563068792E+03  0.49569588591E+03  0.00000000000E+00 0.  1.
        -15    1    1    2    0    0  0.68096481708E+01 -0.24456990170E+01  0.25184297067E+01  0.78646658593E+01  0.17770000000E+01 0. -1.
         15    1    1    2    0    0 -0.39750828404E+00  0.63026902068E+01  0.49347329052E+01  0.82092164379E+01  0.17770000000E+01 0.  1.
</event>
<event>
 6    1  0.1599106E-003  0.5034282E+03  0.7546771E-02  0.9392171E-01
        -11   -1    0    0    0    0  0.00000000000E+00  0.00000000000E+00  0.50000000000E+03  0.50000000000E+03  0.00000000000E+00 0. -1.
         11   -1    0    0    0    0 -0.00000000000E+00 -0.00000000000E+00 -0.50000000000E+03  0.50000000000E+03  0.00000000000E+00 0. -1.
        -11    1    1    2    0    0 -0.15392159733E+02 -0.78708410811E+01  0.19501454720E+03  0.19577932051E+03  0.00000000000E+00 0. -1.
         11    1    1    2    0    0 -0.12781581873E+02 -0.39635239828E+01 -0.49639143966E+03  0.49657178708E+03  0.00000000000E+00 0. -1.
        -15    1    1    2    0    0 -0.16001640533E+02  0.48259925304E+01  0.70867544028E+02  0.72833434831E+02  0.17770000000E+01 0.  1.
         15    1    1    2    0    0  0.44175382140E+02  0.70083725335E+01  0.23050934843E+03  0.23481545757E+03  0.17770000000E+01 0. -1.
</event>
<event>
 6    1  0.1599106E-003  0.5002713E+03  0.7546771E-02  0.9399203E-01
        -11   -1    0    0    0    0  0.00000000000E+00  0.00000000000E+00  0.50000000000E+03  0.50000000000E+03  0.00000000000E+00 0. -1.
         11   -1    0    0    0    0 -0.00000000000E+00 -0.00000000000E+00 -0.50000000000E+03  0.50000000000E+03  0.00000000000E+00 0. -1.
        -11    1    1    2    0    0  0.11178754200E+00  0.79555965371E+01  0.49966539212E+03  0.49972873451E+03  0.00000000000E+00 0. -1.
         11    1    1    2    0    0  0.35062358348E+01  0.52192666127E+00 -0.22137178602E+03  0.22140016654E+03  0.00000000000E+00 0. -1.
        -15    1    1    2    0    0 -0.87769203435E+01 -0.70372314071E+01 -0.14004167766E+03  0.14050404324E+03  0.17770000000E+01 0. -1.
         15    1    1    2    0    0  0.51588969667E+01 -0.14402917914E+01 -0.13825192844E+03  0.13836705571E+03  0.17770000000E+01 0.  1.
</event>
<event>
 6    1  0.1599106E-003  0.5002420E+03  0.7546771E-02  0.9399268E-01
        -11   -1    0    0    0    0  0.00000000000E+00  0.00000000000E+00  0.50000000000E+03  0.50000000000E+03  0.00000000000E+00 0. -1.
         11   -1    0    0    0    0 -0.00000000000E+00 -0.00000000000E+00 -0.50000000000E+03  0.50000000000E+03  0.00000000000E+00 0.  1.
        -11    1    1    2    0    0 -0.96492497851E+00  0.38044966899E+01  0.18312524447E+03  0.18316730177E+03  0.00000000000E+00 0. -1.
         11    1    1    2    0    0 -0.43783646837E+01  0.83399012852E+01 -0.49966921703E+03  0.49975799191E+03  0.00000000000E+00 0.  1.
        -15    1    1    2    0    0  0.11201981275E+01 -0.13104731866E+02  0.20232235296E+03  0.20275719735E+03  0.17770000000E+01 0.  1.
         15    1    1    2    0    0  0.42230915347E+01  0.96033389051E+00  0.11422161960E+03  0.11431750897E+03  0.17770000000E+01 0. -1.
</event>
<event>
 6    1  0.1599106E-003  0.5011380E+03  0.7546771E-02  0.9397267E-01
        -11   -1    0    0    0    0  0.00000000000E+00  0.00000000000E+00  0.50000000000E+03  0.50000000000E+03  0.00000000000E+00 0. -1.
         11   -1    0    0    0    0 -0.00000000000E+00 -0.00000000000E+00 -0.50000000000E+03  0.50000000000E+03  0.00000000000E+00 0.  1.
        -11    1    1    2    0    0  0.48324598537E+01  0.31104644023E+01  0.25300008417E+03  0.25306534778E+03  0.00000000000E+00 0. -1.
         11    1    1    2    0    0 -0.11183777528E+02  0.38086890009E+01 -0.49872209299E+03  0.49886201401E+03  0.00000000000E+00 0.  1.
        -15    1    1    2    0    0  0.68268829778E+01 -0.97418618918E+01  0.29958249996E+02  0.32282575426E+02  0.17770000000E+01 0.  1.
         15    1    1    2    0    0 -0.47556530360E+00  0.28227084886E+01  0.21576375882E+03  0.21579006278E+03  0.17770000000E+01 0. -1.
</event>
<event>
 6    1  0.1599106E-003  0.5027033E+03  0.7546771E-02  0.9393781E-01
        -11   -1    0    0    0    0  0.00000000000E+00  0.00000000000E+00  0.50000000000E+03  0.50000000000E+03  0.00000000000E+00 0.  1.
         11   -1    0    0    0    0 -0.00000000000E+00 -0.00000000000E+00 -0.50000000000E+03  0.50000000000E+03  0.00000000000E+00 0. -1.
        -11    1    1    2    0    0 -0.78268113899E+01  0.82786029231E+00  0.49723446401E+03  0.49729674896E+03  0.00000000000E+00 0.  1.
         11    1    1    2    0    0  0.11932388320E+00 -0.82664776470E+01 -0.30380798836E+03  0.30392045453E+03  0.00000000000E+00 0. -1.
        -15    1    1    2    0    0  0.86661470116E+00  0.20159647928E+01  0.18030015390E+01  0.33501759111E+01  0.17770000000E+01 0.  1.
         15    1    1    2    0    0  0.68408728055E+01  0.54226525619E+01 -0.19522947718E+03  0.19543262059E+03  0.17770000000E+01 0. -1.
</event>
<event>
 6    1  0.1599106E-003  0.4767546E+03  0.7546771E-02  0.9453380E-01
        -11   -1    0    0    0    0  0.00000000000E+00  0.00000000000E+00  0.50000000000E+03  0.50000000000E+03  0.00000000000E+00 0. -1.
         11   -1    0    0    0    0 -0.00000000000E+00 -0.00000000000E+00 -0.50000000000E+03  0.50000000000E+03  0.00000000000E+00 0.  1.
        -11    1    1    2    0    0 -0.10085718456E+02 -0.11442189874E+02  0.48046404718E+03  0.48070609114E+03  0.00000000000E+00 0. -1.
         11    1    1    2    0    0  0.18348085791E+01 -0.20649578258E+02 -0.47295403397E+03  0.47340816411E+03  0.00000000000E+00 0.  1.
        -15    1    1    2    0    0 -0.70788173416E+01  0.23307536035E+02  0.39652334496E+01  0.24743316194E+02  0.17770000000E+01 0.  1.
         15    1    1    2    0    0  0.15329727219E+02  0.87842320961E+01 -0.11475246663E+02  0.21142428552E+02  0.17770000000E+01 0. -1.
</event>
<event>
 6    1  0.1599106E-003  0.5033788E+03  0.7546771E-02  0.9392281E-01
        -11   -1    0    0    0    0  0.00000000000E+00  0.00000000000E+00  0.50000000000E+03  0.50000000000E+03  0.00000000000E+00 0.  1.
         11   -1    0    0    0    0 -0.00000000000E+00 -0.00000000000E+00 -0.50000000000E+03  0.50000000000E+03  0.00000000000E+00 0.  1.
        -11    1    1    2    0    0  0.16841796967E+01  0.21497046072E+02  0.49615288332E+03  0.49662122697E+03  0.00000000000E+00 0.  1.
         11    1    1    2    0    0  0.79573742012E+01 -0.14973311860E+01 -0.40249752715E+03  0.40257896265E+03  0.00000000000E+00 0.  1.
        -15    1    1    2    0    0 -0.65000525251E+00  0.10626838503E+01  0.16748353527E+01  0.27412782151E+01  0.17770000000E+01 0.  1.
         15    1    1    2    0    0 -0.89915486453E+01 -0.21062398736E+02 -0.95330191516E+02  0.98058532168E+02  0.17770000000E+01 0. -1.
</event>
<event>
 6    1  0.1599106E-003  0.5178104E+03  0.7546771E-02  0.9360816E-01
        -11   -1    0    0    0    0  0.00000000000E+00  0.00000000000E+00  0.50000000000E+03  0.50000000000E+03  0.00000000000E+00 0. -1.
         11   -1    0    0    0    0 -0.00000000000E+00 -0.00000000000E+00 -0.50000000000E+03  0.50000000000E+03  0.00000000000E+00 0.  1.
        -11    1    1    2    0    0  0.15204215081E+02  0.83097773410E+01  0.48187816175E+03  0.48218957198E+03  0.00000000000E+00 0. -1.
         11    1    1    2    0    0 -0.41804201610E+01  0.19234473733E+02 -0.45680136493E+03  0.45722524853E+03  0.00000000000E+00 0.  1.
        -15    1    1    2    0    0 -0.11183777276E+01 -0.89904938936E+01 -0.35756992030E+02  0.36929662295E+02  0.17770000000E+01 0. -1.
         15    1    1    2    0    0 -0.99054171926E+01 -0.18553757180E+02  0.10680195206E+02  0.23655517198E+02  0.17770000000E+01 0.  1.
</event>
<event>
 6    1  0.1599106E-003  0.5002519E+03  0.7546771E-02  0.9399246E-01
        -11   -1    0    0    0    0  0.00000000000E+00  0.00000000000E+00  0.50000000000E+03  0.50000000000E+03  0.00000000000E+00 0. -1.
         11   -1    0    0    0    0 -0.00000000000E+00 -0.00000000000E+00 -0.50000000000E+03  0.50000000000E+03  0.00000000000E+00 0.  1.
        -11    1    1    2    0    0  0.19971002313E+01  0.44091110672E+01  0.31608471474E+03  0.31612177332E+03  0.00000000000E+00 0. -1.
         11    1    1    2    0    0  0.76830588255E+01 -0.18879692392E+01 -0.49968551962E+03  0.49974814891E+03  0.00000000000E+00 0.  1.
        -15    1    1    2    0    0 -0.10778484183E+02 -0.25273588620E+01  0.12803770951E+03  0.12852772483E+03  0.17770000000E+01 0. -1.
         15    1    1    2    0    0  0.10983251259E+01  0.62170340431E-02  0.55563095365E+02  0.55602352938E+02  0.17770000000E+01 0. -1.
</event>
<event>
 6    1  0.1599106E-003  0.5040553E+03  0.7546771E-02  0.9390781E-01
        -11   -1    0    0    0    0  0.00000000000E+00  0.00000000000E+00  0.50000000000E+03  0.50000000000E+03  0.00000000000E+00 0.  1.
         11   -1    0    0    0    0 -0.00000000000E+00 -0.00000000000E+00 -0.50000000000E+03  0.50000000000E+03  0.00000000000E+00 0.  1.
        -11    1    1    2    0    0  0.75697558107E+01  0.12979753720E+02  0.49571700255E+03  0.49594467617E+03  0.00000000000E+00 0.  1.
         11    1    1    2    0    0 -0.27600768911E+01 -0.52950454749E+01 -0.30956522299E+03  0.30962280733E+03  0.00000000000E+00 0.  1.
        -15    1    1    2    0    0  0.18693792703E+02 -0.22624398078E+00 -0.14654348412E+03  0.14774186793E+03  0.17770000000E+01 0.  1.
         15    1    1    2    0    0 -0.23503471623E+02 -0.74584642647E+01 -0.39608295432E+02  0.46690648566E+02  0.17770000000E+01 0. -1.
</event>
<event>
 6    1  0.1599106E-003  0.5008176E+03  0.7546771E-02  0.9397982E-01
        -11   -1    0    0    0    0  0.00000000000E+00  0.00000000000E+00  0.50000000000E+03  0.50000000000E+03  0.00000000000E+00 0. -1.
         11   -1    0    0    0    0 -0.00000000000E+00 -0.00000000000E+00 -0.50000000000E+03  0.50000000000E+03  0.00000000000E+00 0. -1.
        -11    1    1    2    0    0 -0.11634186686E+02  0.79276053522E+01  0.14730590699E+03  0.14797713155E+03  0.00000000000E+00 0. -1.
         11    1    1    2    0    0  0.84741696591E+01 -0.40131784462E+01 -0.49909428230E+03  0.49918235123E+03  0.00000000000E+00 0. -1.
        -15    1    1    2    0    0 -0.69366532671E+01  0.84756510354E+01  0.15436013920E+03  0.15475840566E+03  0.17770000000E+01 0. -1.
         15    1    1    2    0    0  0.10096670294E+02 -0.12390077941E+02  0.19742823610E+03  0.19808211156E+03  0.17770000000E+01 0.  1.
</event>
<event>
 6    1  0.1599106E-003  0.5009189E+03  0.7546771E-02  0.9397756E-01
        -11   -1    0    0    0    0  0.00000000000E+00  0.00000000000E+00  0.50000000000E+03  0.50000000000E+03  0.00000000000E+00 0. -1.
         11   -1    0    0    0    0 -0.00000000000E+00 -0.00000000000E+00 -0.50000000000E+03  0.50000000000E+03  0.00000000000E+00 0.  1.
        -11    1    1    2    0    0  0.31958581914E+01 -0.72257349602E+01  0.39548170925E+03  0.39556062380E+03  0.00000000000E+00 0. -1.
         11    1    1    2    0    0 -0.15252658141E+01  0.12563031248E+02 -0.49892061306E+03  0.49908108993E+03  0.00000000000E+00 0.  1.
        -15    1    1    2    0    0  0.13326501030E+01 -0.28049254465E+01  0.25892423969E+01  0.44164995468E+01  0.17770000000E+01 0.  1.
         15    1    1    2    0    0 -0.30032424803E+01 -0.25323708416E+01  0.10084966142E+03  0.10094178671E+03  0.17770000000E+01 0. -1.
</event>
<event>
 6    1  0.1599106E-003  0.5004320E+03  0.7546771E-02  0.9398844E-01
        -11   -1    0    0    0    0  0.00000000000E+00  0.00000000000E+00  0.50000000000E+03  0.50000000000E+03  0.00000000000E+00 0.  1.
         11   -1    0    0    0    0 -0.00000000000E+00 -0.00000000000E+00 -0.50000000000E+03  0.50000000000E+03  0.00000000000E+00 0.  1.
        -11    1    1    2    0    0  0.10228585899E+02 -0.44865282864E+01  0.49944311781E+03  0.49956799420E+03  0.00000000000E+00 0.  1.
         11    1    1    2    0    0 -0.43438753770E+01  0.72876125901E+01 -0.38495041389E+03  0.38504389322E+03  0.00000000000E+00 0.  1.
        -15    1    1    2    0    0 -0.27744111249E+01  0.39029076782E+01 -0.74799955717E+02  0.74974136539E+02  0.17770000000E+01 0. -1.
         15    1    1    2    0    0 -0.31102993969E+01 -0.67039919819E+01 -0.39692748200E+02  0.40413976042E+02  0.17770000000E+01 0.  1.
</event>
<event>
 6    1  0.1599106E-003  0.5015356E+03  0.7546771E-02  0.9396380E-01
        -11   -1    0    0    0    0  0.00000000000E+00  0.00000000000E+00  0.50000000000E+03  0.50000000000E+03  0.00000000000E+00 0. -1.
         11   -1    0    0    0    0 -0.00000000000E+00 -0.00000000000E+00 -0.50000000000E+03  0.50000000000E+03  0.00000000000E+00 0.  1.
        -11    1    1    2    0    0 -0.16195817950E+01 -0.83029437050E+01  0.43587400762E+03  0.43595609004E+03  0.00000000000E+00 0. -1.
         11    1    1    2    0    0  0.25627349880E+00  0.69959530933E+01 -0.49841526858E+03  0.49846443102E+03  0.00000000000E+00 0.  1.
        -15    1    1    2    0    0  0.29736201071E+01  0.39559739757E+01  0.61680247194E+02  0.61903980240E+02  0.17770000000E+01 0. -1.
         15    1    1    2    0    0 -0.16103118108E+01 -0.26489833639E+01  0.86101376857E+00  0.36754987009E+01  0.17770000000E+01 0.  1.
</event>
<event>
 6    1  0.1599106E-003  0.5060628E+03  0.7546771E-02  0.9386345E-01
        -11   -1    0    0    0    0  0.00000000000E+00  0.00000000000E+00  0.50000000000E+03  0.50000000000E+03  0.00000000000E+00 0. -1.
         11   -1    0    0    0    0 -0.00000000000E+00 -0.00000000000E+00 -0.50000000000E+03  0.50000000000E+03  0.00000000000E+00 0.  1.
        -11    1    1    2    0    0 -0.84367786874E+01  0.29170203801E+01  0.49385652471E+03  0.49393719767E+03  0.00000000000E+00 0. -1.
         11    1    1    2    0    0  0.99125940856E+01 -0.15449287201E+02 -0.40744512094E+03  0.40785839034E+03  0.00000000000E+00 0.  1.
        -15    1    1    2    0    0  0.77415628388E+01  0.23872055770E+02 -0.26620999375E+02  0.36628434018E+02  0.17770000000E+01 0.  1.
         15    1    1    2    0    0 -0.92173782370E+01 -0.11339788949E+02 -0.59790404404E+02  0.61575977968E+02  0.17770000000E+01 0. -1.
</event>
<event>
 6    1  0.1599106E-003  0.5006629E+03  0.7546771E-02  0.9398328E-01
        -11   -1    0    0    0    0  0.00000000000E+00  0.00000000000E+00  0.50000000000E+03  0.50000000000E+03  0.00000000000E+00 0.  1.
         11   -1    0    0    0    0 -0.00000000000E+00 -0.00000000000E+00 -0.50000000000E+03  0.50000000000E+03  0.00000000000E+00 0. -1.
        -11    1    1    2    0    0  0.24686728024E+01 -0.60808400569E+01  0.13390604450E+03  0.13406677335E+03  0.00000000000E+00 0.  1.
         11    1    1    2    0    0  0.86972056335E+01 -0.26037378464E+01 -0.49925453255E+03  0.49933706963E+03  0.00000000000E+00 0. -1.
        -15    1    1    2    0    0 -0.10518078087E+01  0.10136534791E+02  0.31601729154E+03  0.31618656189E+03  0.17770000000E+01 0. -1.
         15    1    1    2    0    0 -0.10114070627E+02 -0.14519568875E+01  0.49331196509E+02  0.50409595133E+02  0.17770000000E+01 0.  1.
</event>
<event>
 6    1  0.1599106E-003  0.5140377E+03  0.7546771E-02  0.9368936E-01
        -11   -1    0    0    0    0  0.00000000000E+00  0.00000000000E+00  0.50000000000E+03  0.50000000000E+03  0.00000000000E+00 0.  1.
         11   -1    0    0    0    0 -0.00000000000E+00 -0.00000000000E+00 -0.50000000000E+03  0.50000000000E+03  0.00000000000E+00 0. -1.
        -11    1    1    2    0    0 -0.39519599159E+01  0.11546865096E+02  0.48580897598E+03  0.48596225083E+03  0.00000000000E+00 0.  1.
         11    1    1    2    0    0  0.61900675081E+01  0.19346517204E+01 -0.43237643244E+03  0.43242506766E+03  0.00000000000E+00 0. -1.
        -15    1    1    2    0    0  0.11195714883E+02 -0.92485214662E+01 -0.62880237974E+02  0.64559749363E+02  0.17770000000E+01 0. -1.
         15    1    1    2    0    0 -0.13433822475E+02 -0.42329953502E+01  0.94476944294E+01  0.17052932152E+02  0.17770000000E+01 0.  1.
</event>
<event>
 6    1  0.1599106E-003  0.5064204E+03  0.7546771E-02  0.9385557E-01
        -11   -1    0    0    0    0  0.00000000000E+00  0.00000000000E+00  0.50000000000E+03  0.50000000000E+03  0.00000000000E+00 0. -1.
         11   -1    0    0    0    0 -0.00000000000E+00 -0.00000000000E+00 -0.50000000000E+03  0.50000000000E+03  0.00000000000E+00 0. -1.
        -11    1    1    2    0    0  0.13195957771E+02  0.10575424176E+02  0.42760646698E+03  0.42794072428E+03  0.00000000000E+00 0. -1.
         11    1    1    2    0    0  0.90378808955E+01 -0.23274378520E+01 -0.49349134138E+03  0.49357958251E+03  0.00000000000E+00 0. -1.
        -15    1    1    2    0    0 -0.16940055082E+02 -0.91877616391E+00  0.67055918986E+02  0.69191499592E+02  0.17770000000E+01 0.  1.
         15    1    1    2    0    0 -0.52937835844E+01 -0.73292101603E+01 -0.11710445864E+01  0.92881936153E+01  0.17770000000E+01 0. -1.
</event>
<event>
 6    1  0.1599106E-003  0.5022676E+03  0.7546771E-02  0.9394750E-01
        -11   -1    0    0    0    0  0.00000000000E+00  0.00000000000E+00  0.50000000000E+03  0.50000000000E+03  0.00000000000E+00 0. -1.
         11   -1    0    0    0    0 -0.00000000000E+00 -0.00000000000E+00 -0.50000000000E+03  0.50000000000E+03  0.00000000000E+00 0. -1.
        -11    1    1    2    0    0 -0.56311604030E+01  0.39860675662E+01  0.32560147482E+03  0.32567456012E+03  0.00000000000E+00 0. -1.
         11    1    1    2    0    0  0.24166419072E+02  0.69897292196E+01 -0.49709623123E+03  0.49773239319E+03  0.00000000000E+00 0. -1.
        -15    1    1    2    0    0 -0.66109046853E+01 -0.85811020005E+01  0.15783873480E+03  0.15821998390E+03  0.17770000000E+01 0.  1.
         15    1    1    2    0    0 -0.11924353984E+02 -0.23946947854E+01  0.13656021610E+02  0.18373062790E+02  0.17770000000E+01 0. -1.
</event>
<event>
 6    1  0.1599106E-003  0.5036186E+03  0.7546771E-02  0.9391749E-01
        -11   -1    0    0    0    0  0.00000000000E+00  0.00000000000E+00  0.50000000000E+03  0.50000000000E+03  0.00000000000E+00 0. -1.
         11   -1    0    0    0    0 -0.00000000000E+00 -0.00000000000E+00 -0.50000000000E+03  0.50000000000E+03  0.00000000000E+00 0.  1.
        -11    1    1    2    0    0 -0.92186042230E+01 -0.22812135177E+01  0.39360051913E+03  0.39371506862E+03  0.00000000000E+00 0. -1.
         11    1    1    2    0    0  0.10522407208E+01 -0.81455789569E+01 -0.49631343618E+03  0.49638139027E+03  0.00000000000E+00 0.  1.
        -15    1    1    2    0    0 -0.66641550633E+00  0.77639836737E+01  0.13495525143E+01  0.81057123747E+01  0.17770000000E+01 0. -1.
         15    1    1    2    0    0  0.88327790085E+01  0.26628088009E+01  0.10136336454E+03  0.10179782874E+03  0.17770000000E+01 0. -1.
</event>
<event>
 6    1  0.1599106E-003  0.5032081E+03  0.7546771E-02  0.9392660E-01
        -11   -1    0    0    0    0  0.00000000000E+00  0.00000000000E+00  0.50000000000E+03  0.50000000000E+03  0.00000000000E+00 0.  1.
         11   -1    0    0    0    0 -0.00000000000E+00 -0.00000000000E+00 -0.50000000000E+03  0.50000000000E+03  0.00000000000E+00 0.  1.
        -11    1    1    2    0    0  0.27979170555E+01  0.11196467521E+02  0.49665785151E+03  0.49679191891E+03  0.00000000000E+00 0.  1.
         11    1    1    2    0    0 -0.35618572505E+01 -0.58492211542E+01 -0.45420006542E+03  0.45425169195E+03  0.00000000000E+00 0.  1.
        -15    1    1    2    0    0 -0.21230858094E+01  0.81317989985E+01 -0.26173719837E+02  0.27547322690E+02  0.17770000000E+01 0. -1.
         15    1    1    2    0    0  0.28870260044E+01 -0.13479045365E+02 -0.16284066258E+02  0.21409066444E+02  0.17770000000E+01 0.  1.
</event>
<event>
 6    1  0.1599106E-003  0.5017782E+03  0.7546771E-02  0.9395840E-01
        -11   -1    0    0    0    0  0.00000000000E+00  0.00000000000E+00  0.50000000000E+03  0.50000000000E+03  0.00000000000E+00 0.  1.
         11   -1    0    0    0    0 -0.00000000000E+00 -0.00000000000E+00 -0.50000000000E+03  0.50000000000E+03  0.00000000000E+00 0. -1.
        -11    1    1    2    0    0 -0.70555785455E+01  0.14209002505E+02  0.49796914435E+03  0.49822178361E+03  0.00000000000E+00 0.  1.
         11    1    1    2    0    0 -0.37667607314E+01 -0.13556802740E+01 -0.16925355227E+03  0.16930088987E+03  0.00000000000E+00 0. -1.
        -15    1    1    2    0    0 -0.85360854539E+01  0.74248427651E-01 -0.25509086769E+03  0.25523984559E+03  0.17770000000E+01 0.  1.
         15    1    1    2    0    0  0.19358424731E+02 -0.12927570659E+02 -0.73624724385E+02  0.77237480933E+02  0.17770000000E+01 0. -1.
</event>
<event>
 6    1  0.1599106E-003  0.4866152E+03  0.7546771E-02  0.9430268E-01
        -11   -1    0    0    0    0  0.00000000000E+00  0.00000000000E+00  0.50000000000E+03  0.50000000000E+03  0.00000000000E+00 0. -1.
         11   -1    0    0    0    0 -0.00000000000E+00 -0.00000000000E+00 -0.50000000000E+03  0.50000000000E+03  0.00000000000E+00 0.  1.
        -11    1    1    2    0    0 -0.82236234310E+01  0.56536258062E+01  0.48857619009E+03  0.48867809956E+03  0.00000000000E+00 0. -1.
         11    1    1    2    0    0  0.34195186410E+01  0.87145680935E+01 -0.48458791887E+03  0.48467833448E+03  0.00000000000E+00 0.  1.
        -15    1    1    2    0    0  0.56221650540E+01 -0.32118759382E+01 -0.11312643303E+02  0.13155170635E+02  0.17770000000E+01 0.  1.
         15    1    1    2    0    0 -0.81806026390E+00 -0.11156317962E+02  0.73243720794E+01  0.13488395324E+02  0.17770000000E+01 0. -1.
</event>
<event>
 6    1  0.1599106E-003  0.5174469E+03  0.7546771E-02  0.9361596E-01
        -11   -1    0    0    0    0  0.00000000000E+00  0.00000000000E+00  0.50000000000E+03  0.50000000000E+03  0.00000000000E+00 0.  1.
         11   -1    0    0    0    0 -0.00000000000E+00 -0.00000000000E+00 -0.50000000000E+03  0.50000000000E+03  0.00000000000E+00 0. -1.
        -11    1    1    2    0    0 -0.97134441030E+01  0.28907787950E+01  0.48244670699E+03  0.48255313975E+03  0.00000000000E+00 0.  1.
         11    1    1    2    0    0  0.17813961172E+02  0.13243913059E+02 -0.46573917330E+03  0.46626785863E+03  0.00000000000E+00 0. -1.
        -15    1    1    2    0    0 -0.16345483132E+02  0.45909876140E+01  0.71163265403E+01  0.18494642968E+02  0.17770000000E+01 0. -1.
         15    1    1    2    0    0  0.82449660634E+01 -0.20725679468E+02 -0.23823860229E+02  0.32684358645E+02  0.17770000000E+01 0.  1.
</event>
<event>
 6    1  0.1599106E-003  0.5042280E+03  0.7546771E-02  0.9390399E-01
        -11   -1    0    0    0    0  0.00000000000E+00  0.00000000000E+00  0.50000000000E+03  0.50000000000E+03  0.00000000000E+00 0. -1.
         11   -1    0    0    0    0 -0.00000000000E+00 -0.00000000000E+00 -0.50000000000E+03  0.50000000000E+03  0.00000000000E+00 0.  1.
        -11    1    1    2    0    0  0.12160084004E+02  0.29674698411E+02  0.49473367750E+03  0.49577199096E+03  0.00000000000E+00 0. -1.
         11    1    1    2    0    0  0.50671245154E+01 -0.27304232099E+01 -0.34950814897E+03  0.34955554230E+03  0.00000000000E+00 0.  1.
        -15    1    1    2    0    0 -0.22604518924E+01  0.17494241852E+01 -0.93962446614E+02  0.94022705931E+02  0.17770000000E+01 0.  1.
         15    1    1    2    0    0 -0.14966756627E+02 -0.28693699386E+02 -0.51263081922E+02  0.60649760804E+02  0.17770000000E+01 0. -1.
</event>
<event>
 6    1  0.1599106E-003  0.4738024E+03  0.7546771E-02  0.9460416E-01
        -11   -1    0    0    0    0  0.00000000000E+00  0.00000000000E+00  0.50000000000E+03  0.50000000000E+03  0.00000000000E+00 0.  1.
         11   -1    0    0    0    0 -0.00000000000E+00 -0.00000000000E+00 -0.50000000000E+03  0.50000000000E+03  0.00000000000E+00 0.  1.
        -11    1    1    2    0    0  0.32652855671E+01 -0.60683732439E+01  0.47268344903E+03  0.47273367791E+03  0.00000000000E+00 0.  1.
         11    1    1    2    0    0 -0.67681266536E+01 -0.24210708116E+01 -0.47486363568E+03  0.47491803673E+03  0.00000000000E+00 0.  1.
        -15    1    1    2    0    0  0.22374589016E+02 -0.98207815984E+01 -0.50613557460E+01  0.25016895007E+02  0.17770000000E+01 0.  1.
         15    1    1    2    0    0 -0.18871747929E+02  0.18310225654E+02  0.72415423945E+01  0.27331390353E+02  0.17770000000E+01 0. -1.
</event>
<event>
 6    1  0.1599106E-003  0.5045565E+03  0.7546771E-02  0.9389671E-01
        -11   -1    0    0    0    0  0.00000000000E+00  0.00000000000E+00  0.50000000000E+03  0.50000000000E+03  0.00000000000E+00 0. -1.
         11   -1    0    0    0    0 -0.00000000000E+00 -0.00000000000E+00 -0.50000000000E+03  0.50000000000E+03  0.00000000000E+00 0.  1.
        -11    1    1    2    0    0  0.38041362567E+01 -0.16803597430E+02  0.49514381424E+03  0.49544346713E+03  0.00000000000E+00 0. -1.
         11    1    1    2    0    0 -0.10636508177E-01  0.62880812754E+01 -0.44437112903E+03  0.44441561673E+03  0.00000000000E+00 0.  1.
        -15    1    1    2    0    0  0.10146982322E+02 -0.35809069858E+01 -0.10125953284E+02  0.14882096760E+02  0.17770000000E+01 0. -1.
         15    1    1    2    0    0 -0.13940482070E+02  0.14096423141E+02 -0.40646731936E+02  0.45258819381E+02  0.17770000000E+01 0.  1.
</event>
<event>
 6    1  0.1599106E-003  0.5007638E+03  0.7546771E-02  0.9398102E-01
        -11   -1    0    0    0    0  0.00000000000E+00  0.00000000000E+00  0.50000000000E+03  0.50000000000E+03  0.00000000000E+00 0. -1.
         11   -1    0    0    0    0 -0.00000000000E+00 -0.00000000000E+00 -0.50000000000E+03  0.50000000000E+03  0.00000000000E+00 0. -1.
        -11    1    1    2    0    0 -0.55734179568E+01  0.13214128835E+02  0.49903017069E+03  0.49923620406E+03  0.00000000000E+00 0. -1.
         11    1    1    2    0    0  0.31923991800E+01  0.15421139355E+01 -0.20297625594E+03  0.20300721663E+03  0.00000000000E+00 0. -1.
        -15    1    1    2    0    0 -0.94161726256E+00 -0.13370930502E+02 -0.53923818999E+02  0.55593204711E+02  0.17770000000E+01 0.  1.
         15    1    1    2    0    0  0.33226360393E+01 -0.13853122685E+01 -0.24213009575E+03  0.24216337460E+03  0.17770000000E+01 0. -1.
</event>
<event>
 6    1  0.1599106E-003  0.5008524E+03  0.7546771E-02  0.9397904E-01
        -11   -1    0    0    0    0  0.00000000000E+00  0.00000000000E+00  0.50000000000E+03  0.50000000000E+03  0.00000000000E+00 0. -1.
         11   -1    0    0    0    0 -0.00000000000E+00 -0.00000000000E+00 -0.50000000000E+03  0.50000000000E+03  0.00000000000E+00 0.  1.
        -11    1    1    2    0    0 -0.78283895586E+01 -0.59719099351E+01  0.49905047777E+03  0.49914760017E+03  0.00000000000E+00 0. -1.
         11    1    1    2    0    0  0.81336442667E+01  0.37238694677E+01 -0.37505436976E+03  0.37516103696E+03  0.00000000000E+00 0.  1.
        -15    1    1    2    0    0  0.59498995222E+01  0.50371385890E+01 -0.21291974395E+02  0.22743789748E+02  0.17770000000E+01 0.  1.
         15    1    1    2    0    0 -0.62551542303E+01 -0.27890981216E+01 -0.10270413361E+03  0.10294757313E+03  0.17770000000E+01 0. -1.
</event>
<event>
 6    1  0.1599106E-003  0.4919082E+03  0.7546771E-02  0.9418100E-01
        -11   -1    0    0    0    0  0.00000000000E+00  0.00000000000E+00  0.50000000000E+03  0.50000000000E+03  0.00000000000E+00 0. -1.
         11   -1    0    0    0    0 -0.00000000000E+00 -0.00000000000E+00 -0.50000000000E+03  0.50000000000E+03  0.00000000000E+00 0. -1.
        -11    1    1    2    0    0  0.34275784022E+01  0.10080968459E+02  0.49255996418E+03  0.49267503745E+03  0.00000000000E+00 0. -1.
         11    1    1    2    0    0 -0.11535644237E+02  0.14986354082E+01 -0.49110614762E+03  0.49124389587E+03  0.00000000000E+00 0. -1.
        -15    1    1    2    0    0  0.12830992917E+01 -0.53898596140E+01  0.18927945393E+01  0.61186052838E+01  0.17770000000E+01 0. -1.
         15    1    1    2    0    0  0.68249665436E+01 -0.61897442530E+01 -0.33466110909E+01  0.99624613943E+01  0.17770000000E+01 0.  1.
</event>
<event>
 6    1  0.1599106E-003  0.5055148E+03  0.7546771E-02  0.9387554E-01
        -11   -1    0    0    0    0  0.00000000000E+00  0.00000000000E+00  0.50000000000E+03  0.50000000000E+03  0.00000000000E+00 0.  1.
         11   -1    0    0    0    0 -0.00000000000E+00 -0.00000000000E+00 -0.50000000000E+03  0.50000000000E+03  0.00000000000E+00 0. -1.
        -11    1    1    2    0    0  0.12277675226E+02  0.77400820065E+01  0.49427213292E+03  0.49448517830E+03  0.00000000000E+00 0.  1.
         11    1    1    2    0    0 -0.79978542256E+01 -0.37772324040E+01 -0.45408730873E+03  0.45417344386E+03  0.00000000000E+00 0. -1.
        -15    1    1    2    0    0 -0.51074895760E+01  0.22818724716E+01  0.37215104165E+01  0.69498748569E+01  0.17770000000E+01 0. -1.
         15    1    1    2    0    0  0.82766857598E+00 -0.62447220740E+01 -0.43906334612E+02  0.44391502983E+02  0.17770000000E+01 0.  1.
</event>
<event>
 6    1  0.1599106E-003  0.5010689E+03  0.7546771E-02  0.9397421E-01
        -11   -1    0    0    0    0  0.00000000000E+00  0.00000000000E+00  0.50000000000E+03  0.50000000000E+03  0.00000000000E+00 0.  1.
         11   -1    0    0    0    0 -0.00000000000E+00 -0.00000000000E+00 -0.50000000000E+03  0.50000000000E+03  0.00000000000E+00 0.  1.
        -11    1    1    2    0    0  0.31560172914E+01 -0.85532899486E+00  0.11840411437E+03  0.11844925636E+03  0.00000000000E+00 0.  1.
         11    1    1    2    0    0  0.13361801694E+02  0.11104556238E+02 -0.49862852343E+03  0.49893111077E+03  0.00000000000E+00 0.  1.
        -15    1    1    2    0    0  0.50800557523E+01 -0.17584598582E+02  0.22041946638E+03  0.22118527068E+03  0.17770000000E+01 0. -1.
         15    1    1    2    0    0 -0.21597874738E+02  0.73353713391E+01  0.15980494267E+03  0.16143436219E+03  0.17770000000E+01 0.  1.
</event>
<event>
 6    1  0.8680752E-003  0.5124420E+03  0.7546771E-02  0.9372392E-01
        -11   -1    0    0    0    0  0.00000000000E+00  0.00000000000E+00  0.50000000000E+03  0.50000000000E+03  0.00000000000E+00 0.  1.
         11   -1    0    0    0    0 -0.00000000000E+00 -0.00000000000E+00 -0.50000000000E+03  0.50000000000E+03  0.00000000000E+00 0.  1.
        -11    1    1    2    0    0  0.50629264143E+00  0.51331597932E+01  0.38055786331E+03  0.38059281784E+03  0.00000000000E+00 0.  1.
         11    1    1    2    0    0  0.90237309374E+01 -0.62824237947E+02 -0.48340925805E+03  0.48755802051E+03  0.00000000000E+00 0.  1.
        -15    1    1    2    0    0  0.57774268899E+01 -0.21823080065E+01  0.50296433139E+02  0.50705325610E+02  0.17770000000E+01 0. -1.
         15    1    1    2    0    0 -0.15307450469E+02  0.59873386161E+02  0.52554961598E+02  0.81143836043E+02  0.17770000000E+01 0.  1.
</event>
<event>
 6    1  0.1599106E-003  0.5034668E+03  0.7546771E-02  0.9392086E-01
        -11   -1    0    0    0    0  0.00000000000E+00  0.00000000000E+00  0.50000000000E+03  0.50000000000E+03  0.00000000000E+00 0.  1.
         11   -1    0    0    0    0 -0.00000000000E+00 -0.00000000000E+00 -0.50000000000E+03  0.50000000000E+03  0.00000000000E+00 0.  1.
        -11    1    1    2    0    0 -0.95099955471E+01  0.16107512873E+01  0.49643948816E+03  0.49653318110E+03  0.00000000000E+00 0.  1.
         11    1    1    2    0    0 -0.58712648022E+01  0.36142043489E+01 -0.47261491986E+03  0.47266520572E+03  0.00000000000E+00 0.  1.
        -15    1    1    2    0    0  0.57812489619E+01 -0.40266906216E+01 -0.17900782092E+02  0.19319234080E+02  0.17770000000E+01 0.  1.
         15    1    1    2    0    0  0.96000113874E+01 -0.11982650146E+01 -0.59237862039E+01  0.11482379095E+02  0.17770000000E+01 0.  1.
</event>
<event>
 6    1  0.1599106E-003  0.5009019E+03  0.7546771E-02  0.9397794E-01
        -11   -1    0    0    0    0  0.00000000000E+00  0.00000000000E+00  0.50000000000E+03  0.50000000000E+03  0.00000000000E+00 0. -1.
         11   -1    0    0    0    0 -0.00000000000E+00 -0.00000000000E+00 -0.50000000000E+03  0.50000000000E+03  0.00000000000E+00 0.  1.
        -11    1    1    2    0    0 -0.45751136884E+01 -0.10152710366E+01  0.93376838765E+02  0.93494365917E+02  0.00000000000E+00 0. -1.
         11    1    1    2    0    0 -0.59086706216E+01 -0.64953953899E+01 -0.49902084092E+03  0.49909808878E+03  0.00000000000E+00 0.  1.
        -15    1    1    2    0    0  0.37529287702E+01  0.33262481375E+01  0.38740761288E+03  0.38744414391E+03  0.17770000000E+01 0. -1.
         15    1    1    2    0    0  0.67308555398E+01  0.41844182890E+01  0.18236389272E+02  0.19963401398E+02  0.17770000000E+01 0. -1.
</event>
<event>
 6    1  0.1599106E-003  0.5032527E+03  0.7546771E-02  0.9392561E-01
        -11   -1    0    0    0    0  0.00000000000E+00  0.00000000000E+00  0.50000000000E+03  0.50000000000E+03  0.00000000000E+00 0. -1.
         11   -1    0    0    0    0 -0.00000000000E+00 -0.00000000000E+00 -0.50000000000E+03  0.50000000000E+03  0.00000000000E+00 0. -1.
        -11    1    1    2    0    0 -0.54771847144E+01  0.46056312639E+01  0.49669578859E+03  0.49674733799E+03  0.00000000000E+00 0. -1.
         11    1    1    2    0    0 -0.42013080045E+01  0.63755992345E+01 -0.37987322358E+03  0.37994995097E+03  0.00000000000E+00 0. -1.
        -15    1    1    2    0    0  0.47026502605E+01 -0.62237054072E+01 -0.19820434718E+01  0.82423087659E+01  0.17770000000E+01 0. -1.
         15    1    1    2    0    0  0.49758424584E+01 -0.47575250911E+01 -0.11484052154E+03  0.11506040227E+03  0.17770000000E+01 0.  1.
</event>
<event>
 6    1  0.1599106E-003  0.5020333E+03  0.7546771E-02  0.9395271E-01
        -11   -1    0    0    0    0  0.00000000000E+00  0.00000000000E+00  0.50000000000E+03  0.50000000000E+03  0.00000000000E+00 0.  1.
         11   -1    0    0    0    0 -0.00000000000E+00 -0.00000000000E+00 -0.50000000000E+03  0.50000000000E+03  0.00000000000E+00 0. -1.
        -11    1    1    2    0    0 -0.62215211178E+01 -0.35254629708E+01  0.46707264699E+03  0.46712738496E+03  0.00000000000E+00 0.  1.
         11    1    1    2    0    0 -0.62251099735E+01  0.39853887673E+01 -0.49791182833E+03  0.49796668975E+03  0.00000000000E+00 0. -1.
        -15    1    1    2    0    0  0.84670584637E+01 -0.10446424000E+01  0.28742121497E+02  0.30034141139E+02  0.17770000000E+01 0.  1.
         15    1    1    2    0    0  0.39795726277E+01  0.58471660346E+00  0.20970598379E+01  0.48717841464E+01  0.17770000000E+01 0. -1.
</event>
<event>
 6    1  0.1599106E-003  0.5007848E+03  0.7546771E-02  0.9398055E-01
        -11   -1    0    0    0    0  0.00000000000E+00  0.00000000000E+00  0.50000000000E+03  0.50000000000E+03  0.00000000000E+00 0.  1.
         11   -1    0    0    0    0 -0.00000000000E+00 -0.00000000000E+00 -0.50000000000E+03  0.50000000000E+03  0.00000000000E+00 0.  1.
        -11    1    1    2    0    0  0.69486716203E+01 -0.60561891580E+00  0.49916650745E+03  0.49921523712E+03  0.00000000000E+00 0.  1.
         11    1    1    2    0    0  0.60163987415E+01 -0.65959791690E+01 -0.39022082595E+03  0.39032293937E+03  0.00000000000E+00 0.  1.
        -15    1    1    2    0    0 -0.12351730275E+02  0.19116484337E+01 -0.75681038700E+02  0.76726768394E+02  0.17770000000E+01 0. -1.
         15    1    1    2    0    0 -0.61334008655E+00  0.52899496511E+01 -0.33264642803E+02  0.33735055109E+02  0.17770000000E+01 0.  1.
</event>
<event>
 6    1  0.1599106E-003  0.4963004E+03  0.7546771E-02  0.9408126E-01
        -11   -1    0    0    0    0  0.00000000000E+00  0.00000000000E+00  0.50000000000E+03  0.50000000000E+03  0.00000000000E+00 0. -1.
         11   -1    0    0    0    0 -0.00000000000E+00 -0.00000000000E+00 -0.50000000000E+03  0.50000000000E+03  0.00000000000E+00 0. -1.
        -11    1    1    2    0    0 -0.12800087640E+02 -0.57784457856E+01  0.49884512209E+03  0.49904277223E+03  0.00000000000E+00 0. -1.
         11    1    1    2    0    0  0.53907757386E+00  0.13940053453E+01 -0.90337104947E+01  0.91565157585E+01  0.00000000000E+00 0. -1.
        -15    1    1    2    0    0  0.23638517212E+02 -0.85290670794E+01 -0.35331995780E+03  0.35421698829E+03  0.17770000000E+01 0. -1.
         15    1    1    2    0    0 -0.11377507145E+02  0.12913507520E+02 -0.13649145380E+03  0.13758372372E+03  0.17770000000E+01 0.  1.
</event>
<event>
 6    1  0.1599106E-003  0.5031875E+03  0.7546771E-02  0.9392706E-01
        -11   -1    0    0    0    0  0.00000000000E+00  0.00000000000E+00  0.50000000000E+03  0.50000000000E+03  0.00000000000E+00 0. -1.
         11   -1    0    0    0    0 -0.00000000000E+00 -0.00000000000E+00 -0.50000000000E+03  0.50000000000E+03  0.00000000000E+00 0. -1.
        -11    1    1    2    0    0  0.93795467094E+01  0.73306071741E+00  0.78032755706E+02  0.78597864077E+02  0.00000000000E+00 0. -1.
         11    1    1    2    0    0  0.43314727674E+02  0.13709441976E+02 -0.49473081944E+03  0.49681253822E+03  0.00000000000E+00 0. -1.
        -15    1    1    2    0    0 -0.77561953720E+01  0.15428443430E+02  0.34751471355E+02  0.38846079901E+02  0.17770000000E+01 0.  1.
         15    1    1    2    0    0 -0.44938079012E+02 -0.29870946123E+02  0.38194659238E+03  0.38574351780E+03  0.17770000000E+01 0. -1.
</event>
<event>
 6    1  0.1599106E-003  0.5292601E+03  0.7546771E-02  0.9336618E-01
        -11   -1    0    0    0    0  0.00000000000E+00  0.00000000000E+00  0.50000000000E+03  0.50000000000E+03  0.00000000000E+00 0.  1.
         11   -1    0    0    0    0 -0.00000000000E+00 -0.00000000000E+00 -0.50000000000E+03  0.50000000000E+03  0.00000000000E+00 0. -1.
        -11    1    1    2    0    0  0.92409673316E+01  0.13311030341E+02  0.23299141497E+03  0.23355423022E+03  0.00000000000E+00 0.  1.
         11    1    1    2    0    0  0.10301320211E+02  0.71989636514E+01 -0.47057209040E+03  0.47073987991E+03  0.00000000000E+00 0. -1.
        -15    1    1    2    0    0 -0.73687314687E+01 -0.88747431055E+01 -0.27609830199E+02  0.29975318535E+02  0.17770000000E+01 0.  1.
         15    1    1    2    0    0 -0.12173556074E+02 -0.11635250887E+02  0.26519050563E+03  0.26573057133E+03  0.17770000000E+01 0.  1.
</event>
<event>
 6    1  0.1599106E-003  0.5165399E+03  0.7546771E-02  0.9363542E-01
        -11   -1    0    0    0    0  0.00000000000E+00  0.00000000000E+00  0.50000000000E+03  0.50000000000E+03  0.00000000000E+00 0. -1.
         11   -1    0    0    0    0 -0.00000000000E+00 -0.00000000000E+00 -0.50000000000E+03  0.50000000000E+03  0.00000000000E+00 0. -1.
        -11    1    1    2    0    0 -0.10165360835E+02 -0.16352867893E+02  0.48307649293E+03  0.48346007992E+03  0.00000000000E+00 0. -1.
         11    1    1    2    0    0 -0.68445060144E+01  0.23181385794E+01 -0.40059758294E+03  0.40066275655E+03  0.00000000000E+00 0. -1.
        -15    1    1    2    0    0  0.13877388989E+02  0.11643322178E+02 -0.98045853091E+02  0.99721090617E+02  0.17770000000E+01 0. -1.
         15    1    1    2    0    0  0.31324778607E+01  0.23914071354E+01  0.15566943097E+02  0.16156072914E+02  0.17770000000E+01 0.  1.
</event>
<event>
 6    1  0.1599106E-003  0.5020924E+03  0.7546771E-02  0.9395140E-01
        -11   -1    0    0    0    0  0.00000000000E+00  0.00000000000E+00  0.50000000000E+03  0.50000000000E+03  0.00000000000E+00 0. -1.
         11   -1    0    0    0    0 -0.00000000000E+00 -0.00000000000E+00 -0.50000000000E+03  0.50000000000E+03  0.00000000000E+00 0.  1.
        -11    1    1    2    0    0 -0.94777520768E+01  0.77479876839E+01  0.49775712367E+03  0.49790763527E+03  0.00000000000E+00 0. -1.
         11    1    1    2    0    0  0.12241916098E+02 -0.27834194540E+01 -0.45888686608E+03  0.45905856685E+03  0.00000000000E+00 0.  1.
        -15    1    1    2    0    0  0.18409866361E+01 -0.74760356031E+01 -0.66110192772E+01  0.10302603798E+02  0.17770000000E+01 0.  1.
         15    1    1    2    0    0 -0.46051506572E+01  0.25114673732E+01 -0.32259238310E+02  0.32731194086E+02  0.17770000000E+01 0. -1.
</event>
<event>
 6    1  0.1599106E-003  0.5024234E+03  0.7546771E-02  0.9394403E-01
        -11   -1    0    0    0    0  0.00000000000E+00  0.00000000000E+00  0.50000000000E+03  0.50000000000E+03  0.00000000000E+00 0. -1.
         11   -1    0    0    0    0 -0.00000000000E+00 -0.00000000000E+00 -0.50000000000E+03  0.50000000000E+03  0.00000000000E+00 0.  1.
        -11    1    1    2    0    0 -0.18265219039E+02 -0.94437045376E+01  0.49715152437E+03  0.49757656694E+03  0.00000000000E+00 0. -1.
         11    1    1    2    0    0  0.88674151929E+01 -0.13709532667E+01 -0.39830547759E+03  0.39840653112E+03  0.00000000000E+00 0.  1.
        -15    1    1    2    0    0  0.15961064617E+02  0.14223859471E+02 -0.47620633168E+02  0.52229840075E+02  0.17770000000E+01 0. -1.
         15    1    1    2    0    0 -0.65632607713E+01 -0.34092016667E+01 -0.51225413613E+02  0.51787061866E+02  0.17770000000E+01 0.  1.
</event>
<event>
 6    1  0.1599106E-003  0.5004273E+03  0.7546771E-02  0.9398854E-01
        -11   -1    0    0    0    0  0.00000000000E+00  0.00000000000E+00  0.50000000000E+03  0.50000000000E+03  0.00000000000E+00 0. -1.
         11   -1    0    0    0    0 -0.00000000000E+00 -0.00000000000E+00 -0.50000000000E+03  0.50000000000E+03  0.00000000000E+00 0.  1.
        -11    1    1    2    0    0  0.57605937328E+00  0.66927441251E+01  0.33520053609E+03  0.33526783930E+03  0.00000000000E+00 0. -1.
         11    1    1    2    0    0 -0.42481904876E+01  0.58773329732E+01 -0.49952002964E+03  0.49957266756E+03  0.00000000000E+00 0.  1.
        -15    1    1    2    0    0  0.57410965735E+01 -0.12135820909E+02  0.14684286233E+03  0.14746600383E+03  0.17770000000E+01 0. -1.
         15    1    1    2    0    0 -0.20689654591E+01 -0.43425618881E+00  0.17476631211E+02  0.17693489310E+02  0.17770000000E+01 0.  1.
</event>
<event>
 6    1  0.1599106E-003  0.5011131E+03  0.7546771E-02  0.9397322E-01
        -11   -1    0    0    0    0  0.00000000000E+00  0.00000000000E+00  0.50000000000E+03  0.50000000000E+03  0.00000000000E+00 0.  1.
         11   -1    0    0    0    0 -0.00000000000E+00 -0.00000000000E+00 -0.50000000000E+03  0.50000000000E+03  0.00000000000E+00 0. -1.
        -11    1    1    2    0    0  0.24532590355E+01  0.40326303053E+01  0.31110129312E+03  0.31113710028E+03  0.00000000000E+00 0.  1.
         11    1    1    2    0    0 -0.68117048416E+01 -0.53279705176E+01 -0.49881190407E+03  0.49888686316E+03  0.00000000000E+00 0. -1.
        -15    1    1    2    0    0  0.41956558570E+01 -0.35398880687E+01  0.64974121647E+01  0.86895586451E+01  0.17770000000E+01 0.  1.
         15    1    1    2    0    0  0.16278994909E+00  0.48352282810E+01  0.18121319878E+03  0.18128647792E+03  0.17770000000E+01 0. -1.
</event>
<event>
 6    1  0.1599106E-003  0.5003336E+03  0.7546771E-02  0.9399064E-01
        -11   -1    0    0    0    0  0.00000000000E+00  0.00000000000E+00  0.50000000000E+03  0.50000000000E+03  0.00000000000E+00 0.  1.
         11   -1    0    0    0    0 -0.00000000000E+00 -0.00000000000E+00 -0.50000000000E+03  0.50000000000E+03  0.00000000000E+00 0. -1.
        -11    1    1    2    0    0 -0.75627823848E+01 -0.22357006357E+00  0.49960909997E+03  0.49966638714E+03  0.00000000000E+00 0.  1.
         11    1    1    2    0    0  0.23977376887E+01 -0.69792774896E+01 -0.20571354552E+03  0.20584587018E+03  0.00000000000E+00 0. -1.
        -15    1    1    2    0    0  0.52622531700E+01  0.16065196022E+01 -0.31484914634E+02  0.32011400972E+02  0.17770000000E+01 0.  1.
         15    1    1    2    0    0 -0.97208473965E-01  0.55963279510E+01 -0.26241063982E+03  0.26247634171E+03  0.17770000000E+01 0. -1.
</event>
<event>
 6    1  0.1599106E-003  0.5069793E+03  0.7546771E-02  0.9384327E-01
        -11   -1    0    0    0    0  0.00000000000E+00  0.00000000000E+00  0.50000000000E+03  0.50000000000E+03  0.00000000000E+00 0. -1.
         11   -1    0    0    0    0 -0.00000000000E+00 -0.00000000000E+00 -0.50000000000E+03  0.50000000000E+03  0.00000000000E+00 0.  1.
        -11    1    1    2    0    0 -0.78289682521E+01  0.55408319365E+01  0.47056406456E+03  0.47066180259E+03  0.00000000000E+00 0. -1.
         11    1    1    2    0    0 -0.32050247763E+01  0.96243754487E+01 -0.49291630093E+03  0.49302066946E+03  0.00000000000E+00 0.  1.
        -15    1    1    2    0    0  0.16908855206E+02 -0.11913700125E+02  0.20391910499E+02  0.29100401678E+02  0.17770000000E+01 0.  1.
         15    1    1    2    0    0 -0.58748621771E+01 -0.32515072604E+01  0.19603258718E+01  0.72171262694E+01  0.17770000000E+01 0. -1.
</event>
<event>
 6    1  0.1599106E-003  0.5059879E+03  0.7546771E-02  0.9386510E-01
        -11   -1    0    0    0    0  0.00000000000E+00  0.00000000000E+00  0.50000000000E+03  0.50000000000E+03  0.00000000000E+00 0. -1.
         11   -1    0    0    0    0 -0.00000000000E+00 -0.00000000000E+00 -0.50000000000E+03  0.50000000000E+03  0.00000000000E+00 0. -1.
        -11    1    1    2    0    0  0.99500094635E+01  0.50319603152E+01  0.44749568814E+03  0.44763457666E+03  0.00000000000E+00 0. -1.
         11    1    1    2    0    0  0.17643814327E+02 -0.43208941697E+01 -0.49367797565E+03  0.49401206255E+03  0.00000000000E+00 0. -1.
        -15    1    1    2    0    0 -0.97567379800E+01  0.49322074456E+01  0.33369230741E+01  0.11567773809E+02  0.17770000000E+01 0. -1.
         15    1    1    2    0    0 -0.17837085811E+02 -0.56432735910E+01  0.42845364428E+02  0.46785586979E+02  0.17770000000E+01 0.  1.
</event>
<event>
 6    1  0.1599106E-003  0.5132272E+03  0.7546771E-02  0.9370690E-01
        -11   -1    0    0    0    0  0.00000000000E+00  0.00000000000E+00  0.50000000000E+03  0.50000000000E+03  0.00000000000E+00 0.  1.
         11   -1    0    0    0    0 -0.00000000000E+00 -0.00000000000E+00 -0.50000000000E+03  0.50000000000E+03  0.00000000000E+00 0. -1.
        -11    1    1    2    0    0 -0.63626200834E+02 -0.35516177227E+02  0.48128793596E+03  0.48677281105E+03  0.00000000000E+00 0.  1.
         11    1    1    2    0    0 -0.97471217813E+01 -0.29290448149E+01 -0.21912715432E+03  0.21936338675E+03  0.00000000000E+00 0. -1.
        -15    1    1    2    0    0 -0.23312559141E+01 -0.15383908059E+02  0.69976007338E-01  0.15660843111E+02  0.17770000000E+01 0.  1.
         15    1    1    2    0    0  0.75704578530E+02  0.53829130102E+02 -0.26223075765E+03  0.27820295909E+03  0.17770000000E+01 0. -1.
</event>
<event>
 6    1  0.1599106E-003  0.5084859E+03  0.7546771E-02  0.9381019E-01
        -11   -1    0    0    0    0  0.00000000000E+00  0.00000000000E+00  0.50000000000E+03  0.50000000000E+03  0.00000000000E+00 0. -1.
         11   -1    0    0    0    0 -0.00000000000E+00 -0.00000000000E+00 -0.50000000000E+03  0.50000000000E+03  0.00000000000E+00 0.  1.
        -11    1    1    2    0    0  0.44818948761E+01  0.10902885266E+02  0.49137267037E+03  0.49151405013E+03  0.00000000000E+00 0. -1.
         11    1    1    2    0    0 -0.13121769472E+02  0.13292533697E+02 -0.42872212295E+03  0.42912880467E+03  0.00000000000E+00 0.  1.
        -15    1    1    2    0    0 -0.87411160503E+01 -0.19151600094E+02 -0.56236531711E+02  0.60074088622E+02  0.17770000000E+01 0. -1.
         15    1    1    2    0    0  0.17380990646E+02 -0.50438188693E+01 -0.64140157080E+01  0.19283056582E+02  0.17770000000E+01 0.  1.
</event>
<event>
 6    1  0.1599106E-003  0.5061420E+03  0.7546771E-02  0.9386171E-01
        -11   -1    0    0    0    0  0.00000000000E+00  0.00000000000E+00  0.50000000000E+03  0.50000000000E+03  0.00000000000E+00 0.  1.
         11   -1    0    0    0    0 -0.00000000000E+00 -0.00000000000E+00 -0.50000000000E+03  0.50000000000E+03  0.00000000000E+00 0.  1.
        -11    1    1    2    0    0 -0.10544221502E+02 -0.36937517264E+01  0.49373165546E+03  0.49385804844E+03  0.00000000000E+00 0.  1.
         11    1    1    2    0    0  0.26066659654E+01 -0.59721397817E+01 -0.27150310743E+03  0.27158129263E+03  0.00000000000E+00 0.  1.
        -15    1    1    2    0    0 -0.17490061242E+02 -0.11395991743E+02 -0.17856557979E+03  0.17979041934E+03  0.17770000000E+01 0. -1.
         15    1    1    2    0    0  0.25427616779E+02  0.21061883251E+02 -0.43662968231E+02  0.54770239591E+02  0.17770000000E+01 0.  1.
</event>
<event>
 6    1  0.1599106E-003  0.5075243E+03  0.7546771E-02  0.9383129E-01
        -11   -1    0    0    0    0  0.00000000000E+00  0.00000000000E+00  0.50000000000E+03  0.50000000000E+03  0.00000000000E+00 0.  1.
         11   -1    0    0    0    0 -0.00000000000E+00 -0.00000000000E+00 -0.50000000000E+03  0.50000000000E+03  0.00000000000E+00 0. -1.
        -11    1    1    2    0    0  0.96295972330E+01 -0.12355325538E+02  0.49222652629E+03  0.49247572163E+03  0.00000000000E+00 0.  1.
         11    1    1    2    0    0  0.33760097816E+01  0.46874639622E+01 -0.39851263788E+03  0.39855450357E+03  0.00000000000E+00 0. -1.
        -15    1    1    2    0    0 -0.72096770663E+01  0.94702991779E+01  0.27125148432E+01  0.12336185622E+02  0.17770000000E+01 0.  1.
         15    1    1    2    0    0 -0.57959299483E+01 -0.18024376026E+01 -0.96426403251E+02  0.96633589182E+02  0.17770000000E+01 0. -1.
</event>
<event>
 6    1  0.1599106E-003  0.5137353E+03  0.7546771E-02  0.9369590E-01
        -11   -1    0    0    0    0  0.00000000000E+00  0.00000000000E+00  0.50000000000E+03  0.50000000000E+03  0.00000000000E+00 0. -1.
         11   -1    0    0    0    0 -0.00000000000E+00 -0.00000000000E+00 -0.50000000000E+03  0.50000000000E+03  0.00000000000E+00 0. -1.
        -11    1    1    2    0    0  0.12103989179E+02 -0.35954584149E+01  0.46134746276E+03  0.46152022196E+03  0.00000000000E+00 0. -1.
         11    1    1    2    0    0  0.11365271471E+01  0.15972597426E+02 -0.48600093882E+03  0.48626466877E+03  0.00000000000E+00 0. -1.
        -15    1    1    2    0    0 -0.26281025048E+01 -0.84122483422E+01  0.35385106059E+02  0.36509400224E+02  0.17770000000E+01 0.  1.
         15    1    1    2    0    0 -0.10612413822E+02 -0.39648906684E+01 -0.10731630002E+02  0.15705709046E+02  0.17770000000E+01 0. -1.
</event>
<event>
 6    1  0.1599106E-003  0.4721393E+03  0.7546771E-02  0.9464403E-01
        -11   -1    0    0    0    0  0.00000000000E+00  0.00000000000E+00  0.50000000000E+03  0.50000000000E+03  0.00000000000E+00 0.  1.
         11   -1    0    0    0    0 -0.00000000000E+00 -0.00000000000E+00 -0.50000000000E+03  0.50000000000E+03  0.00000000000E+00 0.  1.
        -11    1    1    2    0    0 -0.16182487195E+02 -0.10967347829E+02  0.47733282556E+03  0.47773296094E+03  0.00000000000E+00 0.  1.
         11    1    1    2    0    0  0.13485143198E+02 -0.22335055660E+02 -0.46646998425E+03  0.46719904752E+03  0.00000000000E+00 0.  1.
        -15    1    1    2    0    0 -0.87944917040E+01  0.34984197474E+02 -0.18967812659E+02  0.40794274148E+02  0.17770000000E+01 0.  1.
         15    1    1    2    0    0  0.11491835701E+02 -0.16817939840E+01  0.81049713451E+01  0.14273717395E+02  0.17770000000E+01 0. -1.
</event>
<event>
 6    1  0.1599106E-003  0.5029582E+03  0.7546771E-02  0.9393215E-01
        -11   -1    0    0    0    0  0.00000000000E+00  0.00000000000E+00  0.50000000000E+03  0.50000000000E+03  0.00000000000E+00 0.  1.
         11   -1    0    0    0    0 -0.00000000000E+00 -0.00000000000E+00 -0.50000000000E+03  0.50000000000E+03  0.00000000000E+00 0.  1.
        -11    1    1    2    0    0  0.13644102226E+02  0.55177433943E+01  0.36043956378E+03  0.36073991483E+03  0.00000000000E+00 0.  1.
         11    1    1    2    0    0  0.50528032388E+01  0.52287133237E+01 -0.49698861551E+03  0.49704180328E+03  0.00000000000E+00 0.  1.
        -15    1    1    2    0    0 -0.57444051845E+01 -0.61068448344E+00  0.15905490673E+01  0.62496961364E+01  0.17770000000E+01 0. -1.
         15    1    1    2    0    0 -0.12952500280E+02 -0.10135772235E+02  0.13495850266E+03  0.13596858575E+03  0.17770000000E+01 0.  1.
</event>
<event>
 6    1  0.1599106E-003  0.5169197E+03  0.7546771E-02  0.9362727E-01
        -11   -1    0    0    0    0  0.00000000000E+00  0.00000000000E+00  0.50000000000E+03  0.50000000000E+03  0.00000000000E+00 0.  1.
         11   -1    0    0    0    0 -0.00000000000E+00 -0.00000000000E+00 -0.50000000000E+03  0.50000000000E+03  0.00000000000E+00 0. -1.
        -11    1    1    2    0    0 -0.57500319820E+01  0.32885494045E+02  0.48192538306E+03  0.48308031777E+03  0.00000000000E+00 0.  1.
         11    1    1    2    0    0  0.10096731908E+02  0.11547567335E+01 -0.45115433572E+03  0.45126878033E+03  0.00000000000E+00 0. -1.
        -15    1    1    2    0    0 -0.38979730129E+01 -0.76969798623E+01  0.12300145686E+02  0.15129078144E+02  0.17770000000E+01 0.  1.
         15    1    1    2    0    0 -0.44872691329E+00 -0.26343270916E+02 -0.43071193018E+02  0.50521823754E+02  0.17770000000E+01 0. -1.
</event>
<event>
 6    1  0.1599106E-003  0.5016709E+03  0.7546771E-02  0.9396079E-01
        -11   -1    0    0    0    0  0.00000000000E+00  0.00000000000E+00  0.50000000000E+03  0.50000000000E+03  0.00000000000E+00 0.  1.
         11   -1    0    0    0    0 -0.00000000000E+00 -0.00000000000E+00 -0.50000000000E+03  0.50000000000E+03  0.00000000000E+00 0.  1.
        -11    1    1    2    0    0 -0.36791477399E+01  0.59349669129E+01  0.33761464521E+03  0.33768684994E+03  0.00000000000E+00 0.  1.
         11    1    1    2    0    0  0.15057836728E+01  0.14754529445E+02 -0.49810833010E+03  0.49832908006E+03  0.00000000000E+00 0.  1.
        -15    1    1    2    0    0 -0.21835688087E+01 -0.40143897866E+01  0.34686844450E+01  0.60060635095E+01  0.17770000000E+01 0.  1.
         15    1    1    2    0    0  0.43569328758E+01 -0.16675106571E+02  0.15702500044E+03  0.15797800649E+03  0.17770000000E+01 0. -1.
</event>
<event>
 6    1  0.1599106E-003  0.5009239E+03  0.7546771E-02  0.9397745E-01
        -11   -1    0    0    0    0  0.00000000000E+00  0.00000000000E+00  0.50000000000E+03  0.50000000000E+03  0.00000000000E+00 0.  1.
         11   -1    0    0    0    0 -0.00000000000E+00 -0.00000000000E+00 -0.50000000000E+03  0.50000000000E+03  0.00000000000E+00 0. -1.
        -11    1    1    2    0    0 -0.86813747874E+00 -0.43395506750E+01  0.27628384827E+03  0.27631929027E+03  0.00000000000E+00 0.  1.
         11    1    1    2    0    0  0.14239663314E+02 -0.16825983295E+01 -0.49887009431E+03  0.49907611659E+03  0.00000000000E+00 0. -1.
        -15    1    1    2    0    0 -0.47627047563E+01 -0.97213108853E+00  0.68964971268E+01  0.86225168640E+01  0.17770000000E+01 0. -1.
         15    1    1    2    0    0 -0.86088210789E+01  0.69942800930E+01  0.21568974892E+03  0.21598207628E+03  0.17770000000E+01 0.  1.
</event>
<event>
 6    1  0.1599106E-003  0.5008574E+03  0.7546771E-02  0.9397893E-01
        -11   -1    0    0    0    0  0.00000000000E+00  0.00000000000E+00  0.50000000000E+03  0.50000000000E+03  0.00000000000E+00 0. -1.
         11   -1    0    0    0    0 -0.00000000000E+00 -0.00000000000E+00 -0.50000000000E+03  0.50000000000E+03  0.00000000000E+00 0. -1.
        -11    1    1    2    0    0  0.28382996220E+01  0.87755505111E+01  0.44345674101E+03  0.44355264330E+03  0.00000000000E+00 0. -1.
         11    1    1    2    0    0 -0.68607032421E+01 -0.75999549788E+00 -0.49909482814E+03  0.49914255911E+03  0.00000000000E+00 0. -1.
        -15    1    1    2    0    0 -0.10614230353E+01 -0.18797631668E+01  0.34986725815E+02  0.35098274041E+02  0.17770000000E+01 0. -1.
         15    1    1    2    0    0  0.50838266553E+01 -0.61357918463E+01  0.20651361310E+02  0.22206523546E+02  0.17770000000E+01 0.  1.
</event>
<event>
 6    1  0.1599106E-003  0.5009782E+03  0.7546771E-02  0.9397624E-01
        -11   -1    0    0    0    0  0.00000000000E+00  0.00000000000E+00  0.50000000000E+03  0.50000000000E+03  0.00000000000E+00 0. -1.
         11   -1    0    0    0    0 -0.00000000000E+00 -0.00000000000E+00 -0.50000000000E+03  0.50000000000E+03  0.00000000000E+00 0. -1.
        -11    1    1    2    0    0 -0.21009316690E+02 -0.81767398330E+01  0.49851233156E+03  0.49902183838E+03  0.00000000000E+00 0. -1.
         11    1    1    2    0    0  0.19699062475E+01  0.58440797330E+01 -0.19644992592E+03  0.19654670486E+03  0.00000000000E+00 0. -1.
        -15    1    1    2    0    0  0.14510322364E+01 -0.41085311908E+01 -0.22693879019E+03  0.22698757179E+03  0.17770000000E+01 0. -1.
         15    1    1    2    0    0  0.17588378206E+02  0.64411912908E+01 -0.75123615450E+02  0.77443884978E+02  0.17770000000E+01 0.  1.
</event>
<event>
 6    1  0.1599106E-003  0.5218507E+03  0.7546771E-02  0.9352202E-01
        -11   -1    0    0    0    0  0.00000000000E+00  0.00000000000E+00  0.50000000000E+03  0.50000000000E+03  0.00000000000E+00 0.  1.
         11   -1    0    0    0    0 -0.00000000000E+00 -0.00000000000E+00 -0.50000000000E+03  0.50000000000E+03  0.00000000000E+00 0. -1.
        -11    1    1    2    0    0  0.33233147520E+01  0.67920773086E+01  0.47808955412E+03  0.47814934748E+03  0.00000000000E+00 0.  1.
         11    1    1    2    0    0 -0.49939419439E+01 -0.17018046056E+01 -0.34663936529E+03  0.34667951362E+03  0.00000000000E+00 0. -1.
        -15    1    1    2    0    0 -0.24291004776E+02 -0.19368404079E+02 -0.14068512176E+03  0.14408556209E+03  0.17770000000E+01 0.  1.
         15    1    1    2    0    0  0.25961631968E+02  0.14278131376E+02  0.92349329381E+01  0.31085576807E+02  0.17770000000E+01 0. -1.
</event>
<event>
 6    1  0.1599106E-003  0.5067973E+03  0.7546771E-02  0.9384727E-01
        -11   -1    0    0    0    0  0.00000000000E+00  0.00000000000E+00  0.50000000000E+03  0.50000000000E+03  0.00000000000E+00 0.  1.
         11   -1    0    0    0    0 -0.00000000000E+00 -0.00000000000E+00 -0.50000000000E+03  0.50000000000E+03  0.00000000000E+00 0. -1.
        -11    1    1    2    0    0  0.13605632622E+02 -0.13863197410E+02  0.49282009380E+03  0.49320274364E+03  0.00000000000E+00 0.  1.
         11    1    1    2    0    0  0.21522403540E+02 -0.10113742987E+02 -0.30319100540E+03  0.30412215869E+03  0.00000000000E+00 0. -1.
        -15    1    1    2    0    0 -0.31413382823E+02  0.76355682562E+01 -0.37196077994E+02  0.49313370095E+02  0.17770000000E+01 0.  1.
         15    1    1    2    0    0 -0.37146533392E+01  0.16341372141E+02 -0.15243301041E+03  0.15336172757E+03  0.17770000000E+01 0. -1.
</event>
<event>
 6    1  0.1599106E-003  0.5022981E+03  0.7546771E-02  0.9394682E-01
        -11   -1    0    0    0    0  0.00000000000E+00  0.00000000000E+00  0.50000000000E+03  0.50000000000E+03  0.00000000000E+00 0. -1.
         11   -1    0    0    0    0 -0.00000000000E+00 -0.00000000000E+00 -0.50000000000E+03  0.50000000000E+03  0.00000000000E+00 0. -1.
        -11    1    1    2    0    0 -0.13144206061E+02  0.75395392624E+01  0.17480694002E+03  0.17546247771E+03  0.00000000000E+00 0. -1.
         11    1    1    2    0    0 -0.37540589488E+01 -0.11814440669E+02 -0.49754746241E+03  0.49770186991E+03  0.00000000000E+00 0. -1.
        -15    1    1    2    0    0  0.18768140659E+02 -0.43082297208E+01  0.31300932362E+03  0.31360611975E+03  0.17770000000E+01 0. -1.
         15    1    1    2    0    0 -0.18698756498E+01  0.85831311271E+01  0.97311987703E+01  0.13229532622E+02  0.17770000000E+01 0.  1.
</event>
<event>
 6    1  0.2671519E-003  0.5587978E+03  0.7546771E-02  0.9277077E-01
        -11   -1    0    0    0    0  0.00000000000E+00  0.00000000000E+00  0.50000000000E+03  0.50000000000E+03  0.00000000000E+00 0.  1.
         11   -1    0    0    0    0 -0.00000000000E+00 -0.00000000000E+00 -0.50000000000E+03  0.50000000000E+03  0.00000000000E+00 0.  1.
        -11    1    1    2    0    0  0.20584453597E+02 -0.12302656379E+02  0.44055004067E+03  0.44120223641E+03  0.00000000000E+00 0.  1.
         11    1    1    2    0    0 -0.13277409206E+02 -0.54261596263E+01 -0.41604280687E+03  0.41628998301E+03  0.00000000000E+00 0.  1.
        -15    1    1    2    0    0  0.11566931607E+02  0.21129020892E+01 -0.80495510821E+02  0.81369178768E+02  0.17770000000E+01 0.  1.
         15    1    1    2    0    0 -0.18873975998E+02  0.15615913916E+02  0.55988277028E+02  0.61138601807E+02  0.17770000000E+01 0. -1.
</event>
<event>
 6    1  0.1599106E-003  0.3857564E+03  0.7546771E-02  0.9699448E-01
        -11   -1    0    0    0    0  0.00000000000E+00  0.00000000000E+00  0.50000000000E+03  0.50000000000E+03  0.00000000000E+00 0. -1.
         11   -1    0    0    0    0 -0.00000000000E+00 -0.00000000000E+00 -0.50000000000E+03  0.50000000000E+03  0.00000000000E+00 0. -1.
        -11    1    1    2    0    0  0.78946959566E+01 -0.10164301866E+01  0.38753763953E+03  0.38761937697E+03  0.00000000000E+00 0. -1.
         11    1    1    2    0    0 -0.80590547111E+02 -0.58373749489E+02 -0.37673770251E+03  0.38965834702E+03  0.00000000000E+00 0. -1.
        -15    1    1    2    0    0 -0.33330702257E+02  0.64115474992E+02 -0.70472928612E+02  0.10095207399E+03  0.17770000000E+01 0. -1.
         15    1    1    2    0    0  0.10602655341E+03 -0.47252953166E+01  0.59672991592E+02  0.12177020201E+03  0.17770000000E+01 0.  1.
</event>
<event>
 6    1  0.1599106E-003  0.5006185E+03  0.7546771E-02  0.9398427E-01
        -11   -1    0    0    0    0  0.00000000000E+00  0.00000000000E+00  0.50000000000E+03  0.50000000000E+03  0.00000000000E+00 0. -1.
         11   -1    0    0    0    0 -0.00000000000E+00 -0.00000000000E+00 -0.50000000000E+03  0.50000000000E+03  0.00000000000E+00 0.  1.
        -11    1    1    2    0    0  0.59869050557E+01  0.48706581871E+01  0.49932185556E+03  0.49938149924E+03  0.00000000000E+00 0. -1.
         11    1    1    2    0    0  0.36703523026E+01  0.58622976090E+01 -0.33592533042E+03  0.33599652623E+03  0.00000000000E+00 0.  1.
        -15    1    1    2    0    0 -0.10606456177E+02 -0.12982469203E+02 -0.12983971590E+03  0.13092956493E+03  0.17770000000E+01 0. -1.
         15    1    1    2    0    0  0.94919881887E+00  0.22495134070E+01 -0.33556809236E+02  0.33692409591E+02  0.17770000000E+01 0.  1.
</event>
<event>
 6    1  0.1599106E-003  0.5255229E+03  0.7546771E-02  0.9344444E-01
        -11   -1    0    0    0    0  0.00000000000E+00  0.00000000000E+00  0.50000000000E+03  0.50000000000E+03  0.00000000000E+00 0.  1.
         11   -1    0    0    0    0 -0.00000000000E+00 -0.00000000000E+00 -0.50000000000E+03  0.50000000000E+03  0.00000000000E+00 0. -1.
        -11    1    1    2    0    0  0.56128773262E+01 -0.32031582000E+01  0.41968572549E+03  0.41973547955E+03  0.00000000000E+00 0.  1.
         11    1    1    2    0    0  0.11871990605E+02 -0.52598366492E+01 -0.47429941415E+03  0.47447712727E+03  0.00000000000E+00 0. -1.
        -15    1    1    2    0    0 -0.14340641277E+02  0.47213961710E+01 -0.23234392466E+02  0.27765811645E+02  0.17770000000E+01 0. -1.
         15    1    1    2    0    0 -0.31442266550E+01  0.37415986782E+01  0.77848081125E+02  0.78021581539E+02  0.17770000000E+01 0. -1.
</event>
<event>
 6    1  0.1599106E-003  0.5313866E+03  0.7546771E-02  0.9332195E-01
        -11   -1    0    0    0    0  0.00000000000E+00  0.00000000000E+00  0.50000000000E+03  0.50000000000E+03  0.00000000000E+00 0.  1.
         11   -1    0    0    0    0 -0.00000000000E+00 -0.00000000000E+00 -0.50000000000E+03  0.50000000000E+03  0.00000000000E+00 0. -1.
        -11    1    1    2    0    0  0.10236890092E+02 -0.49289233595E+00  0.46850132963E+03  0.46861341501E+03  0.00000000000E+00 0.  1.
         11    1    1    2    0    0  0.18911816747E+02 -0.93180777792E+01 -0.43355432139E+03  0.43406662275E+03  0.00000000000E+00 0. -1.
        -15    1    1    2    0    0 -0.44477926215E+01 -0.18998474199E+02  0.21621575260E+02  0.29178333174E+02  0.17770000000E+01 0.  1.
         15    1    1    2    0    0 -0.24700914217E+02  0.28809444314E+02 -0.56568583496E+02  0.68141629072E+02  0.17770000000E+01 0. -1.
</event>
<event>
 6    1  0.1599106E-003  0.5028551E+03  0.7546771E-02  0.9393444E-01
        -11   -1    0    0    0    0  0.00000000000E+00  0.00000000000E+00  0.50000000000E+03  0.50000000000E+03  0.00000000000E+00 0. -1.
         11   -1    0    0    0    0 -0.00000000000E+00 -0.00000000000E+00 -0.50000000000E+03  0.50000000000E+03  0.00000000000E+00 0. -1.
        -11    1    1    2    0    0  0.21364750418E+02 -0.50973524726E+01  0.49665948169E+03  0.49714492486E+03  0.00000000000E+00 0. -1.
         11    1    1    2    0    0  0.28374601270E+01  0.46978485678E+01 -0.18616668818E+03  0.18624756844E+03  0.00000000000E+00 0. -1.
        -15    1    1    2    0    0 -0.24302474047E+02 -0.25696988914E+02 -0.19501427798E+03  0.19820361205E+03  0.17770000000E+01 0.  1.
         15    1    1    2    0    0  0.10026350225E+00  0.26096492819E+02 -0.11547851553E+03  0.11840389465E+03  0.17770000000E+01 0. -1.
</event>
<event>
 6    1  0.3343736E-003  0.4060474E+03  0.7546771E-02  0.9638699E-01
        -11   -1    0    0    0    0  0.00000000000E+00  0.00000000000E+00  0.50000000000E+03  0.50000000000E+03  0.00000000000E+00 0. -1.
         11   -1    0    0    0    0 -0.00000000000E+00 -0.00000000000E+00 -0.50000000000E+03  0.50000000000E+03  0.00000000000E+00 0.  1.
        -11    1    1    2    0    0  0.57675447217E+02 -0.22260437587E+01  0.39157564869E+03  0.39580664614E+03  0.00000000000E+00 0. -1.
         11    1    1    2    0    0 -0.19993781519E+02  0.87650278522E+01 -0.41701516044E+03  0.41758618398E+03  0.00000000000E+00 0.  1.
        -15    1    1    2    0    0 -0.53595235773E+02  0.17928106307E+01  0.98058823635E+02  0.11177814674E+03  0.17770000000E+01 0. -1.
         15    1    1    2    0    0  0.15913570075E+02 -0.83317947243E+01 -0.72619311889E+02  0.74829023140E+02  0.17770000000E+01 0.  1.
</event>
<event>
 6    1  0.1599106E-003  0.5103539E+03  0.7546771E-02  0.9376936E-01
        -11   -1    0    0    0    0  0.00000000000E+00  0.00000000000E+00  0.50000000000E+03  0.50000000000E+03  0.00000000000E+00 0.  1.
         11   -1    0    0    0    0 -0.00000000000E+00 -0.00000000000E+00 -0.50000000000E+03  0.50000000000E+03  0.00000000000E+00 0.  1.
        -11    1    1    2    0    0 -0.10997483101E+02 -0.88447902140E+01  0.48944266264E+03  0.48964609154E+03  0.00000000000E+00 0.  1.
         11    1    1    2    0    0 -0.33171072832E+01 -0.60568364974E+01 -0.43778895945E+03  0.43784342119E+03  0.00000000000E+00 0.  1.
        -15    1    1    2    0    0  0.59646877476E+01  0.81258458303E+00  0.82595066182E+01  0.10373763647E+02  0.17770000000E+01 0.  1.
         15    1    1    2    0    0  0.83499026368E+01  0.14089042128E+02 -0.59913209815E+02  0.62136723614E+02  0.17770000000E+01 0. -1.
</event>
<event>
 6    1  0.1599106E-003  0.5001944E+03  0.7546771E-02  0.9399375E-01
        -11   -1    0    0    0    0  0.00000000000E+00  0.00000000000E+00  0.50000000000E+03  0.50000000000E+03  0.00000000000E+00 0.  1.
         11   -1    0    0    0    0 -0.00000000000E+00 -0.00000000000E+00 -0.50000000000E+03  0.50000000000E+03  0.00000000000E+00 0. -1.
        -11    1    1    2    0    0  0.78809811042E+01 -0.43041394779E+01  0.49972494074E+03  0.49980561409E+03  0.00000000000E+00 0.  1.
         11    1    1    2    0    0 -0.48486224459E+01  0.72942040280E+01 -0.16763248411E+03  0.16786114583E+03  0.00000000000E+00 0. -1.
        -15    1    1    2    0    0 -0.41702996425E+00  0.42218310043E+01 -0.97088686482E+02  0.97197574778E+02  0.17770000000E+01 0.  1.
         15    1    1    2    0    0 -0.26153286941E+01 -0.72118955544E+01 -0.23500377015E+03  0.23513566530E+03  0.17770000000E+01 0. -1.
</event>
<event>
 6    1  0.1599106E-003  0.5153105E+03  0.7546771E-02  0.9366188E-01
        -11   -1    0    0    0    0  0.00000000000E+00  0.00000000000E+00  0.50000000000E+03  0.50000000000E+03  0.00000000000E+00 0.  1.
         11   -1    0    0    0    0 -0.00000000000E+00 -0.00000000000E+00 -0.50000000000E+03  0.50000000000E+03  0.00000000000E+00 0.  1.
        -11    1    1    2    0    0  0.18735347884E+01  0.12711594945E+02  0.48451911099E+03  0.48468945078E+03  0.00000000000E+00 0.  1.
         11    1    1    2    0    0 -0.42936283592E+02 -0.26032887634E+02 -0.38379872952E+03  0.38706937423E+03  0.00000000000E+00 0.  1.
        -15    1    1    2    0    0  0.29847842280E+02  0.17448552367E+02 -0.10848811636E+03  0.11387789420E+03  0.17770000000E+01 0. -1.
         15    1    1    2    0    0  0.11214906523E+02 -0.41272596779E+01  0.77677348801E+01  0.14363280786E+02  0.17770000000E+01 0.  1.
</event>
<event>
 6    1  0.1599106E-003  0.5018284E+03  0.7546771E-02  0.9395728E-01
        -11   -1    0    0    0    0  0.00000000000E+00  0.00000000000E+00  0.50000000000E+03  0.50000000000E+03  0.00000000000E+00 0. -1.
         11   -1    0    0    0    0 -0.00000000000E+00 -0.00000000000E+00 -0.50000000000E+03  0.50000000000E+03  0.00000000000E+00 0. -1.
        -11    1    1    2    0    0 -0.20917668586E+01  0.10841036279E+02  0.49804924480E+03  0.49817161079E+03  0.00000000000E+00 0. -1.
         11    1    1    2    0    0  0.27977671802E+01 -0.63897594521E+01 -0.23068856086E+03  0.23079399610E+03  0.00000000000E+00 0. -1.
        -15    1    1    2    0    0 -0.51031455454E+01 -0.48021979815E+00 -0.26388187167E+03  0.26393763019E+03  0.17770000000E+01 0. -1.
         15    1    1    2    0    0  0.43971452238E+01 -0.39710570286E+01 -0.34788122760E+01  0.70967629167E+01  0.17770000000E+01 0.  1.
</event>
<event>
 6    1  0.1599106E-003  0.4708279E+03  0.7546771E-02  0.9467560E-01
        -11   -1    0    0    0    0  0.00000000000E+00  0.00000000000E+00  0.50000000000E+03  0.50000000000E+03  0.00000000000E+00 0.  1.
         11   -1    0    0    0    0 -0.00000000000E+00 -0.00000000000E+00 -0.50000000000E+03  0.50000000000E+03  0.00000000000E+00 0. -1.
        -11    1    1    2    0    0  0.53438141559E+01  0.43463240214E+01  0.47124925590E+03  0.47129959481E+03  0.00000000000E+00 0.  1.
         11    1    1    2    0    0  0.10968497527E+01 -0.66683068665E+01 -0.47033299122E+03  0.47038153878E+03  0.00000000000E+00 0. -1.
        -15    1    1    2    0    0  0.25082321149E+02  0.47705266434E+01  0.50677335519E+01  0.26090619215E+02  0.17770000000E+01 0.  1.
         15    1    1    2    0    0 -0.31522985057E+02 -0.24485437983E+01 -0.59839982348E+01  0.32228247199E+02  0.17770000000E+01 0. -1.
</event>
<event>
 6    1  0.1599106E-003  0.5043677E+03  0.7546771E-02  0.9390089E-01
        -11   -1    0    0    0    0  0.00000000000E+00  0.00000000000E+00  0.50000000000E+03  0.50000000000E+03  0.00000000000E+00 0.  1.
         11   -1    0    0    0    0 -0.00000000000E+00 -0.00000000000E+00 -0.50000000000E+03  0.50000000000E+03  0.00000000000E+00 0. -1.
        -11    1    1    2    0    0 -0.15947557362E+02 -0.10613575737E+02  0.49526192858E+03  0.49563227344E+03  0.00000000000E+00 0.  1.
         11    1    1    2    0    0 -0.37213885145E+01  0.68052467207E+01 -0.43468345588E+03  0.43475265029E+03  0.00000000000E+00 0. -1.
        -15    1    1    2    0    0  0.19911852714E+02  0.82924411408E+01 -0.22455424835E+02  0.31187341857E+02  0.17770000000E+01 0.  1.
         15    1    1    2    0    0 -0.24290683756E+00 -0.44841121247E+01 -0.38123047858E+02  0.38427734415E+02  0.17770000000E+01 0. -1.
</event>
<event>
 6    1  0.1599106E-003  0.5006603E+03  0.7546771E-02  0.9398333E-01
        -11   -1    0    0    0    0  0.00000000000E+00  0.00000000000E+00  0.50000000000E+03  0.50000000000E+03  0.00000000000E+00 0.  1.
         11   -1    0    0    0    0 -0.00000000000E+00 -0.00000000000E+00 -0.50000000000E+03  0.50000000000E+03  0.00000000000E+00 0.  1.
        -11    1    1    2    0    0 -0.13675213206E+02  0.23317276466E+01  0.49914694750E+03  0.49933968760E+03  0.00000000000E+00 0.  1.
         11    1    1    2    0    0  0.51499973462E+01 -0.36908027196E+01 -0.27662677727E+03  0.27669932852E+03  0.00000000000E+00 0.  1.
        -15    1    1    2    0    0  0.84753983022E+01  0.57374239228E+01 -0.38401879867E+02  0.39782062741E+02  0.17770000000E+01 0.  1.
         15    1    1    2    0    0  0.49817557579E-01 -0.43783488498E+01 -0.18411829036E+03  0.18417892114E+03  0.17770000000E+01 0. -1.
</event>
<event>
 6    1  0.1599106E-003  0.5005831E+03  0.7546771E-02  0.9398506E-01
        -11   -1    0    0    0    0  0.00000000000E+00  0.00000000000E+00  0.50000000000E+03  0.50000000000E+03  0.00000000000E+00 0. -1.
         11   -1    0    0    0    0 -0.00000000000E+00 -0.00000000000E+00 -0.50000000000E+03  0.50000000000E+03  0.00000000000E+00 0. -1.
        -11    1    1    2    0    0 -0.98086198427E+00 -0.14386816836E+01  0.12597609809E+03  0.12598813113E+03  0.00000000000E+00 0. -1.
         11    1    1    2    0    0  0.27137786720E+01 -0.21387443556E+02 -0.49895136699E+03  0.49941691396E+03  0.00000000000E+00 0. -1.
        -15    1    1    2    0    0 -0.36994044137E+01  0.55298072216E+01  0.27388464378E+03  0.27397120321E+03  0.17770000000E+01 0. -1.
         15    1    1    2    0    0  0.19664877260E+01  0.17296318018E+02  0.99090625111E+02  0.10062375169E+03  0.17770000000E+01 0.  1.
</event>
<event>
 6    1  0.1599106E-003  0.5226926E+03  0.7546771E-02  0.9350417E-01
        -11   -1    0    0    0    0  0.00000000000E+00  0.00000000000E+00  0.50000000000E+03  0.50000000000E+03  0.00000000000E+00 0. -1.
         11   -1    0    0    0    0 -0.00000000000E+00 -0.00000000000E+00 -0.50000000000E+03  0.50000000000E+03  0.00000000000E+00 0.  1.
        -11    1    1    2    0    0 -0.15088228870E+01 -0.11677265233E+02  0.47716213229E+03  0.47730738059E+03  0.00000000000E+00 0. -1.
         11    1    1    2    0    0  0.98723877954E+00  0.10341928280E+02 -0.34286206634E+03  0.34301942606E+03  0.00000000000E+00 0.  1.
        -15    1    1    2    0    0  0.33024082858E+02 -0.10220166412E+01 -0.14227902235E+03  0.14607570810E+03  0.17770000000E+01 0. -1.
         15    1    1    2    0    0 -0.32502498751E+02  0.23573535941E+01  0.79789563989E+01  0.33597485251E+02  0.17770000000E+01 0.  1.
</event>
<event>
 6    1  0.1599106E-003  0.5010017E+03  0.7546771E-02  0.9397571E-01
        -11   -1    0    0    0    0  0.00000000000E+00  0.00000000000E+00  0.50000000000E+03  0.50000000000E+03  0.00000000000E+00 0. -1.
         11   -1    0    0    0    0 -0.00000000000E+00 -0.00000000000E+00 -0.50000000000E+03  0.50000000000E+03  0.00000000000E+00 0. -1.
        -11    1    1    2    0    0  0.21336570710E+01  0.16669180790E+01  0.19718600236E+03  0.19720459080E+03  0.00000000000E+00 0. -1.
         11    1    1    2    0    0  0.55661622400E+01 -0.38130404077E+01 -0.49895268881E+03  0.49899830372E+03  0.00000000000E+00 0. -1.
        -15    1    1    2    0    0 -0.47378388544E+01  0.12832080603E+01  0.29956618880E+03  0.29961167024E+03  0.17770000000E+01 0. -1.
         15    1    1    2    0    0 -0.29619804567E+01  0.86291426829E+00  0.22004976519E+01  0.41854352434E+01  0.17770000000E+01 0.  1.
</event>
<event>
 6    1  0.1599106E-003  0.5001343E+03  0.7546771E-02  0.9399509E-01
        -11   -1    0    0    0    0  0.00000000000E+00  0.00000000000E+00  0.50000000000E+03  0.50000000000E+03  0.00000000000E+00 0.  1.
         11   -1    0    0    0    0 -0.00000000000E+00 -0.00000000000E+00 -0.50000000000E+03  0.50000000000E+03  0.00000000000E+00 0. -1.
        -11    1    1    2    0    0 -0.16494574646E+02 -0.15008560458E+02  0.49936794559E+03  0.49986565491E+03  0.00000000000E+00 0.  1.
         11    1    1    2    0    0 -0.41436914586E+00  0.36539644084E+00 -0.18290240408E+02  0.18298582200E+02  0.00000000000E+00 0. -1.
        -15    1    1    2    0    0  0.18930075904E+02  0.11440134891E+02 -0.43601609376E+03  0.43658036626E+03  0.17770000000E+01 0. -1.
         15    1    1    2    0    0 -0.20211321117E+01  0.32030291262E+01 -0.45061611421E+02  0.45255396622E+02  0.17770000000E+01 0. -1.
</event>
<event>
 6    1  0.1599106E-003  0.5026372E+03  0.7546771E-02  0.9393928E-01
        -11   -1    0    0    0    0  0.00000000000E+00  0.00000000000E+00  0.50000000000E+03  0.50000000000E+03  0.00000000000E+00 0. -1.
         11   -1    0    0    0    0 -0.00000000000E+00 -0.00000000000E+00 -0.50000000000E+03  0.50000000000E+03  0.00000000000E+00 0. -1.
        -11    1    1    2    0    0 -0.66277617221E+00  0.78766752641E+01  0.49729999672E+03  0.49736281326E+03  0.00000000000E+00 0. -1.
         11    1    1    2    0    0  0.79176271796E+01  0.64621497793E+01 -0.43443343126E+03  0.43455362660E+03  0.00000000000E+00 0. -1.
        -15    1    1    2    0    0 -0.86302253922E+01 -0.10900727794E+02 -0.62394183489E+02  0.63949187008E+02  0.17770000000E+01 0. -1.
         15    1    1    2    0    0  0.13753743848E+01 -0.34380972492E+01 -0.47238196839E+00  0.41343731227E+01  0.17770000000E+01 0.  1.
</event>
<event>
 6    1  0.1599106E-003  0.4864751E+03  0.7546771E-02  0.9430592E-01
        -11   -1    0    0    0    0  0.00000000000E+00  0.00000000000E+00  0.50000000000E+03  0.50000000000E+03  0.00000000000E+00 0. -1.
         11   -1    0    0    0    0 -0.00000000000E+00 -0.00000000000E+00 -0.50000000000E+03  0.50000000000E+03  0.00000000000E+00 0. -1.
        -11    1    1    2    0    0 -0.89835134495E+01  0.23678176939E+01  0.48637932437E+03  0.48646804340E+03  0.00000000000E+00 0. -1.
         11    1    1    2    0    0 -0.62949439685E+01 -0.69759716648E+01 -0.48652237742E+03  0.48661310528E+03  0.00000000000E+00 0. -1.
        -15    1    1    2    0    0  0.13977445896E+02  0.65152539173E+01  0.87587785355E+01  0.17823901307E+02  0.17770000000E+01 0. -1.
         15    1    1    2    0    0  0.13010115224E+01 -0.19070999465E+01 -0.86157254850E+01  0.90949500175E+01  0.17770000000E+01 0.  1.
</event>
<event>
 6    1  0.1599106E-003  0.5017602E+03  0.7546771E-02  0.9395880E-01
        -11   -1    0    0    0    0  0.00000000000E+00  0.00000000000E+00  0.50000000000E+03  0.50000000000E+03  0.00000000000E+00 0. -1.
         11   -1    0    0    0    0 -0.00000000000E+00 -0.00000000000E+00 -0.50000000000E+03  0.50000000000E+03  0.00000000000E+00 0.  1.
        -11    1    1    2    0    0  0.85191962366E+01 -0.21749732913E+00  0.49816687824E+03  0.49823976415E+03  0.00000000000E+00 0. -1.
         11    1    1    2    0    0 -0.56953796697E+01  0.17319843085E+00 -0.41048572142E+03  0.41052526699E+03  0.00000000000E+00 0.  1.
        -15    1    1    2    0    0  0.44340514236E+01  0.10944306494E+01 -0.81025040556E+02  0.81173108334E+02  0.17770000000E+01 0.  1.
         15    1    1    2    0    0 -0.72578679905E+01 -0.10501317511E+01 -0.66561162661E+01  0.10061860524E+02  0.17770000000E+01 0. -1.
</event>
<event>
 6    1  0.1599106E-003  0.5139233E+03  0.7546771E-02  0.9369183E-01
        -11   -1    0    0    0    0  0.00000000000E+00  0.00000000000E+00  0.50000000000E+03  0.50000000000E+03  0.00000000000E+00 0.  1.
         11   -1    0    0    0    0 -0.00000000000E+00 -0.00000000000E+00 -0.50000000000E+03  0.50000000000E+03  0.00000000000E+00 0. -1.
        -11    1    1    2    0    0 -0.66244826594E+01 -0.15372357488E+02  0.48578842314E+03  0.48607672769E+03  0.00000000000E+00 0.  1.
         11    1    1    2    0    0 -0.15120674163E+02  0.30921849594E+01 -0.46689981869E+03  0.46715483202E+03  0.00000000000E+00 0. -1.
        -15    1    1    2    0    0  0.97920905338E+01  0.31955980301E+01 -0.27465115240E+02  0.29386853658E+02  0.17770000000E+01 0.  1.
         15    1    1    2    0    0  0.11953066288E+02  0.90845744988E+01  0.85765107886E+01  0.17381586631E+02  0.17770000000E+01 0. -1.
</event>
<event>
 6    1  0.1599106E-003  0.5104843E+03  0.7546771E-02  0.9376651E-01
        -11   -1    0    0    0    0  0.00000000000E+00  0.00000000000E+00  0.50000000000E+03  0.50000000000E+03  0.00000000000E+00 0. -1.
         11   -1    0    0    0    0 -0.00000000000E+00 -0.00000000000E+00 -0.50000000000E+03  0.50000000000E+03  0.00000000000E+00 0.  1.
        -11    1    1    2    0    0 -0.26831799219E+02  0.19482223134E+02  0.40394326752E+03  0.40530194404E+03  0.00000000000E+00 0. -1.
         11    1    1    2    0    0 -0.14460301187E+02  0.18782972576E+01 -0.48929848299E+03  0.48951571350E+03  0.00000000000E+00 0.  1.
        -15    1    1    2    0    0  0.32608575202E+02 -0.25044199359E+02  0.35313851061E+02  0.54228746104E+02  0.17770000000E+01 0. -1.
         15    1    1    2    0    0  0.86835252033E+01  0.36836789672E+01  0.50041364409E+02  0.50953596356E+02  0.17770000000E+01 0.  1.
</event>
<event>
 6    1  0.1599106E-003  0.5031596E+03  0.7546771E-02  0.9392767E-01
        -11   -1    0    0    0    0  0.00000000000E+00  0.00000000000E+00  0.50000000000E+03  0.50000000000E+03  0.00000000000E+00 0.  1.
         11   -1    0    0    0    0 -0.00000000000E+00 -0.00000000000E+00 -0.50000000000E+03  0.50000000000E+03  0.00000000000E+00 0.  1.
        -11    1    1    2    0    0 -0.31530039431E+01 -0.50155178574E+01  0.32325883467E+03  0.32331311611E+03  0.00000000000E+00 0.  1.
         11    1    1    2    0    0 -0.51663155725E+01 -0.19607592130E+02 -0.49642642809E+03  0.49684036369E+03  0.00000000000E+00 0.  1.
        -15    1    1    2    0    0 -0.83195193073E+01  0.17959375657E+02  0.32964087317E+02  0.38490808736E+02  0.17770000000E+01 0. -1.
         15    1    1    2    0    0  0.16638838823E+02  0.66637343310E+01  0.14020350610E+03  0.14135571147E+03  0.17770000000E+01 0.  1.
</event>
<event>
 6    1  0.1599106E-003  0.4841113E+03  0.7546771E-02  0.9436081E-01
        -11   -1    0    0    0    0  0.00000000000E+00  0.00000000000E+00  0.50000000000E+03  0.50000000000E+03  0.00000000000E+00 0.  1.
         11   -1    0    0    0    0 -0.00000000000E+00 -0.00000000000E+00 -0.50000000000E+03  0.50000000000E+03  0.00000000000E+00 0.  1.
        -11    1    1    2    0    0 -0.24310977314E+01  0.71605793898E+01  0.48267516114E+03  0.48273439417E+03  0.00000000000E+00 0.  1.
         11    1    1    2    0    0  0.81959468501E+01 -0.57904961541E+01 -0.48540653804E+03  0.48551025793E+03  0.00000000000E+00 0.  1.
        -15    1    1    2    0    0  0.42627763689E+01 -0.37043138401E+01  0.14712242251E+02  0.15858783196E+02  0.17770000000E+01 0.  1.
         15    1    1    2    0    0 -0.10027625488E+02  0.23342306045E+01 -0.11980865358E+02  0.15896564697E+02  0.17770000000E+01 0. -1.
</event>
<event>
 6    1  0.1599106E-003  0.5105994E+03  0.7546771E-02  0.9376400E-01
        -11   -1    0    0    0    0  0.00000000000E+00  0.00000000000E+00  0.50000000000E+03  0.50000000000E+03  0.00000000000E+00 0. -1.
         11   -1    0    0    0    0 -0.00000000000E+00 -0.00000000000E+00 -0.50000000000E+03  0.50000000000E+03  0.00000000000E+00 0. -1.
        -11    1    1    2    0    0 -0.12563125863E+02  0.10228584508E+02  0.47291492074E+03  0.47319232700E+03  0.00000000000E+00 0. -1.
         11    1    1    2    0    0 -0.73260295469E+01 -0.10520532586E+02 -0.48923264019E+03  0.48940058085E+03  0.00000000000E+00 0. -1.
        -15    1    1    2    0    0  0.76329810049E+01 -0.11134940668E+02  0.15363952999E+02  0.20529444305E+02  0.17770000000E+01 0. -1.
         15    1    1    2    0    0  0.12256174405E+02  0.11426888746E+02  0.95376644903E+00  0.16877647848E+02  0.17770000000E+01 0.  1.
</event>
<event>
 6    1  0.1599106E-003  0.5040323E+03  0.7546771E-02  0.9390832E-01
        -11   -1    0    0    0    0  0.00000000000E+00  0.00000000000E+00  0.50000000000E+03  0.50000000000E+03  0.00000000000E+00 0.  1.
         11   -1    0    0    0    0 -0.00000000000E+00 -0.00000000000E+00 -0.50000000000E+03  0.50000000000E+03  0.00000000000E+00 0.  1.
        -11    1    1    2    0    0 -0.12230842181E+02  0.64719807916E+01  0.49577460013E+03  0.49596767453E+03  0.00000000000E+00 0.  1.
         11    1    1    2    0    0  0.14038110107E+02  0.15547402159E+01 -0.46904784668E+03  0.46926044818E+03  0.00000000000E+00 0.  1.
        -15    1    1    2    0    0 -0.12698982989E+01 -0.51596681852E+01  0.19195957371E+01  0.59226171803E+01  0.17770000000E+01 0.  1.
         15    1    1    2    0    0 -0.53736962746E+00 -0.28670528223E+01 -0.28646349197E+02  0.28849260117E+02  0.17770000000E+01 0. -1.
</event>
<event>
 6    1  0.1599106E-003  0.5113259E+03  0.7546771E-02  0.9374818E-01
        -11   -1    0    0    0    0  0.00000000000E+00  0.00000000000E+00  0.50000000000E+03  0.50000000000E+03  0.00000000000E+00 0.  1.
         11   -1    0    0    0    0 -0.00000000000E+00 -0.00000000000E+00 -0.50000000000E+03  0.50000000000E+03  0.00000000000E+00 0.  1.
        -11    1    1    2    0    0  0.17806100134E+02 -0.15656787783E+01  0.37764226729E+03  0.37806506132E+03  0.00000000000E+00 0.  1.
         11    1    1    2    0    0  0.76800342390E+01 -0.52963359295E+01 -0.48858506842E+03  0.48867412781E+03  0.00000000000E+00 0.  1.
        -15    1    1    2    0    0 -0.61276106178E+01  0.98388213192E+01  0.11289067741E+03  0.11349807395E+03  0.17770000000E+01 0. -1.
         15    1    1    2    0    0 -0.19358523755E+02 -0.29768066115E+01 -0.19478762670E+01  0.19762736919E+02  0.17770000000E+01 0.  1.
</event>
<event>
 6    1  0.1599106E-003  0.5056471E+03  0.7546771E-02  0.9387262E-01
        -11   -1    0    0    0    0  0.00000000000E+00  0.00000000000E+00  0.50000000000E+03  0.50000000000E+03  0.00000000000E+00 0. -1.
         11   -1    0    0    0    0 -0.00000000000E+00 -0.00000000000E+00 -0.50000000000E+03  0.50000000000E+03  0.00000000000E+00 0. -1.
        -11    1    1    2    0    0 -0.45149886283E-01 -0.19973007217E+02  0.49394922681E+03  0.49435287166E+03  0.00000000000E+00 0. -1.
         11    1    1    2    0    0 -0.61831576475E+01  0.42438686386E+01 -0.45056728631E+03  0.45062969427E+03  0.00000000000E+00 0. -1.
        -15    1    1    2    0    0  0.40214360640E+01  0.28677557746E+01  0.35077802066E+01  0.63133368496E+01  0.17770000000E+01 0. -1.
         15    1    1    2    0    0  0.22068714698E+01  0.12861382804E+02 -0.46889720703E+02  0.48704097219E+02  0.17770000000E+01 0.  1.
</event>
<event>
 6    1  0.1599106E-003  0.5167254E+03  0.7546771E-02  0.9363144E-01
        -11   -1    0    0    0    0  0.00000000000E+00  0.00000000000E+00  0.50000000000E+03  0.50000000000E+03  0.00000000000E+00 0.  1.
         11   -1    0    0    0    0 -0.00000000000E+00 -0.00000000000E+00 -0.50000000000E+03  0.50000000000E+03  0.00000000000E+00 0.  1.
        -11    1    1    2    0    0 -0.81073054321E+01  0.33844250415E+01  0.48319473025E+03  0.48327459077E+03  0.00000000000E+00 0.  1.
         11    1    1    2    0    0  0.47719375903E+01 -0.65869551824E+01 -0.39423995360E+03  0.39432385216E+03  0.00000000000E+00 0.  1.
        -15    1    1    2    0    0 -0.10864308154E+02  0.34804920040E+01 -0.10222995447E+03  0.10287987333E+03  0.17770000000E+01 0.  1.
         15    1    1    2    0    0  0.14199675995E+02 -0.27796186310E+00  0.13275177817E+02  0.19521683745E+02  0.17770000000E+01 0. -1.
</event>
<event>
 6    1  0.1599106E-003  0.5005015E+03  0.7546771E-02  0.9398688E-01
        -11   -1    0    0    0    0  0.00000000000E+00  0.00000000000E+00  0.50000000000E+03  0.50000000000E+03  0.00000000000E+00 0.  1.
         11   -1    0    0    0    0 -0.00000000000E+00 -0.00000000000E+00 -0.50000000000E+03  0.50000000000E+03  0.00000000000E+00 0.  1.
        -11    1    1    2    0    0 -0.13067009734E+01  0.71290391389E+01  0.44607152798E+03  0.44613040553E+03  0.00000000000E+00 0.  1.
         11    1    1    2    0    0  0.68825920426E+01 -0.64337651280E+01 -0.49940960730E+03  0.49949846774E+03  0.00000000000E+00 0.  1.
        -15    1    1    2    0    0 -0.63208224977E+00 -0.23089399690E+01  0.58479854345E+01  0.65640989018E+01  0.17770000000E+01 0. -1.
         15    1    1    2    0    0 -0.49438088195E+01  0.16136659582E+01  0.47490093889E+02  0.47807027831E+02  0.17770000000E+01 0.  1.
</event>
<event>
 6    1  0.3457645E-003  0.5308981E+03  0.7546771E-02  0.9333209E-01
        -11   -1    0    0    0    0  0.00000000000E+00  0.00000000000E+00  0.50000000000E+03  0.50000000000E+03  0.00000000000E+00 0. -1.
         11   -1    0    0    0    0 -0.00000000000E+00 -0.00000000000E+00 -0.50000000000E+03  0.50000000000E+03  0.00000000000E+00 0. -1.
        -11    1    1    2    0    0  0.87688050440E+02 -0.10167420691E+03  0.44947719332E+03  0.46910189283E+03  0.00000000000E+00 0. -1.
         11    1    1    2    0    0 -0.31754134366E+01 -0.13937203304E+01 -0.24607611387E+03  0.24610054759E+03  0.00000000000E+00 0. -1.
        -15    1    1    2    0    0 -0.84940982814E+02  0.96609060656E+02 -0.61250912847E+02  0.14248899331E+03  0.17770000000E+01 0. -1.
         15    1    1    2    0    0  0.42834581041E+00  0.64588665890E+01 -0.14215016660E+03  0.14230856627E+03  0.17770000000E+01 0.  1.
</event>
<event>
 6    1  0.1599106E-003  0.5006416E+03  0.7546771E-02  0.9398375E-01
        -11   -1    0    0    0    0  0.00000000000E+00  0.00000000000E+00  0.50000000000E+03  0.50000000000E+03  0.00000000000E+00 0.  1.
         11   -1    0    0    0    0 -0.00000000000E+00 -0.00000000000E+00 -0.50000000000E+03  0.50000000000E+03  0.00000000000E+00 0.  1.
        -11    1    1    2    0    0 -0.89608875488E+00  0.11427725127E+02  0.49922686267E+03  0.49935844469E+03  0.00000000000E+00 0.  1.
         11    1    1    2    0    0  0.31162335174E+01  0.87885618343E+00 -0.17167020092E+03  0.17170073146E+03  0.00000000000E+00 0.  1.
        -15    1    1    2    0    0 -0.40499493625E+01 -0.62990676125E+01 -0.31168017258E+03  0.31177518832E+03  0.17770000000E+01 0.  1.
         15    1    1    2    0    0  0.18298046000E+01 -0.60075136979E+01 -0.15876489170E+02  0.17165635527E+02  0.17770000000E+01 0. -1.
</event>
<event>
 6    1  0.1599106E-003  0.4809577E+03  0.7546771E-02  0.9443456E-01
        -11   -1    0    0    0    0  0.00000000000E+00  0.00000000000E+00  0.50000000000E+03  0.50000000000E+03  0.00000000000E+00 0.  1.
         11   -1    0    0    0    0 -0.00000000000E+00 -0.00000000000E+00 -0.50000000000E+03  0.50000000000E+03  0.00000000000E+00 0. -1.
        -11    1    1    2    0    0 -0.18240680985E+02  0.12761631917E+02  0.48299693544E+03  0.48350969105E+03  0.00000000000E+00 0.  1.
         11    1    1    2    0    0  0.96365766312E+01 -0.26148100079E+01 -0.47840440210E+03  0.47850859218E+03  0.00000000000E+00 0. -1.
        -15    1    1    2    0    0  0.21208379732E+02 -0.74601699857E+01 -0.89480205671E+01  0.24262611322E+02  0.17770000000E+01 0. -1.
         15    1    1    2    0    0 -0.12604275379E+02 -0.26866519231E+01  0.43554872264E+01  0.13719105450E+02  0.17770000000E+01 0.  1.
</event>
<event>
 6    1  0.1599106E-003  0.5002332E+03  0.7546771E-02  0.9399288E-01
        -11   -1    0    0    0    0  0.00000000000E+00  0.00000000000E+00  0.50000000000E+03  0.50000000000E+03  0.00000000000E+00 0. -1.
         11   -1    0    0    0    0 -0.00000000000E+00 -0.00000000000E+00 -0.50000000000E+03  0.50000000000E+03  0.00000000000E+00 0. -1.
        -11    1    1    2    0    0 -0.16788400468E+01 -0.30932883642E+01  0.18972768778E+03  0.18976032896E+03  0.00000000000E+00 0. -1.
         11    1    1    2    0    0  0.75604848685E+01 -0.20062183102E+01 -0.49970554080E+03  0.49976675895E+03  0.00000000000E+00 0. -1.
        -15    1    1    2    0    0  0.13514941031E+01  0.37995058190E+01  0.24750018138E+03  0.24753941159E+03  0.17770000000E+01 0. -1.
         15    1    1    2    0    0 -0.72331389248E+01  0.13000008554E+01  0.62477671645E+02  0.62933500492E+02  0.17770000000E+01 0.  1.
</event>
<event>
 6    1  0.1599106E-003  0.5102650E+03  0.7546771E-02  0.9377129E-01
        -11   -1    0    0    0    0  0.00000000000E+00  0.00000000000E+00  0.50000000000E+03  0.50000000000E+03  0.00000000000E+00 0. -1.
         11   -1    0    0    0    0 -0.00000000000E+00 -0.00000000000E+00 -0.50000000000E+03  0.50000000000E+03  0.00000000000E+00 0. -1.
        -11    1    1    2    0    0  0.18707345202E+01 -0.11073439086E+02  0.46380126733E+03  0.46393721157E+03  0.00000000000E+00 0. -1.
         11    1    1    2    0    0 -0.84774444150E+01  0.58001222885E+01 -0.48962727157E+03  0.48973500339E+03  0.00000000000E+00 0. -1.
        -15    1    1    2    0    0  0.80431942626E+00  0.60270422801E+01  0.34853298070E+02  0.35424317690E+02  0.17770000000E+01 0.  1.
         15    1    1    2    0    0  0.58023904686E+01 -0.75372548266E+00 -0.90272938334E+01  0.10903467348E+02  0.17770000000E+01 0. -1.
</event>
<event>
 6    1  0.1599106E-003  0.5430164E+03  0.7546771E-02  0.9308389E-01
        -11   -1    0    0    0    0  0.00000000000E+00  0.00000000000E+00  0.50000000000E+03  0.50000000000E+03  0.00000000000E+00 0. -1.
         11   -1    0    0    0    0 -0.00000000000E+00 -0.00000000000E+00 -0.50000000000E+03  0.50000000000E+03  0.00000000000E+00 0.  1.
        -11    1    1    2    0    0  0.32895412526E+01  0.56503445033E+01  0.37831006314E+03  0.37836655685E+03  0.00000000000E+00 0. -1.
         11    1    1    2    0    0 -0.28017887625E+02 -0.16065549961E+02 -0.45584083466E+03  0.45698355601E+03  0.00000000000E+00 0.  1.
        -15    1    1    2    0    0  0.35696478949E+02  0.73217704872E+02  0.43653153186E+02  0.92432821163E+02  0.17770000000E+01 0. -1.
         15    1    1    2    0    0 -0.10968132576E+02 -0.62802499414E+02  0.33877618334E+02  0.72217065974E+02  0.17770000000E+01 0.  1.
</event>
<event>
 6    1  0.1599106E-003  0.5052524E+03  0.7546771E-02  0.9388133E-01
        -11   -1    0    0    0    0  0.00000000000E+00  0.00000000000E+00  0.50000000000E+03  0.50000000000E+03  0.00000000000E+00 0. -1.
         11   -1    0    0    0    0 -0.00000000000E+00 -0.00000000000E+00 -0.50000000000E+03  0.50000000000E+03  0.00000000000E+00 0. -1.
        -11    1    1    2    0    0  0.12320198761E+02 -0.26717220499E+01  0.49458698579E+03  0.49474762446E+03  0.00000000000E+00 0. -1.
         11    1    1    2    0    0 -0.11636782743E+02  0.13987538939E+02 -0.40050848326E+03  0.40092157727E+03  0.00000000000E+00 0. -1.
        -15    1    1    2    0    0 -0.17420387290E+02 -0.17683235328E+01 -0.15653779472E+02  0.23554095232E+02  0.17770000000E+01 0.  1.
         15    1    1    2    0    0  0.16736971271E+02 -0.95474933562E+01 -0.78424723063E+02  0.80776703035E+02  0.17770000000E+01 0. -1.
</event>
<event>
 6    1  0.1599106E-003  0.5116891E+03  0.7546771E-02  0.9374028E-01
        -11   -1    0    0    0    0  0.00000000000E+00  0.00000000000E+00  0.50000000000E+03  0.50000000000E+03  0.00000000000E+00 0.  1.
         11   -1    0    0    0    0 -0.00000000000E+00 -0.00000000000E+00 -0.50000000000E+03  0.50000000000E+03  0.00000000000E+00 0. -1.
        -11    1    1    2    0    0 -0.23936147573E+02 -0.22197579102E+02  0.43681468231E+03  0.43803280512E+03  0.00000000000E+00 0.  1.
         11    1    1    2    0    0  0.31481836102E+01  0.14520615185E+02 -0.48808477517E+03  0.48831087135E+03  0.00000000000E+00 0. -1.
        -15    1    1    2    0    0  0.26313638745E+01  0.25951693950E+02  0.32612867304E+02  0.41799178670E+02  0.17770000000E+01 0. -1.
         15    1    1    2    0    0  0.18156600088E+02 -0.18274730034E+02  0.18657225553E+02  0.31857144864E+02  0.17770000000E+01 0.  1.
</event>
<event>
 6    1  0.1599106E-003  0.5010506E+03  0.7546771E-02  0.9397462E-01
        -11   -1    0    0    0    0  0.00000000000E+00  0.00000000000E+00  0.50000000000E+03  0.50000000000E+03  0.00000000000E+00 0. -1.
         11   -1    0    0    0    0 -0.00000000000E+00 -0.00000000000E+00 -0.50000000000E+03  0.50000000000E+03  0.00000000000E+00 0. -1.
        -11    1    1    2    0    0 -0.76630889379E+01  0.27639640024E+01  0.49888286556E+03  0.49894937216E+03  0.00000000000E+00 0. -1.
         11    1    1    2    0    0 -0.54451451985E+01 -0.32680969335E+01 -0.43151104929E+03  0.43155777797E+03  0.00000000000E+00 0. -1.
        -15    1    1    2    0    0  0.66767116424E+01 -0.89767852912E+00 -0.54343313767E+02  0.54788117191E+02  0.17770000000E+01 0. -1.
         15    1    1    2    0    0  0.64315224941E+01  0.14018114602E+01 -0.13028502499E+02  0.14704732685E+02  0.17770000000E+01 0.  1.
</event>
<event>
 6    1  0.1599106E-003  0.5068292E+03  0.7546771E-02  0.9384657E-01
        -11   -1    0    0    0    0  0.00000000000E+00  0.00000000000E+00  0.50000000000E+03  0.50000000000E+03  0.00000000000E+00 0.  1.
         11   -1    0    0    0    0 -0.00000000000E+00 -0.00000000000E+00 -0.50000000000E+03  0.50000000000E+03  0.00000000000E+00 0.  1.
        -11    1    1    2    0    0  0.59673644155E+01 -0.41572184046E+01  0.49311713549E+03  0.49317076273E+03  0.00000000000E+00 0.  1.
         11    1    1    2    0    0 -0.14411023635E+02  0.92862810240E+00 -0.48266958953E+03  0.48288556886E+03  0.00000000000E+00 0.  1.
        -15    1    1    2    0    0 -0.12966008465E+01  0.77277315223E+01  0.10669180742E+01  0.81052483869E+01  0.17770000000E+01 0.  1.
         15    1    1    2    0    0  0.97402600661E+01 -0.44991412200E+01 -0.11514464033E+02  0.15838420024E+02  0.17770000000E+01 0. -1.
</event>
<event>
 6    1  0.1599106E-003  0.5004733E+03  0.7546771E-02  0.9398751E-01
        -11   -1    0    0    0    0  0.00000000000E+00  0.00000000000E+00  0.50000000000E+03  0.50000000000E+03  0.00000000000E+00 0.  1.
         11   -1    0    0    0    0 -0.00000000000E+00 -0.00000000000E+00 -0.50000000000E+03  0.50000000000E+03  0.00000000000E+00 0. -1.
        -11    1    1    2    0    0  0.28323306948E+02  0.14448947326E+02  0.49851377895E+03  0.49952674563E+03  0.00000000000E+00 0.  1.
         11    1    1    2    0    0 -0.10548177734E+01  0.34167720014E+01 -0.45448442321E+02  0.45588900852E+02  0.00000000000E+00 0. -1.
        -15    1    1    2    0    0 -0.28899298800E+02 -0.10982824701E+02 -0.41309609399E+03  0.41425515387E+03  0.17770000000E+01 0. -1.
         15    1    1    2    0    0  0.16308096254E+01 -0.68828946259E+01 -0.39969242635E+02  0.40629199651E+02  0.17770000000E+01 0.  1.
</event>
<event>
 6    1  0.1599106E-003  0.5000953E+03  0.7546771E-02  0.9399597E-01
        -11   -1    0    0    0    0  0.00000000000E+00  0.00000000000E+00  0.50000000000E+03  0.50000000000E+03  0.00000000000E+00 0.  1.
         11   -1    0    0    0    0 -0.00000000000E+00 -0.00000000000E+00 -0.50000000000E+03  0.50000000000E+03  0.00000000000E+00 0. -1.
        -11    1    1    2    0    0 -0.69673463689E+01 -0.97352395861E+00  0.49985523672E+03  0.49990474026E+03  0.00000000000E+00 0.  1.
         11    1    1    2    0    0  0.13613097788E+01 -0.17335642688E+01 -0.44056583526E+02  0.44111687356E+02  0.00000000000E+00 0. -1.
        -15    1    1    2    0    0  0.65090387348E+00  0.58216495107E+01 -0.15177667182E+03  0.15190006951E+03  0.17770000000E+01 0. -1.
         15    1    1    2    0    0  0.49551327166E+01 -0.31145612833E+01 -0.30402198137E+03  0.30408350287E+03  0.17770000000E+01 0.  1.
</event>
<event>
 6    1  0.1599106E-003  0.5002106E+03  0.7546771E-02  0.9399339E-01
        -11   -1    0    0    0    0  0.00000000000E+00  0.00000000000E+00  0.50000000000E+03  0.50000000000E+03  0.00000000000E+00 0. -1.
         11   -1    0    0    0    0 -0.00000000000E+00 -0.00000000000E+00 -0.50000000000E+03  0.50000000000E+03  0.00000000000E+00 0.  1.
        -11    1    1    2    0    0 -0.19897527203E+01 -0.70625025580E+00  0.95727168668E+02  0.95750450268E+02  0.00000000000E+00 0. -1.
         11    1    1    2    0    0 -0.14204501981E+02 -0.47864910515E+01 -0.49956460022E+03  0.49978942383E+03  0.00000000000E+00 0.  1.
        -15    1    1    2    0    0  0.18417460976E+02  0.31959401626E+01  0.33690398636E+03  0.33742683748E+03  0.17770000000E+01 0. -1.
         15    1    1    2    0    0 -0.22232062748E+01  0.22968011448E+01  0.66933445199E+02  0.67033288423E+02  0.17770000000E+01 0.  1.
</event>
<event>
 6    1  0.1599106E-003  0.5028984E+03  0.7546771E-02  0.9393348E-01
        -11   -1    0    0    0    0  0.00000000000E+00  0.00000000000E+00  0.50000000000E+03  0.50000000000E+03  0.00000000000E+00 0. -1.
         11   -1    0    0    0    0 -0.00000000000E+00 -0.00000000000E+00 -0.50000000000E+03  0.50000000000E+03  0.00000000000E+00 0.  1.
        -11    1    1    2    0    0 -0.71036417452E+01  0.72803928320E+01  0.38784593452E+03  0.38797929683E+03  0.00000000000E+00 0. -1.
         11    1    1    2    0    0  0.11250520271E+02  0.13686860913E+02 -0.49678579580E+03  0.49710163073E+03  0.00000000000E+00 0.  1.
        -15    1    1    2    0    0 -0.94811113569E+01 -0.18821553879E+02  0.36160353064E+02  0.41891183150E+02  0.17770000000E+01 0. -1.
         15    1    1    2    0    0  0.53342328312E+01 -0.21456998664E+01  0.72779508220E+02  0.73027889286E+02  0.17770000000E+01 0.  1.
</event>
<event>
 6    1  0.1599106E-003  0.5005570E+03  0.7546771E-02  0.9398564E-01
        -11   -1    0    0    0    0  0.00000000000E+00  0.00000000000E+00  0.50000000000E+03  0.50000000000E+03  0.00000000000E+00 0.  1.
         11   -1    0    0    0    0 -0.00000000000E+00 -0.00000000000E+00 -0.50000000000E+03  0.50000000000E+03  0.00000000000E+00 0.  1.
        -11    1    1    2    0    0 -0.14389755599E+01  0.73333429695E+01  0.34821345808E+03  0.34829364185E+03  0.00000000000E+00 0.  1.
         11    1    1    2    0    0  0.72605616846E+01 -0.14651980058E+01 -0.49938809296E+03  0.49944301972E+03  0.00000000000E+00 0.  1.
        -15    1    1    2    0    0 -0.64006354292E+01 -0.62903815600E+01  0.38485415884E+02  0.39557831069E+02  0.17770000000E+01 0.  1.
         15    1    1    2    0    0  0.57904930453E+00  0.42223659621E+00  0.11268921900E+03  0.11270550736E+03  0.17770000000E+01 0. -1.
</event>
<event>
 6    1  0.1599106E-003  0.5013336E+03  0.7546771E-02  0.9396831E-01
        -11   -1    0    0    0    0  0.00000000000E+00  0.00000000000E+00  0.50000000000E+03  0.50000000000E+03  0.00000000000E+00 0.  1.
         11   -1    0    0    0    0 -0.00000000000E+00 -0.00000000000E+00 -0.50000000000E+03  0.50000000000E+03  0.00000000000E+00 0. -1.
        -11    1    1    2    0    0 -0.44684012360E+01 -0.60374080267E+01  0.39268706185E+03  0.39275888972E+03  0.00000000000E+00 0.  1.
         11    1    1    2    0    0 -0.10444335415E+02 -0.38707050568E+01 -0.49854194743E+03  0.49866636125E+03  0.00000000000E+00 0. -1.
        -15    1    1    2    0    0  0.25099753925E+01  0.62177491197E+00  0.61098486837E+02  0.61178994788E+02  0.17770000000E+01 0. -1.
         15    1    1    2    0    0  0.12402761259E+02  0.92863381716E+01  0.44756398738E+02  0.47395754246E+02  0.17770000000E+01 0. -1.
</event>
<event>
 6    1  0.1599106E-003  0.5032048E+03  0.7546771E-02  0.9392667E-01
        -11   -1    0    0    0    0  0.00000000000E+00  0.00000000000E+00  0.50000000000E+03  0.50000000000E+03  0.00000000000E+00 0. -1.
         11   -1    0    0    0    0 -0.00000000000E+00 -0.00000000000E+00 -0.50000000000E+03  0.50000000000E+03  0.00000000000E+00 0. -1.
        -11    1    1    2    0    0  0.10220494911E+02  0.11433660825E+02  0.49655844299E+03  0.49679520370E+03  0.00000000000E+00 0. -1.
         11    1    1    2    0    0 -0.15092592855E-01 -0.81327730824E+01 -0.24119610626E+03  0.24133318027E+03  0.00000000000E+00 0. -1.
        -15    1    1    2    0    0 -0.92352899576E+01 -0.71393917940E+01 -0.75364994280E+01  0.14007785279E+02  0.17770000000E+01 0.  1.
         15    1    1    2    0    0 -0.97011236093E+00  0.38385040513E+01 -0.24782583730E+03  0.24786383075E+03  0.17770000000E+01 0. -1.
</event>
<event>
 6    1  0.1599106E-003  0.5045378E+03  0.7546771E-02  0.9389713E-01
        -11   -1    0    0    0    0  0.00000000000E+00  0.00000000000E+00  0.50000000000E+03  0.50000000000E+03  0.00000000000E+00 0. -1.
         11   -1    0    0    0    0 -0.00000000000E+00 -0.00000000000E+00 -0.50000000000E+03  0.50000000000E+03  0.00000000000E+00 0. -1.
        -11    1    1    2    0    0 -0.12128794426E+02 -0.17704056094E+02  0.33954281856E+03  0.34022032110E+03  0.00000000000E+00 0. -1.
         11    1    1    2    0    0  0.62588515109E+01  0.28983885607E+01 -0.49541420184E+03  0.49546221376E+03  0.00000000000E+00 0. -1.
        -15    1    1    2    0    0 -0.26838005231E+01  0.50598080713E+00 -0.30809442861E+01  0.44842779262E+01  0.17770000000E+01 0.  1.
         15    1    1    2    0    0  0.85537434386E+01  0.14299686726E+02  0.15895232757E+03  0.15983318721E+03  0.17770000000E+01 0. -1.
</event>
<event>
 6    1  0.1599106E-003  0.5076799E+03  0.7546771E-02  0.9382787E-01
        -11   -1    0    0    0    0  0.00000000000E+00  0.00000000000E+00  0.50000000000E+03  0.50000000000E+03  0.00000000000E+00 0.  1.
         11   -1    0    0    0    0 -0.00000000000E+00 -0.00000000000E+00 -0.50000000000E+03  0.50000000000E+03  0.00000000000E+00 0. -1.
        -11    1    1    2    0    0 -0.34927297113E+01 -0.75529856322E+01  0.48703227680E+03  0.48710336213E+03  0.00000000000E+00 0.  1.
         11    1    1    2    0    0  0.60578212840E+01  0.32195581849E+01 -0.49227226889E+03  0.49232006812E+03  0.00000000000E+00 0. -1.
        -15    1    1    2    0    0 -0.43145387421E+00 -0.52370362000E+01  0.84492299161E+01  0.10107418849E+02  0.17770000000E+01 0.  1.
         15    1    1    2    0    0 -0.21336376985E+01  0.95704636473E+01 -0.32092378219E+01  0.10469150904E+02  0.17770000000E+01 0. -1.
</event>
<event>
 6    1  0.1599106E-003  0.5041083E+03  0.7546771E-02  0.9390664E-01
        -11   -1    0    0    0    0  0.00000000000E+00  0.00000000000E+00  0.50000000000E+03  0.50000000000E+03  0.00000000000E+00 0. -1.
         11   -1    0    0    0    0 -0.00000000000E+00 -0.00000000000E+00 -0.50000000000E+03  0.50000000000E+03  0.00000000000E+00 0.  1.
        -11    1    1    2    0    0  0.34396830750E+01  0.64227841256E+01  0.43210478481E+03  0.43216620487E+03  0.00000000000E+00 0. -1.
         11    1    1    2    0    0  0.92838942351E+01 -0.57314301460E+01 -0.49577166664E+03  0.49589170736E+03  0.00000000000E+00 0.  1.
        -15    1    1    2    0    0 -0.11652849570E+02 -0.10610463445E+02  0.58412234079E+02  0.60526999403E+02  0.17770000000E+01 0.  1.
         15    1    1    2    0    0 -0.10707277400E+01  0.99191094650E+01  0.52546477462E+01  0.11415088366E+02  0.17770000000E+01 0. -1.
</event>
<event>
 6    1  0.1599106E-003  0.5056485E+03  0.7546771E-02  0.9387259E-01
        -11   -1    0    0    0    0  0.00000000000E+00  0.00000000000E+00  0.50000000000E+03  0.50000000000E+03  0.00000000000E+00 0. -1.
         11   -1    0    0    0    0 -0.00000000000E+00 -0.00000000000E+00 -0.50000000000E+03  0.50000000000E+03  0.00000000000E+00 0. -1.
        -11    1    1    2    0    0  0.32207162102E+01 -0.61834492864E+01  0.49430235550E+03  0.49435152140E+03  0.00000000000E+00 0. -1.
         11    1    1    2    0    0 -0.31380789840E+01 -0.61810003439E+01 -0.48669100962E+03  0.48674037345E+03  0.00000000000E+00 0. -1.
        -15    1    1    2    0    0 -0.38264761988E+00  0.61553253261E+01 -0.10111293079E+02  0.11976244228E+02  0.17770000000E+01 0.  1.
         15    1    1    2    0    0  0.30001039376E+00  0.62091243042E+01  0.24999472006E+01  0.69318609238E+01  0.17770000000E+01 0. -1.
</event>
<event>
 6    1  0.1599106E-003  0.5199221E+03  0.7546771E-02  0.9356304E-01
        -11   -1    0    0    0    0  0.00000000000E+00  0.00000000000E+00  0.50000000000E+03  0.50000000000E+03  0.00000000000E+00 0. -1.
         11   -1    0    0    0    0 -0.00000000000E+00 -0.00000000000E+00 -0.50000000000E+03  0.50000000000E+03  0.00000000000E+00 0.  1.
        -11    1    1    2    0    0 -0.93482715822E+01 -0.56178890322E+01  0.47343777769E+03  0.47356338562E+03  0.00000000000E+00 0. -1.
         11    1    1    2    0    0  0.11589799009E+01  0.97797097140E+01 -0.47997684583E+03  0.48007786711E+03  0.00000000000E+00 0.  1.
        -15    1    1    2    0    0  0.90403591985E+01 -0.12223018653E+02 -0.16119143543E+02  0.22228693101E+02  0.17770000000E+01 0. -1.
         15    1    1    2    0    0 -0.85106751716E+00  0.80611979712E+01  0.22658211680E+02  0.24130054169E+02  0.17770000000E+01 0.  1.
</event>
<event>
 6    1  0.1599106E-003  0.5196786E+03  0.7546771E-02  0.9356823E-01
        -11   -1    0    0    0    0  0.00000000000E+00  0.00000000000E+00  0.50000000000E+03  0.50000000000E+03  0.00000000000E+00 0.  1.
         11   -1    0    0    0    0 -0.00000000000E+00 -0.00000000000E+00 -0.50000000000E+03  0.50000000000E+03  0.00000000000E+00 0.  1.
        -11    1    1    2    0    0 -0.75358196258E+00  0.86008933803E+01  0.48024383440E+03  0.48032143792E+03  0.00000000000E+00 0.  1.
         11    1    1    2    0    0 -0.27659087875E+02 -0.48881685003E+01 -0.42924369931E+03  0.43016168208E+03  0.00000000000E+00 0.  1.
        -15    1    1    2    0    0 -0.15031221992E+02 -0.20092713552E+02 -0.85144793986E+01  0.26557651645E+02  0.17770000000E+01 0.  1.
         15    1    1    2    0    0  0.43443891829E+02  0.16379988672E+02 -0.42485655685E+02  0.62959228348E+02  0.17770000000E+01 0. -1.
</event>
<event>
 6    1  0.1599106E-003  0.5199647E+03  0.7546771E-02  0.9356213E-01
        -11   -1    0    0    0    0  0.00000000000E+00  0.00000000000E+00  0.50000000000E+03  0.50000000000E+03  0.00000000000E+00 0. -1.
         11   -1    0    0    0    0 -0.00000000000E+00 -0.00000000000E+00 -0.50000000000E+03  0.50000000000E+03  0.00000000000E+00 0.  1.
        -11    1    1    2    0    0 -0.23732828802E+01  0.13294580732E+02  0.47984527367E+03  0.48003527476E+03  0.00000000000E+00 0. -1.
         11    1    1    2    0    0  0.17340060756E+02 -0.47969838634E+00 -0.42207220231E+03  0.42242851677E+03  0.00000000000E+00 0.  1.
        -15    1    1    2    0    0  0.47929474522E+01 -0.19883122858E+02  0.12594094237E+02  0.24084847072E+02  0.17770000000E+01 0. -1.
         15    1    1    2    0    0 -0.19759725328E+02  0.70682405121E+01 -0.70367165599E+02  0.73451361406E+02  0.17770000000E+01 0.  1.
</event>
<event>
 6    1  0.1599106E-003  0.4945694E+03  0.7546771E-02  0.9412044E-01
        -11   -1    0    0    0    0  0.00000000000E+00  0.00000000000E+00  0.50000000000E+03  0.50000000000E+03  0.00000000000E+00 0. -1.
         11   -1    0    0    0    0 -0.00000000000E+00 -0.00000000000E+00 -0.50000000000E+03  0.50000000000E+03  0.00000000000E+00 0.  1.
        -11    1    1    2    0    0 -0.60596782085E+00 -0.27222476379E+00  0.11365030807E+02  0.11384429216E+02  0.00000000000E+00 0. -1.
         11    1    1    2    0    0  0.65583936151E+01 -0.49153745258E+01 -0.49962695784E+03  0.49969417690E+03  0.00000000000E+00 0.  1.
        -15    1    1    2    0    0 -0.85941525005E+00 -0.80342291491E+01  0.30183801547E+03  0.30195137481E+03  0.17770000000E+01 0. -1.
         15    1    1    2    0    0 -0.50930105442E+01  0.13221828439E+02  0.18642391156E+03  0.18697001907E+03  0.17770000000E+01 0.  1.
</event>
<event>
 6    1  0.1599106E-003  0.5056764E+03  0.7546771E-02  0.9387197E-01
        -11   -1    0    0    0    0  0.00000000000E+00  0.00000000000E+00  0.50000000000E+03  0.50000000000E+03  0.00000000000E+00 0. -1.
         11   -1    0    0    0    0 -0.00000000000E+00 -0.00000000000E+00 -0.50000000000E+03  0.50000000000E+03  0.00000000000E+00 0.  1.
        -11    1    1    2    0    0 -0.46261646210E+01  0.45861618770E+01  0.45088127948E+03  0.45092833407E+03  0.00000000000E+00 0. -1.
         11    1    1    2    0    0 -0.15841299119E+02  0.18584387494E+01 -0.49406624669E+03  0.49432363556E+03  0.00000000000E+00 0.  1.
        -15    1    1    2    0    0  0.77360580932E+01 -0.16237470438E+01  0.39788615414E+02  0.40605107990E+02  0.17770000000E+01 0.  1.
         15    1    1    2    0    0  0.12731405647E+02 -0.48208535826E+01  0.33963517990E+01  0.14142922383E+02  0.17770000000E+01 0. -1.
</event>
<event>
 6    1  0.1599106E-003  0.5261754E+03  0.7546771E-02  0.9343073E-01
        -11   -1    0    0    0    0  0.00000000000E+00  0.00000000000E+00  0.50000000000E+03  0.50000000000E+03  0.00000000000E+00 0.  1.
         11   -1    0    0    0    0 -0.00000000000E+00 -0.00000000000E+00 -0.50000000000E+03  0.50000000000E+03  0.00000000000E+00 0.  1.
        -11    1    1    2    0    0  0.98746813038E+01 -0.14945195512E+02  0.47348588471E+03  0.47382459964E+03  0.00000000000E+00 0.  1.
         11    1    1    2    0    0  0.23162819845E+01 -0.21157761742E+02 -0.44828485585E+03  0.44878984840E+03  0.00000000000E+00 0.  1.
        -15    1    1    2    0    0 -0.99519842621E+01  0.90656529337E+01 -0.42864289574E+02  0.44963686498E+02  0.17770000000E+01 0.  1.
         15    1    1    2    0    0 -0.22389790262E+01  0.27037304320E+02  0.17663260713E+02  0.32421865461E+02  0.17770000000E+01 0. -1.
</event>
<event>
 6    1  0.1599106E-003  0.5002211E+03  0.7546771E-02  0.9399315E-01
        -11   -1    0    0    0    0  0.00000000000E+00  0.00000000000E+00  0.50000000000E+03  0.50000000000E+03  0.00000000000E+00 0. -1.
         11   -1    0    0    0    0 -0.00000000000E+00 -0.00000000000E+00 -0.50000000000E+03  0.50000000000E+03  0.00000000000E+00 0.  1.
        -11    1    1    2    0    0 -0.51637888568E+01  0.61064175434E+01  0.49971486749E+03  0.49977885294E+03  0.00000000000E+00 0. -1.
         11    1    1    2    0    0  0.43288127449E+00 -0.84364443967E+01 -0.15736434689E+03  0.15759092186E+03  0.00000000000E+00 0.  1.
        -15    1    1    2    0    0  0.60110547032E+01  0.55881632143E+01 -0.14658095344E+03  0.14682129950E+03  0.17770000000E+01 0. -1.
         15    1    1    2    0    0 -0.12801471208E+01 -0.32581363610E+01 -0.19576956716E+03  0.19580892570E+03  0.17770000000E+01 0.  1.
</event>
<event>
 6    1  0.1599106E-003  0.5002411E+03  0.7546771E-02  0.9399270E-01
        -11   -1    0    0    0    0  0.00000000000E+00  0.00000000000E+00  0.50000000000E+03  0.50000000000E+03  0.00000000000E+00 0. -1.
         11   -1    0    0    0    0 -0.00000000000E+00 -0.00000000000E+00 -0.50000000000E+03  0.50000000000E+03  0.00000000000E+00 0. -1.
        -11    1    1    2    0    0 -0.42639191144E+01  0.53864199946E+01  0.49971166620E+03  0.49975888573E+03  0.00000000000E+00 0. -1.
         11    1    1    2    0    0  0.62244335692E+01 -0.18708533041E+01 -0.41056426221E+03  0.41061570485E+03  0.00000000000E+00 0. -1.
        -15    1    1    2    0    0  0.26771309731E+01 -0.18715966048E+01 -0.48574204496E+02  0.48716331712E+02  0.17770000000E+01 0. -1.
         15    1    1    2    0    0 -0.46376454279E+01 -0.16439700857E+01 -0.40573199500E+02  0.40909077714E+02  0.17770000000E+01 0.  1.
</event>
<event>
 6    1  0.1599106E-003  0.5110941E+03  0.7546771E-02  0.9375322E-01
        -11   -1    0    0    0    0  0.00000000000E+00  0.00000000000E+00  0.50000000000E+03  0.50000000000E+03  0.00000000000E+00 0.  1.
         11   -1    0    0    0    0 -0.00000000000E+00 -0.00000000000E+00 -0.50000000000E+03  0.50000000000E+03  0.00000000000E+00 0. -1.
        -11    1    1    2    0    0 -0.69166579990E+01  0.28179598421E+01  0.43942174271E+03  0.43948520910E+03  0.00000000000E+00 0.  1.
         11    1    1    2    0    0 -0.15993523497E+02  0.12747045714E+01 -0.48864254570E+03  0.48890587554E+03  0.00000000000E+00 0. -1.
        -15    1    1    2    0    0  0.27758703019E+02 -0.15663966192E+02  0.15302442422E+02  0.35400959072E+02  0.17770000000E+01 0. -1.
         15    1    1    2    0    0 -0.48485215225E+01  0.11571301779E+02  0.33918360569E+02  0.36207956287E+02  0.17770000000E+01 0.  1.
</event>
<event>
 6    1  0.1599106E-003  0.5067930E+03  0.7546771E-02  0.9384737E-01
        -11   -1    0    0    0    0  0.00000000000E+00  0.00000000000E+00  0.50000000000E+03  0.50000000000E+03  0.00000000000E+00 0. -1.
         11   -1    0    0    0    0 -0.00000000000E+00 -0.00000000000E+00 -0.50000000000E+03  0.50000000000E+03  0.00000000000E+00 0.  1.
        -11    1    1    2    0    0 -0.73578893738E+01 -0.27336478507E+02  0.49239388451E+03  0.49320701444E+03  0.00000000000E+00 0. -1.
         11    1    1    2    0    0  0.12632988263E+02  0.17928780450E+02 -0.47413233649E+03  0.47463934315E+03  0.00000000000E+00 0.  1.
        -15    1    1    2    0    0  0.84539749191E+00  0.16387889713E+02 -0.84995796091E+01  0.18565511269E+02  0.17770000000E+01 0. -1.
         15    1    1    2    0    0 -0.61204963811E+01 -0.69801916557E+01 -0.97619684163E+01  0.13588131139E+02  0.17770000000E+01 0.  1.
</event>
<event>
 6    1  0.1599106E-003  0.5105806E+03  0.7546771E-02  0.9376441E-01
        -11   -1    0    0    0    0  0.00000000000E+00  0.00000000000E+00  0.50000000000E+03  0.50000000000E+03  0.00000000000E+00 0.  1.
         11   -1    0    0    0    0 -0.00000000000E+00 -0.00000000000E+00 -0.50000000000E+03  0.50000000000E+03  0.00000000000E+00 0. -1.
        -11    1    1    2    0    0  0.25130119254E+01 -0.64072727549E+01  0.38649307259E+03  0.38655434745E+03  0.00000000000E+00 0.  1.
         11    1    1    2    0    0  0.59385512721E+02 -0.17456030686E+02 -0.48548946378E+03  0.48941942296E+03  0.00000000000E+00 0. -1.
        -15    1    1    2    0    0  0.31078337448E+01  0.79624406937E+00  0.14393170373E+02  0.14853070981E+02  0.17770000000E+01 0.  1.
         15    1    1    2    0    0 -0.65006358391E+02  0.23067059372E+02  0.84603220814E+02  0.10917315861E+03  0.17770000000E+01 0.  1.
</event>
<event>
 6    1  0.1744615E-003  0.5001442E+03  0.7546771E-02  0.9399487E-01
        -11   -1    0    0    0    0  0.00000000000E+00  0.00000000000E+00  0.50000000000E+03  0.50000000000E+03  0.00000000000E+00 0.  1.
         11   -1    0    0    0    0 -0.00000000000E+00 -0.00000000000E+00 -0.50000000000E+03  0.50000000000E+03  0.00000000000E+00 0. -1.
        -11    1    1    2    0    0 -0.43956790818E+01 -0.51871873114E+01  0.49980960265E+03  0.49985584703E+03  0.00000000000E+00 0.  1.
         11    1    1    2    0    0  0.60997519204E+00 -0.43853835644E+00 -0.37433942767E+02  0.37441480429E+02  0.00000000000E+00 0. -1.
        -15    1    1    2    0    0  0.95608499902E+01  0.20294848927E+01 -0.31906726847E+03  0.31922187927E+03  0.17770000000E+01 0. -1.
         15    1    1    2    0    0 -0.57751461004E+01  0.35962407752E+01 -0.14330839141E+03  0.14348079327E+03  0.17770000000E+01 0.  1.
</event>
<event>
 6    1  0.1599106E-003  0.4392616E+03  0.7546771E-02  0.9547018E-01
        -11   -1    0    0    0    0  0.00000000000E+00  0.00000000000E+00  0.50000000000E+03  0.50000000000E+03  0.00000000000E+00 0.  1.
         11   -1    0    0    0    0 -0.00000000000E+00 -0.00000000000E+00 -0.50000000000E+03  0.50000000000E+03  0.00000000000E+00 0.  1.
        -11    1    1    2    0    0 -0.35752288455E+02  0.60297159842E+02  0.46864388073E+03  0.47385763744E+03  0.00000000000E+00 0.  1.
         11    1    1    2    0    0 -0.15781881133E+02  0.34672091806E+02 -0.13518824184E+03  0.14045313259E+03  0.00000000000E+00 0.  1.
        -15    1    1    2    0    0  0.95194568856E+02 -0.70575611203E+02 -0.12891174625E+03  0.17511230364E+03  0.17770000000E+01 0.  1.
         15    1    1    2    0    0 -0.43660399268E+02 -0.24393640444E+02 -0.20454389263E+03  0.21057692632E+03  0.17770000000E+01 0. -1.
</event>
<event>
 6    1  0.1599106E-003  0.5001303E+03  0.7546771E-02  0.9399518E-01
        -11   -1    0    0    0    0  0.00000000000E+00  0.00000000000E+00  0.50000000000E+03  0.50000000000E+03  0.00000000000E+00 0.  1.
         11   -1    0    0    0    0 -0.00000000000E+00 -0.00000000000E+00 -0.50000000000E+03  0.50000000000E+03  0.00000000000E+00 0. -1.
        -11    1    1    2    0    0  0.12624581603E+02  0.50273262667E+00  0.49970995711E+03  0.49986965704E+03  0.00000000000E+00 0.  1.
         11    1    1    2    0    0  0.83334166979E+00 -0.98109292849E+00 -0.27176512207E+02  0.27206981042E+02  0.00000000000E+00 0. -1.
        -15    1    1    2    0    0 -0.86608488027E+01  0.52833140676E+01 -0.17208042462E+03  0.17238838121E+03  0.17770000000E+01 0. -1.
         15    1    1    2    0    0 -0.47970744705E+01 -0.48049537658E+01 -0.30045302028E+03  0.30053498070E+03  0.17770000000E+01 0.  1.
</event>
<event>
 6    1  0.1599106E-003  0.4176586E+03  0.7546771E-02  0.9605617E-01
        -11   -1    0    0    0    0  0.00000000000E+00  0.00000000000E+00  0.50000000000E+03  0.50000000000E+03  0.00000000000E+00 0. -1.
         11   -1    0    0    0    0 -0.00000000000E+00 -0.00000000000E+00 -0.50000000000E+03  0.50000000000E+03  0.00000000000E+00 0.  1.
        -11    1    1    2    0    0 -0.34579185224E+01  0.97034960148E+01  0.54804210098E+02  0.55763935298E+02  0.00000000000E+00 0. -1.
         11    1    1    2    0    0  0.13369497861E+03 -0.20089825914E+02 -0.45472077999E+03  0.47439322947E+03  0.00000000000E+00 0.  1.
        -15    1    1    2    0    0  0.57576719151E+02 -0.34843345566E+00  0.77671280273E+02  0.96701527922E+02  0.17770000000E+01 0.  1.
         15    1    1    2    0    0 -0.18781377923E+03  0.10734763355E+02  0.32224528962E+03  0.37314130731E+03  0.17770000000E+01 0. -1.
</event>
<event>
 6    1  0.1599106E-003  0.5005274E+03  0.7546771E-02  0.9398630E-01
        -11   -1    0    0    0    0  0.00000000000E+00  0.00000000000E+00  0.50000000000E+03  0.50000000000E+03  0.00000000000E+00 0. -1.
         11   -1    0    0    0    0 -0.00000000000E+00 -0.00000000000E+00 -0.50000000000E+03  0.50000000000E+03  0.00000000000E+00 0.  1.
        -11    1    1    2    0    0  0.31301468225E+01  0.12397505168E+02  0.49930891204E+03  0.49947260745E+03  0.00000000000E+00 0. -1.
         11    1    1    2    0    0  0.29870397875E+01  0.17100298115E+01 -0.21130845300E+03  0.21133648270E+03  0.00000000000E+00 0.  1.
        -15    1    1    2    0    0 -0.58338246244E+01 -0.10426543160E+02 -0.62683896122E+02  0.63837096378E+02  0.17770000000E+01 0.  1.
         15    1    1    2    0    0 -0.28336198563E+00 -0.36809918193E+01 -0.22531656291E+03  0.22535381347E+03  0.17770000000E+01 0. -1.
</event>
<event>
 6    1  0.1599106E-003  0.5122102E+03  0.7546771E-02  0.9372896E-01
        -11   -1    0    0    0    0  0.00000000000E+00  0.00000000000E+00  0.50000000000E+03  0.50000000000E+03  0.00000000000E+00 0.  1.
         11   -1    0    0    0    0 -0.00000000000E+00 -0.00000000000E+00 -0.50000000000E+03  0.50000000000E+03  0.00000000000E+00 0. -1.
        -11    1    1    2    0    0 -0.51839063633E+01 -0.28823232692E+01  0.34209912924E+03  0.34215054421E+03  0.00000000000E+00 0.  1.
         11    1    1    2    0    0  0.18215938060E+02  0.32004965523E+01 -0.48743907696E+03  0.48778982905E+03  0.00000000000E+00 0. -1.
        -15    1    1    2    0    0 -0.12663991618E+02  0.57526547046E+01 -0.82962688572E+01  0.16292805952E+02  0.17770000000E+01 0. -1.
         15    1    1    2    0    0 -0.36804007840E+00 -0.60708279877E+01  0.15363621657E+03  0.15376682079E+03  0.17770000000E+01 0.  1.
</event>
<event>
 6    1  0.1599106E-003  0.4775264E+03  0.7546771E-02  0.9451550E-01
        -11   -1    0    0    0    0  0.00000000000E+00  0.00000000000E+00  0.50000000000E+03  0.50000000000E+03  0.00000000000E+00 0.  1.
         11   -1    0    0    0    0 -0.00000000000E+00 -0.00000000000E+00 -0.50000000000E+03  0.50000000000E+03  0.00000000000E+00 0. -1.
        -11    1    1    2    0    0 -0.16248169193E+02 -0.30418498070E+02  0.47590430218E+03  0.47715216950E+03  0.00000000000E+00 0.  1.
         11    1    1    2    0    0 -0.10997888884E+02  0.54011721106E+02 -0.47539582471E+03  0.47858061988E+03  0.00000000000E+00 0. -1.
        -15    1    1    2    0    0  0.17184960244E+02 -0.20284109901E+02  0.10728813453E+02  0.28723390123E+02  0.17770000000E+01 0.  1.
         15    1    1    2    0    0  0.10061097833E+02 -0.33091131345E+01 -0.11237290921E+02  0.15543820495E+02  0.17770000000E+01 0. -1.
</event>
<event>
 6    1  0.1599106E-003  0.5056562E+03  0.7546771E-02  0.9387242E-01
        -11   -1    0    0    0    0  0.00000000000E+00  0.00000000000E+00  0.50000000000E+03  0.50000000000E+03  0.00000000000E+00 0.  1.
         11   -1    0    0    0    0 -0.00000000000E+00 -0.00000000000E+00 -0.50000000000E+03  0.50000000000E+03  0.00000000000E+00 0. -1.
        -11    1    1    2    0    0 -0.70857345898E+00  0.18654859225E+02  0.30040531535E+03  0.30098481579E+03  0.00000000000E+00 0.  1.
         11    1    1    2    0    0 -0.15838622070E+01  0.27507761588E+02 -0.49357530926E+03  0.49434377864E+03  0.00000000000E+00 0. -1.
        -15    1    1    2    0    0  0.11159183508E+02 -0.24299168808E+02  0.31842763838E+02  0.41618461278E+02  0.17770000000E+01 0. -1.
         15    1    1    2    0    0 -0.88667478423E+01 -0.21863452005E+02  0.16132723007E+03  0.16305294429E+03  0.17770000000E+01 0.  1.
</event>
<event>
 6    1  0.1599106E-003  0.5981486E+03  0.7546771E-02  0.9203550E-01
        -11   -1    0    0    0    0  0.00000000000E+00  0.00000000000E+00  0.50000000000E+03  0.50000000000E+03  0.00000000000E+00 0. -1.
         11   -1    0    0    0    0 -0.00000000000E+00 -0.00000000000E+00 -0.50000000000E+03  0.50000000000E+03  0.00000000000E+00 0.  1.
        -11    1    1    2    0    0  0.13029012566E+02  0.52064988273E+01  0.22868652499E+03  0.22911654133E+03  0.00000000000E+00 0. -1.
         11    1    1    2    0    0 -0.61146570615E+01  0.12787240991E+02 -0.40160130307E+03  0.40185135211E+03  0.00000000000E+00 0.  1.
        -15    1    1    2    0    0 -0.22538202355E+02 -0.91376938174E+02  0.24653963899E+03  0.26389897067E+03  0.17770000000E+01 0. -1.
         15    1    1    2    0    0  0.15623846851E+02  0.73383198356E+02 -0.73624860910E+02  0.10513313590E+03  0.17770000000E+01 0.  1.
</event>
<event>
 6    1  0.1599106E-003  0.5035354E+03  0.7546771E-02  0.9391934E-01
        -11   -1    0    0    0    0  0.00000000000E+00  0.00000000000E+00  0.50000000000E+03  0.50000000000E+03  0.00000000000E+00 0. -1.
         11   -1    0    0    0    0 -0.00000000000E+00 -0.00000000000E+00 -0.50000000000E+03  0.50000000000E+03  0.00000000000E+00 0. -1.
        -11    1    1    2    0    0  0.12513853543E+02  0.53294510511E+01  0.41379419934E+03  0.41401767955E+03  0.00000000000E+00 0. -1.
         11    1    1    2    0    0  0.67658538952E+01 -0.14067950240E+01 -0.49641654677E+03  0.49646464503E+03  0.00000000000E+00 0. -1.
        -15    1    1    2    0    0 -0.17651457721E+02  0.12105616392E+01  0.81891555146E+02  0.83799904251E+02  0.17770000000E+01 0. -1.
         15    1    1    2    0    0 -0.16282497168E+01 -0.51332176664E+01  0.73079229094E+00  0.57177711674E+01  0.17770000000E+01 0.  1.
</event>
<event>
 6    1  0.1599106E-003  0.5025912E+03  0.7546771E-02  0.9394030E-01
        -11   -1    0    0    0    0  0.00000000000E+00  0.00000000000E+00  0.50000000000E+03  0.50000000000E+03  0.00000000000E+00 0.  1.
         11   -1    0    0    0    0 -0.00000000000E+00 -0.00000000000E+00 -0.50000000000E+03  0.50000000000E+03  0.00000000000E+00 0. -1.
        -11    1    1    2    0    0  0.62227107376E+01 -0.88827316915E+01  0.49729053442E+03  0.49740878629E+03  0.00000000000E+00 0.  1.
         11    1    1    2    0    0 -0.43238662694E+01  0.75183357513E+01 -0.43784936912E+03  0.43793525918E+03  0.00000000000E+00 0. -1.
        -15    1    1    2    0    0  0.15816700108E+01 -0.64939752246E+01 -0.53755970588E+02  0.54199035942E+02  0.17770000000E+01 0.  1.
         15    1    1    2    0    0 -0.34805144790E+01  0.78583711648E+01 -0.56851947130E+01  0.10456918587E+02  0.17770000000E+01 0. -1.
</event>
<event>
 6    1  0.1599106E-003  0.5025428E+03  0.7546771E-02  0.9394138E-01
        -11   -1    0    0    0    0  0.00000000000E+00  0.00000000000E+00  0.50000000000E+03  0.50000000000E+03  0.00000000000E+00 0. -1.
         11   -1    0    0    0    0 -0.00000000000E+00 -0.00000000000E+00 -0.50000000000E+03  0.50000000000E+03  0.00000000000E+00 0. -1.
        -11    1    1    2    0    0  0.36880960380E+01  0.30973722221E+01  0.35391560891E+03  0.35394837759E+03  0.00000000000E+00 0. -1.
         11    1    1    2    0    0  0.81136939225E+01 -0.16648499989E+02 -0.49711235034E+03  0.49745722775E+03  0.00000000000E+00 0. -1.
        -15    1    1    2    0    0  0.10291519696E+02  0.76072077878E+01  0.24484680746E+02  0.27684694475E+02  0.17770000000E+01 0.  1.
         15    1    1    2    0    0 -0.22093309657E+02  0.59439199787E+01  0.11871206069E+03  0.12090970018E+03  0.17770000000E+01 0. -1.
</event>
<event>
 6    1  0.1599106E-003  0.5012378E+03  0.7546771E-02  0.9397044E-01
        -11   -1    0    0    0    0  0.00000000000E+00  0.00000000000E+00  0.50000000000E+03  0.50000000000E+03  0.00000000000E+00 0.  1.
         11   -1    0    0    0    0 -0.00000000000E+00 -0.00000000000E+00 -0.50000000000E+03  0.50000000000E+03  0.00000000000E+00 0.  1.
        -11    1    1    2    0    0 -0.83767125856E+01  0.46910585664E+00  0.49869167035E+03  0.49876223940E+03  0.00000000000E+00 0.  1.
         11    1    1    2    0    0  0.11129971846E+02 -0.95325922470E+01 -0.29953801605E+03  0.29989626481E+03  0.00000000000E+00 0.  1.
        -15    1    1    2    0    0  0.21095766768E+01 -0.84055322394E+01 -0.10940377323E+03  0.10976086102E+03  0.17770000000E+01 0. -1.
         15    1    1    2    0    0 -0.48628359373E+01  0.17469018630E+02 -0.89749881067E+02  0.91580634775E+02  0.17770000000E+01 0.  1.
</event>
<event>
 6    1  0.1599106E-003  0.5002034E+03  0.7546771E-02  0.9399355E-01
        -11   -1    0    0    0    0  0.00000000000E+00  0.00000000000E+00  0.50000000000E+03  0.50000000000E+03  0.00000000000E+00 0. -1.
         11   -1    0    0    0    0 -0.00000000000E+00 -0.00000000000E+00 -0.50000000000E+03  0.50000000000E+03  0.00000000000E+00 0.  1.
        -11    1    1    2    0    0 -0.90365131105E+00 -0.16575646589E+01  0.64220091280E+02  0.64247834440E+02  0.00000000000E+00 0. -1.
         11    1    1    2    0    0  0.68770419061E+01 -0.14154651708E+02 -0.49954876366E+03  0.49979657376E+03  0.00000000000E+00 0.  1.
        -15    1    1    2    0    0 -0.91965550129E+01  0.17066698952E+02  0.35686962127E+03  0.35740024224E+03  0.17770000000E+01 0.  1.
         15    1    1    2    0    0  0.32231644179E+01 -0.12544825849E+01  0.78459051103E+02  0.78555349560E+02  0.17770000000E+01 0. -1.
</event>
<event>
 6    1  0.1599106E-003  0.5052210E+03  0.7546771E-02  0.9388203E-01
        -11   -1    0    0    0    0  0.00000000000E+00  0.00000000000E+00  0.50000000000E+03  0.50000000000E+03  0.00000000000E+00 0.  1.
         11   -1    0    0    0    0 -0.00000000000E+00 -0.00000000000E+00 -0.50000000000E+03  0.50000000000E+03  0.00000000000E+00 0.  1.
        -11    1    1    2    0    0  0.44583141649E+01 -0.13174319128E+02  0.49458349270E+03  0.49477901178E+03  0.00000000000E+00 0.  1.
         11    1    1    2    0    0 -0.11608996379E+02  0.23843579930E+02 -0.43535844659E+03  0.43616540683E+03  0.00000000000E+00 0.  1.
        -15    1    1    2    0    0  0.10745831357E+02 -0.16483284602E+02 -0.58742782563E+02  0.61976155053E+02  0.17770000000E+01 0.  1.
         15    1    1    2    0    0 -0.35951491431E+01  0.58140237998E+01 -0.48226355155E+00  0.70794263354E+01  0.17770000000E+01 0. -1.
</event>
<event>
 6    1  0.1599106E-003  0.5018493E+03  0.7546771E-02  0.9395681E-01
        -11   -1    0    0    0    0  0.00000000000E+00  0.00000000000E+00  0.50000000000E+03  0.50000000000E+03  0.00000000000E+00 0. -1.
         11   -1    0    0    0    0 -0.00000000000E+00 -0.00000000000E+00 -0.50000000000E+03  0.50000000000E+03  0.00000000000E+00 0. -1.
        -11    1    1    2    0    0  0.40034963114E+01  0.40689968607E+01  0.42075434920E+03  0.42079306920E+03  0.00000000000E+00 0. -1.
         11    1    1    2    0    0  0.65584456355E+01 -0.15326917226E+02 -0.49787162722E+03  0.49815066475E+03  0.00000000000E+00 0. -1.
        -15    1    1    2    0    0  0.32519547166E+01  0.28964735207E+01  0.43135899513E+02  0.43391569736E+02  0.17770000000E+01 0. -1.
         15    1    1    2    0    0 -0.13813896664E+02  0.83614468449E+01  0.33981378508E+02  0.37664696318E+02  0.17770000000E+01 0.  1.
</event>
<event>
 6    1  0.1599106E-003  0.5011407E+03  0.7546771E-02  0.9397261E-01
        -11   -1    0    0    0    0  0.00000000000E+00  0.00000000000E+00  0.50000000000E+03  0.50000000000E+03  0.00000000000E+00 0.  1.
         11   -1    0    0    0    0 -0.00000000000E+00 -0.00000000000E+00 -0.50000000000E+03  0.50000000000E+03  0.00000000000E+00 0. -1.
        -11    1    1    2    0    0 -0.74860701958E+01  0.11056967258E+02  0.49868057542E+03  0.49885931291E+03  0.00000000000E+00 0.  1.
         11    1    1    2    0    0  0.69572419772E+01  0.26560093664E-01 -0.21650957579E+03  0.21662132935E+03  0.00000000000E+00 0. -1.
        -15    1    1    2    0    0  0.72410346567E+01  0.54534201262E+01 -0.23849088567E+02  0.25575557247E+02  0.17770000000E+01 0.  1.
         15    1    1    2    0    0 -0.67122064381E+01 -0.16536947478E+02 -0.25832191107E+03  0.25894380050E+03  0.17770000000E+01 0. -1.
</event>
<event>
 6    1  0.1599106E-003  0.5093116E+03  0.7546771E-02  0.9379212E-01
        -11   -1    0    0    0    0  0.00000000000E+00  0.00000000000E+00  0.50000000000E+03  0.50000000000E+03  0.00000000000E+00 0.  1.
         11   -1    0    0    0    0 -0.00000000000E+00 -0.00000000000E+00 -0.50000000000E+03  0.50000000000E+03  0.00000000000E+00 0.  1.
        -11    1    1    2    0    0 -0.14279147457E+02 -0.46147155902E+01  0.49045884870E+03  0.49068836539E+03  0.00000000000E+00 0.  1.
         11    1    1    2    0    0  0.45929890434E+01 -0.55524261839E+01 -0.43968437095E+03  0.43974341501E+03  0.00000000000E+00 0.  1.
        -15    1    1    2    0    0  0.79544906518E-01 -0.12594005990E+01  0.83152017664E+01  0.85960878705E+01  0.17770000000E+01 0. -1.
         15    1    1    2    0    0  0.96066135066E+01  0.11426542373E+02 -0.59089679518E+02  0.60972131734E+02  0.17770000000E+01 0.  1.
</event>
<event>
 6    1  0.1599106E-003  0.5354648E+03  0.7546771E-02  0.9323774E-01
        -11   -1    0    0    0    0  0.00000000000E+00  0.00000000000E+00  0.50000000000E+03  0.50000000000E+03  0.00000000000E+00 0. -1.
         11   -1    0    0    0    0 -0.00000000000E+00 -0.00000000000E+00 -0.50000000000E+03  0.50000000000E+03  0.00000000000E+00 0.  1.
        -11    1    1    2    0    0 -0.89310552976E+01 -0.21027709296E+01  0.46444458070E+03  0.46453520205E+03  0.00000000000E+00 0. -1.
         11    1    1    2    0    0  0.42755737917E+01 -0.36422191095E+01 -0.41129086345E+03  0.41132921201E+03  0.00000000000E+00 0.  1.
        -15    1    1    2    0    0  0.98116433979E+01  0.13954794900E+02  0.33121744094E+02  0.37298958534E+02  0.17770000000E+01 0.  1.
         15    1    1    2    0    0 -0.51561618919E+01 -0.82098048610E+01 -0.86275461345E+02  0.86836627414E+02  0.17770000000E+01 0. -1.
</event>
<event>
 6    1  0.1599106E-003  0.5119990E+03  0.7546771E-02  0.9373354E-01
        -11   -1    0    0    0    0  0.00000000000E+00  0.00000000000E+00  0.50000000000E+03  0.50000000000E+03  0.00000000000E+00 0.  1.
         11   -1    0    0    0    0 -0.00000000000E+00 -0.00000000000E+00 -0.50000000000E+03  0.50000000000E+03  0.00000000000E+00 0.  1.
        -11    1    1    2    0    0  0.10448055006E+02  0.83848834806E+00  0.43082764315E+03  0.43095512877E+03  0.00000000000E+00 0.  1.
         11    1    1    2    0    0 -0.59578062287E+01 -0.10210789447E+02 -0.48785779523E+03  0.48800100824E+03  0.00000000000E+00 0.  1.
        -15    1    1    2    0    0 -0.11543093979E+02 -0.17698847430E+02  0.46488003794E+02  0.51095835884E+02  0.17770000000E+01 0. -1.
         15    1    1    2    0    0  0.70528452018E+01  0.27071148529E+02  0.10542148287E+02  0.29948027107E+02  0.17770000000E+01 0.  1.
</event>
<event>
 6    1  0.1599106E-003  0.5001412E+03  0.7546771E-02  0.9399494E-01
        -11   -1    0    0    0    0  0.00000000000E+00  0.00000000000E+00  0.50000000000E+03  0.50000000000E+03  0.00000000000E+00 0. -1.
         11   -1    0    0    0    0 -0.00000000000E+00 -0.00000000000E+00 -0.50000000000E+03  0.50000000000E+03  0.00000000000E+00 0.  1.
        -11    1    1    2    0    0  0.16314458427E+01  0.15357750864E+01  0.14109721688E+03  0.14111500570E+03  0.00000000000E+00 0. -1.
         11    1    1    2    0    0 -0.61728669570E+01  0.75669507741E+01 -0.49976339727E+03  0.49985879634E+03  0.00000000000E+00 0.  1.
        -15    1    1    2    0    0 -0.17563989281E+01 -0.54577303986E+00  0.18956555703E+03  0.18958280763E+03  0.17770000000E+01 0. -1.
         15    1    1    2    0    0  0.62978200423E+01 -0.85569528206E+01  0.16910062335E+03  0.16944339033E+03  0.17770000000E+01 0. -1.
</event>
<event>
 6    1  0.1599106E-003  0.5000414E+03  0.7546771E-02  0.9399717E-01
        -11   -1    0    0    0    0  0.00000000000E+00  0.00000000000E+00  0.50000000000E+03  0.50000000000E+03  0.00000000000E+00 0.  1.
         11   -1    0    0    0    0 -0.00000000000E+00 -0.00000000000E+00 -0.50000000000E+03  0.50000000000E+03  0.00000000000E+00 0. -1.
        -11    1    1    2    0    0  0.55602979592E+00 -0.10039778324E+00  0.19573717799E+02  0.19581871140E+02  0.00000000000E+00 0.  1.
         11    1    1    2    0    0  0.69844425545E+00 -0.83698805501E+01 -0.49988807647E+03  0.49995863001E+03  0.00000000000E+00 0. -1.
        -15    1    1    2    0    0 -0.29393196834E+01  0.11106159594E+01  0.97985065941E+02  0.98051537185E+02  0.17770000000E+01 0.  1.
         15    1    1    2    0    0  0.16848456320E+01  0.73596623740E+01  0.38232929273E+03  0.38240796166E+03  0.17770000000E+01 0. -1.
</event>
<event>
 6    1  0.1599106E-003  0.4441665E+03  0.7546771E-02  0.9534213E-01
        -11   -1    0    0    0    0  0.00000000000E+00  0.00000000000E+00  0.50000000000E+03  0.50000000000E+03  0.00000000000E+00 0. -1.
         11   -1    0    0    0    0 -0.00000000000E+00 -0.00000000000E+00 -0.50000000000E+03  0.50000000000E+03  0.00000000000E+00 0.  1.
        -11    1    1    2    0    0 -0.18928235509E+02 -0.14529231558E+02  0.43953605867E+03  0.44018328403E+03  0.00000000000E+00 0. -1.
         11    1    1    2    0    0  0.51934446513E+01  0.99187489867E+01 -0.44817005342E+03  0.44830988193E+03  0.00000000000E+00 0.  1.
        -15    1    1    2    0    0  0.35543493541E+01 -0.31402838341E+01 -0.50614073320E+02  0.50866854914E+02  0.17770000000E+01 0.  1.
         15    1    1    2    0    0  0.10180441504E+02  0.77507664054E+01  0.59248068075E+02  0.60639979129E+02  0.17770000000E+01 0. -1.
</event>
<event>
 6    1  0.1599106E-003  0.4861532E+03  0.7546771E-02  0.9431337E-01
        -11   -1    0    0    0    0  0.00000000000E+00  0.00000000000E+00  0.50000000000E+03  0.50000000000E+03  0.00000000000E+00 0. -1.
         11   -1    0    0    0    0 -0.00000000000E+00 -0.00000000000E+00 -0.50000000000E+03  0.50000000000E+03  0.00000000000E+00 0. -1.
        -11    1    1    2    0    0  0.12835575226E+01 -0.64860632876E+01  0.48555137772E+03  0.48559639305E+03  0.00000000000E+00 0. -1.
         11    1    1    2    0    0  0.11579139518E+02  0.14929069593E+01 -0.48666845314E+03  0.48680847212E+03  0.00000000000E+00 0. -1.
        -15    1    1    2    0    0  0.51550515029E+00  0.37281735716E+01  0.10376141002E+02  0.11179760948E+02  0.17770000000E+01 0.  1.
         15    1    1    2    0    0 -0.13378202191E+02  0.12649827567E+01 -0.92590655804E+01  0.16415373882E+02  0.17770000000E+01 0. -1.
</event>
<event>
 6    1  0.1599106E-003  0.4670901E+03  0.7546771E-02  0.9476617E-01
        -11   -1    0    0    0    0  0.00000000000E+00  0.00000000000E+00  0.50000000000E+03  0.50000000000E+03  0.00000000000E+00 0.  1.
         11   -1    0    0    0    0 -0.00000000000E+00 -0.00000000000E+00 -0.50000000000E+03  0.50000000000E+03  0.00000000000E+00 0. -1.
        -11    1    1    2    0    0 -0.11097991561E+02  0.60196125972E+01  0.45420868321E+03  0.45438412060E+03  0.00000000000E+00 0.  1.
         11    1    1    2    0    0 -0.35656086063E+02 -0.27643432078E+02 -0.47943716556E+03  0.48155530474E+03  0.00000000000E+00 0. -1.
        -15    1    1    2    0    0  0.29247443525E+01 -0.53921992287E+01 -0.63043016873E+00  0.64175628744E+01  0.17770000000E+01 0.  1.
         15    1    1    2    0    0  0.43829333271E+02  0.27016018710E+02  0.25858912518E+02  0.57643011784E+02  0.17770000000E+01 0. -1.
</event>
<event>
 6    1  0.1599106E-003  0.4467808E+03  0.7546771E-02  0.9527459E-01
        -11   -1    0    0    0    0  0.00000000000E+00  0.00000000000E+00  0.50000000000E+03  0.50000000000E+03  0.00000000000E+00 0. -1.
         11   -1    0    0    0    0 -0.00000000000E+00 -0.00000000000E+00 -0.50000000000E+03  0.50000000000E+03  0.00000000000E+00 0.  1.
        -11    1    1    2    0    0  0.49108625719E+02  0.34711100831E+02  0.45317592604E+03  0.45714870402E+03  0.00000000000E+00 0. -1.
         11    1    1    2    0    0  0.22943605220E+01 -0.10728385835E+02 -0.43819937366E+03  0.43833668957E+03  0.00000000000E+00 0.  1.
        -15    1    1    2    0    0 -0.36617714355E+02  0.25020876163E+02 -0.26937664491E+02  0.51920099631E+02  0.17770000000E+01 0. -1.
         15    1    1    2    0    0 -0.14785271886E+02 -0.49003591159E+02  0.11961112105E+02  0.52594506776E+02  0.17770000000E+01 0.  1.
</event>
<event>
 6    1  0.1599106E-003  0.5235084E+03  0.7546771E-02  0.9348692E-01
        -11   -1    0    0    0    0  0.00000000000E+00  0.00000000000E+00  0.50000000000E+03  0.50000000000E+03  0.00000000000E+00 0. -1.
         11   -1    0    0    0    0 -0.00000000000E+00 -0.00000000000E+00 -0.50000000000E+03  0.50000000000E+03  0.00000000000E+00 0.  1.
        -11    1    1    2    0    0  0.71298287189E+01 -0.52622333908E+01  0.46804383657E+03  0.46812771603E+03  0.00000000000E+00 0. -1.
         11    1    1    2    0    0 -0.42102921547E+01  0.66457385619E+01 -0.47642665966E+03  0.47649161004E+03  0.00000000000E+00 0.  1.
        -15    1    1    2    0    0 -0.31123050648E+01  0.98274954755E+01  0.29557905098E+02  0.31354323352E+02  0.17770000000E+01 0. -1.
         15    1    1    2    0    0  0.19276850058E+00 -0.11211000647E+02 -0.21175082010E+02  0.24026350583E+02  0.17770000000E+01 0.  1.
</event>
<event>
 6    1  0.1599106E-003  0.5035597E+03  0.7546771E-02  0.9391880E-01
        -11   -1    0    0    0    0  0.00000000000E+00  0.00000000000E+00  0.50000000000E+03  0.50000000000E+03  0.00000000000E+00 0.  1.
         11   -1    0    0    0    0 -0.00000000000E+00 -0.00000000000E+00 -0.50000000000E+03  0.50000000000E+03  0.00000000000E+00 0. -1.
        -11    1    1    2    0    0 -0.42188762932E+01 -0.12759011801E+02  0.49625840881E+03  0.49644032835E+03  0.00000000000E+00 0.  1.
         11    1    1    2    0    0  0.91967937922E+00 -0.11775092657E+02 -0.38084052054E+03  0.38102362224E+03  0.00000000000E+00 0. -1.
        -15    1    1    2    0    0  0.13788896699E+02  0.11047590447E+02 -0.90782993438E+02  0.92503473197E+02  0.17770000000E+01 0.  1.
         15    1    1    2    0    0 -0.10489699785E+02  0.13486514011E+02 -0.24634894829E+02  0.30032576213E+02  0.17770000000E+01 0. -1.
</event>
<event>
 6    1  0.1599106E-003  0.5542877E+03  0.7546771E-02  0.9285912E-01
        -11   -1    0    0    0    0  0.00000000000E+00  0.00000000000E+00  0.50000000000E+03  0.50000000000E+03  0.00000000000E+00 0. -1.
         11   -1    0    0    0    0 -0.00000000000E+00 -0.00000000000E+00 -0.50000000000E+03  0.50000000000E+03  0.00000000000E+00 0.  1.
        -11    1    1    2    0    0  0.69919108184E+01  0.30349966123E+02  0.44462285941E+03  0.44571234487E+03  0.00000000000E+00 0. -1.
         11    1    1    2    0    0 -0.15454636031E+02 -0.74317285298E+01 -0.26912160859E+03  0.26966741845E+03  0.00000000000E+00 0.  1.
        -15    1    1    2    0    0  0.15673835474E+02  0.80347512016E+01 -0.22504052278E+03  0.22573573259E+03  0.17770000000E+01 0.  1.
         15    1    1    2    0    0 -0.72111102612E+01 -0.30952988795E+02  0.49539271962E+02  0.58884504091E+02  0.17770000000E+01 0.  1.
</event>
<event>
 6    1  0.1599106E-003  0.5009830E+03  0.7546771E-02  0.9397613E-01
        -11   -1    0    0    0    0  0.00000000000E+00  0.00000000000E+00  0.50000000000E+03  0.50000000000E+03  0.00000000000E+00 0.  1.
         11   -1    0    0    0    0 -0.00000000000E+00 -0.00000000000E+00 -0.50000000000E+03  0.50000000000E+03  0.00000000000E+00 0.  1.
        -11    1    1    2    0    0  0.10991886448E+01 -0.24962468945E+01  0.10396408587E+03  0.10399985873E+03  0.00000000000E+00 0.  1.
         11    1    1    2    0    0  0.60098126041E+00  0.11833340484E+02 -0.49887630403E+03  0.49901698954E+03  0.00000000000E+00 0.  1.
        -15    1    1    2    0    0  0.11582361964E+01 -0.16295366789E+02  0.37834293634E+03  0.37869963784E+03  0.17770000000E+01 0.  1.
         15    1    1    2    0    0 -0.28584061017E+01  0.69582731988E+01  0.16569281816E+02  0.18283513893E+02  0.17770000000E+01 0. -1.
</event>
<event>
 6    1  0.1599106E-003  0.5026452E+03  0.7546771E-02  0.9393910E-01
        -11   -1    0    0    0    0  0.00000000000E+00  0.00000000000E+00  0.50000000000E+03  0.50000000000E+03  0.00000000000E+00 0.  1.
         11   -1    0    0    0    0 -0.00000000000E+00 -0.00000000000E+00 -0.50000000000E+03  0.50000000000E+03  0.00000000000E+00 0. -1.
        -11    1    1    2    0    0  0.10811691349E+02 -0.15776143130E+02  0.25152317121E+03  0.25224925176E+03  0.00000000000E+00 0.  1.
         11    1    1    2    0    0  0.20563115672E+01  0.96935178024E+01 -0.49725604326E+03  0.49735476801E+03  0.00000000000E+00 0. -1.
        -15    1    1    2    0    0  0.13105719555E+02 -0.34958518883E+01  0.15280011719E+03  0.15341125906E+03  0.17770000000E+01 0.  1.
         15    1    1    2    0    0 -0.25973722472E+02  0.95784772157E+01  0.92932754859E+02  0.96984721166E+02  0.17770000000E+01 0. -1.
</event>
<event>
 6    1  0.1599106E-003  0.5023767E+03  0.7546771E-02  0.9394507E-01
        -11   -1    0    0    0    0  0.00000000000E+00  0.00000000000E+00  0.50000000000E+03  0.50000000000E+03  0.00000000000E+00 0.  1.
         11   -1    0    0    0    0 -0.00000000000E+00 -0.00000000000E+00 -0.50000000000E+03  0.50000000000E+03  0.00000000000E+00 0.  1.
        -11    1    1    2    0    0  0.67211005006E+01  0.21602779724E+01  0.49757321200E+03  0.49762329255E+03  0.00000000000E+00 0.  1.
         11    1    1    2    0    0 -0.84779965432E+01  0.71154807859E+00 -0.48778968913E+03  0.48786387809E+03  0.00000000000E+00 0.  1.
        -15    1    1    2    0    0  0.46021511221E+01 -0.37087382575E+01 -0.90888491635E+01  0.10986329803E+02  0.17770000000E+01 0. -1.
         15    1    1    2    0    0 -0.28452550795E+01  0.83691220654E+00 -0.69467370482E+00  0.35264995484E+01  0.17770000000E+01 0.  1.
</event>
<event>
 6    1  0.1599106E-003  0.5007338E+03  0.7546771E-02  0.9398169E-01
        -11   -1    0    0    0    0  0.00000000000E+00  0.00000000000E+00  0.50000000000E+03  0.50000000000E+03  0.00000000000E+00 0. -1.
         11   -1    0    0    0    0 -0.00000000000E+00 -0.00000000000E+00 -0.50000000000E+03  0.50000000000E+03  0.00000000000E+00 0. -1.
        -11    1    1    2    0    0  0.20981585528E+01 -0.18610772363E+01  0.16289726983E+03  0.16292141171E+03  0.00000000000E+00 0. -1.
         11    1    1    2    0    0 -0.41273735805E+01  0.62633899808E+01 -0.49920988647E+03  0.49926623760E+03  0.00000000000E+00 0. -1.
        -15    1    1    2    0    0 -0.11548860166E+01 -0.15318773178E+02  0.97167959045E+02  0.98390896770E+02  0.17770000000E+01 0. -1.
         15    1    1    2    0    0  0.31841010443E+01  0.10916460433E+02  0.23914465759E+03  0.23942145391E+03  0.17770000000E+01 0.  1.
</event>
<event>
 6    1  0.1599106E-003  0.5118298E+03  0.7546771E-02  0.9373722E-01
        -11   -1    0    0    0    0  0.00000000000E+00  0.00000000000E+00  0.50000000000E+03  0.50000000000E+03  0.00000000000E+00 0.  1.
         11   -1    0    0    0    0 -0.00000000000E+00 -0.00000000000E+00 -0.50000000000E+03  0.50000000000E+03  0.00000000000E+00 0. -1.
        -11    1    1    2    0    0 -0.10375713082E+02  0.22025458231E+01  0.48805491734E+03  0.48817016395E+03  0.00000000000E+00 0.  1.
         11    1    1    2    0    0 -0.64634648616E+01  0.78273028707E+01 -0.47023634775E+03  0.47034590016E+03  0.00000000000E+00 0. -1.
        -15    1    1    2    0    0  0.12616060384E+02 -0.25538349754E+01  0.72823877937E+01  0.14895568256E+02  0.17770000000E+01 0.  1.
         15    1    1    2    0    0  0.42231175596E+01 -0.74760137185E+01 -0.25100957380E+02  0.26588367634E+02  0.17770000000E+01 0.  1.
</event>
<event>
 6    1  0.1620803E-003  0.5122481E+03  0.7546771E-02  0.9372813E-01
        -11   -1    0    0    0    0  0.00000000000E+00  0.00000000000E+00  0.50000000000E+03  0.50000000000E+03  0.00000000000E+00 0.  1.
         11   -1    0    0    0    0 -0.00000000000E+00 -0.00000000000E+00 -0.50000000000E+03  0.50000000000E+03  0.00000000000E+00 0.  1.
        -11    1    1    2    0    0 -0.46610071947E+01  0.60153553123E+01  0.43639358348E+03  0.43645992851E+03  0.00000000000E+00 0.  1.
         11    1    1    2    0    0  0.15862214098E+02  0.23616765431E+02 -0.48692148169E+03  0.48775187420E+03  0.00000000000E+00 0.  1.
        -15    1    1    2    0    0 -0.24304293476E+00  0.55598703946E+00  0.42625808180E+02  0.42667147121E+02  0.17770000000E+01 0.  1.
         15    1    1    2    0    0 -0.10958163969E+02 -0.30188107782E+02  0.79020900337E+01  0.33121050179E+02  0.17770000000E+01 0. -1.
</event>
<event>
 6    1  0.1599106E-003  0.5536195E+03  0.7546771E-02  0.9287229E-01
        -11   -1    0    0    0    0  0.00000000000E+00  0.00000000000E+00  0.50000000000E+03  0.50000000000E+03  0.00000000000E+00 0. -1.
         11   -1    0    0    0    0 -0.00000000000E+00 -0.00000000000E+00 -0.50000000000E+03  0.50000000000E+03  0.00000000000E+00 0. -1.
        -11    1    1    2    0    0 -0.16128177140E+02 -0.48393209790E+02  0.44345637882E+03  0.44638053359E+03  0.00000000000E+00 0. -1.
         11    1    1    2    0    0  0.39793926321E+01 -0.43498051295E+01 -0.32819986910E+03  0.32825281483E+03  0.00000000000E+00 0. -1.
        -15    1    1    2    0    0  0.13323571781E+02  0.19394566646E+02 -0.16431926551E+03  0.16600495634E+03  0.17770000000E+01 0. -1.
         15    1    1    2    0    0 -0.11747872730E+01  0.33348448273E+02  0.49062755784E+02  0.59361695238E+02  0.17770000000E+01 0.  1.
</event>
<event>
 6    1  0.1599106E-003  0.5016112E+03  0.7546771E-02  0.9396212E-01
        -11   -1    0    0    0    0  0.00000000000E+00  0.00000000000E+00  0.50000000000E+03  0.50000000000E+03  0.00000000000E+00 0.  1.
         11   -1    0    0    0    0 -0.00000000000E+00 -0.00000000000E+00 -0.50000000000E+03  0.50000000000E+03  0.00000000000E+00 0. -1.
        -11    1    1    2    0    0  0.26315288118E+01 -0.54483079713E+00  0.17017391955E+03  0.17019513707E+03  0.00000000000E+00 0.  1.
         11    1    1    2    0    0  0.92144173048E+01  0.59183929903E+01 -0.49826850429E+03  0.49838883939E+03  0.00000000000E+00 0. -1.
        -15    1    1    2    0    0  0.15090828229E+01 -0.37923557996E+01  0.30176125828E+03  0.30179409209E+03  0.17770000000E+01 0.  1.
         15    1    1    2    0    0 -0.13355028939E+02 -0.15812063936E+01  0.26333326461E+02  0.29621931456E+02  0.17770000000E+01 0.  1.
</event>
<event>
 6    1  0.1599106E-003  0.5013129E+03  0.7546771E-02  0.9396877E-01
        -11   -1    0    0    0    0  0.00000000000E+00  0.00000000000E+00  0.50000000000E+03  0.50000000000E+03  0.00000000000E+00 0. -1.
         11   -1    0    0    0    0 -0.00000000000E+00 -0.00000000000E+00 -0.50000000000E+03  0.50000000000E+03  0.00000000000E+00 0.  1.
        -11    1    1    2    0    0 -0.80544209275E+01 -0.42810701518E+01  0.37028518099E+03  0.37039751150E+03  0.00000000000E+00 0. -1.
         11    1    1    2    0    0 -0.10255675451E+02 -0.52037600842E+01 -0.49855450787E+03  0.49868713169E+03  0.00000000000E+00 0.  1.
        -15    1    1    2    0    0  0.17857101351E+02  0.11881148624E+02  0.12277375877E+03  0.12464586368E+03  0.17770000000E+01 0. -1.
         15    1    1    2    0    0  0.45299502726E+00 -0.23963183882E+01  0.54955681031E+01  0.62694931285E+01  0.17770000000E+01 0. -1.
</event>
<event>
 6    1  0.1599106E-003  0.5009983E+03  0.7546771E-02  0.9397579E-01
        -11   -1    0    0    0    0  0.00000000000E+00  0.00000000000E+00  0.50000000000E+03  0.50000000000E+03  0.00000000000E+00 0. -1.
         11   -1    0    0    0    0 -0.00000000000E+00 -0.00000000000E+00 -0.50000000000E+03  0.50000000000E+03  0.00000000000E+00 0.  1.
        -11    1    1    2    0    0 -0.66540964175E+01 -0.26204716023E+01  0.49895040582E+03  0.49900165464E+03  0.00000000000E+00 0. -1.
         11    1    1    2    0    0  0.69417073981E+01  0.44325329281E+01 -0.47717485530E+03  0.47724592946E+03  0.00000000000E+00 0.  1.
        -15    1    1    2    0    0 -0.18014103078E+01 -0.35467034827E+01 -0.46130669909E+01  0.63452581314E+01  0.17770000000E+01 0. -1.
         15    1    1    2    0    0  0.15137993272E+01  0.17346421569E+01 -0.17162483523E+02  0.17407157767E+02  0.17770000000E+01 0.  1.
</event>
<event>
 6    1  0.1599106E-003  0.5045659E+03  0.7546771E-02  0.9389651E-01
        -11   -1    0    0    0    0  0.00000000000E+00  0.00000000000E+00  0.50000000000E+03  0.50000000000E+03  0.00000000000E+00 0.  1.
         11   -1    0    0    0    0 -0.00000000000E+00 -0.00000000000E+00 -0.50000000000E+03  0.50000000000E+03  0.00000000000E+00 0.  1.
        -11    1    1    2    0    0 -0.11188365535E+02 -0.67605703454E+01  0.49526164815E+03  0.49543413787E+03  0.00000000000E+00 0.  1.
         11    1    1    2    0    0 -0.83343731443E+01  0.26629865214E+01 -0.43305415600E+03  0.43314253463E+03  0.00000000000E+00 0.  1.
        -15    1    1    2    0    0  0.24220175127E+01 -0.90173400628E+01 -0.37049796603E+02  0.38249493434E+02  0.17770000000E+01 0. -1.
         15    1    1    2    0    0  0.17100721167E+02  0.13114923887E+02 -0.25157695546E+02  0.33173834074E+02  0.17770000000E+01 0.  1.
</event>
<event>
 6    1  0.1599106E-003  0.5049452E+03  0.7546771E-02  0.9388812E-01
        -11   -1    0    0    0    0  0.00000000000E+00  0.00000000000E+00  0.50000000000E+03  0.50000000000E+03  0.00000000000E+00 0. -1.
         11   -1    0    0    0    0 -0.00000000000E+00 -0.00000000000E+00 -0.50000000000E+03  0.50000000000E+03  0.00000000000E+00 0. -1.
        -11    1    1    2    0    0 -0.44467784701E+01 -0.85244295626E+01  0.46097689022E+03  0.46107714436E+03  0.00000000000E+00 0. -1.
         11    1    1    2    0    0  0.94701884171E+01 -0.63377120497E+01 -0.49492359057E+03  0.49505475613E+03  0.00000000000E+00 0. -1.
        -15    1    1    2    0    0 -0.11285135379E+02  0.28392765879E+00  0.10616525539E+02  0.15598180630E+02  0.17770000000E+01 0. -1.
         15    1    1    2    0    0  0.62617254324E+01  0.14578213954E+02  0.23330174818E+02  0.28269918880E+02  0.17770000000E+01 0.  1.
</event>
<event>
 6    1  0.1599106E-003  0.5048156E+03  0.7546771E-02  0.9389098E-01
        -11   -1    0    0    0    0  0.00000000000E+00  0.00000000000E+00  0.50000000000E+03  0.50000000000E+03  0.00000000000E+00 0. -1.
         11   -1    0    0    0    0 -0.00000000000E+00 -0.00000000000E+00 -0.50000000000E+03  0.50000000000E+03  0.00000000000E+00 0. -1.
        -11    1    1    2    0    0 -0.34409846766E+01  0.18946724738E+02  0.49480981055E+03  0.49518437715E+03  0.00000000000E+00 0. -1.
         11    1    1    2    0    0  0.50393577757E+01 -0.99381199266E+01 -0.42222025705E+03  0.42236726533E+03  0.00000000000E+00 0. -1.
        -15    1    1    2    0    0 -0.56800977480E+01  0.14173250599E+02 -0.25541503359E+02  0.29810579763E+02  0.17770000000E+01 0.  1.
         15    1    1    2    0    0  0.40817246489E+01 -0.23181855410E+02 -0.47048050140E+02  0.52637777758E+02  0.17770000000E+01 0. -1.
</event>
<event>
 6    1  0.1599106E-003  0.5015386E+03  0.7546771E-02  0.9396374E-01
        -11   -1    0    0    0    0  0.00000000000E+00  0.00000000000E+00  0.50000000000E+03  0.50000000000E+03  0.00000000000E+00 0. -1.
         11   -1    0    0    0    0 -0.00000000000E+00 -0.00000000000E+00 -0.50000000000E+03  0.50000000000E+03  0.00000000000E+00 0. -1.
        -11    1    1    2    0    0  0.21968540971E+01 -0.15564844887E+01  0.19595735319E+03  0.19597584821E+03  0.00000000000E+00 0. -1.
         11    1    1    2    0    0  0.26852011513E+01 -0.70896260806E+01 -0.49840376821E+03  0.49846142205E+03  0.00000000000E+00 0. -1.
        -15    1    1    2    0    0 -0.12695438250E+02  0.46431971634E+01  0.29818502424E+02  0.32787714896E+02  0.17770000000E+01 0.  1.
         15    1    1    2    0    0  0.78133830017E+01  0.40029134058E+01  0.27262791259E+03  0.27277501485E+03  0.17770000000E+01 0. -1.
</event>
<event>
 6    1  0.1599106E-003  0.4795195E+03  0.7546771E-02  0.9446840E-01
        -11   -1    0    0    0    0  0.00000000000E+00  0.00000000000E+00  0.50000000000E+03  0.50000000000E+03  0.00000000000E+00 0. -1.
         11   -1    0    0    0    0 -0.00000000000E+00 -0.00000000000E+00 -0.50000000000E+03  0.50000000000E+03  0.00000000000E+00 0.  1.
        -11    1    1    2    0    0 -0.20226020933E+02 -0.17998435117E+01  0.48543278932E+03  0.48585730859E+03  0.00000000000E+00 0. -1.
         11    1    1    2    0    0 -0.17262969872E+01 -0.77234200816E+01 -0.47348838204E+03  0.47355451560E+03  0.00000000000E+00 0.  1.
        -15    1    1    2    0    0  0.27214399220E+02 -0.56000635435E+00 -0.82632217417E+01  0.28502205083E+02  0.17770000000E+01 0.  1.
         15    1    1    2    0    0 -0.52620812999E+01  0.10083269948E+02 -0.36811855385E+01  0.12085970727E+02  0.17770000000E+01 0. -1.
</event>
<event>
 6    1  0.1599106E-003  0.4818194E+03  0.7546771E-02  0.9441435E-01
        -11   -1    0    0    0    0  0.00000000000E+00  0.00000000000E+00  0.50000000000E+03  0.50000000000E+03  0.00000000000E+00 0. -1.
         11   -1    0    0    0    0 -0.00000000000E+00 -0.00000000000E+00 -0.50000000000E+03  0.50000000000E+03  0.00000000000E+00 0. -1.
        -11    1    1    2    0    0 -0.48195390702E+01 -0.51300781638E+01  0.48702783191E+03  0.48707869458E+03  0.00000000000E+00 0. -1.
         11    1    1    2    0    0 -0.85251932551E+01 -0.14082803122E+02 -0.47661597705E+03  0.47690019274E+03  0.00000000000E+00 0. -1.
        -15    1    1    2    0    0 -0.42493134077E+01  0.13435136659E+02  0.92951832009E+00  0.14233105592E+02  0.17770000000E+01 0.  1.
         15    1    1    2    0    0  0.17594045733E+02  0.57777446275E+01 -0.11341373181E+02  0.21788007088E+02  0.17770000000E+01 0. -1.
</event>
<event>
 6    1  0.1599106E-003  0.5050656E+03  0.7546771E-02  0.9388546E-01
        -11   -1    0    0    0    0  0.00000000000E+00  0.00000000000E+00  0.50000000000E+03  0.50000000000E+03  0.00000000000E+00 0. -1.
         11   -1    0    0    0    0 -0.00000000000E+00 -0.00000000000E+00 -0.50000000000E+03  0.50000000000E+03  0.00000000000E+00 0. -1.
        -11    1    1    2    0    0 -0.13748617473E+02  0.61994810727E+01  0.49470454154E+03  0.49493438097E+03  0.00000000000E+00 0. -1.
         11    1    1    2    0    0 -0.47204422423E+01  0.15934639560E+02 -0.34028614050E+03  0.34069172683E+03  0.00000000000E+00 0. -1.
        -15    1    1    2    0    0  0.13689856427E+02 -0.15029076877E+02 -0.15428381423E+03  0.15562756305E+03  0.17770000000E+01 0. -1.
         15    1    1    2    0    0  0.47792032885E+01 -0.71050437550E+01 -0.13458681409E+00  0.87463291411E+01  0.17770000000E+01 0.  1.
</event>
<event>
 6    1  0.1599106E-003  0.5254577E+03  0.7546771E-02  0.9344581E-01
        -11   -1    0    0    0    0  0.00000000000E+00  0.00000000000E+00  0.50000000000E+03  0.50000000000E+03  0.00000000000E+00 0. -1.
         11   -1    0    0    0    0 -0.00000000000E+00 -0.00000000000E+00 -0.50000000000E+03  0.50000000000E+03  0.00000000000E+00 0.  1.
        -11    1    1    2    0    0 -0.13529695437E+02 -0.44826365017E+01  0.47432824295E+03  0.47454233610E+03  0.00000000000E+00 0. -1.
         11    1    1    2    0    0  0.52939585736E+01 -0.62374464398E+01 -0.26738936633E+03  0.26751449486E+03  0.00000000000E+00 0.  1.
        -15    1    1    2    0    0 -0.57913811846E+01  0.51604120664E+01 -0.23010329387E+03  0.23024085981E+03  0.17770000000E+01 0.  1.
         15    1    1    2    0    0  0.14027118048E+02  0.55596708752E+01  0.23164417246E+02  0.27702309223E+02  0.17770000000E+01 0. -1.
</event>
<event>
 6    1  0.1599106E-003  0.5019700E+03  0.7546771E-02  0.9395412E-01
        -11   -1    0    0    0    0  0.00000000000E+00  0.00000000000E+00  0.50000000000E+03  0.50000000000E+03  0.00000000000E+00 0.  1.
         11   -1    0    0    0    0 -0.00000000000E+00 -0.00000000000E+00 -0.50000000000E+03  0.50000000000E+03  0.00000000000E+00 0.  1.
        -11    1    1    2    0    0 -0.10487309691E+02 -0.55382077018E+01  0.49788877163E+03  0.49803000343E+03  0.00000000000E+00 0.  1.
         11    1    1    2    0    0  0.48534330283E+01  0.27903009298E+01 -0.76528737884E+02  0.76733234740E+02  0.00000000000E+00 0.  1.
        -15    1    1    2    0    0 -0.22505108561E+02  0.64950715549E+01 -0.10474986444E+03  0.10735156121E+03  0.17770000000E+01 0. -1.
         15    1    1    2    0    0  0.28138985224E+02 -0.37471647829E+01 -0.31661016930E+03  0.31788520061E+03  0.17770000000E+01 0.  1.
</event>
<event>
 6    1  0.1599106E-003  0.5045371E+03  0.7546771E-02  0.9389714E-01
        -11   -1    0    0    0    0  0.00000000000E+00  0.00000000000E+00  0.50000000000E+03  0.50000000000E+03  0.00000000000E+00 0.  1.
         11   -1    0    0    0    0 -0.00000000000E+00 -0.00000000000E+00 -0.50000000000E+03  0.50000000000E+03  0.00000000000E+00 0.  1.
        -11    1    1    2    0    0  0.27718883791E+01  0.23156497210E+01  0.42096106597E+02  0.42250772649E+02  0.00000000000E+00 0.  1.
         11    1    1    2    0    0  0.76756029581E+01  0.74111396729E+01 -0.49534801832E+03  0.49546291398E+03  0.00000000000E+00 0.  1.
        -15    1    1    2    0    0 -0.16579384326E+02 -0.43618764923E+01  0.12107357109E+02  0.21062947949E+02  0.17770000000E+01 0. -1.
         15    1    1    2    0    0  0.61318929887E+01 -0.53649129016E+01  0.44114455461E+03  0.44122336543E+03  0.17770000000E+01 0.  1.
</event>
<event>
 6    1  0.1599106E-003  0.5005978E+03  0.7546771E-02  0.9398473E-01
        -11   -1    0    0    0    0  0.00000000000E+00  0.00000000000E+00  0.50000000000E+03  0.50000000000E+03  0.00000000000E+00 0. -1.
         11   -1    0    0    0    0 -0.00000000000E+00 -0.00000000000E+00 -0.50000000000E+03  0.50000000000E+03  0.00000000000E+00 0. -1.
        -11    1    1    2    0    0  0.14703682746E+01  0.54272205471E+01  0.24771256680E+03  0.24777637590E+03  0.00000000000E+00 0. -1.
         11    1    1    2    0    0 -0.56445929150E+01  0.67117233239E+01 -0.49932522869E+03  0.49940223534E+03  0.00000000000E+00 0. -1.
        -15    1    1    2    0    0  0.45276200922E+01 -0.86268435454E+01  0.41271056124E+02  0.42442662214E+02  0.17770000000E+01 0.  1.
         15    1    1    2    0    0 -0.35339545183E+00 -0.35121003256E+01  0.21034160576E+03  0.21037872654E+03  0.17770000000E+01 0. -1.
</event>
<event>
 6    1  0.1599106E-003  0.5053611E+03  0.7546771E-02  0.9387893E-01
        -11   -1    0    0    0    0  0.00000000000E+00  0.00000000000E+00  0.50000000000E+03  0.50000000000E+03  0.00000000000E+00 0. -1.
         11   -1    0    0    0    0 -0.00000000000E+00 -0.00000000000E+00 -0.50000000000E+03  0.50000000000E+03  0.00000000000E+00 0.  1.
        -11    1    1    2    0    0  0.67752234576E+01 -0.18620945303E+01  0.44920818183E+03  0.44926313189E+03  0.00000000000E+00 0. -1.
         11    1    1    2    0    0 -0.14015850088E+01 -0.92400536362E+01 -0.49455057745E+03  0.49463887502E+03  0.00000000000E+00 0.  1.
        -15    1    1    2    0    0 -0.13448825220E+02  0.67962711489E+01  0.44168513433E+02  0.46701986138E+02  0.17770000000E+01 0.  1.
         15    1    1    2    0    0  0.80751867714E+01  0.43058770176E+01  0.11738821833E+01  0.93960069532E+01  0.17770000000E+01 0. -1.
</event>
<event>
 6    1  0.1599106E-003  0.5223389E+03  0.7546771E-02  0.9351167E-01
        -11   -1    0    0    0    0  0.00000000000E+00  0.00000000000E+00  0.50000000000E+03  0.50000000000E+03  0.00000000000E+00 0. -1.
         11   -1    0    0    0    0 -0.00000000000E+00 -0.00000000000E+00 -0.50000000000E+03  0.50000000000E+03  0.00000000000E+00 0. -1.
        -11    1    1    2    0    0 -0.76269665028E+01  0.11513632126E+02  0.47746143751E+03  0.47766113371E+03  0.00000000000E+00 0. -1.
         11    1    1    2    0    0  0.34780640420E+01 -0.62682596659E+01 -0.38691864208E+03  0.38698504312E+03  0.00000000000E+00 0. -1.
        -15    1    1    2    0    0 -0.17044496233E+02 -0.20046541104E+02  0.12441133933E+02  0.29160216127E+02  0.17770000000E+01 0.  1.
         15    1    1    2    0    0  0.21193398693E+02  0.14801168643E+02 -0.10298392936E+03  0.10619360705E+03  0.17770000000E+01 0. -1.
</event>
<event>
 6    1  0.1599106E-003  0.5004120E+03  0.7546771E-02  0.9398888E-01
        -11   -1    0    0    0    0  0.00000000000E+00  0.00000000000E+00  0.50000000000E+03  0.50000000000E+03  0.00000000000E+00 0. -1.
         11   -1    0    0    0    0 -0.00000000000E+00 -0.00000000000E+00 -0.50000000000E+03  0.50000000000E+03  0.00000000000E+00 0. -1.
        -11    1    1    2    0    0  0.15668632338E+01 -0.65751736133E+01  0.49954231334E+03  0.49958804108E+03  0.00000000000E+00 0. -1.
         11    1    1    2    0    0 -0.31384785508E+01 -0.33463270721E+00 -0.20113496722E+03  0.20115973023E+03  0.00000000000E+00 0. -1.
        -15    1    1    2    0    0  0.93023395899E+01  0.33989058292E+01 -0.74440244653E+02  0.75117200664E+02  0.17770000000E+01 0. -1.
         15    1    1    2    0    0 -0.77307242729E+01  0.35109004913E+01 -0.22396710147E+03  0.22413502803E+03  0.17770000000E+01 0.  1.
</event>
<event>
 6    1  0.1599106E-003  0.4438432E+03  0.7546771E-02  0.9535051E-01
        -11   -1    0    0    0    0  0.00000000000E+00  0.00000000000E+00  0.50000000000E+03  0.50000000000E+03  0.00000000000E+00 0.  1.
         11   -1    0    0    0    0 -0.00000000000E+00 -0.00000000000E+00 -0.50000000000E+03  0.50000000000E+03  0.00000000000E+00 0. -1.
        -11    1    1    2    0    0 -0.56626278520E+01  0.32515513067E+02  0.45118093109E+03  0.45238651232E+03  0.00000000000E+00 0.  1.
         11    1    1    2    0    0 -0.10041100747E+02 -0.40108251838E+01 -0.43589367240E+03  0.43602775606E+03  0.00000000000E+00 0. -1.
        -15    1    1    2    0    0 -0.76935704596E+00  0.18085961074E+02 -0.48646832356E+02  0.51936171648E+02  0.17770000000E+01 0. -1.
         15    1    1    2    0    0  0.16473085645E+02 -0.46590648957E+02  0.33359573659E+02  0.59649559970E+02  0.17770000000E+01 0.  1.
</event>
<event>
 6    1  0.1599106E-003  0.5163525E+03  0.7546771E-02  0.9363945E-01
        -11   -1    0    0    0    0  0.00000000000E+00  0.00000000000E+00  0.50000000000E+03  0.50000000000E+03  0.00000000000E+00 0. -1.
         11   -1    0    0    0    0 -0.00000000000E+00 -0.00000000000E+00 -0.50000000000E+03  0.50000000000E+03  0.00000000000E+00 0. -1.
        -11    1    1    2    0    0  0.22389458035E+01 -0.10938932052E+02  0.48351863107E+03  0.48364753665E+03  0.00000000000E+00 0. -1.
         11    1    1    2    0    0 -0.54568735673E+01 -0.36596665487E+01 -0.73679262782E+02  0.73971645868E+02  0.00000000000E+00 0. -1.
        -15    1    1    2    0    0  0.73947989483E+01 -0.18454065468E+02 -0.40850387211E+03  0.40899120631E+03  0.17770000000E+01 0. -1.
         15    1    1    2    0    0 -0.41768711845E+01  0.33052664068E+02 -0.13354961848E+01  0.33389611168E+02  0.17770000000E+01 0.  1.
</event>
<event>
 6    1  0.1599106E-003  0.5003719E+03  0.7546771E-02  0.9398978E-01
        -11   -1    0    0    0    0  0.00000000000E+00  0.00000000000E+00  0.50000000000E+03  0.50000000000E+03  0.00000000000E+00 0.  1.
         11   -1    0    0    0    0 -0.00000000000E+00 -0.00000000000E+00 -0.50000000000E+03  0.50000000000E+03  0.00000000000E+00 0.  1.
        -11    1    1    2    0    0 -0.11413668994E+02  0.15962362384E+01  0.26471030661E+03  0.26496106551E+03  0.00000000000E+00 0.  1.
         11    1    1    2    0    0  0.32750530451E+01 -0.88684581111E+01 -0.49953863491E+03  0.49962808497E+03  0.00000000000E+00 0.  1.
        -15    1    1    2    0    0  0.51609486265E+01 -0.34298057856E+00  0.16381136113E+03  0.16390263204E+03  0.17770000000E+01 0.  1.
         15    1    1    2    0    0  0.29776673222E+01  0.76152024512E+01  0.71016967172E+02  0.71508217474E+02  0.17770000000E+01 0. -1.
</event>
<event>
 6    1  0.1599106E-003  0.5144713E+03  0.7546771E-02  0.9367999E-01
        -11   -1    0    0    0    0  0.00000000000E+00  0.00000000000E+00  0.50000000000E+03  0.50000000000E+03  0.00000000000E+00 0.  1.
         11   -1    0    0    0    0 -0.00000000000E+00 -0.00000000000E+00 -0.50000000000E+03  0.50000000000E+03  0.00000000000E+00 0.  1.
        -11    1    1    2    0    0 -0.25369202735E+02 -0.85949490961E+00  0.45259084199E+03  0.45330211275E+03  0.00000000000E+00 0.  1.
         11    1    1    2    0    0  0.42622380882E+01  0.62622574488E+01 -0.48546956070E+03  0.48552865715E+03  0.00000000000E+00 0.  1.
        -15    1    1    2    0    0  0.66043198004E+01  0.19845752884E+02  0.68695317267E+01  0.22086628142E+02  0.17770000000E+01 0. -1.
         15    1    1    2    0    0  0.14502644847E+02 -0.25248515423E+02  0.26009186992E+02  0.39082601955E+02  0.17770000000E+01 0.  1.
</event>
<event>
 6    1  0.1599106E-003  0.5001519E+03  0.7546771E-02  0.9399470E-01
        -11   -1    0    0    0    0  0.00000000000E+00  0.00000000000E+00  0.50000000000E+03  0.50000000000E+03  0.00000000000E+00 0. -1.
         11   -1    0    0    0    0 -0.00000000000E+00 -0.00000000000E+00 -0.50000000000E+03  0.50000000000E+03  0.00000000000E+00 0. -1.
        -11    1    1    2    0    0 -0.10960181976E+02  0.27241402635E+01  0.49972050281E+03  0.49984810438E+03  0.00000000000E+00 0. -1.
         11    1    1    2    0    0 -0.84136326888E+00  0.25358419396E+01 -0.41127480693E+02  0.41214172983E+02  0.00000000000E+00 0. -1.
        -15    1    1    2    0    0  0.66636000179E+01  0.95827228593E+00 -0.96653311463E+02  0.96903778031E+02  0.17770000000E+01 0.  1.
         15    1    1    2    0    0  0.51379452268E+01 -0.62182544890E+01 -0.36193971065E+03  0.36203394460E+03  0.17770000000E+01 0. -1.
</event>
<event>
 6    1  0.1599106E-003  0.5034003E+03  0.7546771E-02  0.9392233E-01
        -11   -1    0    0    0    0  0.00000000000E+00  0.00000000000E+00  0.50000000000E+03  0.50000000000E+03  0.00000000000E+00 0. -1.
         11   -1    0    0    0    0 -0.00000000000E+00 -0.00000000000E+00 -0.50000000000E+03  0.50000000000E+03  0.00000000000E+00 0. -1.
        -11    1    1    2    0    0 -0.14375520719E+02  0.10932669003E-02  0.49639158149E+03  0.49659969570E+03  0.00000000000E+00 0. -1.
         11    1    1    2    0    0  0.47467416559E+01  0.22881923337E+01 -0.29967821950E+03  0.29972454458E+03  0.00000000000E+00 0. -1.
        -15    1    1    2    0    0 -0.33100538713E+01 -0.54271448074E+01 -0.18695931987E+03  0.18707580114E+03  0.17770000000E+01 0. -1.
         15    1    1    2    0    0  0.12938832935E+02  0.31378592068E+01 -0.97540421211E+01  0.16599958579E+02  0.17770000000E+01 0.  1.
</event>
<event>
 6    1  0.1599106E-003  0.4836355E+03  0.7546771E-02  0.9437190E-01
        -11   -1    0    0    0    0  0.00000000000E+00  0.00000000000E+00  0.50000000000E+03  0.50000000000E+03  0.00000000000E+00 0.  1.
         11   -1    0    0    0    0 -0.00000000000E+00 -0.00000000000E+00 -0.50000000000E+03  0.50000000000E+03  0.00000000000E+00 0.  1.
        -11    1    1    2    0    0  0.65045151161E+01  0.20949186719E+02  0.48958992440E+03  0.49008108637E+03  0.00000000000E+00 0.  1.
         11    1    1    2    0    0  0.75259125201E+01 -0.54842011643E+00 -0.47752242271E+03  0.47758203936E+03  0.00000000000E+00 0.  1.
        -15    1    1    2    0    0 -0.14962358543E+02 -0.10726403913E+02 -0.26446418506E+01  0.18683676661E+02  0.17770000000E+01 0. -1.
         15    1    1    2    0    0  0.93193090652E+00 -0.96743626893E+01 -0.94228598329E+01  0.13653197614E+02  0.17770000000E+01 0.  1.
</event>
<event>
 6    1  0.1599106E-003  0.5020385E+03  0.7546771E-02  0.9395260E-01
        -11   -1    0    0    0    0  0.00000000000E+00  0.00000000000E+00  0.50000000000E+03  0.50000000000E+03  0.00000000000E+00 0. -1.
         11   -1    0    0    0    0 -0.00000000000E+00 -0.00000000000E+00 -0.50000000000E+03  0.50000000000E+03  0.00000000000E+00 0.  1.
        -11    1    1    2    0    0 -0.60791620078E+01  0.84406959972E+01  0.49785289204E+03  0.49796154838E+03  0.00000000000E+00 0. -1.
         11    1    1    2    0    0 -0.15620563537E+02  0.97881630949E+01 -0.28858096936E+03  0.28916913047E+03  0.00000000000E+00 0.  1.
        -15    1    1    2    0    0  0.79159319092E+01  0.64274200299E+01 -0.44824335995E+02  0.46003831717E+02  0.17770000000E+01 0. -1.
         15    1    1    2    0    0  0.13783793635E+02 -0.24656279122E+02 -0.16444758668E+03  0.16686548943E+03  0.17770000000E+01 0.  1.
</event>
<event>
 6    1  0.1599106E-003  0.5029124E+03  0.7546771E-02  0.9393317E-01
        -11   -1    0    0    0    0  0.00000000000E+00  0.00000000000E+00  0.50000000000E+03  0.50000000000E+03  0.00000000000E+00 0. -1.
         11   -1    0    0    0    0 -0.00000000000E+00 -0.00000000000E+00 -0.50000000000E+03  0.50000000000E+03  0.00000000000E+00 0. -1.
        -11    1    1    2    0    0 -0.12627911571E+02 -0.18578041065E+01  0.49692373617E+03  0.49708763327E+03  0.00000000000E+00 0. -1.
         11    1    1    2    0    0 -0.40487368180E+01 -0.52354010930E+01 -0.45586774657E+03  0.45591578614E+03  0.00000000000E+00 0. -1.
        -15    1    1    2    0    0  0.90486688553E+01  0.59183762115E+01 -0.35927469888E+02  0.37561235424E+02  0.17770000000E+01 0.  1.
         15    1    1    2    0    0  0.76279795336E+01  0.11748289879E+01 -0.51285197122E+01  0.94353451634E+01  0.17770000000E+01 0. -1.
</event>
<event>
 6    1  0.1599106E-003  0.5245691E+03  0.7546771E-02  0.9346453E-01
        -11   -1    0    0    0    0  0.00000000000E+00  0.00000000000E+00  0.50000000000E+03  0.50000000000E+03  0.00000000000E+00 0. -1.
         11   -1    0    0    0    0 -0.00000000000E+00 -0.00000000000E+00 -0.50000000000E+03  0.50000000000E+03  0.00000000000E+00 0.  1.
        -11    1    1    2    0    0 -0.49397622243E+01 -0.41178185955E+01  0.46236892578E+03  0.46241364730E+03  0.00000000000E+00 0. -1.
         11    1    1    2    0    0  0.72234045009E+00 -0.74236328283E+01 -0.47537236122E+03  0.47543087185E+03  0.00000000000E+00 0.  1.
        -15    1    1    2    0    0 -0.25552473725E+02  0.16469188500E+02  0.83152533403E+01  0.31566821988E+02  0.17770000000E+01 0. -1.
         15    1    1    2    0    0  0.29769895499E+02 -0.49277370759E+01  0.46881820981E+01  0.30588658864E+02  0.17770000000E+01 0.  1.
</event>
<event>
 6    1  0.1599106E-003  0.5001056E+03  0.7546771E-02  0.9399573E-01
        -11   -1    0    0    0    0  0.00000000000E+00  0.00000000000E+00  0.50000000000E+03  0.50000000000E+03  0.00000000000E+00 0.  1.
         11   -1    0    0    0    0 -0.00000000000E+00 -0.00000000000E+00 -0.50000000000E+03  0.50000000000E+03  0.00000000000E+00 0.  1.
        -11    1    1    2    0    0  0.11959220181E+01  0.93478370863E+00  0.63850346072E+02  0.63868386105E+02  0.00000000000E+00 0.  1.
         11    1    1    2    0    0  0.12239785999E+02  0.20046675885E+01 -0.49974046403E+03  0.49989435128E+03  0.00000000000E+00 0.  1.
        -15    1    1    2    0    0 -0.12924533479E+02 -0.51347384330E+01  0.39373753201E+03  0.39398706952E+03  0.17770000000E+01 0.  1.
         15    1    1    2    0    0 -0.51117453824E+00  0.21952871359E+01  0.42152585949E+02  0.42250193091E+02  0.17770000000E+01 0.  1.
</event>
<event>
 6    1  0.1599106E-003  0.4829049E+03  0.7546771E-02  0.9438895E-01
        -11   -1    0    0    0    0  0.00000000000E+00  0.00000000000E+00  0.50000000000E+03  0.50000000000E+03  0.00000000000E+00 0. -1.
         11   -1    0    0    0    0 -0.00000000000E+00 -0.00000000000E+00 -0.50000000000E+03  0.50000000000E+03  0.00000000000E+00 0. -1.
        -11    1    1    2    0    0 -0.11284659102E+02 -0.34488103426E+01  0.48327484062E+03  0.48341887572E+03  0.00000000000E+00 0. -1.
         11    1    1    2    0    0  0.67301490008E+01  0.12723734660E+02 -0.48223193575E+03  0.48244671021E+03  0.00000000000E+00 0. -1.
        -15    1    1    2    0    0  0.73974860151E+01  0.11107730321E-01  0.14120859582E+02  0.16039929147E+02  0.17770000000E+01 0.  1.
         15    1    1    2    0    0 -0.28429759134E+01 -0.92860320472E+01 -0.15163764452E+02  0.18094484922E+02  0.17770000000E+01 0.  1.
</event>
<event>
 6    1  0.1599106E-003  0.5022389E+03  0.7546771E-02  0.9394814E-01
        -11   -1    0    0    0    0  0.00000000000E+00  0.00000000000E+00  0.50000000000E+03  0.50000000000E+03  0.00000000000E+00 0. -1.
         11   -1    0    0    0    0 -0.00000000000E+00 -0.00000000000E+00 -0.50000000000E+03  0.50000000000E+03  0.00000000000E+00 0.  1.
        -11    1    1    2    0    0 -0.17043023344E+02 -0.14098350675E+02  0.49726946759E+03  0.49776113904E+03  0.00000000000E+00 0. -1.
         11    1    1    2    0    0 -0.85815338407E+01  0.14777058274E+02 -0.16615360417E+03  0.16703001034E+03  0.00000000000E+00 0.  1.
        -15    1    1    2    0    0  0.10495902172E+02 -0.86188639518E+01 -0.29390909372E+03  0.29422807800E+03  0.17770000000E+01 0.  1.
         15    1    1    2    0    0  0.15128655013E+02  0.79401563528E+01 -0.37206769695E+02  0.40980772632E+02  0.17770000000E+01 0. -1.
</event>
<event>
 6    1  0.1599106E-003  0.5073361E+03  0.7546771E-02  0.9383543E-01
        -11   -1    0    0    0    0  0.00000000000E+00  0.00000000000E+00  0.50000000000E+03  0.50000000000E+03  0.00000000000E+00 0.  1.
         11   -1    0    0    0    0 -0.00000000000E+00 -0.00000000000E+00 -0.50000000000E+03  0.50000000000E+03  0.00000000000E+00 0.  1.
        -11    1    1    2    0    0 -0.81725670074E+01  0.49803450719E+01  0.42634516566E+03  0.42645257060E+03  0.00000000000E+00 0.  1.
         11    1    1    2    0    0  0.15464766342E+01  0.12644746397E+02 -0.49249915124E+03  0.49266387647E+03  0.00000000000E+00 0.  1.
        -15    1    1    2    0    0 -0.55517540809E+00 -0.57235653065E+01  0.66591898512E+02  0.66863338953E+02  0.17770000000E+01 0. -1.
         15    1    1    2    0    0  0.71812657813E+01 -0.11901526162E+02 -0.43791292927E+00  0.14020213976E+02  0.17770000000E+01 0.  1.
</event>
<event>
 6    1  0.1599106E-003  0.4396040E+03  0.7546771E-02  0.9546118E-01
        -11   -1    0    0    0    0  0.00000000000E+00  0.00000000000E+00  0.50000000000E+03  0.50000000000E+03  0.00000000000E+00 0. -1.
         11   -1    0    0    0    0 -0.00000000000E+00 -0.00000000000E+00 -0.50000000000E+03  0.50000000000E+03  0.00000000000E+00 0.  1.
        -11    1    1    2    0    0  0.11374654345E+02 -0.19582352569E+01  0.43666635327E+03  0.43681886581E+03  0.00000000000E+00 0. -1.
         11    1    1    2    0    0  0.11176470793E+02  0.55540149534E+01 -0.44252933219E+03  0.44270528620E+03  0.00000000000E+00 0.  1.
        -15    1    1    2    0    0 -0.15691275439E+02  0.30531839232E+01  0.61719282070E+02  0.63780604930E+02  0.17770000000E+01 0. -1.
         15    1    1    2    0    0 -0.68598496996E+01 -0.66489636197E+01 -0.55856303155E+02  0.56695243066E+02  0.17770000000E+01 0.  1.
</event>
<event>
 6    1  0.1599106E-003  0.5007803E+03  0.7546771E-02  0.9398065E-01
        -11   -1    0    0    0    0  0.00000000000E+00  0.00000000000E+00  0.50000000000E+03  0.50000000000E+03  0.00000000000E+00 0. -1.
         11   -1    0    0    0    0 -0.00000000000E+00 -0.00000000000E+00 -0.50000000000E+03  0.50000000000E+03  0.00000000000E+00 0. -1.
        -11    1    1    2    0    0 -0.31833482937E+01 -0.48915102820E+01  0.37283171980E+03  0.37287739522E+03  0.00000000000E+00 0. -1.
         11    1    1    2    0    0  0.52423181258E+01 -0.10163566381E+02 -0.49908868425E+03  0.49921968584E+03  0.00000000000E+00 0. -1.
        -15    1    1    2    0    0  0.26322548821E+01  0.14073392593E+02  0.73763692160E+02  0.75161354132E+02  0.17770000000E+01 0. -1.
         15    1    1    2    0    0 -0.46912247143E+01  0.98168406975E+00  0.52493272297E+02  0.52741564808E+02  0.17770000000E+01 0.  1.
</event>
<event>
 6    1  0.1599106E-003  0.5003499E+03  0.7546771E-02  0.9399027E-01
        -11   -1    0    0    0    0  0.00000000000E+00  0.00000000000E+00  0.50000000000E+03  0.50000000000E+03  0.00000000000E+00 0. -1.
         11   -1    0    0    0    0 -0.00000000000E+00 -0.00000000000E+00 -0.50000000000E+03  0.50000000000E+03  0.00000000000E+00 0.  1.
        -11    1    1    2    0    0 -0.10608436923E+02  0.88665225072E+00  0.49953672812E+03  0.49965014543E+03  0.00000000000E+00 0. -1.
         11    1    1    2    0    0  0.30052669016E+01  0.24612401135E+01 -0.41123074564E+02  0.41306132640E+02  0.00000000000E+00 0.  1.
        -15    1    1    2    0    0  0.29091964914E+01  0.10141313557E+01 -0.10601354478E+02  0.11182054033E+02  0.17770000000E+01 0. -1.
         15    1    1    2    0    0  0.46939735300E+01 -0.43620237199E+01 -0.44781229908E+03  0.44786166790E+03  0.17770000000E+01 0.  1.
</event>
<event>
 6    1  0.1599106E-003  0.5015598E+03  0.7546771E-02  0.9396326E-01
        -11   -1    0    0    0    0  0.00000000000E+00  0.00000000000E+00  0.50000000000E+03  0.50000000000E+03  0.00000000000E+00 0. -1.
         11   -1    0    0    0    0 -0.00000000000E+00 -0.00000000000E+00 -0.50000000000E+03  0.50000000000E+03  0.00000000000E+00 0. -1.
        -11    1    1    2    0    0  0.30211280069E+01 -0.81460242764E+01  0.39856083282E+03  0.39865551844E+03  0.00000000000E+00 0. -1.
         11    1    1    2    0    0 -0.75258987932E+01 -0.37742003472E+01 -0.49836910306E+03  0.49844021369E+03  0.00000000000E+00 0. -1.
        -15    1    1    2    0    0  0.13044431138E+01 -0.50022342202E+01  0.47307142364E+02  0.47621921073E+02  0.17770000000E+01 0.  1.
         15    1    1    2    0    0  0.32003276725E+01  0.16922458844E+02  0.52501127876E+02  0.55282346801E+02  0.17770000000E+01 0. -1.
</event>
<event>
 6    1  0.1599106E-003  0.5086679E+03  0.7546771E-02  0.9380621E-01
        -11   -1    0    0    0    0  0.00000000000E+00  0.00000000000E+00  0.50000000000E+03  0.50000000000E+03  0.00000000000E+00 0. -1.
         11   -1    0    0    0    0 -0.00000000000E+00 -0.00000000000E+00 -0.50000000000E+03  0.50000000000E+03  0.00000000000E+00 0.  1.
        -11    1    1    2    0    0  0.58079480163E+01  0.26224486465E+02  0.29914710482E+03  0.30035053899E+03  0.00000000000E+00 0. -1.
         11    1    1    2    0    0 -0.21378626204E+01  0.68815789695E+01 -0.49127930393E+03  0.49133214943E+03  0.00000000000E+00 0.  1.
        -15    1    1    2    0    0 -0.23740130299E+01 -0.26399652857E+02  0.19760715563E+03  0.19938486225E+03  0.17770000000E+01 0. -1.
         15    1    1    2    0    0 -0.12960723660E+01 -0.67064125773E+01 -0.54749565154E+01  0.89324493327E+01  0.17770000000E+01 0.  1.
</event>
<event>
 6    1  0.1599106E-003  0.5331916E+03  0.7546771E-02  0.9328458E-01
        -11   -1    0    0    0    0  0.00000000000E+00  0.00000000000E+00  0.50000000000E+03  0.50000000000E+03  0.00000000000E+00 0.  1.
         11   -1    0    0    0    0 -0.00000000000E+00 -0.00000000000E+00 -0.50000000000E+03  0.50000000000E+03  0.00000000000E+00 0.  1.
        -11    1    1    2    0    0 -0.92149812601E+01 -0.16868440662E+02  0.46641253018E+03  0.46680842803E+03  0.00000000000E+00 0.  1.
         11    1    1    2    0    0 -0.22876049777E+02  0.15226690081E+02 -0.26329538139E+03  0.26472556281E+03  0.00000000000E+00 0.  1.
        -15    1    1    2    0    0  0.24638081349E+02 -0.36298447270E+01 -0.23445325960E+03  0.23577892079E+03  0.17770000000E+01 0.  1.
         15    1    1    2    0    0  0.74529496886E+01  0.52715953086E+01  0.31336110811E+02  0.32687088367E+02  0.17770000000E+01 0. -1.
</event>
<event>
 6    1  0.1599106E-003  0.5113438E+03  0.7546771E-02  0.9374779E-01
        -11   -1    0    0    0    0  0.00000000000E+00  0.00000000000E+00  0.50000000000E+03  0.50000000000E+03  0.00000000000E+00 0. -1.
         11   -1    0    0    0    0 -0.00000000000E+00 -0.00000000000E+00 -0.50000000000E+03  0.50000000000E+03  0.00000000000E+00 0.  1.
        -11    1    1    2    0    0 -0.45011792125E+01  0.23253536711E+01  0.27587843805E+03  0.27592495441E+03  0.00000000000E+00 0. -1.
         11    1    1    2    0    0  0.68773516220E+02 -0.31664733955E+02 -0.48275508546E+03  0.48865624364E+03  0.00000000000E+00 0.  1.
        -15    1    1    2    0    0 -0.13361299791E+01 -0.65020378637E+01  0.12851370038E+03  0.12869728301E+03  0.17770000000E+01 0. -1.
         15    1    1    2    0    0 -0.62936207029E+02  0.35841418148E+02  0.78362947021E+02  0.10672151894E+03  0.17770000000E+01 0.  1.
</event>
<event>
 6    1  0.1599106E-003  0.5231843E+03  0.7546771E-02  0.9349377E-01
        -11   -1    0    0    0    0  0.00000000000E+00  0.00000000000E+00  0.50000000000E+03  0.50000000000E+03  0.00000000000E+00 0. -1.
         11   -1    0    0    0    0 -0.00000000000E+00 -0.00000000000E+00 -0.50000000000E+03  0.50000000000E+03  0.00000000000E+00 0.  1.
        -11    1    1    2    0    0 -0.50642575916E+01  0.40220440266E+01  0.47677182299E+03  0.47681568214E+03  0.00000000000E+00 0. -1.
         11    1    1    2    0    0 -0.80183688420E+01  0.80106048418E+01 -0.45489289280E+03  0.45503407340E+03  0.00000000000E+00 0.  1.
        -15    1    1    2    0    0  0.38193205455E+02 -0.70532052024E+01 -0.12917927271E+02  0.40969491339E+02  0.17770000000E+01 0.  1.
         15    1    1    2    0    0 -0.25110579022E+02 -0.49794436661E+01 -0.89610029106E+01  0.27180753121E+02  0.17770000000E+01 0. -1.
</event>
<event>
 6    1  0.1599106E-003  0.5471817E+03  0.7546771E-02  0.9300016E-01
        -11   -1    0    0    0    0  0.00000000000E+00  0.00000000000E+00  0.50000000000E+03  0.50000000000E+03  0.00000000000E+00 0.  1.
         11   -1    0    0    0    0 -0.00000000000E+00 -0.00000000000E+00 -0.50000000000E+03  0.50000000000E+03  0.00000000000E+00 0.  1.
        -11    1    1    2    0    0 -0.78616800523E+01  0.17252730801E+01  0.35081652957E+03  0.35090884856E+03  0.00000000000E+00 0.  1.
         11    1    1    2    0    0 -0.81554175163E+01 -0.43678117160E+01 -0.45272379737E+03  0.45281831380E+03  0.00000000000E+00 0.  1.
        -15    1    1    2    0    0 -0.27850373327E+02  0.19360440679E+02  0.13474194477E+03  0.13895689751E+03  0.17770000000E+01 0. -1.
         15    1    1    2    0    0  0.43867470895E+02 -0.16717902043E+02 -0.32834676969E+02  0.57315940123E+02  0.17770000000E+01 0.  1.
</event>
<event>
 6    1  0.1599106E-003  0.5135079E+03  0.7546771E-02  0.9370082E-01
        -11   -1    0    0    0    0  0.00000000000E+00  0.00000000000E+00  0.50000000000E+03  0.50000000000E+03  0.00000000000E+00 0.  1.
         11   -1    0    0    0    0 -0.00000000000E+00 -0.00000000000E+00 -0.50000000000E+03  0.50000000000E+03  0.00000000000E+00 0.  1.
        -11    1    1    2    0    0 -0.77462003840E+01  0.24030347732E+01  0.48642451894E+03  0.48649212823E+03  0.00000000000E+00 0.  1.
         11    1    1    2    0    0  0.65980508661E+01 -0.34301284010E+01 -0.43863092242E+03  0.43869395500E+03  0.00000000000E+00 0.  1.
        -15    1    1    2    0    0  0.66201482334E+00 -0.34690377246E+00 -0.61190727203E+02  0.61221086486E+02  0.17770000000E+01 0. -1.
         15    1    1    2    0    0  0.48613469451E+00  0.13739974003E+01  0.13397130676E+02  0.13592830285E+02  0.17770000000E+01 0.  1.
</event>
<event>
 6    1  0.1599106E-003  0.4182418E+03  0.7546771E-02  0.9603986E-01
        -11   -1    0    0    0    0  0.00000000000E+00  0.00000000000E+00  0.50000000000E+03  0.50000000000E+03  0.00000000000E+00 0. -1.
         11   -1    0    0    0    0 -0.00000000000E+00 -0.00000000000E+00 -0.50000000000E+03  0.50000000000E+03  0.00000000000E+00 0.  1.
        -11    1    1    2    0    0 -0.10756900338E+01 -0.32385638396E+01  0.48917026840E+02  0.49035914590E+02  0.00000000000E+00 0. -1.
         11    1    1    2    0    0  0.20218479635E+01  0.16017359022E+02 -0.40328960784E+03  0.40361262549E+03  0.00000000000E+00 0.  1.
        -15    1    1    2    0    0  0.50706136085E+02 -0.77411405101E+02  0.42720133167E+03  0.43711299842E+03  0.17770000000E+01 0. -1.
         15    1    1    2    0    0 -0.51652294015E+02  0.64632609918E+02 -0.72828750667E+02  0.11023846150E+03  0.17770000000E+01 0.  1.
</event>
<event>
 6    1  0.1599106E-003  0.5170404E+03  0.7546771E-02  0.9362468E-01
        -11   -1    0    0    0    0  0.00000000000E+00  0.00000000000E+00  0.50000000000E+03  0.50000000000E+03  0.00000000000E+00 0.  1.
         11   -1    0    0    0    0 -0.00000000000E+00 -0.00000000000E+00 -0.50000000000E+03  0.50000000000E+03  0.00000000000E+00 0. -1.
        -11    1    1    2    0    0  0.17550292721E+02 -0.11147141608E+02  0.35073780180E+03  0.35135349315E+03  0.00000000000E+00 0.  1.
         11    1    1    2    0    0  0.16341481143E+02 -0.63140787350E+01 -0.48264178447E+03  0.48295962949E+03  0.00000000000E+00 0. -1.
        -15    1    1    2    0    0  0.18774571912E+02 -0.23685240482E+02  0.23509330168E+02  0.38331729691E+02  0.17770000000E+01 0.  1.
         15    1    1    2    0    0 -0.52666345777E+02  0.41146460824E+02  0.10839465251E+03  0.12735514767E+03  0.17770000000E+01 0. -1.
</event>
<event>
 6    1  0.1599106E-003  0.3663384E+03  0.7546771E-02  0.9761447E-01
        -11   -1    0    0    0    0  0.00000000000E+00  0.00000000000E+00  0.50000000000E+03  0.50000000000E+03  0.00000000000E+00 0. -1.
         11   -1    0    0    0    0 -0.00000000000E+00 -0.00000000000E+00 -0.50000000000E+03  0.50000000000E+03  0.00000000000E+00 0.  1.
        -11    1    1    2    0    0 -0.44034874847E+01 -0.19985376875E+03  0.38351386460E+03  0.43248561124E+03  0.00000000000E+00 0. -1.
         11    1    1    2    0    0  0.66618081751E+01 -0.16997547053E+01 -0.26840330916E+03  0.26849135037E+03  0.00000000000E+00 0.  1.
        -15    1    1    2    0    0 -0.21615454485E+02  0.14955087839E+03  0.20489664683E+02  0.15249812192E+03  0.17770000000E+01 0.  1.
         15    1    1    2    0    0  0.19357133794E+02  0.52002645062E+02 -0.13560022012E+03  0.14652491648E+03  0.17770000000E+01 0. -1.
</event>
<event>
 6    1  0.1599106E-003  0.5007149E+03  0.7546771E-02  0.9398212E-01
        -11   -1    0    0    0    0  0.00000000000E+00  0.00000000000E+00  0.50000000000E+03  0.50000000000E+03  0.00000000000E+00 0.  1.
         11   -1    0    0    0    0 -0.00000000000E+00 -0.00000000000E+00 -0.50000000000E+03  0.50000000000E+03  0.00000000000E+00 0. -1.
        -11    1    1    2    0    0 -0.20662071979E+01 -0.16723243519E+00  0.12873914977E+03  0.12875583817E+03  0.00000000000E+00 0.  1.
         11    1    1    2    0    0  0.92002303012E+01  0.54029393037E+01 -0.49917110851E+03  0.49928512051E+03  0.00000000000E+00 0. -1.
        -15    1    1    2    0    0 -0.12856455539E+02 -0.18103893963E+01  0.58459314358E+02  0.59910058613E+02  0.17770000000E+01 0.  1.
         15    1    1    2    0    0  0.57224324357E+01 -0.34253174721E+01  0.31197264439E+03  0.31204898271E+03  0.17770000000E+01 0. -1.
</event>
<event>
 6    1  0.1599106E-003  0.5002331E+03  0.7546771E-02  0.9399288E-01
        -11   -1    0    0    0    0  0.00000000000E+00  0.00000000000E+00  0.50000000000E+03  0.50000000000E+03  0.00000000000E+00 0.  1.
         11   -1    0    0    0    0 -0.00000000000E+00 -0.00000000000E+00 -0.50000000000E+03  0.50000000000E+03  0.00000000000E+00 0. -1.
        -11    1    1    2    0    0  0.37141149654E+01  0.15001237052E+01  0.22947654588E+03  0.22951150326E+03  0.00000000000E+00 0.  1.
         11    1    1    2    0    0  0.55077312840E+01 -0.42291787150E+01 -0.49971862688E+03  0.49976687276E+03  0.00000000000E+00 0. -1.
        -15    1    1    2    0    0 -0.95650835359E+01 -0.88644221022E-01  0.25112795087E+03  0.25131634272E+03  0.17770000000E+01 0.  1.
         15    1    1    2    0    0  0.34323728648E+00  0.28176992309E+01  0.19114130133E+02  0.19405281254E+02  0.17770000000E+01 0. -1.
</event>
<event>
 6    1  0.1599106E-003  0.5070766E+03  0.7546771E-02  0.9384113E-01
        -11   -1    0    0    0    0  0.00000000000E+00  0.00000000000E+00  0.50000000000E+03  0.50000000000E+03  0.00000000000E+00 0. -1.
         11   -1    0    0    0    0 -0.00000000000E+00 -0.00000000000E+00 -0.50000000000E+03  0.50000000000E+03  0.00000000000E+00 0.  1.
        -11    1    1    2    0    0 -0.13640416169E+01  0.14921387888E+02  0.47185684255E+03  0.47209468149E+03  0.00000000000E+00 0. -1.
         11    1    1    2    0    0  0.31265568935E+01  0.72405435379E+01 -0.49286034827E+03  0.49292344611E+03  0.00000000000E+00 0.  1.
        -15    1    1    2    0    0  0.19073987264E+01  0.16701762001E+00  0.88648739551E+01  0.92417413958E+01  0.17770000000E+01 0.  1.
         15    1    1    2    0    0 -0.36699140029E+01 -0.22328949046E+02  0.12138631762E+02  0.25740131009E+02  0.17770000000E+01 0. -1.
</event>
<event>
 6    1  0.1599106E-003  0.5108035E+03  0.7546771E-02  0.9375955E-01
        -11   -1    0    0    0    0  0.00000000000E+00  0.00000000000E+00  0.50000000000E+03  0.50000000000E+03  0.00000000000E+00 0.  1.
         11   -1    0    0    0    0 -0.00000000000E+00 -0.00000000000E+00 -0.50000000000E+03  0.50000000000E+03  0.00000000000E+00 0. -1.
        -11    1    1    2    0    0  0.17575041355E+01  0.68813190205E+01  0.48914495632E+03  0.48919651437E+03  0.00000000000E+00 0.  1.
         11    1    1    2    0    0 -0.10114352311E+02  0.16129814663E+02 -0.27399384577E+03  0.27465450763E+03  0.00000000000E+00 0. -1.
        -15    1    1    2    0    0  0.38320053848E+01 -0.10294206143E+02  0.72829589554E+01  0.13298652771E+02  0.17770000000E+01 0.  1.
         15    1    1    2    0    0  0.45248427906E+01 -0.12716927540E+02 -0.22243406951E+03  0.22285032523E+03  0.17770000000E+01 0. -1.
</event>
<event>
 6    1  0.1599106E-003  0.5016384E+03  0.7546771E-02  0.9396151E-01
        -11   -1    0    0    0    0  0.00000000000E+00  0.00000000000E+00  0.50000000000E+03  0.50000000000E+03  0.00000000000E+00 0.  1.
         11   -1    0    0    0    0 -0.00000000000E+00 -0.00000000000E+00 -0.50000000000E+03  0.50000000000E+03  0.00000000000E+00 0. -1.
        -11    1    1    2    0    0  0.41026485079E+00  0.75393025399E+01  0.49830435236E+03  0.49836155247E+03  0.00000000000E+00 0.  1.
         11    1    1    2    0    0  0.54227942800E+01 -0.49995995565E+01 -0.47323729999E+03  0.47329477580E+03  0.00000000000E+00 0. -1.
        -15    1    1    2    0    0 -0.10857441989E+00 -0.31303991398E+01 -0.20423258236E+02  0.20738331494E+02  0.17770000000E+01 0.  1.
         15    1    1    2    0    0 -0.57244847109E+01  0.59069615648E+00 -0.46437941341E+01  0.76053402366E+01  0.17770000000E+01 0. -1.
</event>
<event>
 6    1  0.1599106E-003  0.5050712E+03  0.7546771E-02  0.9388533E-01
        -11   -1    0    0    0    0  0.00000000000E+00  0.00000000000E+00  0.50000000000E+03  0.50000000000E+03  0.00000000000E+00 0. -1.
         11   -1    0    0    0    0 -0.00000000000E+00 -0.00000000000E+00 -0.50000000000E+03  0.50000000000E+03  0.00000000000E+00 0. -1.
        -11    1    1    2    0    0  0.15149632324E+01 -0.79093819372E+01  0.31922061865E+03  0.31932218340E+03  0.00000000000E+00 0. -1.
         11    1    1    2    0    0 -0.38863091914E+02 -0.49349137498E+01 -0.49337593227E+03  0.49492878663E+03  0.00000000000E+00 0. -1.
        -15    1    1    2    0    0 -0.40605155904E+01  0.51311842843E+01  0.10166598041E+03  0.10189183549E+03  0.17770000000E+01 0.  1.
         15    1    1    2    0    0  0.41408644272E+02  0.77131114027E+01  0.72489333212E+02  0.83857194482E+02  0.17770000000E+01 0. -1.
</event>
<event>
 6    1  0.1599106E-003  0.5009802E+03  0.7546771E-02  0.9397619E-01
        -11   -1    0    0    0    0  0.00000000000E+00  0.00000000000E+00  0.50000000000E+03  0.50000000000E+03  0.00000000000E+00 0.  1.
         11   -1    0    0    0    0 -0.00000000000E+00 -0.00000000000E+00 -0.50000000000E+03  0.50000000000E+03  0.00000000000E+00 0. -1.
        -11    1    1    2    0    0 -0.12810138862E+01 -0.89487377449E+01  0.49893790044E+03  0.49901978858E+03  0.00000000000E+00 0.  1.
         11    1    1    2    0    0 -0.10783075596E+01  0.63611066100E+01 -0.42680710100E+03  0.42685586313E+03  0.00000000000E+00 0. -1.
        -15    1    1    2    0    0  0.28837598484E+00  0.71583928142E+01 -0.14717253362E+02  0.16464538375E+02  0.17770000000E+01 0.  1.
         15    1    1    2    0    0  0.20709454610E+01 -0.45707616793E+01 -0.57413546077E+02  0.57659809917E+02  0.17770000000E+01 0. -1.
</event>
<event>
 6    1  0.1599106E-003  0.5236277E+03  0.7546771E-02  0.9348439E-01
        -11   -1    0    0    0    0  0.00000000000E+00  0.00000000000E+00  0.50000000000E+03  0.50000000000E+03  0.00000000000E+00 0. -1.
         11   -1    0    0    0    0 -0.00000000000E+00 -0.00000000000E+00 -0.50000000000E+03  0.50000000000E+03  0.00000000000E+00 0. -1.
        -11    1    1    2    0    0  0.11074848060E+02 -0.22604168857E+01  0.47623815397E+03  0.47637227148E+03  0.00000000000E+00 0. -1.
         11    1    1    2    0    0 -0.73800314551E+01  0.15339019573E+01 -0.36951873382E+03  0.36959560653E+03  0.00000000000E+00 0. -1.
        -15    1    1    2    0    0 -0.24744278202E+01 -0.10388452048E+02 -0.12878081445E+03  0.12923505185E+03  0.17770000000E+01 0. -1.
         15    1    1    2    0    0 -0.12203887850E+01  0.11114966977E+02  0.22061394304E+02  0.24797070136E+02  0.17770000000E+01 0.  1.
</event>
<event>
 6    1  0.1599106E-003  0.5010998E+03  0.7546771E-02  0.9397352E-01
        -11   -1    0    0    0    0  0.00000000000E+00  0.00000000000E+00  0.50000000000E+03  0.50000000000E+03  0.00000000000E+00 0. -1.
         11   -1    0    0    0    0 -0.00000000000E+00 -0.00000000000E+00 -0.50000000000E+03  0.50000000000E+03  0.00000000000E+00 0. -1.
        -11    1    1    2    0    0  0.30794698362E+01 -0.94696064355E+01  0.49880084014E+03  0.49890022520E+03  0.00000000000E+00 0. -1.
         11    1    1    2    0    0  0.46127470397E+01 -0.66828463822E+01 -0.34565145183E+03  0.34574682070E+03  0.00000000000E+00 0. -1.
        -15    1    1    2    0    0 -0.13221575524E+02  0.97836083620E+01 -0.79652185451E+02  0.81352058536E+02  0.17770000000E+01 0. -1.
         15    1    1    2    0    0  0.55293586477E+01  0.63688444557E+01 -0.73497202864E+02  0.74000895566E+02  0.17770000000E+01 0.  1.
</event>
<event>
 6    1  0.1599106E-003  0.5051877E+03  0.7546771E-02  0.9388276E-01
        -11   -1    0    0    0    0  0.00000000000E+00  0.00000000000E+00  0.50000000000E+03  0.50000000000E+03  0.00000000000E+00 0.  1.
         11   -1    0    0    0    0 -0.00000000000E+00 -0.00000000000E+00 -0.50000000000E+03  0.50000000000E+03  0.00000000000E+00 0. -1.
        -11    1    1    2    0    0  0.10022309501E+02 -0.53929392999E+01  0.49066138929E+03  0.49079336734E+03  0.00000000000E+00 0.  1.
         11    1    1    2    0    0 -0.83073849618E+01  0.39807069511E+01 -0.49472658505E+03  0.49481234082E+03  0.00000000000E+00 0. -1.
        -15    1    1    2    0    0 -0.46788437642E+01  0.45006480438E+00 -0.34305066485E+01  0.60844261984E+01  0.17770000000E+01 0. -1.
         15    1    1    2    0    0  0.29639192248E+01  0.96216754446E+00  0.74957024001E+01  0.83098656443E+01  0.17770000000E+01 0.  1.
</event>
<event>
 6    1  0.1599106E-003  0.5245928E+03  0.7546771E-02  0.9346403E-01
        -11   -1    0    0    0    0  0.00000000000E+00  0.00000000000E+00  0.50000000000E+03  0.50000000000E+03  0.00000000000E+00 0.  1.
         11   -1    0    0    0    0 -0.00000000000E+00 -0.00000000000E+00 -0.50000000000E+03  0.50000000000E+03  0.00000000000E+00 0. -1.
        -11    1    1    2    0    0 -0.63433015642E+01  0.33130503383E+02  0.47420891175E+03  0.47540715152E+03  0.00000000000E+00 0.  1.
         11    1    1    2    0    0  0.33081100724E+01  0.56672234961E+01 -0.41243236153E+03  0.41248456195E+03  0.00000000000E+00 0. -1.
        -15    1    1    2    0    0  0.10198220505E+02 -0.25996785935E+02  0.16476385599E+02  0.32472535962E+02  0.17770000000E+01 0.  1.
         15    1    1    2    0    0 -0.71630290133E+01 -0.12800940945E+02 -0.78252935826E+02  0.79635750566E+02  0.17770000000E+01 0. -1.
</event>
<event>
 6    1  0.1599106E-003  0.5026425E+03  0.7546771E-02  0.9393916E-01
        -11   -1    0    0    0    0  0.00000000000E+00  0.00000000000E+00  0.50000000000E+03  0.50000000000E+03  0.00000000000E+00 0.  1.
         11   -1    0    0    0    0 -0.00000000000E+00 -0.00000000000E+00 -0.50000000000E+03  0.50000000000E+03  0.00000000000E+00 0.  1.
        -11    1    1    2    0    0 -0.73058419479E+00  0.67178068232E+01  0.49731156989E+03  0.49735747730E+03  0.00000000000E+00 0.  1.
         11    1    1    2    0    0  0.38666016558E+01  0.56559741843E+01 -0.44781618675E+03  0.44786859431E+03  0.00000000000E+00 0.  1.
        -15    1    1    2    0    0 -0.66235607938E+01 -0.99976424526E+01 -0.12203440574E+02  0.17201921493E+02  0.17770000000E+01 0.  1.
         15    1    1    2    0    0  0.34875433329E+01 -0.23761385549E+01 -0.37291942566E+02  0.37572006897E+02  0.17770000000E+01 0. -1.
</event>
<event>
 6    1  0.1599106E-003  0.5057335E+03  0.7546771E-02  0.9387071E-01
        -11   -1    0    0    0    0  0.00000000000E+00  0.00000000000E+00  0.50000000000E+03  0.50000000000E+03  0.00000000000E+00 0. -1.
         11   -1    0    0    0    0 -0.00000000000E+00 -0.00000000000E+00 -0.50000000000E+03  0.50000000000E+03  0.00000000000E+00 0. -1.
        -11    1    1    2    0    0  0.29569913645E+01 -0.96247439605E+01  0.49416392423E+03  0.49426649037E+03  0.00000000000E+00 0. -1.
         11    1    1    2    0    0 -0.47041564188E+01  0.47372182372E+01 -0.45341159407E+03  0.45346074137E+03  0.00000000000E+00 0. -1.
        -15    1    1    2    0    0  0.87695315707E+01  0.15137171233E-01 -0.42447036087E+02  0.43379874535E+02  0.17770000000E+01 0. -1.
         15    1    1    2    0    0 -0.70223665164E+01  0.48723885520E+01  0.16947059302E+01  0.88928937294E+01  0.17770000000E+01 0.  1.
</event>
<event>
 6    1  0.1599106E-003  0.5000281E+03  0.7546771E-02  0.9399747E-01
        -11   -1    0    0    0    0  0.00000000000E+00  0.00000000000E+00  0.50000000000E+03  0.50000000000E+03  0.00000000000E+00 0.  1.
         11   -1    0    0    0    0 -0.00000000000E+00 -0.00000000000E+00 -0.50000000000E+03  0.50000000000E+03  0.00000000000E+00 0. -1.
        -11    1    1    2    0    0  0.41711386589E+00 -0.36159054503E+00  0.34346216314E+02  0.34350652203E+02  0.00000000000E+00 0.  1.
         11    1    1    2    0    0  0.68213259483E+01  0.37405097326E+01 -0.49991135496E+03  0.49997188393E+03  0.00000000000E+00 0. -1.
        -15    1    1    2    0    0 -0.18399686435E+01  0.10832475763E+01  0.90137202151E+02  0.90179996953E+02  0.17770000000E+01 0. -1.
         15    1    1    2    0    0 -0.53984711707E+01 -0.44621667638E+01  0.37542793650E+03  0.37549746691E+03  0.17770000000E+01 0.  1.
</event>
<event>
 6    1  0.1599106E-003  0.5003224E+03  0.7546771E-02  0.9399089E-01
        -11   -1    0    0    0    0  0.00000000000E+00  0.00000000000E+00  0.50000000000E+03  0.50000000000E+03  0.00000000000E+00 0.  1.
         11   -1    0    0    0    0 -0.00000000000E+00 -0.00000000000E+00 -0.50000000000E+03  0.50000000000E+03  0.00000000000E+00 0. -1.
        -11    1    1    2    0    0 -0.75821668106E+00  0.13866465702E+01  0.93184763484E+02  0.93198164289E+02  0.00000000000E+00 0.  1.
         11    1    1    2    0    0 -0.93029898931E+01  0.20979297816E+01 -0.49958656785E+03  0.49967758175E+03  0.00000000000E+00 0. -1.
        -15    1    1    2    0    0  0.35435479136E+01  0.53780294431E+01  0.31131386896E+03  0.31138555308E+03  0.17770000000E+01 0.  1.
         15    1    1    2    0    0  0.65176586605E+01 -0.88626057950E+01  0.95087935409E+02  0.95738700875E+02  0.17770000000E+01 0. -1.
</event>
<event>
 6    1  0.1599106E-003  0.5403851E+03  0.7546771E-02  0.9313719E-01
        -11   -1    0    0    0    0  0.00000000000E+00  0.00000000000E+00  0.50000000000E+03  0.50000000000E+03  0.00000000000E+00 0. -1.
         11   -1    0    0    0    0 -0.00000000000E+00 -0.00000000000E+00 -0.50000000000E+03  0.50000000000E+03  0.00000000000E+00 0.  1.
        -11    1    1    2    0    0  0.64837342020E+01 -0.13115358355E+01  0.39346942635E+03  0.39352502895E+03  0.00000000000E+00 0. -1.
         11    1    1    2    0    0  0.14077329061E+02 -0.22330189835E+00 -0.45939925379E+03  0.45961494258E+03  0.00000000000E+00 0.  1.
        -15    1    1    2    0    0  0.27823225595E+02 -0.26287370985E+02  0.80495045709E+02  0.89150254450E+02  0.17770000000E+01 0. -1.
         15    1    1    2    0    0 -0.48384288858E+02  0.27822208719E+02 -0.14565218268E+02  0.57709774029E+02  0.17770000000E+01 0.  1.
</event>
<event>
 6    1  0.1599106E-003  0.5089695E+03  0.7546771E-02  0.9379960E-01
        -11   -1    0    0    0    0  0.00000000000E+00  0.00000000000E+00  0.50000000000E+03  0.50000000000E+03  0.00000000000E+00 0.  1.
         11   -1    0    0    0    0 -0.00000000000E+00 -0.00000000000E+00 -0.50000000000E+03  0.50000000000E+03  0.00000000000E+00 0. -1.
        -11    1    1    2    0    0 -0.54593655975E+01  0.37047380160E+01  0.39487564502E+03  0.39493075948E+03  0.00000000000E+00 0.  1.
         11    1    1    2    0    0 -0.11318156149E+02  0.48256013108E+01 -0.49087629088E+03  0.49103046752E+03  0.00000000000E+00 0. -1.
        -15    1    1    2    0    0  0.40183464781E+01 -0.14547168743E+01  0.98941645537E+02  0.99049837255E+02  0.17770000000E+01 0.  1.
         15    1    1    2    0    0  0.12759175269E+02 -0.70756224524E+01 -0.29409996803E+01  0.14988935744E+02  0.17770000000E+01 0. -1.
</event>
<event>
 6    1  0.1599106E-003  0.5005074E+03  0.7546771E-02  0.9398675E-01
        -11   -1    0    0    0    0  0.00000000000E+00  0.00000000000E+00  0.50000000000E+03  0.50000000000E+03  0.00000000000E+00 0.  1.
         11   -1    0    0    0    0 -0.00000000000E+00 -0.00000000000E+00 -0.50000000000E+03  0.50000000000E+03  0.00000000000E+00 0. -1.
        -11    1    1    2    0    0  0.57008552006E+01  0.46856562370E+01  0.49943807602E+03  0.49949258944E+03  0.00000000000E+00 0.  1.
         11    1    1    2    0    0 -0.28081082035E+01 -0.28754721126E+01 -0.14592413354E+03  0.14597947308E+03  0.00000000000E+00 0. -1.
        -15    1    1    2    0    0  0.16322328796E+01  0.41164960270E+01 -0.32398955039E+03  0.32402468457E+03  0.17770000000E+01 0. -1.
         15    1    1    2    0    0 -0.45249798767E+01 -0.59266801515E+01 -0.29524392092E+02  0.30503252907E+02  0.17770000000E+01 0.  1.
</event>
<event>
 6    1  0.1599106E-003  0.4738668E+03  0.7546771E-02  0.9460261E-01
        -11   -1    0    0    0    0  0.00000000000E+00  0.00000000000E+00  0.50000000000E+03  0.50000000000E+03  0.00000000000E+00 0. -1.
         11   -1    0    0    0    0 -0.00000000000E+00 -0.00000000000E+00 -0.50000000000E+03  0.50000000000E+03  0.00000000000E+00 0.  1.
        -11    1    1    2    0    0  0.70975463439E+01 -0.20860562271E+01  0.47546964496E+03  0.47552719173E+03  0.00000000000E+00 0. -1.
         11    1    1    2    0    0  0.72464634077E+01  0.82793273478E+00 -0.47226493965E+03  0.47232125712E+03  0.00000000000E+00 0.  1.
        -15    1    1    2    0    0 -0.22187950422E+02 -0.19267800977E+02  0.19740354078E+01  0.29506064516E+02  0.17770000000E+01 0.  1.
         15    1    1    2    0    0  0.78439406703E+01  0.20525924470E+02 -0.51787407186E+01  0.22645486637E+02  0.17770000000E+01 0. -1.
</event>
<event>
 6    1  0.1599106E-003  0.5014737E+03  0.7546771E-02  0.9396518E-01
        -11   -1    0    0    0    0  0.00000000000E+00  0.00000000000E+00  0.50000000000E+03  0.50000000000E+03  0.00000000000E+00 0.  1.
         11   -1    0    0    0    0 -0.00000000000E+00 -0.00000000000E+00 -0.50000000000E+03  0.50000000000E+03  0.00000000000E+00 0. -1.
        -11    1    1    2    0    0  0.89572155182E+01 -0.18624868685E+01  0.41165416164E+03  0.41175581279E+03  0.00000000000E+00 0.  1.
         11    1    1    2    0    0 -0.55801755348E+00  0.11996391609E+02 -0.49838158205E+03  0.49852625419E+03  0.00000000000E+00 0. -1.
        -15    1    1    2    0    0 -0.13916481356E+01 -0.45224274041E+01  0.73266843744E+02  0.73440977358E+02  0.17770000000E+01 0. -1.
         15    1    1    2    0    0 -0.70075498291E+01 -0.56114773367E+01  0.13460576661E+02  0.16276955660E+02  0.17770000000E+01 0.  1.
</event>
<event>
 6    1  0.1599106E-003  0.5113490E+03  0.7546771E-02  0.9374767E-01
        -11   -1    0    0    0    0  0.00000000000E+00  0.00000000000E+00  0.50000000000E+03  0.50000000000E+03  0.00000000000E+00 0. -1.
         11   -1    0    0    0    0 -0.00000000000E+00 -0.00000000000E+00 -0.50000000000E+03  0.50000000000E+03  0.00000000000E+00 0. -1.
        -11    1    1    2    0    0  0.24593460911E+02 -0.11896674390E+02  0.48788666303E+03  0.48865096454E+03  0.00000000000E+00 0. -1.
         11    1    1    2    0    0  0.24629969504E+02  0.21320070115E+02 -0.41195687817E+03  0.41324284659E+03  0.00000000000E+00 0. -1.
        -15    1    1    2    0    0 -0.41364596155E+02 -0.20246498142E+02 -0.45241002334E+02  0.64582168772E+02  0.17770000000E+01 0.  1.
         15    1    1    2    0    0 -0.78588342588E+01  0.10823102417E+02 -0.30688782522E+02  0.33524020098E+02  0.17770000000E+01 0. -1.
</event>
<event>
 6    1  0.1599106E-003  0.5263104E+03  0.7546771E-02  0.9342789E-01
        -11   -1    0    0    0    0  0.00000000000E+00  0.00000000000E+00  0.50000000000E+03  0.50000000000E+03  0.00000000000E+00 0.  1.
         11   -1    0    0    0    0 -0.00000000000E+00 -0.00000000000E+00 -0.50000000000E+03  0.50000000000E+03  0.00000000000E+00 0.  1.
        -11    1    1    2    0    0 -0.74347338012E+01  0.37609544890E+00  0.45193539424E+03  0.45199670052E+03  0.00000000000E+00 0.  1.
         11    1    1    2    0    0  0.70339848199E+00 -0.89778802354E+01 -0.47360402825E+03  0.47368963751E+03  0.00000000000E+00 0.  1.
        -15    1    1    2    0    0 -0.22649484065E+02  0.80508669347E+01 -0.14149425789E+02  0.27949589728E+02  0.17770000000E+01 0. -1.
         15    1    1    2    0    0  0.29380819384E+02  0.55091785171E+00  0.35818059803E+02  0.46364072246E+02  0.17770000000E+01 0.  1.
</event>
<event>
 6    1  0.1599106E-003  0.2963525E+03  0.7546771E-02  0.1002464E+00
        -11   -1    0    0    0    0  0.00000000000E+00  0.00000000000E+00  0.50000000000E+03  0.50000000000E+03  0.00000000000E+00 0.  1.
         11   -1    0    0    0    0 -0.00000000000E+00 -0.00000000000E+00 -0.50000000000E+03  0.50000000000E+03  0.00000000000E+00 0. -1.
        -11    1    1    2    0    0 -0.88486812033E+02 -0.16976621771E+02  0.36927361284E+03  0.38010672544E+03  0.00000000000E+00 0.  1.
         11    1    1    2    0    0 -0.35611185021E+01 -0.30385409444E+01 -0.22566278775E+03  0.22571133794E+03  0.00000000000E+00 0. -1.
        -15    1    1    2    0    0  0.11942312416E+03  0.33736295332E+02  0.93316335265E+02  0.15527754623E+03  0.17770000000E+01 0.  1.
         15    1    1    2    0    0 -0.27375193629E+02 -0.13721132617E+02 -0.23692716035E+03  0.23890439039E+03  0.17770000000E+01 0. -1.
</event>
<event>
 6    1  0.1599106E-003  0.5005311E+03  0.7546771E-02  0.9398622E-01
        -11   -1    0    0    0    0  0.00000000000E+00  0.00000000000E+00  0.50000000000E+03  0.50000000000E+03  0.00000000000E+00 0. -1.
         11   -1    0    0    0    0 -0.00000000000E+00 -0.00000000000E+00 -0.50000000000E+03  0.50000000000E+03  0.00000000000E+00 0.  1.
        -11    1    1    2    0    0 -0.64687471713E+01 -0.17465683325E+02  0.49912156216E+03  0.49946894658E+03  0.00000000000E+00 0. -1.
         11    1    1    2    0    0 -0.16131278584E+01 -0.69181475368E+00 -0.11816668461E+03  0.11817971967E+03  0.00000000000E+00 0.  1.
        -15    1    1    2    0    0  0.27202087718E+01  0.23826056614E+02 -0.25060198583E+03  0.25175304078E+03  0.17770000000E+01 0. -1.
         15    1    1    2    0    0  0.53616662579E+01 -0.56685585350E+01 -0.13035289171E+03  0.13059829298E+03  0.17770000000E+01 0.  1.
</event>
<event>
 6    1  0.1599106E-003  0.4890947E+03  0.7546771E-02  0.9424547E-01
        -11   -1    0    0    0    0  0.00000000000E+00  0.00000000000E+00  0.50000000000E+03  0.50000000000E+03  0.00000000000E+00 0. -1.
         11   -1    0    0    0    0 -0.00000000000E+00 -0.00000000000E+00 -0.50000000000E+03  0.50000000000E+03  0.00000000000E+00 0. -1.
        -11    1    1    2    0    0  0.90447833147E+01 -0.71387786284E+01  0.48714725244E+03  0.48728350662E+03  0.00000000000E+00 0. -1.
         11    1    1    2    0    0  0.72845873744E+00  0.93379758946E+01 -0.49087489702E+03  0.49096424816E+03  0.00000000000E+00 0. -1.
        -15    1    1    2    0    0  0.19677817643E+00  0.42786905382E+01 -0.50582496938E+01  0.68621813833E+01  0.17770000000E+01 0. -1.
         15    1    1    2    0    0 -0.99700202285E+01 -0.64778878044E+01  0.87858942792E+01  0.14890063836E+02  0.17770000000E+01 0.  1.
</event>
<event>
 6    1  0.1599106E-003  0.5030199E+03  0.7546771E-02  0.9393078E-01
        -11   -1    0    0    0    0  0.00000000000E+00  0.00000000000E+00  0.50000000000E+03  0.50000000000E+03  0.00000000000E+00 0. -1.
         11   -1    0    0    0    0 -0.00000000000E+00 -0.00000000000E+00 -0.50000000000E+03  0.50000000000E+03  0.00000000000E+00 0. -1.
        -11    1    1    2    0    0  0.62398023280E+01 -0.61177452055E+01  0.36749567311E+03  0.36759955344E+03  0.00000000000E+00 0. -1.
         11    1    1    2    0    0  0.41691492079E+01  0.53376781228E+01 -0.49693391054E+03  0.49698006404E+03  0.00000000000E+00 0. -1.
        -15    1    1    2    0    0 -0.75881423239E+01  0.71722237762E+00  0.13134585158E+03  0.13157881580E+03  0.17770000000E+01 0.  1.
         15    1    1    2    0    0 -0.28208092120E+01  0.62844705039E-01 -0.19076141456E+01  0.38415667111E+01  0.17770000000E+01 0. -1.
</event>
<event>
 6    1  0.1599106E-003  0.5042893E+03  0.7546771E-02  0.9390263E-01
        -11   -1    0    0    0    0  0.00000000000E+00  0.00000000000E+00  0.50000000000E+03  0.50000000000E+03  0.00000000000E+00 0.  1.
         11   -1    0    0    0    0 -0.00000000000E+00 -0.00000000000E+00 -0.50000000000E+03  0.50000000000E+03  0.00000000000E+00 0.  1.
        -11    1    1    2    0    0  0.16189507781E+02 -0.50982884264E+01  0.35858136688E+03  0.35898285388E+03  0.00000000000E+00 0.  1.
         11    1    1    2    0    0 -0.22804217815E+01 -0.73649401269E+01 -0.49565070467E+03  0.49571066532E+03  0.00000000000E+00 0.  1.
        -15    1    1    2    0    0 -0.10799276164E+02 -0.37533252454E+01  0.57117725064E+01  0.12903251150E+02  0.17770000000E+01 0. -1.
         15    1    1    2    0    0 -0.31098098355E+01  0.16216553799E+02  0.13135756529E+03  0.13240322965E+03  0.17770000000E+01 0.  1.
</event>
<event>
 6    1  0.1599106E-003  0.5009279E+03  0.7546771E-02  0.9397736E-01
        -11   -1    0    0    0    0  0.00000000000E+00  0.00000000000E+00  0.50000000000E+03  0.50000000000E+03  0.00000000000E+00 0.  1.
         11   -1    0    0    0    0 -0.00000000000E+00 -0.00000000000E+00 -0.50000000000E+03  0.50000000000E+03  0.00000000000E+00 0. -1.
        -11    1    1    2    0    0 -0.13814132332E+02 -0.20333995514E+01  0.49887670135E+03  0.49907206706E+03  0.00000000000E+00 0.  1.
         11    1    1    2    0    0 -0.12373923628E+01 -0.15776949825E+01 -0.11744880684E+03  0.11746592054E+03  0.00000000000E+00 0. -1.
        -15    1    1    2    0    0  0.59132594150E+01 -0.19250180175E+01 -0.35271289105E+03  0.35277218367E+03  0.17770000000E+01 0. -1.
         15    1    1    2    0    0  0.91382652803E+01  0.55361125513E+01 -0.28715003462E+02  0.30689828728E+02  0.17770000000E+01 0.  1.
</event>
<event>
 6    1  0.1599106E-003  0.5004798E+03  0.7546771E-02  0.9398737E-01
        -11   -1    0    0    0    0  0.00000000000E+00  0.00000000000E+00  0.50000000000E+03  0.50000000000E+03  0.00000000000E+00 0.  1.
         11   -1    0    0    0    0 -0.00000000000E+00 -0.00000000000E+00 -0.50000000000E+03  0.50000000000E+03  0.00000000000E+00 0. -1.
        -11    1    1    2    0    0 -0.28250121439E+01  0.25302993305E+01  0.19026715169E+03  0.19030494508E+03  0.00000000000E+00 0.  1.
         11    1    1    2    0    0 -0.94872693697E+01 -0.65858190701E+01 -0.49938665192E+03  0.49952017918E+03  0.00000000000E+00 0. -1.
        -15    1    1    2    0    0  0.19621145194E+01  0.66450851028E+01  0.29815375211E+02  0.30661398817E+02  0.17770000000E+01 0. -1.
         15    1    1    2    0    0  0.10350166994E+02 -0.25895653632E+01  0.27930412502E+03  0.27951347693E+03  0.17770000000E+01 0.  1.
</event>
<event>
 6    1  0.1599106E-003  0.3613658E+03  0.7546771E-02  0.9777988E-01
        -11   -1    0    0    0    0  0.00000000000E+00  0.00000000000E+00  0.50000000000E+03  0.50000000000E+03  0.00000000000E+00 0.  1.
         11   -1    0    0    0    0 -0.00000000000E+00 -0.00000000000E+00 -0.50000000000E+03  0.50000000000E+03  0.00000000000E+00 0. -1.
        -11    1    1    2    0    0  0.53373134305E+01 -0.29342184152E+02  0.15216035557E+03  0.15505555292E+03  0.00000000000E+00 0.  1.
         11    1    1    2    0    0 -0.33940908761E+01 -0.61664115479E+01 -0.40608790081E+03  0.40614889839E+03  0.00000000000E+00 0. -1.
        -15    1    1    2    0    0 -0.19604935389E+02  0.12444953479E+03  0.30829870573E+03  0.33305148233E+03  0.17770000000E+01 0.  1.
         15    1    1    2    0    0  0.17661712835E+02 -0.88940939087E+02 -0.54371160495E+02  0.10574406635E+03  0.17770000000E+01 0. -1.
</event>
<event>
 6    1  0.1599106E-003  0.5046710E+03  0.7546771E-02  0.9389418E-01
        -11   -1    0    0    0    0  0.00000000000E+00  0.00000000000E+00  0.50000000000E+03  0.50000000000E+03  0.00000000000E+00 0.  1.
         11   -1    0    0    0    0 -0.00000000000E+00 -0.00000000000E+00 -0.50000000000E+03  0.50000000000E+03  0.00000000000E+00 0. -1.
        -11    1    1    2    0    0  0.23079011520E+01  0.81637593645E+01  0.49525634471E+03  0.49532900213E+03  0.00000000000E+00 0.  1.
         11    1    1    2    0    0  0.47390066944E+00  0.53505816155E+01 -0.22397728493E+03  0.22404168690E+03  0.00000000000E+00 0. -1.
        -15    1    1    2    0    0  0.64018469600E-01 -0.17334780756E+02 -0.11674568082E+02  0.20975032566E+02  0.17770000000E+01 0. -1.
         15    1    1    2    0    0 -0.28458202911E+01  0.38204397761E+01 -0.25960449170E+03  0.25965427841E+03  0.17770000000E+01 0.  1.
</event>
<event>
 6    1  0.1599106E-003  0.5009792E+03  0.7546771E-02  0.9397621E-01
        -11   -1    0    0    0    0  0.00000000000E+00  0.00000000000E+00  0.50000000000E+03  0.50000000000E+03  0.00000000000E+00 0.  1.
         11   -1    0    0    0    0 -0.00000000000E+00 -0.00000000000E+00 -0.50000000000E+03  0.50000000000E+03  0.00000000000E+00 0.  1.
        -11    1    1    2    0    0  0.92371635504E+01  0.18711850582E+01  0.39974075297E+03  0.39985184270E+03  0.00000000000E+00 0.  1.
         11    1    1    2    0    0  0.58659931265E+01 -0.35268043281E+01 -0.49897383895E+03  0.49902078131E+03  0.00000000000E+00 0.  1.
        -15    1    1    2    0    0  0.65454696786E+00  0.10689370315E+01  0.37517822013E+01  0.43364336495E+01  0.17770000000E+01 0.  1.
         15    1    1    2    0    0 -0.15757703645E+02  0.58668223836E+00  0.95481303778E+02  0.96790942347E+02  0.17770000000E+01 0.  1.
</event>
<event>
 6    1  0.1599106E-003  0.4602144E+03  0.7546771E-02  0.9493516E-01
        -11   -1    0    0    0    0  0.00000000000E+00  0.00000000000E+00  0.50000000000E+03  0.50000000000E+03  0.00000000000E+00 0.  1.
         11   -1    0    0    0    0 -0.00000000000E+00 -0.00000000000E+00 -0.50000000000E+03  0.50000000000E+03  0.00000000000E+00 0.  1.
        -11    1    1    2    0    0  0.10088464969E+02  0.55091776410E+01  0.45894375292E+03  0.45908767845E+03  0.00000000000E+00 0.  1.
         11    1    1    2    0    0  0.71915827796E+01 -0.58169693938E+01 -0.46141406251E+03  0.46150676385E+03  0.00000000000E+00 0.  1.
        -15    1    1    2    0    0 -0.16965016467E+02  0.50800031788E+01 -0.36232484471E+02  0.40367918895E+02  0.17770000000E+01 0.  1.
         15    1    1    2    0    0 -0.31503128166E+00 -0.47722114260E+01  0.38702794062E+02  0.39037638810E+02  0.17770000000E+01 0. -1.
</event>
<event>
 6    1  0.1599106E-003  0.5054253E+03  0.7546771E-02  0.9387751E-01
        -11   -1    0    0    0    0  0.00000000000E+00  0.00000000000E+00  0.50000000000E+03  0.50000000000E+03  0.00000000000E+00 0. -1.
         11   -1    0    0    0    0 -0.00000000000E+00 -0.00000000000E+00 -0.50000000000E+03  0.50000000000E+03  0.00000000000E+00 0. -1.
        -11    1    1    2    0    0  0.19324486296E+02  0.14812191359E+02  0.49397503296E+03  0.49457473649E+03  0.00000000000E+00 0. -1.
         11    1    1    2    0    0 -0.44945882743E+01 -0.45653017700E+01 -0.40054530928E+03  0.40059654029E+03  0.00000000000E+00 0. -1.
        -15    1    1    2    0    0 -0.17628618443E+02 -0.14682324368E+02 -0.18048994631E+02  0.29244876017E+02  0.17770000000E+01 0.  1.
         15    1    1    2    0    0  0.27987204208E+01  0.44354347796E+01 -0.75380729047E+02  0.75583847205E+02  0.17770000000E+01 0.  1.
</event>
<event>
 6    1  0.1599106E-003  0.4921127E+03  0.7546771E-02  0.9417633E-01
        -11   -1    0    0    0    0  0.00000000000E+00  0.00000000000E+00  0.50000000000E+03  0.50000000000E+03  0.00000000000E+00 0.  1.
         11   -1    0    0    0    0 -0.00000000000E+00 -0.00000000000E+00 -0.50000000000E+03  0.50000000000E+03  0.00000000000E+00 0.  1.
        -11    1    1    2    0    0  0.22218341564E+01 -0.81365863951E+01  0.49426946516E+03  0.49434142530E+03  0.00000000000E+00 0.  1.
         11    1    1    2    0    0 -0.66800514916E+01 -0.32454069755E-01 -0.48989212354E+03  0.48993766629E+03  0.00000000000E+00 0.  1.
        -15    1    1    2    0    0  0.63460874648E+00  0.49066783796E+00  0.34569443612E+01  0.39688381807E+01  0.17770000000E+01 0. -1.
         15    1    1    2    0    0  0.38236085887E+01  0.76783726269E+01 -0.78342859792E+01  0.11752070228E+02  0.17770000000E+01 0.  1.
</event>
<event>
 6    1  0.1599106E-003  0.5038873E+03  0.7546771E-02  0.9391153E-01
        -11   -1    0    0    0    0  0.00000000000E+00  0.00000000000E+00  0.50000000000E+03  0.50000000000E+03  0.00000000000E+00 0. -1.
         11   -1    0    0    0    0 -0.00000000000E+00 -0.00000000000E+00 -0.50000000000E+03  0.50000000000E+03  0.00000000000E+00 0. -1.
        -11    1    1    2    0    0  0.19326890532E+00 -0.48567816709E+01  0.35524320309E+03  0.35527645436E+03  0.00000000000E+00 0. -1.
         11    1    1    2    0    0 -0.35587960701E+01  0.88443176037E+01 -0.49602110019E+03  0.49611270778E+03  0.00000000000E+00 0. -1.
        -15    1    1    2    0    0  0.37070837329E+01 -0.14707371475E+02  0.12124662170E+02  0.19499087344E+02  0.17770000000E+01 0. -1.
         15    1    1    2    0    0 -0.34155656805E+00  0.10719835543E+02  0.12865323493E+03  0.12911175052E+03  0.17770000000E+01 0.  1.
</event>
<event>
 6    1  0.1599106E-003  0.5240233E+03  0.7546771E-02  0.9347604E-01
        -11   -1    0    0    0    0  0.00000000000E+00  0.00000000000E+00  0.50000000000E+03  0.50000000000E+03  0.00000000000E+00 0. -1.
         11   -1    0    0    0    0 -0.00000000000E+00 -0.00000000000E+00 -0.50000000000E+03  0.50000000000E+03  0.00000000000E+00 0. -1.
        -11    1    1    2    0    0 -0.28570405734E+02 -0.39192050657E+01  0.47510226864E+03  0.47597667371E+03  0.00000000000E+00 0. -1.
         11    1    1    2    0    0 -0.17343560708E+02 -0.68071126088E+01 -0.34177250514E+03  0.34227997480E+03  0.00000000000E+00 0. -1.
        -15    1    1    2    0    0  0.50869022036E+02  0.41346567581E+02 -0.13556572712E+03  0.15059355947E+03  0.17770000000E+01 0.  1.
         15    1    1    2    0    0 -0.49550555942E+01 -0.30620249906E+02  0.22359636261E+01  0.31149792015E+02  0.17770000000E+01 0. -1.
</event>
<event>
 6    1  0.1599106E-003  0.5016499E+03  0.7546771E-02  0.9396126E-01
        -11   -1    0    0    0    0  0.00000000000E+00  0.00000000000E+00  0.50000000000E+03  0.50000000000E+03  0.00000000000E+00 0. -1.
         11   -1    0    0    0    0 -0.00000000000E+00 -0.00000000000E+00 -0.50000000000E+03  0.50000000000E+03  0.00000000000E+00 0.  1.
        -11    1    1    2    0    0  0.47288632536E+01 -0.49374451670E+01  0.49830323355E+03  0.49835013101E+03  0.00000000000E+00 0. -1.
         11    1    1    2    0    0  0.63319252677E+01 -0.46572290747E+01 -0.36661713383E+03  0.36670138516E+03  0.00000000000E+00 0.  1.
        -15    1    1    2    0    0  0.17525180496E+01  0.11387619109E+02 -0.99990644098E+02  0.10066794835E+03  0.17770000000E+01 0.  1.
         15    1    1    2    0    0 -0.12813306571E+02 -0.17929448671E+01 -0.31695455626E+02  0.34280535482E+02  0.17770000000E+01 0. -1.
</event>
<event>
 6    1  0.1599106E-003  0.5046244E+03  0.7546771E-02  0.9389521E-01
        -11   -1    0    0    0    0  0.00000000000E+00  0.00000000000E+00  0.50000000000E+03  0.50000000000E+03  0.00000000000E+00 0.  1.
         11   -1    0    0    0    0 -0.00000000000E+00 -0.00000000000E+00 -0.50000000000E+03  0.50000000000E+03  0.00000000000E+00 0. -1.
        -11    1    1    2    0    0 -0.53059835234E+01  0.39290782646E+01  0.47719734309E+03  0.47724301500E+03  0.00000000000E+00 0.  1.
         11    1    1    2    0    0  0.87044728139E+01 -0.52101982008E+01 -0.49527168367E+03  0.49537556930E+03  0.00000000000E+00 0. -1.
        -15    1    1    2    0    0 -0.49501881444E+01  0.30242449171E+01 -0.25270705355E+01  0.65722320771E+01  0.17770000000E+01 0.  1.
         15    1    1    2    0    0  0.15516988539E+01 -0.17431249809E+01  0.20601411118E+02  0.20809183623E+02  0.17770000000E+01 0. -1.
</event>
<event>
 6    1  0.1599106E-003  0.5018332E+03  0.7546771E-02  0.9395717E-01
        -11   -1    0    0    0    0  0.00000000000E+00  0.00000000000E+00  0.50000000000E+03  0.50000000000E+03  0.00000000000E+00 0.  1.
         11   -1    0    0    0    0 -0.00000000000E+00 -0.00000000000E+00 -0.50000000000E+03  0.50000000000E+03  0.00000000000E+00 0.  1.
        -11    1    1    2    0    0 -0.71120242620E+01  0.38184253691E+01  0.38491799095E+03  0.38500262469E+03  0.00000000000E+00 0.  1.
         11    1    1    2    0    0  0.12748149273E+00  0.13255484726E+02 -0.49799036695E+03  0.49816676896E+03  0.00000000000E+00 0.  1.
        -15    1    1    2    0    0  0.32068216192E+00 -0.57485996361E+01  0.46782411511E+01  0.76284273670E+01  0.17770000000E+01 0. -1.
         15    1    1    2    0    0  0.66638606073E+01 -0.11325310458E+02  0.10839413485E+03  0.10920217898E+03  0.17770000000E+01 0.  1.
</event>
<event>
 6    1  0.1599106E-003  0.5002216E+03  0.7546771E-02  0.9399314E-01
        -11   -1    0    0    0    0  0.00000000000E+00  0.00000000000E+00  0.50000000000E+03  0.50000000000E+03  0.00000000000E+00 0. -1.
         11   -1    0    0    0    0 -0.00000000000E+00 -0.00000000000E+00 -0.50000000000E+03  0.50000000000E+03  0.00000000000E+00 0. -1.
        -11    1    1    2    0    0  0.92224897957E+00  0.26330474349E+01  0.14443895155E+03  0.14446589289E+03  0.00000000000E+00 0. -1.
         11    1    1    2    0    0  0.81617746765E+01  0.79788724471E+01 -0.49964809801E+03  0.49977844973E+03  0.00000000000E+00 0. -1.
        -15    1    1    2    0    0 -0.52825250505E+01 -0.13492815148E+02  0.27070644221E+03  0.27109979106E+03  0.17770000000E+01 0. -1.
         15    1    1    2    0    0 -0.38014986055E+01  0.28808952664E+01  0.84502704245E+02  0.84655866323E+02  0.17770000000E+01 0.  1.
</event>
<event>
 6    1  0.1599106E-003  0.5006880E+03  0.7546771E-02  0.9398272E-01
        -11   -1    0    0    0    0  0.00000000000E+00  0.00000000000E+00  0.50000000000E+03  0.50000000000E+03  0.00000000000E+00 0. -1.
         11   -1    0    0    0    0 -0.00000000000E+00 -0.00000000000E+00 -0.50000000000E+03  0.50000000000E+03  0.00000000000E+00 0. -1.
        -11    1    1    2    0    0 -0.56726799012E+01 -0.74354746132E+01  0.32864035300E+03  0.32877339795E+03  0.00000000000E+00 0. -1.
         11    1    1    2    0    0 -0.79810356478E+01  0.44643495611E+01 -0.49922825481E+03  0.49931200441E+03  0.00000000000E+00 0. -1.
        -15    1    1    2    0    0  0.35057557328E+01  0.20927145213E+01  0.12843236193E+03  0.12850952921E+03  0.17770000000E+01 0. -1.
         15    1    1    2    0    0  0.10147959816E+02  0.87841053073E+00  0.42155539887E+02  0.43405068433E+02  0.17770000000E+01 0.  1.
</event>
<event>
 6    1  0.1599106E-003  0.5034122E+03  0.7546771E-02  0.9392207E-01
        -11   -1    0    0    0    0  0.00000000000E+00  0.00000000000E+00  0.50000000000E+03  0.50000000000E+03  0.00000000000E+00 0.  1.
         11   -1    0    0    0    0 -0.00000000000E+00 -0.00000000000E+00 -0.50000000000E+03  0.50000000000E+03  0.00000000000E+00 0. -1.
        -11    1    1    2    0    0  0.17188884451E+02 -0.75649510044E+01  0.49623260432E+03  0.49658784099E+03  0.00000000000E+00 0.  1.
         11    1    1    2    0    0  0.93118196145E+01  0.10411687441E+02 -0.36393401548E+03  0.36420197808E+03  0.00000000000E+00 0. -1.
        -15    1    1    2    0    0 -0.58041528789E+01 -0.31561151388E+01 -0.10336203391E+03  0.10358820896E+03  0.17770000000E+01 0. -1.
         15    1    1    2    0    0 -0.20696551187E+02  0.30937870229E+00 -0.28936554930E+02  0.35621971962E+02  0.17770000000E+01 0.  1.
</event>
<event>
 6    1  0.1599106E-003  0.5006859E+03  0.7546771E-02  0.9398276E-01
        -11   -1    0    0    0    0  0.00000000000E+00  0.00000000000E+00  0.50000000000E+03  0.50000000000E+03  0.00000000000E+00 0. -1.
         11   -1    0    0    0    0 -0.00000000000E+00 -0.00000000000E+00 -0.50000000000E+03  0.50000000000E+03  0.00000000000E+00 0. -1.
        -11    1    1    2    0    0 -0.50643751092E+00  0.11531542460E+02  0.23476521789E+03  0.23504880447E+03  0.00000000000E+00 0. -1.
         11    1    1    2    0    0 -0.84813764024E+01  0.89442227577E+00 -0.49924128124E+03  0.49931412020E+03  0.00000000000E+00 0. -1.
        -15    1    1    2    0    0 -0.51584188495E+01 -0.85632383582E+00  0.97097788639E+02  0.97254721547E+02  0.17770000000E+01 0.  1.
         15    1    1    2    0    0  0.14146232763E+02 -0.11569640900E+02  0.16737827471E+03  0.16838235379E+03  0.17770000000E+01 0. -1.
</event>
<event>
 6    1  0.1599106E-003  0.4573648E+03  0.7546771E-02  0.9500613E-01
        -11   -1    0    0    0    0  0.00000000000E+00  0.00000000000E+00  0.50000000000E+03  0.50000000000E+03  0.00000000000E+00 0.  1.
         11   -1    0    0    0    0 -0.00000000000E+00 -0.00000000000E+00 -0.50000000000E+03  0.50000000000E+03  0.00000000000E+00 0. -1.
        -11    1    1    2    0    0  0.25105419024E+02 -0.38038174004E+02  0.44935672519E+03  0.45166209850E+03  0.00000000000E+00 0.  1.
         11    1    1    2    0    0  0.12411957579E+02 -0.21075337515E+02 -0.46523799875E+03  0.46588048041E+03  0.00000000000E+00 0. -1.
        -15    1    1    2    0    0  0.15717388345E+01 -0.47228617805E+01  0.40396837713E+01  0.66522597914E+01  0.17770000000E+01 0.  1.
         15    1    1    2    0    0 -0.39089115437E+02  0.63836373300E+02  0.11841589787E+02  0.75805161298E+02  0.17770000000E+01 0. -1.
</event>
<event>
 6    1  0.1599106E-003  0.4781964E+03  0.7546771E-02  0.9449963E-01
        -11   -1    0    0    0    0  0.00000000000E+00  0.00000000000E+00  0.50000000000E+03  0.50000000000E+03  0.00000000000E+00 0.  1.
         11   -1    0    0    0    0 -0.00000000000E+00 -0.00000000000E+00 -0.50000000000E+03  0.50000000000E+03  0.00000000000E+00 0. -1.
        -11    1    1    2    0    0 -0.36229364352E+00 -0.71534543210E+01  0.47257659116E+03  0.47263086831E+03  0.00000000000E+00 0.  1.
         11    1    1    2    0    0 -0.11182551745E+02 -0.16417872450E+02 -0.48378005323E+03  0.48418770730E+03  0.00000000000E+00 0. -1.
        -15    1    1    2    0    0  0.64001914019E+01  0.19535057303E+02 -0.85223543777E+01  0.22324183455E+02  0.17770000000E+01 0. -1.
         15    1    1    2    0    0  0.51446539863E+01  0.40362694686E+01  0.19725816447E+02  0.20857240934E+02  0.17770000000E+01 0.  1.
</event>
<event>
 6    1  0.1599106E-003  0.4679853E+03  0.7546771E-02  0.9474440E-01
        -11   -1    0    0    0    0  0.00000000000E+00  0.00000000000E+00  0.50000000000E+03  0.50000000000E+03  0.00000000000E+00 0.  1.
         11   -1    0    0    0    0 -0.00000000000E+00 -0.00000000000E+00 -0.50000000000E+03  0.50000000000E+03  0.00000000000E+00 0. -1.
        -11    1    1    2    0    0 -0.16910654598E+02  0.12399767596E+01  0.46814882090E+03  0.46845578904E+03  0.00000000000E+00 0.  1.
         11    1    1    2    0    0 -0.13842623158E+02 -0.18201963879E+02 -0.46761491714E+03  0.46817372890E+03  0.00000000000E+00 0. -1.
        -15    1    1    2    0    0  0.20064923177E+02  0.11998956578E+02 -0.26147436767E+02  0.35120112180E+02  0.17770000000E+01 0.  1.
         15    1    1    2    0    0  0.10688354579E+02  0.49630305415E+01  0.25613533010E+02  0.28250369874E+02  0.17770000000E+01 0. -1.
</event>
<event>
 6    1  0.1599106E-003  0.4414440E+03  0.7546771E-02  0.9541298E-01
        -11   -1    0    0    0    0  0.00000000000E+00  0.00000000000E+00  0.50000000000E+03  0.50000000000E+03  0.00000000000E+00 0.  1.
         11   -1    0    0    0    0 -0.00000000000E+00 -0.00000000000E+00 -0.50000000000E+03  0.50000000000E+03  0.00000000000E+00 0. -1.
        -11    1    1    2    0    0 -0.76256944293E+01 -0.86579763758E+00  0.44671791345E+03  0.44678383478E+03  0.00000000000E+00 0.  1.
         11    1    1    2    0    0 -0.20337248780E+01  0.25681152350E+02 -0.43581233839E+03  0.43657307740E+03  0.00000000000E+00 0. -1.
        -15    1    1    2    0    0  0.20645226252E+02 -0.12117988702E+02 -0.60054828350E+02  0.64674656198E+02  0.17770000000E+01 0. -1.
         15    1    1    2    0    0 -0.10985806944E+02 -0.12697366010E+02  0.49149253287E+02  0.51968431624E+02  0.17770000000E+01 0.  1.
</event>
<event>
 6    1  0.1599106E-003  0.5072665E+03  0.7546771E-02  0.9383696E-01
        -11   -1    0    0    0    0  0.00000000000E+00  0.00000000000E+00  0.50000000000E+03  0.50000000000E+03  0.00000000000E+00 0.  1.
         11   -1    0    0    0    0 -0.00000000000E+00 -0.00000000000E+00 -0.50000000000E+03  0.50000000000E+03  0.00000000000E+00 0. -1.
        -11    1    1    2    0    0 -0.55143160698E+01 -0.42795086440E+01  0.49268407528E+03  0.49273351815E+03  0.00000000000E+00 0.  1.
         11    1    1    2    0    0  0.10473103605E+02 -0.29154517343E+01 -0.48216244021E+03  0.48228498266E+03  0.00000000000E+00 0. -1.
        -15    1    1    2    0    0 -0.55592460956E+01  0.50704337428E+01  0.49974249836E+01  0.92057862760E+01  0.17770000000E+01 0.  1.
         15    1    1    2    0    0  0.60045856064E+00  0.21245266355E+01 -0.15519060055E+02  0.15775712912E+02  0.17770000000E+01 0. -1.
</event>
<event>
 6    1  0.1599106E-003  0.5032312E+03  0.7546771E-02  0.9392609E-01
        -11   -1    0    0    0    0  0.00000000000E+00  0.00000000000E+00  0.50000000000E+03  0.50000000000E+03  0.00000000000E+00 0.  1.
         11   -1    0    0    0    0 -0.00000000000E+00 -0.00000000000E+00 -0.50000000000E+03  0.50000000000E+03  0.00000000000E+00 0. -1.
        -11    1    1    2    0    0  0.76069165821E+01  0.93948547339E+01  0.48411004631E+03  0.48426094765E+03  0.00000000000E+00 0.  1.
         11    1    1    2    0    0  0.81766430520E+00 -0.77997761379E+01 -0.49670689113E+03  0.49676880013E+03  0.00000000000E+00 0. -1.
        -15    1    1    2    0    0 -0.17803514102E+01 -0.54120362953E+01  0.75522804797E+01  0.96257185420E+01  0.17770000000E+01 0.  1.
         15    1    1    2    0    0 -0.66442294770E+01  0.38169576994E+01  0.50445643402E+01  0.93445336858E+01  0.17770000000E+01 0. -1.
</event>
<event>
 6    1  0.1599106E-003  0.5053663E+03  0.7546771E-02  0.9387882E-01
        -11   -1    0    0    0    0  0.00000000000E+00  0.00000000000E+00  0.50000000000E+03  0.50000000000E+03  0.00000000000E+00 0. -1.
         11   -1    0    0    0    0 -0.00000000000E+00 -0.00000000000E+00 -0.50000000000E+03  0.50000000000E+03  0.00000000000E+00 0.  1.
        -11    1    1    2    0    0 -0.14806445191E+02  0.22417608138E+02  0.49390359087E+03  0.49463374031E+03  0.00000000000E+00 0. -1.
         11    1    1    2    0    0  0.63050681103E+00  0.39662561302E+01 -0.18480049965E+03  0.18484413271E+03  0.00000000000E+00 0.  1.
        -15    1    1    2    0    0  0.18704390337E+02 -0.20395960046E+02 -0.28331042533E+02  0.39644105540E+02  0.17770000000E+01 0.  1.
         15    1    1    2    0    0 -0.45284519566E+01 -0.59879042220E+01 -0.28077204869E+03  0.28087802144E+03  0.17770000000E+01 0.  1.
</event>
<event>
 6    1  0.1599106E-003  0.5012409E+03  0.7546771E-02  0.9397037E-01
        -11   -1    0    0    0    0  0.00000000000E+00  0.00000000000E+00  0.50000000000E+03  0.50000000000E+03  0.00000000000E+00 0. -1.
         11   -1    0    0    0    0 -0.00000000000E+00 -0.00000000000E+00 -0.50000000000E+03  0.50000000000E+03  0.00000000000E+00 0. -1.
        -11    1    1    2    0    0 -0.43431048201E+00 -0.77355266613E+01  0.49869890857E+03  0.49875908855E+03  0.00000000000E+00 0. -1.
         11    1    1    2    0    0  0.65236924743E+01  0.10320363729E+01 -0.37384860239E+03  0.37390694187E+03  0.00000000000E+00 0. -1.
        -15    1    1    2    0    0 -0.31975672208E+01 -0.35245835050E+01 -0.10138721783E+03  0.10151439697E+03  0.17770000000E+01 0. -1.
         15    1    1    2    0    0 -0.28918147714E+01  0.10228073793E+02 -0.23463088346E+02  0.25819572614E+02  0.17770000000E+01 0.  1.
</event>
<event>
 6    1  0.1599106E-003  0.4852611E+03  0.7546771E-02  0.9433407E-01
        -11   -1    0    0    0    0  0.00000000000E+00  0.00000000000E+00  0.50000000000E+03  0.50000000000E+03  0.00000000000E+00 0.  1.
         11   -1    0    0    0    0 -0.00000000000E+00 -0.00000000000E+00 -0.50000000000E+03  0.50000000000E+03  0.00000000000E+00 0. -1.
        -11    1    1    2    0    0 -0.39610804241E+01  0.88822131402E+01  0.48669302881E+03  0.48679018906E+03  0.00000000000E+00 0.  1.
         11    1    1    2    0    0 -0.19261094542E+01 -0.98098452469E+01 -0.48365167517E+03  0.48375498536E+03  0.00000000000E+00 0. -1.
        -15    1    1    2    0    0  0.63955938514E+01 -0.12812209046E+02 -0.53710810386E+01  0.15396836100E+02  0.17770000000E+01 0. -1.
         15    1    1    2    0    0 -0.50840397305E+00  0.13739841153E+02  0.23297273999E+01  0.14057989482E+02  0.17770000000E+01 0.  1.
</event>
<event>
 6    1  0.1599106E-003  0.5018457E+03  0.7546771E-02  0.9395689E-01
        -11   -1    0    0    0    0  0.00000000000E+00  0.00000000000E+00  0.50000000000E+03  0.50000000000E+03  0.00000000000E+00 0.  1.
         11   -1    0    0    0    0 -0.00000000000E+00 -0.00000000000E+00 -0.50000000000E+03  0.50000000000E+03  0.00000000000E+00 0. -1.
        -11    1    1    2    0    0  0.70976573698E+01 -0.24982545589E+01  0.33584787625E+03  0.33593215684E+03  0.00000000000E+00 0.  1.
         11    1    1    2    0    0  0.79105666243E+01 -0.28288039161E+01 -0.49808347149E+03  0.49815431722E+03  0.00000000000E+00 0. -1.
        -15    1    1    2    0    0 -0.19174217965E+02 -0.78590047352E+01  0.97055220742E+02  0.99258693284E+02  0.17770000000E+01 0. -1.
         15    1    1    2    0    0  0.41659939713E+01  0.13186063210E+02  0.65180374490E+02  0.66654832656E+02  0.17770000000E+01 0.  1.
</event>
<event>
 6    1  0.1599106E-003  0.5010989E+03  0.7546771E-02  0.9397354E-01
        -11   -1    0    0    0    0  0.00000000000E+00  0.00000000000E+00  0.50000000000E+03  0.50000000000E+03  0.00000000000E+00 0.  1.
         11   -1    0    0    0    0 -0.00000000000E+00 -0.00000000000E+00 -0.50000000000E+03  0.50000000000E+03  0.00000000000E+00 0. -1.
        -11    1    1    2    0    0 -0.18833110229E+01  0.98977816074E+01  0.49879930462E+03  0.49890105154E+03  0.00000000000E+00 0.  1.
         11    1    1    2    0    0 -0.22236078114E+01  0.50972636201E+01 -0.27132378257E+03  0.27138076851E+03  0.00000000000E+00 0. -1.
        -15    1    1    2    0    0  0.10924686619E+02 -0.25679175474E+01 -0.36941700721E+02  0.38649579033E+02  0.17770000000E+01 0.  1.
         15    1    1    2    0    0 -0.68177677848E+01 -0.12427127680E+02 -0.19053382133E+03  0.19106860092E+03  0.17770000000E+01 0. -1.
</event>
<event>
 6    1  0.1599106E-003  0.5024934E+03  0.7546771E-02  0.9394248E-01
        -11   -1    0    0    0    0  0.00000000000E+00  0.00000000000E+00  0.50000000000E+03  0.50000000000E+03  0.00000000000E+00 0.  1.
         11   -1    0    0    0    0 -0.00000000000E+00 -0.00000000000E+00 -0.50000000000E+03  0.50000000000E+03  0.00000000000E+00 0. -1.
        -11    1    1    2    0    0 -0.14280251015E+01  0.69009381446E+01  0.36853302648E+03  0.36860039854E+03  0.00000000000E+00 0.  1.
         11    1    1    2    0    0 -0.21851611520E+02 -0.70650178131E+00 -0.49702602178E+03  0.49750664156E+03  0.00000000000E+00 0. -1.
        -15    1    1    2    0    0  0.24361335779E+02 -0.27189453899E+01  0.54454713425E+02  0.59743961102E+02  0.17770000000E+01 0. -1.
         15    1    1    2    0    0 -0.10816991570E+01 -0.34754909733E+01  0.74038281875E+02  0.74148998797E+02  0.17770000000E+01 0.  1.
</event>
<event>
 6    1  0.1599106E-003  0.5304236E+03  0.7546771E-02  0.9334195E-01
        -11   -1    0    0    0    0  0.00000000000E+00  0.00000000000E+00  0.50000000000E+03  0.50000000000E+03  0.00000000000E+00 0. -1.
         11   -1    0    0    0    0 -0.00000000000E+00 -0.00000000000E+00 -0.50000000000E+03  0.50000000000E+03  0.00000000000E+00 0.  1.
        -11    1    1    2    0    0 -0.40993319164E+02  0.10252267105E+02  0.46767126333E+03  0.46957637477E+03  0.00000000000E+00 0. -1.
         11    1    1    2    0    0  0.22451067567E+02 -0.97544330926E+01 -0.33704427399E+03  0.33793200800E+03  0.00000000000E+00 0.  1.
        -15    1    1    2    0    0  0.62674795076E+02 -0.40571456623E+02 -0.42042647550E+02  0.85702479383E+02  0.17770000000E+01 0. -1.
         15    1    1    2    0    0 -0.44132543479E+02  0.40073622611E+02 -0.88584341793E+02  0.10678913785E+03  0.17770000000E+01 0.  1.
</event>
<event>
 6    1  0.1599106E-003  0.4815635E+03  0.7546771E-02  0.9442035E-01
        -11   -1    0    0    0    0  0.00000000000E+00  0.00000000000E+00  0.50000000000E+03  0.50000000000E+03  0.00000000000E+00 0.  1.
         11   -1    0    0    0    0 -0.00000000000E+00 -0.00000000000E+00 -0.50000000000E+03  0.50000000000E+03  0.00000000000E+00 0. -1.
        -11    1    1    2    0    0 -0.50317105522E+01  0.16355341195E+02  0.48177658996E+03  0.48208038534E+03  0.00000000000E+00 0.  1.
         11    1    1    2    0    0 -0.18827076886E+02  0.59641714204E+01 -0.48119562895E+03  0.48160073036E+03  0.00000000000E+00 0. -1.
        -15    1    1    2    0    0  0.11758588584E+02 -0.20528736432E+02  0.15545761506E+01  0.23775362479E+02  0.17770000000E+01 0. -1.
         15    1    1    2    0    0  0.12100198854E+02 -0.17907761834E+01 -0.21355371654E+01  0.12543521819E+02  0.17770000000E+01 0.  1.
</event>
<event>
 6    1  0.1599106E-003  0.5122696E+03  0.7546771E-02  0.9372766E-01
        -11   -1    0    0    0    0  0.00000000000E+00  0.00000000000E+00  0.50000000000E+03  0.50000000000E+03  0.00000000000E+00 0. -1.
         11   -1    0    0    0    0 -0.00000000000E+00 -0.00000000000E+00 -0.50000000000E+03  0.50000000000E+03  0.00000000000E+00 0.  1.
        -11    1    1    2    0    0  0.24119092678E+02 -0.36426750836E+02  0.48576978313E+03  0.48773037737E+03  0.00000000000E+00 0. -1.
         11    1    1    2    0    0  0.23685055075E+01  0.14331369730E+02 -0.45883274820E+03  0.45906261969E+03  0.00000000000E+00 0.  1.
        -15    1    1    2    0    0 -0.22860531177E+02  0.18191487708E+02 -0.33554844741E+02  0.44526615022E+02  0.17770000000E+01 0. -1.
         15    1    1    2    0    0 -0.36270670091E+01  0.39038933984E+01  0.66178098137E+01  0.86803879225E+01  0.17770000000E+01 0.  1.
</event>
<event>
 6    1  0.1599106E-003  0.5113027E+03  0.7546771E-02  0.9374868E-01
        -11   -1    0    0    0    0  0.00000000000E+00  0.00000000000E+00  0.50000000000E+03  0.50000000000E+03  0.00000000000E+00 0.  1.
         11   -1    0    0    0    0 -0.00000000000E+00 -0.00000000000E+00 -0.50000000000E+03  0.50000000000E+03  0.00000000000E+00 0. -1.
        -11    1    1    2    0    0 -0.59661328574E+01  0.50025726075E+01  0.48863527112E+03  0.48869729758E+03  0.00000000000E+00 0.  1.
         11    1    1    2    0    0  0.11428711866E+02 -0.31492323283E+01 -0.41618088702E+03  0.41634968937E+03  0.00000000000E+00 0. -1.
        -15    1    1    2    0    0  0.10720026963E+02  0.38820766489E+01 -0.76384055049E+02  0.77250702858E+02  0.17770000000E+01 0. -1.
         15    1    1    2    0    0 -0.16182605972E+02 -0.57354169282E+01  0.39296709510E+01  0.17702310193E+02  0.17770000000E+01 0.  1.
</event>
<event>
 6    1  0.1599106E-003  0.5008111E+03  0.7546771E-02  0.9397997E-01
        -11   -1    0    0    0    0  0.00000000000E+00  0.00000000000E+00  0.50000000000E+03  0.50000000000E+03  0.00000000000E+00 0.  1.
         11   -1    0    0    0    0 -0.00000000000E+00 -0.00000000000E+00 -0.50000000000E+03  0.50000000000E+03  0.00000000000E+00 0. -1.
        -11    1    1    2    0    0  0.19857417787E+01 -0.90154107078E+01  0.40343621854E+03  0.40354182339E+03  0.00000000000E+00 0.  1.
         11    1    1    2    0    0 -0.38365360827E+01  0.68756910217E+01 -0.49912681863E+03  0.49918891735E+03  0.00000000000E+00 0. -1.
        -15    1    1    2    0    0 -0.61170649907E+01 -0.37258594186E+01  0.42905661317E+02  0.43535663708E+02  0.17770000000E+01 0.  1.
         15    1    1    2    0    0  0.79678592947E+01  0.58655791047E+01  0.52784938774E+02  0.53733595547E+02  0.17770000000E+01 0. -1.
</event>
<event>
 6    1  0.1599106E-003  0.5061034E+03  0.7546771E-02  0.9386256E-01
        -11   -1    0    0    0    0  0.00000000000E+00  0.00000000000E+00  0.50000000000E+03  0.50000000000E+03  0.00000000000E+00 0.  1.
         11   -1    0    0    0    0 -0.00000000000E+00 -0.00000000000E+00 -0.50000000000E+03  0.50000000000E+03  0.00000000000E+00 0.  1.
        -11    1    1    2    0    0  0.62074387746E+01 -0.40774745938E+01  0.46102376224E+03  0.46108357967E+03  0.00000000000E+00 0.  1.
         11    1    1    2    0    0 -0.77116133881E+00 -0.12434097799E+02 -0.49373947041E+03  0.49389661481E+03  0.00000000000E+00 0.  1.
        -15    1    1    2    0    0 -0.36564291813E+01  0.14544798129E+02  0.33349766834E+01  0.15466105697E+02  0.17770000000E+01 0.  1.
         15    1    1    2    0    0 -0.17798482544E+01  0.19667742642E+01  0.29380731496E+02  0.29553699820E+02  0.17770000000E+01 0.  1.
</event>
<event>
 6    1  0.1599106E-003  0.5001874E+03  0.7546771E-02  0.9399390E-01
        -11   -1    0    0    0    0  0.00000000000E+00  0.00000000000E+00  0.50000000000E+03  0.50000000000E+03  0.00000000000E+00 0.  1.
         11   -1    0    0    0    0 -0.00000000000E+00 -0.00000000000E+00 -0.50000000000E+03  0.50000000000E+03  0.00000000000E+00 0. -1.
        -11    1    1    2    0    0  0.63987083324E+01  0.59296050307E+01  0.49973644870E+03  0.49981258672E+03  0.00000000000E+00 0.  1.
         11    1    1    2    0    0  0.20685939233E+01 -0.55052797409E+01 -0.25333799355E+03  0.25340624729E+03  0.00000000000E+00 0. -1.
        -15    1    1    2    0    0 -0.45773147483E+01  0.48598677515E+01 -0.13259832891E+03  0.13277817849E+03  0.17770000000E+01 0.  1.
         15    1    1    2    0    0 -0.38899875073E+01 -0.52841930412E+01 -0.11380012623E+03  0.11400298750E+03  0.17770000000E+01 0. -1.
</event>
<event>
 6    1  0.1599106E-003  0.5021771E+03  0.7546771E-02  0.9394952E-01
        -11   -1    0    0    0    0  0.00000000000E+00  0.00000000000E+00  0.50000000000E+03  0.50000000000E+03  0.00000000000E+00 0. -1.
         11   -1    0    0    0    0 -0.00000000000E+00 -0.00000000000E+00 -0.50000000000E+03  0.50000000000E+03  0.00000000000E+00 0.  1.
        -11    1    1    2    0    0  0.82934907543E+00 -0.65518582299E+01  0.41118430324E+03  0.41123733524E+03  0.00000000000E+00 0. -1.
         11    1    1    2    0    0 -0.42479045946E+01  0.96941632392E+01 -0.49771042465E+03  0.49782294875E+03  0.00000000000E+00 0.  1.
        -15    1    1    2    0    0  0.28751956507E+01 -0.15308578317E+02  0.49035673073E+02  0.51480814707E+02  0.17770000000E+01 0.  1.
         15    1    1    2    0    0  0.54335986855E+00  0.12166273308E+02  0.37490448342E+02  0.39458901303E+02  0.17770000000E+01 0.  1.
</event>
<event>
 6    1  0.1599106E-003  0.5148295E+03  0.7546771E-02  0.9367226E-01
        -11   -1    0    0    0    0  0.00000000000E+00  0.00000000000E+00  0.50000000000E+03  0.50000000000E+03  0.00000000000E+00 0. -1.
         11   -1    0    0    0    0 -0.00000000000E+00 -0.00000000000E+00 -0.50000000000E+03  0.50000000000E+03  0.00000000000E+00 0.  1.
        -11    1    1    2    0    0 -0.57983726624E+01  0.13779696970E+02  0.48494008142E+03  0.48517046875E+03  0.00000000000E+00 0. -1.
         11    1    1    2    0    0  0.13404172574E+02  0.24362120377E+02 -0.41786005886E+03  0.41878420880E+03  0.00000000000E+00 0.  1.
        -15    1    1    2    0    0 -0.16322419790E+02 -0.41049881372E+02 -0.72729543050E+02  0.85113208786E+02  0.17770000000E+01 0.  1.
         15    1    1    2    0    0  0.87166198785E+01  0.29080640251E+01  0.56495204862E+01  0.10932113666E+02  0.17770000000E+01 0. -1.
</event>
<event>
 6    1  0.1599106E-003  0.5048618E+03  0.7546771E-02  0.9388996E-01
        -11   -1    0    0    0    0  0.00000000000E+00  0.00000000000E+00  0.50000000000E+03  0.50000000000E+03  0.00000000000E+00 0. -1.
         11   -1    0    0    0    0 -0.00000000000E+00 -0.00000000000E+00 -0.50000000000E+03  0.50000000000E+03  0.00000000000E+00 0. -1.
        -11    1    1    2    0    0  0.16078817875E+02  0.47124423766E+01  0.47443700325E+03  0.47473277278E+03  0.00000000000E+00 0. -1.
         11    1    1    2    0    0 -0.51799744521E+01  0.46880400750E+01 -0.49508888404E+03  0.49513817562E+03  0.00000000000E+00 0. -1.
        -15    1    1    2    0    0 -0.11490853481E+02 -0.60424481600E+01  0.22363852484E+02  0.25920079483E+02  0.17770000000E+01 0.  1.
         15    1    1    2    0    0  0.59201005807E+00 -0.33580342917E+01 -0.17119716936E+01  0.42089721183E+01  0.17770000000E+01 0. -1.
</event>
<event>
 6    1  0.1599106E-003  0.5257938E+03  0.7546771E-02  0.9343875E-01
        -11   -1    0    0    0    0  0.00000000000E+00  0.00000000000E+00  0.50000000000E+03  0.50000000000E+03  0.00000000000E+00 0. -1.
         11   -1    0    0    0    0 -0.00000000000E+00 -0.00000000000E+00 -0.50000000000E+03  0.50000000000E+03  0.00000000000E+00 0.  1.
        -11    1    1    2    0    0  0.13284845457E+02 -0.92619670260E+01  0.47392962830E+03  0.47420624598E+03  0.00000000000E+00 0. -1.
         11    1    1    2    0    0  0.78900204204E+01 -0.10556350659E+02 -0.35631573087E+03  0.35655937658E+03  0.00000000000E+00 0.  1.
        -15    1    1    2    0    0 -0.33527955098E+02 -0.17603571473E+02  0.69777786042E+01  0.38546810826E+02  0.17770000000E+01 0. -1.
         15    1    1    2    0    0  0.12353089221E+02  0.37421889158E+02 -0.12459167603E+03  0.13068756661E+03  0.17770000000E+01 0.  1.
</event>
<event>
 6    1  0.1599106E-003  0.5006383E+03  0.7546771E-02  0.9398383E-01
        -11   -1    0    0    0    0  0.00000000000E+00  0.00000000000E+00  0.50000000000E+03  0.50000000000E+03  0.00000000000E+00 0. -1.
         11   -1    0    0    0    0 -0.00000000000E+00 -0.00000000000E+00 -0.50000000000E+03  0.50000000000E+03  0.00000000000E+00 0.  1.
        -11    1    1    2    0    0  0.35064440563E+01 -0.33780538506E+01  0.31044528395E+03  0.31048346289E+03  0.00000000000E+00 0. -1.
         11    1    1    2    0    0 -0.21778711263E+01  0.70801014653E+01 -0.49930677543E+03  0.49936171955E+03  0.00000000000E+00 0.  1.
        -15    1    1    2    0    0 -0.41796160336E+01  0.74183593235E+00  0.17689825416E+03  0.17695810116E+03  0.17770000000E+01 0. -1.
         15    1    1    2    0    0  0.28510431037E+01 -0.44438835471E+01  0.11963237316E+02  0.13196716403E+02  0.17770000000E+01 0.  1.
</event>
<event>
 6    1  0.1599106E-003  0.4823228E+03  0.7546771E-02  0.9440256E-01
        -11   -1    0    0    0    0  0.00000000000E+00  0.00000000000E+00  0.50000000000E+03  0.50000000000E+03  0.00000000000E+00 0. -1.
         11   -1    0    0    0    0 -0.00000000000E+00 -0.00000000000E+00 -0.50000000000E+03  0.50000000000E+03  0.00000000000E+00 0. -1.
        -11    1    1    2    0    0 -0.14036675478E+02 -0.14041687681E+01  0.48211829839E+03  0.48232463507E+03  0.00000000000E+00 0. -1.
         11    1    1    2    0    0 -0.45655630620E+01 -0.63592000804E+01 -0.48246809293E+03  0.48253159947E+03  0.00000000000E+00 0. -1.
        -15    1    1    2    0    0 -0.40443959043E+01  0.68783169734E+01 -0.74992205317E+01  0.11093440413E+02  0.17770000000E+01 0. -1.
         15    1    1    2    0    0  0.22646634444E+02  0.88505187509E+00  0.78490150718E+01  0.24050325051E+02  0.17770000000E+01 0.  1.
</event>
<event>
 6    1  0.1599106E-003  0.5116741E+03  0.7546771E-02  0.9374060E-01
        -11   -1    0    0    0    0  0.00000000000E+00  0.00000000000E+00  0.50000000000E+03  0.50000000000E+03  0.00000000000E+00 0.  1.
         11   -1    0    0    0    0 -0.00000000000E+00 -0.00000000000E+00 -0.50000000000E+03  0.50000000000E+03  0.00000000000E+00 0. -1.
        -11    1    1    2    0    0 -0.18274192260E+01 -0.85940210054E+01  0.41073185036E+03  0.41082581413E+03  0.00000000000E+00 0.  1.
         11    1    1    2    0    0  0.34887084369E+01  0.58033684268E+01 -0.48827898209E+03  0.48832593063E+03  0.00000000000E+00 0. -1.
        -15    1    1    2    0    0  0.16490132110E+00  0.35921331990E+01  0.88998822183E+02  0.89089161475E+02  0.17770000000E+01 0.  1.
         15    1    1    2    0    0 -0.18261905320E+01 -0.80148062029E+00 -0.11451690449E+02  0.11759093766E+02  0.17770000000E+01 0. -1.
</event>
<event>
 6    1  0.1599106E-003  0.5666169E+03  0.7546771E-02  0.9261966E-01
        -11   -1    0    0    0    0  0.00000000000E+00  0.00000000000E+00  0.50000000000E+03  0.50000000000E+03  0.00000000000E+00 0. -1.
         11   -1    0    0    0    0 -0.00000000000E+00 -0.00000000000E+00 -0.50000000000E+03  0.50000000000E+03  0.00000000000E+00 0.  1.
        -11    1    1    2    0    0 -0.93048342557E+01 -0.65119520901E+01  0.43323424044E+03  0.43338307829E+03  0.00000000000E+00 0. -1.
         11    1    1    2    0    0  0.26143992812E+02  0.18265406729E+02 -0.31142106422E+03  0.31304985655E+03  0.00000000000E+00 0.  1.
        -15    1    1    2    0    0  0.18465198979E+02  0.66745150430E+01  0.62218530348E+02  0.65267265700E+02  0.17770000000E+01 0.  1.
         15    1    1    2    0    0 -0.35304357535E+02 -0.18427969682E+02 -0.18403170657E+03  0.18829979946E+03  0.17770000000E+01 0. -1.
</event>
<event>
 6    1  0.1599106E-003  0.5047962E+03  0.7546771E-02  0.9389141E-01
        -11   -1    0    0    0    0  0.00000000000E+00  0.00000000000E+00  0.50000000000E+03  0.50000000000E+03  0.00000000000E+00 0. -1.
         11   -1    0    0    0    0 -0.00000000000E+00 -0.00000000000E+00 -0.50000000000E+03  0.50000000000E+03  0.00000000000E+00 0. -1.
        -11    1    1    2    0    0 -0.16414447286E+01  0.31761075997E+00  0.99616295849E+02  0.99630324782E+02  0.00000000000E+00 0. -1.
         11    1    1    2    0    0  0.17266612091E+02  0.37841207635E+02 -0.49345381085E+03  0.49520375234E+03  0.00000000000E+00 0. -1.
        -15    1    1    2    0    0  0.52038033674E+01 -0.10082355609E+02  0.34439595671E+03  0.34458738542E+03  0.17770000000E+01 0. -1.
         15    1    1    2    0    0 -0.20828970730E+02 -0.28076462786E+02  0.49441558295E+02  0.60578537452E+02  0.17770000000E+01 0.  1.
</event>
<event>
 6    1  0.1599106E-003  0.5105585E+03  0.7546771E-02  0.9376489E-01
        -11   -1    0    0    0    0  0.00000000000E+00  0.00000000000E+00  0.50000000000E+03  0.50000000000E+03  0.00000000000E+00 0.  1.
         11   -1    0    0    0    0 -0.00000000000E+00 -0.00000000000E+00 -0.50000000000E+03  0.50000000000E+03  0.00000000000E+00 0.  1.
        -11    1    1    2    0    0  0.20517649006E+01  0.68985082914E+01  0.45926619812E+03  0.45932258805E+03  0.00000000000E+00 0.  1.
         11    1    1    2    0    0 -0.16698629894E+00  0.12750367431E+02 -0.48927540269E+03  0.48944153832E+03  0.00000000000E+00 0.  1.
        -15    1    1    2    0    0 -0.72565945956E+01 -0.19786486519E+02  0.36769983194E+02  0.42418776585E+02  0.17770000000E+01 0.  1.
         15    1    1    2    0    0  0.53718159940E+01  0.13761079583E+00 -0.67607786247E+01  0.88170970515E+01  0.17770000000E+01 0. -1.
</event>
<event>
 6    1  0.1599106E-003  0.5042746E+03  0.7546771E-02  0.9390295E-01
        -11   -1    0    0    0    0  0.00000000000E+00  0.00000000000E+00  0.50000000000E+03  0.50000000000E+03  0.00000000000E+00 0. -1.
         11   -1    0    0    0    0 -0.00000000000E+00 -0.00000000000E+00 -0.50000000000E+03  0.50000000000E+03  0.00000000000E+00 0.  1.
        -11    1    1    2    0    0 -0.54422980021E+01  0.34057199369E+01  0.44279973851E+03  0.44284627802E+03  0.00000000000E+00 0. -1.
         11    1    1    2    0    0  0.45796247666E+01  0.89390367099E+01 -0.49562360415E+03  0.49572536382E+03  0.00000000000E+00 0.  1.
        -15    1    1    2    0    0 -0.45450551478E+01 -0.25562813676E+01 -0.16809267635E+01  0.57598042076E+01  0.17770000000E+01 0.  1.
         15    1    1    2    0    0  0.54077283833E+01 -0.97884752792E+01  0.54504792408E+02  0.55668553951E+02  0.17770000000E+01 0. -1.
</event>
<event>
 6    1  0.1599106E-003  0.5011866E+03  0.7546771E-02  0.9397159E-01
        -11   -1    0    0    0    0  0.00000000000E+00  0.00000000000E+00  0.50000000000E+03  0.50000000000E+03  0.00000000000E+00 0.  1.
         11   -1    0    0    0    0 -0.00000000000E+00 -0.00000000000E+00 -0.50000000000E+03  0.50000000000E+03  0.00000000000E+00 0.  1.
        -11    1    1    2    0    0  0.11132085621E+02  0.24551716047E+01  0.40892578118E+03  0.40908464370E+03  0.00000000000E+00 0.  1.
         11    1    1    2    0    0 -0.12994593058E+02  0.71282554080E+01 -0.49859317678E+03  0.49881341943E+03  0.00000000000E+00 0.  1.
        -15    1    1    2    0    0  0.55588741617E+01  0.23463828625E+01  0.51981404072E+02  0.52360583389E+02  0.17770000000E+01 0. -1.
         15    1    1    2    0    0 -0.36963667248E+01 -0.11929809875E+02  0.37685991522E+02  0.39741353483E+02  0.17770000000E+01 0.  1.
</event>
<event>
 6    1  0.1599106E-003  0.5006438E+03  0.7546771E-02  0.9398370E-01
        -11   -1    0    0    0    0  0.00000000000E+00  0.00000000000E+00  0.50000000000E+03  0.50000000000E+03  0.00000000000E+00 0.  1.
         11   -1    0    0    0    0 -0.00000000000E+00 -0.00000000000E+00 -0.50000000000E+03  0.50000000000E+03  0.00000000000E+00 0.  1.
        -11    1    1    2    0    0  0.22065638999E+01  0.11314588592E+02  0.31047441880E+03  0.31068835442E+03  0.00000000000E+00 0.  1.
         11    1    1    2    0    0 -0.86960528029E+01 -0.66900075608E+01 -0.49923562538E+03  0.49935617267E+03  0.00000000000E+00 0.  1.
        -15    1    1    2    0    0  0.39783798979E+01 -0.11852441143E+02  0.13967684506E+03  0.14024652097E+03  0.17770000000E+01 0.  1.
         15    1    1    2    0    0  0.25111090051E+01  0.72278601115E+01  0.49084361509E+02  0.49708951950E+02  0.17770000000E+01 0. -1.
</event>
<event>
 6    1  0.1599106E-003  0.5020757E+03  0.7546771E-02  0.9395177E-01
        -11   -1    0    0    0    0  0.00000000000E+00  0.00000000000E+00  0.50000000000E+03  0.50000000000E+03  0.00000000000E+00 0. -1.
         11   -1    0    0    0    0 -0.00000000000E+00 -0.00000000000E+00 -0.50000000000E+03  0.50000000000E+03  0.00000000000E+00 0. -1.
        -11    1    1    2    0    0  0.46084786798E+01  0.81407232418E+01  0.49783638337E+03  0.49792426538E+03  0.00000000000E+00 0. -1.
         11    1    1    2    0    0  0.43072277559E+01  0.12863914395E+01 -0.19722165208E+03  0.19727287462E+03  0.00000000000E+00 0. -1.
        -15    1    1    2    0    0 -0.51194105968E+01 -0.18603400896E+01 -0.20084479486E+01  0.60713114127E+01  0.17770000000E+01 0.  1.
         15    1    1    2    0    0 -0.37962958390E+01 -0.75667745917E+01 -0.29860628334E+03  0.29873154859E+03  0.17770000000E+01 0. -1.
</event>
<event>
 6    1  0.1599106E-003  0.4524814E+03  0.7546771E-02  0.9512902E-01
        -11   -1    0    0    0    0  0.00000000000E+00  0.00000000000E+00  0.50000000000E+03  0.50000000000E+03  0.00000000000E+00 0.  1.
         11   -1    0    0    0    0 -0.00000000000E+00 -0.00000000000E+00 -0.50000000000E+03  0.50000000000E+03  0.00000000000E+00 0. -1.
        -11    1    1    2    0    0 -0.27083792129E+02  0.20470237144E+02  0.45915328329E+03  0.46040666803E+03  0.00000000000E+00 0.  1.
         11    1    1    2    0    0 -0.22316009942E+02  0.23998474351E+02 -0.44588803493E+03  0.44709067398E+03  0.00000000000E+00 0. -1.
        -15    1    1    2    0    0  0.57259564971E+02 -0.19414833121E+02  0.46495306500E+01  0.60666048083E+02  0.17770000000E+01 0.  1.
         15    1    1    2    0    0 -0.78597629000E+01 -0.25053878374E+02 -0.17914779016E+02  0.31836609911E+02  0.17770000000E+01 0. -1.
</event>
<event>
 6    1  0.1599106E-003  0.5184457E+03  0.7546771E-02  0.9359456E-01
        -11   -1    0    0    0    0  0.00000000000E+00  0.00000000000E+00  0.50000000000E+03  0.50000000000E+03  0.00000000000E+00 0. -1.
         11   -1    0    0    0    0 -0.00000000000E+00 -0.00000000000E+00 -0.50000000000E+03  0.50000000000E+03  0.00000000000E+00 0. -1.
        -11    1    1    2    0    0 -0.26909737764E+02  0.23211937612E+02  0.48024121750E+03  0.48155431160E+03  0.00000000000E+00 0. -1.
         11    1    1    2    0    0  0.78656334311E+01  0.64257368566E+01 -0.44200200182E+03  0.44211868078E+03  0.00000000000E+00 0. -1.
        -15    1    1    2    0    0 -0.90723633388E+01  0.45632391094E+01 -0.29384628812E+02  0.31140730035E+02  0.17770000000E+01 0. -1.
         15    1    1    2    0    0  0.28116467672E+02 -0.34200913578E+02 -0.88545868705E+01  0.45186277581E+02  0.17770000000E+01 0.  1.
</event>
<event>
 6    1  0.1599106E-003  0.5007980E+03  0.7546771E-02  0.9398026E-01
        -11   -1    0    0    0    0  0.00000000000E+00  0.00000000000E+00  0.50000000000E+03  0.50000000000E+03  0.00000000000E+00 0.  1.
         11   -1    0    0    0    0 -0.00000000000E+00 -0.00000000000E+00 -0.50000000000E+03  0.50000000000E+03  0.00000000000E+00 0. -1.
        -11    1    1    2    0    0  0.10744354202E+02 -0.87650686968E+01  0.49900940871E+03  0.49920202079E+03  0.00000000000E+00 0.  1.
         11    1    1    2    0    0  0.83761701719E+00  0.19870005523E+01 -0.13624874154E+03  0.13626580401E+03  0.00000000000E+00 0. -1.
        -15    1    1    2    0    0 -0.13695204487E+02  0.15269059229E+02 -0.13173681546E+03  0.13333585066E+03  0.17770000000E+01 0. -1.
         15    1    1    2    0    0  0.21132332682E+01 -0.84909910846E+01 -0.23102385172E+03  0.23119632453E+03  0.17770000000E+01 0. -1.
</event>
<event>
 6    1  0.1599106E-003  0.5053751E+03  0.7546771E-02  0.9387862E-01
        -11   -1    0    0    0    0  0.00000000000E+00  0.00000000000E+00  0.50000000000E+03  0.50000000000E+03  0.00000000000E+00 0. -1.
         11   -1    0    0    0    0 -0.00000000000E+00 -0.00000000000E+00 -0.50000000000E+03  0.50000000000E+03  0.00000000000E+00 0. -1.
        -11    1    1    2    0    0  0.91052305409E+01  0.79761795869E+01  0.41174917337E+03  0.41192706446E+03  0.00000000000E+00 0. -1.
         11    1    1    2    0    0  0.74586956705E+01  0.96784159446E+01 -0.49447393404E+03  0.49462488344E+03  0.00000000000E+00 0. -1.
        -15    1    1    2    0    0 -0.11169592216E+02 -0.19380239801E+02  0.84358187276E+02  0.87291551564E+02  0.17770000000E+01 0.  1.
         15    1    1    2    0    0 -0.53943339955E+01  0.17256442693E+01 -0.16334266033E+01  0.61565005375E+01  0.17770000000E+01 0. -1.
</event>
<event>
 6    1  0.1599106E-003  0.4836771E+03  0.7546771E-02  0.9437093E-01
        -11   -1    0    0    0    0  0.00000000000E+00  0.00000000000E+00  0.50000000000E+03  0.50000000000E+03  0.00000000000E+00 0.  1.
         11   -1    0    0    0    0 -0.00000000000E+00 -0.00000000000E+00 -0.50000000000E+03  0.50000000000E+03  0.00000000000E+00 0.  1.
        -11    1    1    2    0    0  0.75324964572E+01 -0.12879097883E+02  0.48465872530E+03  0.48488832702E+03  0.00000000000E+00 0.  1.
         11    1    1    2    0    0 -0.10656698616E+02 -0.73295884530E+01 -0.48251099609E+03  0.48268431655E+03  0.00000000000E+00 0.  1.
        -15    1    1    2    0    0 -0.63668372759E+01  0.40544482155E+01 -0.94639623873E+01  0.12235173897E+02  0.17770000000E+01 0. -1.
         15    1    1    2    0    0  0.94910394343E+01  0.16154238121E+02  0.73162331761E+01  0.20192182539E+02  0.17770000000E+01 0.  1.
</event>
<event>
 6    1  0.1599106E-003  0.4651209E+03  0.7546771E-02  0.9481425E-01
        -11   -1    0    0    0    0  0.00000000000E+00  0.00000000000E+00  0.50000000000E+03  0.50000000000E+03  0.00000000000E+00 0. -1.
         11   -1    0    0    0    0 -0.00000000000E+00 -0.00000000000E+00 -0.50000000000E+03  0.50000000000E+03  0.00000000000E+00 0. -1.
        -11    1    1    2    0    0  0.48416236088E+01 -0.74757575620E+01  0.46226296378E+03  0.46234876009E+03  0.00000000000E+00 0. -1.
         11    1    1    2    0    0 -0.96649996010E+01 -0.13145455295E+02 -0.46786650068E+03  0.46815091335E+03  0.00000000000E+00 0. -1.
        -15    1    1    2    0    0 -0.20001633773E+02 -0.13001681109E+02  0.12678223027E+02  0.27074049076E+02  0.17770000000E+01 0. -1.
         15    1    1    2    0    0  0.24825009765E+02  0.33622893966E+02 -0.70746861332E+01  0.42426277486E+02  0.17770000000E+01 0.  1.
</event>
<event>
 6    1  0.1599106E-003  0.5048454E+03  0.7546771E-02  0.9389033E-01
        -11   -1    0    0    0    0  0.00000000000E+00  0.00000000000E+00  0.50000000000E+03  0.50000000000E+03  0.00000000000E+00 0. -1.
         11   -1    0    0    0    0 -0.00000000000E+00 -0.00000000000E+00 -0.50000000000E+03  0.50000000000E+03  0.00000000000E+00 0.  1.
        -11    1    1    2    0    0  0.21948022437E+01 -0.64546180137E+01  0.43377779347E+03  0.43383136511E+03  0.00000000000E+00 0. -1.
         11    1    1    2    0    0  0.75414804101E+01  0.56529835376E+01 -0.49506488340E+03  0.49515459093E+03  0.00000000000E+00 0.  1.
        -15    1    1    2    0    0 -0.52011228463E+01  0.10081898313E+02  0.31045697936E+01  0.11895059271E+02  0.17770000000E+01 0. -1.
         15    1    1    2    0    0 -0.45351598075E+01 -0.92802638368E+01  0.58182520139E+02  0.59118984684E+02  0.17770000000E+01 0.  1.
</event>
<event>
 6    1  0.1599106E-003  0.5065295E+03  0.7546771E-02  0.9385317E-01
        -11   -1    0    0    0    0  0.00000000000E+00  0.00000000000E+00  0.50000000000E+03  0.50000000000E+03  0.00000000000E+00 0. -1.
         11   -1    0    0    0    0 -0.00000000000E+00 -0.00000000000E+00 -0.50000000000E+03  0.50000000000E+03  0.00000000000E+00 0. -1.
        -11    1    1    2    0    0  0.33888380794E+00 -0.13831196048E+02  0.49327656029E+03  0.49347054801E+03  0.00000000000E+00 0. -1.
         11    1    1    2    0    0 -0.68634876261E+01 -0.10327930712E+01 -0.42752629890E+03  0.42758263572E+03  0.00000000000E+00 0. -1.
        -15    1    1    2    0    0  0.51938756794E+01  0.12103554121E+02 -0.19067217360E+00  0.13291593276E+02  0.17770000000E+01 0.  1.
         15    1    1    2    0    0  0.13307281388E+01  0.27604349984E+01 -0.65559589215E+02  0.65655222989E+02  0.17770000000E+01 0. -1.
</event>
<event>
 6    1  0.1599106E-003  0.5004309E+03  0.7546771E-02  0.9398846E-01
        -11   -1    0    0    0    0  0.00000000000E+00  0.00000000000E+00  0.50000000000E+03  0.50000000000E+03  0.00000000000E+00 0.  1.
         11   -1    0    0    0    0 -0.00000000000E+00 -0.00000000000E+00 -0.50000000000E+03  0.50000000000E+03  0.00000000000E+00 0. -1.
        -11    1    1    2    0    0 -0.40792283129E+00 -0.20417076809E+01  0.13970519255E+03  0.13972070640E+03  0.00000000000E+00 0.  1.
         11    1    1    2    0    0  0.12868891236E+02  0.11571350699E+02 -0.49926923738E+03  0.49956909023E+03  0.00000000000E+00 0. -1.
        -15    1    1    2    0    0  0.65622141789E+01 -0.43952746380E+01  0.14866337517E+03  0.14888363892E+03  0.17770000000E+01 0. -1.
         15    1    1    2    0    0 -0.19023182583E+02 -0.51343683797E+01  0.21090066966E+03  0.21182656445E+03  0.17770000000E+01 0.  1.
</event>
<event>
 6    1  0.1599106E-003  0.5048972E+03  0.7546771E-02  0.9388918E-01
        -11   -1    0    0    0    0  0.00000000000E+00  0.00000000000E+00  0.50000000000E+03  0.50000000000E+03  0.00000000000E+00 0. -1.
         11   -1    0    0    0    0 -0.00000000000E+00 -0.00000000000E+00 -0.50000000000E+03  0.50000000000E+03  0.00000000000E+00 0.  1.
        -11    1    1    2    0    0 -0.13215414104E+02  0.11524123929E+02  0.49479217699E+03  0.49510276813E+03  0.00000000000E+00 0. -1.
         11    1    1    2    0    0  0.22505589538E+01 -0.79543446816E+01 -0.37912414954E+03  0.37921426315E+03  0.00000000000E+00 0.  1.
        -15    1    1    2    0    0 -0.16170968655E+02  0.63236646672E+01 -0.65315775220E+02  0.67607671041E+02  0.17770000000E+01 0.  1.
         15    1    1    2    0    0  0.27135823805E+02 -0.98934439144E+01 -0.50352252233E+02  0.58075297675E+02  0.17770000000E+01 0. -1.
</event>
<event>
 6    1  0.1599106E-003  0.3399200E+03  0.7546771E-02  0.9852740E-01
        -11   -1    0    0    0    0  0.00000000000E+00  0.00000000000E+00  0.50000000000E+03  0.50000000000E+03  0.00000000000E+00 0. -1.
         11   -1    0    0    0    0 -0.00000000000E+00 -0.00000000000E+00 -0.50000000000E+03  0.50000000000E+03  0.00000000000E+00 0.  1.
        -11    1    1    2    0    0  0.12951998367E+02  0.76004375560E+01  0.32367020768E+03  0.32401840110E+03  0.00000000000E+00 0. -1.
         11    1    1    2    0    0  0.10254981444E+02  0.94255547979E+01 -0.14079566236E+03  0.14148294691E+03  0.00000000000E+00 0.  1.
        -15    1    1    2    0    0 -0.20752287182E+02 -0.28945891268E+02  0.17389670254E+03  0.17751547236E+03  0.17770000000E+01 0. -1.
         15    1    1    2    0    0 -0.24546926292E+01  0.11919898915E+02 -0.35677124786E+03  0.35698317962E+03  0.17770000000E+01 0.  1.
</event>
<event>
 6    1  0.1599106E-003  0.5027941E+03  0.7546771E-02  0.9393579E-01
        -11   -1    0    0    0    0  0.00000000000E+00  0.00000000000E+00  0.50000000000E+03  0.50000000000E+03  0.00000000000E+00 0. -1.
         11   -1    0    0    0    0 -0.00000000000E+00 -0.00000000000E+00 -0.50000000000E+03  0.50000000000E+03  0.00000000000E+00 0. -1.
        -11    1    1    2    0    0  0.72018663861E+01  0.53957360866E+01  0.49712445523E+03  0.49720589783E+03  0.00000000000E+00 0. -1.
         11    1    1    2    0    0  0.36687130829E+01  0.52143427655E+01 -0.47045376538E+03  0.47049696512E+03  0.00000000000E+00 0. -1.
        -15    1    1    2    0    0 -0.95527656853E+01 -0.54932703759E+01 -0.11028546285E+02  0.15691332442E+02  0.17770000000E+01 0.  1.
         15    1    1    2    0    0 -0.13178137837E+01 -0.51168084761E+01 -0.15642143566E+02  0.16605804602E+02  0.17770000000E+01 0. -1.
</event>
<event>
 6    1  0.1599106E-003  0.5096466E+03  0.7546771E-02  0.9378480E-01
        -11   -1    0    0    0    0  0.00000000000E+00  0.00000000000E+00  0.50000000000E+03  0.50000000000E+03  0.00000000000E+00 0. -1.
         11   -1    0    0    0    0 -0.00000000000E+00 -0.00000000000E+00 -0.50000000000E+03  0.50000000000E+03  0.00000000000E+00 0.  1.
        -11    1    1    2    0    0  0.89382869426E+01  0.21786010773E+00  0.46942323238E+03  0.46950837217E+03  0.00000000000E+00 0. -1.
         11    1    1    2    0    0  0.54187894457E+01 -0.44804280158E+01 -0.49030301632E+03  0.49035342899E+03  0.00000000000E+00 0.  1.
        -15    1    1    2    0    0 -0.51171544901E+01  0.23048332357E+01  0.27722305799E+02  0.28340456844E+02  0.17770000000E+01 0.  1.
         15    1    1    2    0    0 -0.92399218982E+01  0.19577346724E+01 -0.68425218630E+01  0.11797741995E+02  0.17770000000E+01 0. -1.
</event>
<event>
 6    1  0.1599106E-003  0.5089392E+03  0.7546771E-02  0.9380027E-01
        -11   -1    0    0    0    0  0.00000000000E+00  0.00000000000E+00  0.50000000000E+03  0.50000000000E+03  0.00000000000E+00 0.  1.
         11   -1    0    0    0    0 -0.00000000000E+00 -0.00000000000E+00 -0.50000000000E+03  0.50000000000E+03  0.00000000000E+00 0. -1.
        -11    1    1    2    0    0  0.93717070886E+00 -0.70664346369E+01  0.49100910312E+03  0.49106084362E+03  0.00000000000E+00 0.  1.
         11    1    1    2    0    0  0.12627158935E+01 -0.65652590272E+01 -0.48014838968E+03  0.48019493249E+03  0.00000000000E+00 0. -1.
        -15    1    1    2    0    0  0.47960503538E+00  0.33109520992E+01  0.69467540778E+01  0.79124930339E+01  0.17770000000E+01 0. -1.
         15    1    1    2    0    0 -0.26794916378E+01  0.10320741565E+02 -0.17807467524E+02  0.20831730857E+02  0.17770000000E+01 0.  1.
</event>
<event>
 6    1  0.1599106E-003  0.5050310E+03  0.7546771E-02  0.9388622E-01
        -11   -1    0    0    0    0  0.00000000000E+00  0.00000000000E+00  0.50000000000E+03  0.50000000000E+03  0.00000000000E+00 0.  1.
         11   -1    0    0    0    0 -0.00000000000E+00 -0.00000000000E+00 -0.50000000000E+03  0.50000000000E+03  0.00000000000E+00 0. -1.
        -11    1    1    2    0    0  0.55728164515E+01 -0.42179780004E+01  0.49491966203E+03  0.49496900861E+03  0.00000000000E+00 0.  1.
         11    1    1    2    0    0  0.52831337828E+01  0.19579527167E+01 -0.32182286833E+03  0.32187218529E+03  0.00000000000E+00 0. -1.
        -15    1    1    2    0    0  0.47694291315E+01 -0.24728100131E+02 -0.10860576733E+03  0.11150155523E+03  0.17770000000E+01 0.  1.
         15    1    1    2    0    0 -0.15625379366E+02  0.26988125415E+02 -0.64491026357E+02  0.71657250877E+02  0.17770000000E+01 0. -1.
</event>
<event>
 6    1  0.1599106E-003  0.5023411E+03  0.7546771E-02  0.9394587E-01
        -11   -1    0    0    0    0  0.00000000000E+00  0.00000000000E+00  0.50000000000E+03  0.50000000000E+03  0.00000000000E+00 0.  1.
         11   -1    0    0    0    0 -0.00000000000E+00 -0.00000000000E+00 -0.50000000000E+03  0.50000000000E+03  0.00000000000E+00 0. -1.
        -11    1    1    2    0    0 -0.15404113558E+02 -0.13102466940E+00  0.49742045108E+03  0.49765892842E+03  0.00000000000E+00 0.  1.
         11    1    1    2    0    0 -0.37547038088E+01 -0.12953426689E+02 -0.40329274230E+03  0.40351818429E+03  0.00000000000E+00 0. -1.
        -15    1    1    2    0    0 -0.30275973620E+01  0.56123874719E+01 -0.20426626790E+02  0.21472541767E+02  0.17770000000E+01 0.  1.
         15    1    1    2    0    0  0.22186414729E+02  0.74720638862E+01 -0.73701081992E+02  0.77350345526E+02  0.17770000000E+01 0. -1.
</event>
<event>
 6    1  0.1599106E-003  0.5108215E+03  0.7546771E-02  0.9375916E-01
        -11   -1    0    0    0    0  0.00000000000E+00  0.00000000000E+00  0.50000000000E+03  0.50000000000E+03  0.00000000000E+00 0. -1.
         11   -1    0    0    0    0 -0.00000000000E+00 -0.00000000000E+00 -0.50000000000E+03  0.50000000000E+03  0.00000000000E+00 0.  1.
        -11    1    1    2    0    0 -0.55626109441E+01 -0.58950223812E+01  0.48911137737E+03  0.48917852918E+03  0.00000000000E+00 0. -1.
         11    1    1    2    0    0 -0.50048067063E+01 -0.53358798973E+01 -0.47523993774E+03  0.47529624250E+03  0.00000000000E+00 0.  1.
        -15    1    1    2    0    0  0.42668901129E+00  0.12512584281E+02  0.53122535023E+01  0.13715851967E+02  0.17770000000E+01 0.  1.
         15    1    1    2    0    0  0.10140728639E+02 -0.12816820027E+01 -0.19183693131E+02  0.21809376361E+02  0.17770000000E+01 0. -1.
</event>
<event>
 6    1  0.1599106E-003  0.5006831E+03  0.7546771E-02  0.9398282E-01
        -11   -1    0    0    0    0  0.00000000000E+00  0.00000000000E+00  0.50000000000E+03  0.50000000000E+03  0.00000000000E+00 0. -1.
         11   -1    0    0    0    0 -0.00000000000E+00 -0.00000000000E+00 -0.50000000000E+03  0.50000000000E+03  0.00000000000E+00 0.  1.
        -11    1    1    2    0    0  0.59442246120E+01  0.16354631806E+00  0.29668954809E+03  0.29674913395E+03  0.00000000000E+00 0. -1.
         11    1    1    2    0    0 -0.10506983631E+01  0.87198223988E+01 -0.49923960225E+03  0.49931685303E+03  0.00000000000E+00 0.  1.
        -15    1    1    2    0    0 -0.10706473527E+02 -0.31810518206E+01  0.55105223056E+02  0.56253808788E+02  0.17770000000E+01 0.  1.
         15    1    1    2    0    0  0.58129472785E+01 -0.57023168962E+01  0.14744483110E+03  0.14768020423E+03  0.17770000000E+01 0. -1.
</event>
<event>
 6    1  0.1599106E-003  0.4876386E+03  0.7546771E-02  0.9427902E-01
        -11   -1    0    0    0    0  0.00000000000E+00  0.00000000000E+00  0.50000000000E+03  0.50000000000E+03  0.00000000000E+00 0. -1.
         11   -1    0    0    0    0 -0.00000000000E+00 -0.00000000000E+00 -0.50000000000E+03  0.50000000000E+03  0.00000000000E+00 0. -1.
        -11    1    1    2    0    0 -0.63081045374E+01 -0.69511784370E+01  0.48405308813E+03  0.48414409342E+03  0.00000000000E+00 0. -1.
         11    1    1    2    0    0 -0.77843902402E+01 -0.42056303240E+01 -0.49124562259E+03  0.49132529527E+03  0.00000000000E+00 0. -1.
        -15    1    1    2    0    0  0.12222161159E+02  0.75659495923E+01  0.11396167442E+02  0.18429736244E+02  0.17770000000E+01 0.  1.
         15    1    1    2    0    0  0.18703336183E+01  0.35908591687E+01 -0.42036329792E+01  0.61008750714E+01  0.17770000000E+01 0. -1.
</event>
<event>
 6    1  0.1599106E-003  0.5040841E+03  0.7546771E-02  0.9390717E-01
        -11   -1    0    0    0    0  0.00000000000E+00  0.00000000000E+00  0.50000000000E+03  0.50000000000E+03  0.00000000000E+00 0. -1.
         11   -1    0    0    0    0 -0.00000000000E+00 -0.00000000000E+00 -0.50000000000E+03  0.50000000000E+03  0.00000000000E+00 0.  1.
        -11    1    1    2    0    0  0.43214754861E+01  0.27555342162E+02  0.49513091060E+03  0.49591591088E+03  0.00000000000E+00 0. -1.
         11    1    1    2    0    0 -0.25889268163E+02 -0.16648570133E+02 -0.29386206613E+03  0.29546969896E+03  0.00000000000E+00 0.  1.
        -15    1    1    2    0    0  0.17725352872E+00 -0.10413514151E+02 -0.59631915171E+01  0.12132191799E+02  0.17770000000E+01 0.  1.
         15    1    1    2    0    0  0.21390539148E+02 -0.49325787826E+00 -0.19530565296E+03  0.19648219836E+03  0.17770000000E+01 0. -1.
</event>
<event>
 6    1  0.1599106E-003  0.5073555E+03  0.7546771E-02  0.9383500E-01
        -11   -1    0    0    0    0  0.00000000000E+00  0.00000000000E+00  0.50000000000E+03  0.50000000000E+03  0.00000000000E+00 0. -1.
         11   -1    0    0    0    0 -0.00000000000E+00 -0.00000000000E+00 -0.50000000000E+03  0.50000000000E+03  0.00000000000E+00 0. -1.
        -11    1    1    2    0    0  0.54875372530E+01  0.10026907227E+02  0.47899446108E+03  0.47913082313E+03  0.00000000000E+00 0. -1.
         11    1    1    2    0    0  0.76910155620E+00 -0.73284777426E+01 -0.49258941582E+03  0.49264452771E+03  0.00000000000E+00 0. -1.
        -15    1    1    2    0    0 -0.72795972110E-01  0.51051769101E+01 -0.48019708895E+01  0.72308218040E+01  0.17770000000E+01 0.  1.
         15    1    1    2    0    0 -0.61838428371E+01 -0.78036063950E+01  0.18396925638E+02  0.20993827353E+02  0.17770000000E+01 0.  1.
</event>
<event>
 6    1  0.1599106E-003  0.5038866E+03  0.7546771E-02  0.9391155E-01
        -11   -1    0    0    0    0  0.00000000000E+00  0.00000000000E+00  0.50000000000E+03  0.50000000000E+03  0.00000000000E+00 0. -1.
         11   -1    0    0    0    0 -0.00000000000E+00 -0.00000000000E+00 -0.50000000000E+03  0.50000000000E+03  0.00000000000E+00 0. -1.
        -11    1    1    2    0    0 -0.10902658023E+02 -0.74883947620E+00  0.47831775516E+03  0.47844258131E+03  0.00000000000E+00 0. -1.
         11    1    1    2    0    0  0.18030342218E+01  0.75716808465E+01 -0.49605229084E+03  0.49611335049E+03  0.00000000000E+00 0. -1.
        -15    1    1    2    0    0 -0.23779904651E+01  0.20110006218E+01  0.44093962921E+01  0.56832619871E+01  0.17770000000E+01 0.  1.
         15    1    1    2    0    0  0.11477614267E+02 -0.88338419922E+01  0.13325139390E+02  0.19760806218E+02  0.17770000000E+01 0. -1.
</event>
<event>
 6    1  0.1599106E-003  0.5001562E+03  0.7546771E-02  0.9399460E-01
        -11   -1    0    0    0    0  0.00000000000E+00  0.00000000000E+00  0.50000000000E+03  0.50000000000E+03  0.00000000000E+00 0.  1.
         11   -1    0    0    0    0 -0.00000000000E+00 -0.00000000000E+00 -0.50000000000E+03  0.50000000000E+03  0.00000000000E+00 0.  1.
        -11    1    1    2    0    0 -0.23055384596E+01  0.69910076553E+01  0.49978957283E+03  0.49984378240E+03  0.00000000000E+00 0.  1.
         11    1    1    2    0    0  0.17364559009E+01  0.13600286316E+01 -0.11993068782E+03  0.11995096848E+03  0.00000000000E+00 0.  1.
        -15    1    1    2    0    0 -0.62783241907E+01 -0.23778555969E+01 -0.15312352523E+03  0.15328092921E+03  0.17770000000E+01 0. -1.
         15    1    1    2    0    0  0.68474067494E+01 -0.59731806900E+01 -0.22673535978E+03  0.22692431992E+03  0.17770000000E+01 0.  1.
</event>
<event>
 6    1  0.1599106E-003  0.5011719E+03  0.7546771E-02  0.9397191E-01
        -11   -1    0    0    0    0  0.00000000000E+00  0.00000000000E+00  0.50000000000E+03  0.50000000000E+03  0.00000000000E+00 0.  1.
         11   -1    0    0    0    0 -0.00000000000E+00 -0.00000000000E+00 -0.50000000000E+03  0.50000000000E+03  0.00000000000E+00 0.  1.
        -11    1    1    2    0    0 -0.58452917577E+01  0.51037635670E+01  0.36467116544E+03  0.36475371792E+03  0.00000000000E+00 0.  1.
         11    1    1    2    0    0 -0.11258491100E+02 -0.39857219575E+01 -0.49868508471E+03  0.49882807992E+03  0.00000000000E+00 0.  1.
        -15    1    1    2    0    0  0.10218442233E+02 -0.64568702272E+01  0.11217553042E+03  0.11283888997E+03  0.17770000000E+01 0.  1.
         15    1    1    2    0    0  0.68853406253E+01  0.53388286177E+01  0.21838388853E+02  0.23579312187E+02  0.17770000000E+01 0. -1.
</event>
<event>
 6    1  0.1599106E-003  0.5039658E+03  0.7546771E-02  0.9390979E-01
        -11   -1    0    0    0    0  0.00000000000E+00  0.00000000000E+00  0.50000000000E+03  0.50000000000E+03  0.00000000000E+00 0. -1.
         11   -1    0    0    0    0 -0.00000000000E+00 -0.00000000000E+00 -0.50000000000E+03  0.50000000000E+03  0.00000000000E+00 0.  1.
        -11    1    1    2    0    0 -0.12004364484E+02  0.52345217349E+01  0.49586133514E+03  0.49603424143E+03  0.00000000000E+00 0. -1.
         11    1    1    2    0    0  0.60755316389E+01 -0.10401762106E+01 -0.44026540083E+03  0.44030854774E+03  0.00000000000E+00 0.  1.
        -15    1    1    2    0    0  0.52794336697E+01 -0.11052880864E+02 -0.63708654552E+01  0.13920641182E+02  0.17770000000E+01 0.  1.
         15    1    1    2    0    0  0.64939917518E+00  0.68585353396E+01 -0.49225068861E+02  0.49736569641E+02  0.17770000000E+01 0. -1.
</event>
<event>
 6    1  0.1599106E-003  0.5191255E+03  0.7546771E-02  0.9358003E-01
        -11   -1    0    0    0    0  0.00000000000E+00  0.00000000000E+00  0.50000000000E+03  0.50000000000E+03  0.00000000000E+00 0.  1.
         11   -1    0    0    0    0 -0.00000000000E+00 -0.00000000000E+00 -0.50000000000E+03  0.50000000000E+03  0.00000000000E+00 0.  1.
        -11    1    1    2    0    0 -0.39064626742E+02  0.35138560814E+01  0.47927229565E+03  0.48087454250E+03  0.00000000000E+00 0.  1.
         11    1    1    2    0    0 -0.19799902189E+01  0.69745606891E+01 -0.41154765249E+03  0.41161150995E+03  0.00000000000E+00 0.  1.
        -15    1    1    2    0    0  0.44346843447E+02 -0.84294102886E+01 -0.59207430871E+01  0.45562159839E+02  0.17770000000E+01 0.  1.
         15    1    1    2    0    0 -0.33022264857E+01 -0.20590064820E+01 -0.61803900073E+02  0.61951787712E+02  0.17770000000E+01 0. -1.
</event>
<event>
 6    1  0.1599106E-003  0.5084741E+03  0.7546771E-02  0.9381045E-01
        -11   -1    0    0    0    0  0.00000000000E+00  0.00000000000E+00  0.50000000000E+03  0.50000000000E+03  0.00000000000E+00 0. -1.
         11   -1    0    0    0    0 -0.00000000000E+00 -0.00000000000E+00 -0.50000000000E+03  0.50000000000E+03  0.00000000000E+00 0.  1.
        -11    1    1    2    0    0  0.53983157564E+01 -0.29982905842E+01  0.43068887074E+03  0.43073313657E+03  0.00000000000E+00 0. -1.
         11    1    1    2    0    0 -0.12264586568E+02  0.26532011802E+02 -0.49065604538E+03  0.49152591244E+03  0.00000000000E+00 0.  1.
        -15    1    1    2    0    0 -0.10334060918E+02 -0.28634793064E+02  0.44730698205E+02  0.54136284319E+02  0.17770000000E+01 0.  1.
         15    1    1    2    0    0  0.17200331730E+02  0.51010718458E+01  0.15236476432E+02  0.23604666671E+02  0.17770000000E+01 0. -1.
</event>
<event>
 6    1  0.1599106E-003  0.5014461E+03  0.7546771E-02  0.9396580E-01
        -11   -1    0    0    0    0  0.00000000000E+00  0.00000000000E+00  0.50000000000E+03  0.50000000000E+03  0.00000000000E+00 0. -1.
         11   -1    0    0    0    0 -0.00000000000E+00 -0.00000000000E+00 -0.50000000000E+03  0.50000000000E+03  0.00000000000E+00 0. -1.
        -11    1    1    2    0    0 -0.31619041951E+01  0.65503052207E+01  0.49850088627E+03  0.49855394668E+03  0.00000000000E+00 0. -1.
         11    1    1    2    0    0 -0.15397905241E+01 -0.59305585651E+01 -0.41149783892E+03  0.41154345325E+03  0.00000000000E+00 0. -1.
        -15    1    1    2    0    0  0.29344639137E+01 -0.12823995221E+01 -0.91428965483E+00  0.37748220577E+01  0.17770000000E+01 0.  1.
         15    1    1    2    0    0  0.17672308055E+01  0.66265286651E+00 -0.86088757699E+02  0.86127778008E+02  0.17770000000E+01 0. -1.
</event>
<event>
 6    1  0.1599106E-003  0.5002612E+03  0.7546771E-02  0.9399226E-01
        -11   -1    0    0    0    0  0.00000000000E+00  0.00000000000E+00  0.50000000000E+03  0.50000000000E+03  0.00000000000E+00 0. -1.
         11   -1    0    0    0    0 -0.00000000000E+00 -0.00000000000E+00 -0.50000000000E+03  0.50000000000E+03  0.00000000000E+00 0. -1.
        -11    1    1    2    0    0  0.52820453649E+00  0.70363317119E+00  0.45166873220E+02  0.45175441737E+02  0.00000000000E+00 0. -1.
         11    1    1    2    0    0 -0.16511543934E+02  0.94039438347E+01 -0.49937745560E+03  0.49973884020E+03  0.00000000000E+00 0. -1.
        -15    1    1    2    0    0  0.18120570204E+02 -0.86081330061E+01  0.23757693569E+03  0.23842905259E+03  0.17770000000E+01 0. -1.
         15    1    1    2    0    0 -0.21372308068E+01 -0.14994439998E+01  0.21663364669E+03  0.21665666547E+03  0.17770000000E+01 0.  1.
</event>
<event>
 6    1  0.1599106E-003  0.5057302E+03  0.7546771E-02  0.9387079E-01
        -11   -1    0    0    0    0  0.00000000000E+00  0.00000000000E+00  0.50000000000E+03  0.50000000000E+03  0.00000000000E+00 0. -1.
         11   -1    0    0    0    0 -0.00000000000E+00 -0.00000000000E+00 -0.50000000000E+03  0.50000000000E+03  0.00000000000E+00 0. -1.
        -11    1    1    2    0    0  0.31876717299E+01  0.68181319863E+01  0.49421252364E+03  0.49426983187E+03  0.00000000000E+00 0. -1.
         11    1    1    2    0    0 -0.12592769237E+02  0.83793330970E+01 -0.47966912113E+03  0.47990755029E+03  0.00000000000E+00 0. -1.
        -15    1    1    2    0    0  0.66024570838E+01 -0.31142118221E+01 -0.13621007573E+01  0.76356926529E+01  0.17770000000E+01 0. -1.
         15    1    1    2    0    0  0.28026404234E+01 -0.12083253261E+02 -0.13181301756E+02  0.18186925185E+02  0.17770000000E+01 0.  1.
</event>
<event>
 6    1  0.1599106E-003  0.5070690E+03  0.7546771E-02  0.9384130E-01
        -11   -1    0    0    0    0  0.00000000000E+00  0.00000000000E+00  0.50000000000E+03  0.50000000000E+03  0.00000000000E+00 0. -1.
         11   -1    0    0    0    0 -0.00000000000E+00 -0.00000000000E+00 -0.50000000000E+03  0.50000000000E+03  0.00000000000E+00 0. -1.
        -11    1    1    2    0    0 -0.26641155952E+00 -0.67238259251E+01  0.49288501793E+03  0.49293095025E+03  0.00000000000E+00 0. -1.
         11    1    1    2    0    0 -0.14646689977E+02  0.57130979678E+01 -0.46475072227E+03  0.46501655762E+03  0.00000000000E+00 0. -1.
        -15    1    1    2    0    0  0.17083303876E+02 -0.86004449965E+01 -0.10805158111E+02  0.22038967677E+02  0.17770000000E+01 0. -1.
         15    1    1    2    0    0 -0.21702023395E+01  0.96111729538E+01 -0.17329137553E+02  0.20013524454E+02  0.17770000000E+01 0.  1.
</event>
<event>
 6    1  0.1599106E-003  0.5015865E+03  0.7546771E-02  0.9396267E-01
        -11   -1    0    0    0    0  0.00000000000E+00  0.00000000000E+00  0.50000000000E+03  0.50000000000E+03  0.00000000000E+00 0.  1.
         11   -1    0    0    0    0 -0.00000000000E+00 -0.00000000000E+00 -0.50000000000E+03  0.50000000000E+03  0.00000000000E+00 0.  1.
        -11    1    1    2    0    0  0.34061244625E+01 -0.11350037671E+02  0.49827265216E+03  0.49841354408E+03  0.00000000000E+00 0.  1.
         11    1    1    2    0    0 -0.51810253695E+00  0.93984435096E+01 -0.43861878667E+03  0.43871977296E+03  0.00000000000E+00 0.  1.
        -15    1    1    2    0    0  0.21943317719E+01 -0.48133160215E+01 -0.48169220268E+02  0.48491387001E+02  0.17770000000E+01 0. -1.
         15    1    1    2    0    0 -0.50823536974E+01  0.67649101827E+01 -0.11484645222E+02  0.14375295954E+02  0.17770000000E+01 0.  1.
</event>
<event>
 6    1  0.1599106E-003  0.5006272E+03  0.7546771E-02  0.9398407E-01
        -11   -1    0    0    0    0  0.00000000000E+00  0.00000000000E+00  0.50000000000E+03  0.50000000000E+03  0.00000000000E+00 0.  1.
         11   -1    0    0    0    0 -0.00000000000E+00 -0.00000000000E+00 -0.50000000000E+03  0.50000000000E+03  0.00000000000E+00 0. -1.
        -11    1    1    2    0    0  0.70434237019E+01  0.43592186518E+01  0.49930413190E+03  0.49937283540E+03  0.00000000000E+00 0.  1.
         11    1    1    2    0    0  0.35492684908E+00 -0.57162518274E+01 -0.27369342055E+03  0.27375333781E+03  0.00000000000E+00 0. -1.
        -15    1    1    2    0    0  0.29008889413E+01 -0.48433042270E+01 -0.16227099997E+03  0.16237890230E+03  0.17770000000E+01 0. -1.
         15    1    1    2    0    0 -0.10299239492E+02  0.62003374026E+01 -0.63339711376E+02  0.64494924484E+02  0.17770000000E+01 0.  1.
</event>
<event>
 6    1  0.1599106E-003  0.5808183E+03  0.7546771E-02  0.9235171E-01
        -11   -1    0    0    0    0  0.00000000000E+00  0.00000000000E+00  0.50000000000E+03  0.50000000000E+03  0.00000000000E+00 0. -1.
         11   -1    0    0    0    0 -0.00000000000E+00 -0.00000000000E+00 -0.50000000000E+03  0.50000000000E+03  0.00000000000E+00 0. -1.
        -11    1    1    2    0    0 -0.86415862822E+01  0.39493062009E+01  0.41907405452E+03  0.41918174722E+03  0.00000000000E+00 0. -1.
         11    1    1    2    0    0 -0.34479842331E+02  0.27364506342E+02 -0.17545336150E+03  0.18089101082E+03  0.00000000000E+00 0. -1.
        -15    1    1    2    0    0  0.53674507609E+01 -0.37472221207E+02  0.72334229998E+02  0.81660121530E+02  0.17770000000E+01 0.  1.
         15    1    1    2    0    0  0.37753977853E+02  0.61584086644E+01 -0.31595492302E+03  0.31826712043E+03  0.17770000000E+01 0. -1.
</event>
<event>
 6    1  0.1599106E-003  0.5108086E+03  0.7546771E-02  0.9375944E-01
        -11   -1    0    0    0    0  0.00000000000E+00  0.00000000000E+00  0.50000000000E+03  0.50000000000E+03  0.00000000000E+00 0. -1.
         11   -1    0    0    0    0 -0.00000000000E+00 -0.00000000000E+00 -0.50000000000E+03  0.50000000000E+03  0.00000000000E+00 0. -1.
        -11    1    1    2    0    0  0.71108447138E+01 -0.15429718515E+02  0.48889627110E+03  0.48919137791E+03  0.00000000000E+00 0. -1.
         11    1    1    2    0    0 -0.56173960320E-01 -0.91210001449E+01 -0.42556194980E+03  0.42565968674E+03  0.00000000000E+00 0. -1.
        -15    1    1    2    0    0 -0.13262167534E+02  0.14290944282E+02 -0.69031915985E+02  0.71754298336E+02  0.17770000000E+01 0.  1.
         15    1    1    2    0    0  0.62074967803E+01  0.10259774378E+02  0.56975946855E+01  0.13394637015E+02  0.17770000000E+01 0. -1.
</event>
<event>
 6    1  0.1599106E-003  0.5013086E+03  0.7546771E-02  0.9396886E-01
        -11   -1    0    0    0    0  0.00000000000E+00  0.00000000000E+00  0.50000000000E+03  0.50000000000E+03  0.00000000000E+00 0.  1.
         11   -1    0    0    0    0 -0.00000000000E+00 -0.00000000000E+00 -0.50000000000E+03  0.50000000000E+03  0.00000000000E+00 0. -1.
        -11    1    1    2    0    0  0.71870343439E+00 -0.50700727992E+01  0.32239827895E+03  0.32243894374E+03  0.00000000000E+00 0.  1.
         11    1    1    2    0    0  0.62171437855E+01 -0.70659287794E+01 -0.49860260540E+03  0.49869142598E+03  0.00000000000E+00 0. -1.
        -15    1    1    2    0    0  0.28508947640E+01 -0.70797394097E+00  0.12713003362E+03  0.12717638148E+03  0.17770000000E+01 0. -1.
         15    1    1    2    0    0 -0.97867419840E+01  0.12843975520E+02  0.49074292836E+02  0.51693248806E+02  0.17770000000E+01 0.  1.
</event>
<event>
 6    1  0.1599106E-003  0.5004464E+03  0.7546771E-02  0.9398811E-01
        -11   -1    0    0    0    0  0.00000000000E+00  0.00000000000E+00  0.50000000000E+03  0.50000000000E+03  0.00000000000E+00 0.  1.
         11   -1    0    0    0    0 -0.00000000000E+00 -0.00000000000E+00 -0.50000000000E+03  0.50000000000E+03  0.00000000000E+00 0.  1.
        -11    1    1    2    0    0  0.85669340861E+01 -0.12182380953E+01  0.49947862508E+03  0.49955357408E+03  0.00000000000E+00 0.  1.
         11    1    1    2    0    0  0.51169407234E-01 -0.45336343713E+01 -0.27964863888E+03  0.27968539055E+03  0.00000000000E+00 0.  1.
        -15    1    1    2    0    0 -0.39748345003E+01  0.18115732332E+01 -0.12918544759E+02  0.13752368326E+02  0.17770000000E+01 0. -1.
         15    1    1    2    0    0 -0.46432689930E+01  0.39402992334E+01 -0.20691144144E+03  0.20700866705E+03  0.17770000000E+01 0.  1.
</event>
<event>
 6    1  0.1599106E-003  0.5897358E+03  0.7546771E-02  0.9218756E-01
        -11   -1    0    0    0    0  0.00000000000E+00  0.00000000000E+00  0.50000000000E+03  0.50000000000E+03  0.00000000000E+00 0.  1.
         11   -1    0    0    0    0 -0.00000000000E+00 -0.00000000000E+00 -0.50000000000E+03  0.50000000000E+03  0.00000000000E+00 0. -1.
        -11    1    1    2    0    0 -0.85839000455E+01  0.71141915776E+01  0.37250187178E+03  0.37266867260E+03  0.00000000000E+00 0.  1.
         11    1    1    2    0    0  0.97978946411E+01 -0.24088644032E+00 -0.41014712025E+03  0.41026420392E+03  0.00000000000E+00 0. -1.
        -15    1    1    2    0    0  0.40431270959E+02  0.67634048626E+02 -0.51091801521E+02  0.93928601163E+02  0.17770000000E+01 0. -1.
         15    1    1    2    0    0 -0.41645265555E+02 -0.74507353763E+02  0.88737049994E+02  0.12313852232E+03  0.17770000000E+01 0.  1.
</event>
<event>
 6    1  0.1842030E-003  0.5777980E+03  0.7546771E-02  0.9240801E-01
        -11   -1    0    0    0    0  0.00000000000E+00  0.00000000000E+00  0.50000000000E+03  0.50000000000E+03  0.00000000000E+00 0.  1.
         11   -1    0    0    0    0 -0.00000000000E+00 -0.00000000000E+00 -0.50000000000E+03  0.50000000000E+03  0.00000000000E+00 0. -1.
        -11    1    1    2    0    0  0.58816440321E+00  0.64569651622E+01  0.29743584952E+03  0.29750650903E+03  0.00000000000E+00 0.  1.
         11    1    1    2    0    0 -0.20734416532E+02 -0.70359984085E+02 -0.41578130045E+03  0.42220200520E+03  0.00000000000E+00 0. -1.
        -15    1    1    2    0    0  0.30550214015E+02  0.44107412878E+02 -0.71340970907E+02  0.89283096418E+02  0.17770000000E+01 0. -1.
         15    1    1    2    0    0 -0.10403961885E+02  0.19795606045E+02  0.18968642184E+03  0.19100838935E+03  0.17770000000E+01 0.  1.
</event>
<event>
 6    1  0.1599106E-003  0.4800037E+03  0.7546771E-02  0.9445699E-01
        -11   -1    0    0    0    0  0.00000000000E+00  0.00000000000E+00  0.50000000000E+03  0.50000000000E+03  0.00000000000E+00 0. -1.
         11   -1    0    0    0    0 -0.00000000000E+00 -0.00000000000E+00 -0.50000000000E+03  0.50000000000E+03  0.00000000000E+00 0. -1.
        -11    1    1    2    0    0  0.14647433180E+01 -0.68656458349E+01  0.48346513308E+03  0.48351609846E+03  0.00000000000E+00 0. -1.
         11    1    1    2    0    0 -0.89396477793E+01 -0.15816225345E+02 -0.47646757074E+03  0.47681381718E+03  0.00000000000E+00 0. -1.
        -15    1    1    2    0    0  0.13849697155E+02  0.20784185823E+02 -0.14941346962E+02  0.29158156143E+02  0.17770000000E+01 0. -1.
         15    1    1    2    0    0 -0.63747926939E+01  0.18976853570E+01  0.79437846244E+01  0.10511928213E+02  0.17770000000E+01 0.  1.
</event>
<event>
 6    1  0.1599106E-003  0.5025220E+03  0.7546771E-02  0.9394184E-01
        -11   -1    0    0    0    0  0.00000000000E+00  0.00000000000E+00  0.50000000000E+03  0.50000000000E+03  0.00000000000E+00 0.  1.
         11   -1    0    0    0    0 -0.00000000000E+00 -0.00000000000E+00 -0.50000000000E+03  0.50000000000E+03  0.00000000000E+00 0.  1.
        -11    1    1    2    0    0 -0.82637458993E+01  0.15208471537E+02  0.38850776946E+03  0.38889313961E+03  0.00000000000E+00 0.  1.
         11    1    1    2    0    0 -0.78519847564E+01 -0.40841169797E+01 -0.49739926213E+03  0.49747799915E+03  0.00000000000E+00 0.  1.
        -15    1    1    2    0    0 -0.39545672677E+00 -0.32382306422E+00  0.69613715648E+02  0.69638268091E+02  0.17770000000E+01 0. -1.
         15    1    1    2    0    0  0.16511187382E+02 -0.10800531493E+02  0.39277777013E+02  0.43990593146E+02  0.17770000000E+01 0.  1.
</event>
<event>
 6    1  0.1599106E-003  0.5130397E+03  0.7546771E-02  0.9371096E-01
        -11   -1    0    0    0    0  0.00000000000E+00  0.00000000000E+00  0.50000000000E+03  0.50000000000E+03  0.00000000000E+00 0. -1.
         11   -1    0    0    0    0 -0.00000000000E+00 -0.00000000000E+00 -0.50000000000E+03  0.50000000000E+03  0.00000000000E+00 0.  1.
        -11    1    1    2    0    0 -0.42192517038E+01 -0.88903413685E+01  0.38799948414E+03  0.38812425838E+03  0.00000000000E+00 0. -1.
         11    1    1    2    0    0 -0.24229620074E+01  0.99376657119E+01 -0.48685281870E+03  0.48696026021E+03  0.00000000000E+00 0.  1.
        -15    1    1    2    0    0  0.39023659502E+01  0.15410138160E+02  0.10561976688E+03  0.10682412510E+03  0.17770000000E+01 0.  1.
         15    1    1    2    0    0  0.27398477609E+01 -0.16457462504E+02 -0.67664323191E+01  0.18091356310E+02  0.17770000000E+01 0. -1.
</event>
<event>
 6    1  0.1599106E-003  0.5013376E+03  0.7546771E-02  0.9396822E-01
        -11   -1    0    0    0    0  0.00000000000E+00  0.00000000000E+00  0.50000000000E+03  0.50000000000E+03  0.00000000000E+00 0. -1.
         11   -1    0    0    0    0 -0.00000000000E+00 -0.00000000000E+00 -0.50000000000E+03  0.50000000000E+03  0.00000000000E+00 0.  1.
        -11    1    1    2    0    0  0.29165802612E+01 -0.12345214818E+02  0.29009941438E+03  0.29037661922E+03  0.00000000000E+00 0. -1.
         11    1    1    2    0    0 -0.10716882482E+02  0.75581154590E+01 -0.49848993536E+03  0.49866240316E+03  0.00000000000E+00 0.  1.
        -15    1    1    2    0    0 -0.21298842989E+01  0.11164374065E+02  0.17707568290E+03  0.17744896410E+03  0.17770000000E+01 0.  1.
         15    1    1    2    0    0  0.99301865196E+01 -0.63772747057E+01  0.31314838074E+02  0.33512013511E+02  0.17770000000E+01 0. -1.
</event>
<event>
 6    1  0.1599106E-003  0.5075276E+03  0.7546771E-02  0.9383122E-01
        -11   -1    0    0    0    0  0.00000000000E+00  0.00000000000E+00  0.50000000000E+03  0.50000000000E+03  0.00000000000E+00 0.  1.
         11   -1    0    0    0    0 -0.00000000000E+00 -0.00000000000E+00 -0.50000000000E+03  0.50000000000E+03  0.00000000000E+00 0. -1.
        -11    1    1    2    0    0  0.58905233196E+00  0.10132257961E+02  0.45757933255E+03  0.45769187803E+03  0.00000000000E+00 0.  1.
         11    1    1    2    0    0  0.97424253440E+00  0.12012331906E+02 -0.49232493358E+03  0.49247242105E+03  0.00000000000E+00 0. -1.
        -15    1    1    2    0    0  0.41639478311E+01 -0.41962333759E+01  0.29583506031E+02  0.30220661710E+02  0.17770000000E+01 0. -1.
         15    1    1    2    0    0 -0.57272426975E+01 -0.17948356490E+02  0.51620949960E+01  0.19615039214E+02  0.17770000000E+01 0.  1.
</event>
<event>
 6    1  0.1599106E-003  0.5003893E+03  0.7546771E-02  0.9398939E-01
        -11   -1    0    0    0    0  0.00000000000E+00  0.00000000000E+00  0.50000000000E+03  0.50000000000E+03  0.00000000000E+00 0.  1.
         11   -1    0    0    0    0 -0.00000000000E+00 -0.00000000000E+00 -0.50000000000E+03  0.50000000000E+03  0.00000000000E+00 0.  1.
        -11    1    1    2    0    0  0.39580460846E-01  0.95429227780E+01  0.49951951065E+03  0.49961065887E+03  0.00000000000E+00 0.  1.
         11    1    1    2    0    0 -0.11124202400E+01 -0.42979884828E+01 -0.20496320606E+03  0.20501128267E+03  0.00000000000E+00 0.  1.
        -15    1    1    2    0    0 -0.39110350942E+01 -0.12015462151E+02 -0.13895136151E+03  0.13953603879E+03  0.17770000000E+01 0.  1.
         15    1    1    2    0    0  0.49838748734E+01  0.67705278554E+01 -0.15560494307E+03  0.15584201966E+03  0.17770000000E+01 0. -1.
</event>
<event>
 6    1  0.1599106E-003  0.5012512E+03  0.7546771E-02  0.9397014E-01
        -11   -1    0    0    0    0  0.00000000000E+00  0.00000000000E+00  0.50000000000E+03  0.50000000000E+03  0.00000000000E+00 0. -1.
         11   -1    0    0    0    0 -0.00000000000E+00 -0.00000000000E+00 -0.50000000000E+03  0.50000000000E+03  0.00000000000E+00 0.  1.
        -11    1    1    2    0    0 -0.27452333393E+00  0.15396740898E+02  0.25841003609E+03  0.25886846418E+03  0.00000000000E+00 0. -1.
         11    1    1    2    0    0 -0.10798836185E+01 -0.10572985385E+02 -0.49863558247E+03  0.49874883286E+03  0.00000000000E+00 0.  1.
        -15    1    1    2    0    0  0.60753679670E+01 -0.10847204817E+02  0.22403319997E+03  0.22438494684E+03  0.17770000000E+01 0. -1.
         15    1    1    2    0    0 -0.47209610146E+01  0.60234493041E+01  0.16192346407E+02  0.17997756126E+02  0.17770000000E+01 0.  1.
</event>
<event>
 6    1  0.1599106E-003  0.5010349E+03  0.7546771E-02  0.9397497E-01
        -11   -1    0    0    0    0  0.00000000000E+00  0.00000000000E+00  0.50000000000E+03  0.50000000000E+03  0.00000000000E+00 0.  1.
         11   -1    0    0    0    0 -0.00000000000E+00 -0.00000000000E+00 -0.50000000000E+03  0.50000000000E+03  0.00000000000E+00 0.  1.
        -11    1    1    2    0    0  0.75842099180E+01 -0.39177653882E-02  0.49890747914E+03  0.49896512202E+03  0.00000000000E+00 0.  1.
         11    1    1    2    0    0  0.35968067805E+01  0.82776753130E+01 -0.20726915968E+03  0.20746556698E+03  0.00000000000E+00 0.  1.
        -15    1    1    2    0    0 -0.92330804753E+01 -0.13663914426E+02 -0.27985533093E+03  0.28034642197E+03  0.17770000000E+01 0.  1.
         15    1    1    2    0    0 -0.19479362232E+01  0.53901568785E+01 -0.11782988527E+02  0.13222889031E+02  0.17770000000E+01 0. -1.
</event>
<event>
 6    1  0.1599106E-003  0.5125605E+03  0.7546771E-02  0.9372135E-01
        -11   -1    0    0    0    0  0.00000000000E+00  0.00000000000E+00  0.50000000000E+03  0.50000000000E+03  0.00000000000E+00 0.  1.
         11   -1    0    0    0    0 -0.00000000000E+00 -0.00000000000E+00 -0.50000000000E+03  0.50000000000E+03  0.00000000000E+00 0. -1.
        -11    1    1    2    0    0  0.70930084835E+02 -0.19311834788E+02  0.48186432532E+03  0.48743948539E+03  0.00000000000E+00 0.  1.
         11    1    1    2    0    0 -0.16030403238E+01  0.52025843395E+01 -0.36645199918E+03  0.36649243420E+03  0.00000000000E+00 0. -1.
        -15    1    1    2    0    0 -0.12331023288E+02 -0.19223021433E+02 -0.37306525252E+02  0.43777999540E+02  0.17770000000E+01 0.  1.
         15    1    1    2    0    0 -0.56996021223E+02  0.33332271881E+02 -0.78105800884E+02  0.10229008087E+03  0.17770000000E+01 0. -1.
</event>
<event>
 6    1  0.1599106E-003  0.5049844E+03  0.7546771E-02  0.9388725E-01
        -11   -1    0    0    0    0  0.00000000000E+00  0.00000000000E+00  0.50000000000E+03  0.50000000000E+03  0.00000000000E+00 0. -1.
         11   -1    0    0    0    0 -0.00000000000E+00 -0.00000000000E+00 -0.50000000000E+03  0.50000000000E+03  0.00000000000E+00 0. -1.
        -11    1    1    2    0    0  0.41261194853E+01 -0.97645319134E+01  0.47356837820E+03  0.47368700613E+03  0.00000000000E+00 0. -1.
         11    1    1    2    0    0  0.83806311346E+01  0.63992653826E+00 -0.49494428217E+03  0.49501564312E+03  0.00000000000E+00 0. -1.
        -15    1    1    2    0    0 -0.11123034413E+01  0.88097833029E+01  0.16398745662E+02  0.18733021354E+02  0.17770000000E+01 0. -1.
         15    1    1    2    0    0 -0.11394447179E+02  0.31482207225E+00  0.49771583067E+01  0.12564329399E+02  0.17770000000E+01 0.  1.
</event>
<event>
 6    1  0.1599106E-003  0.5077568E+03  0.7546771E-02  0.9382619E-01
        -11   -1    0    0    0    0  0.00000000000E+00  0.00000000000E+00  0.50000000000E+03  0.50000000000E+03  0.00000000000E+00 0.  1.
         11   -1    0    0    0    0 -0.00000000000E+00 -0.00000000000E+00 -0.50000000000E+03  0.50000000000E+03  0.00000000000E+00 0. -1.
        -11    1    1    2    0    0  0.51050669417E+01  0.18857288252E+02  0.49185536784E+03  0.49224319386E+03  0.00000000000E+00 0.  1.
         11    1    1    2    0    0 -0.99173903405E+01 -0.21853499569E+01 -0.45414227328E+03  0.45425580323E+03  0.00000000000E+00 0. -1.
        -15    1    1    2    0    0 -0.13441649254E+01 -0.20092921356E+02 -0.61763402804E+01  0.21138523511E+02  0.17770000000E+01 0.  1.
         15    1    1    2    0    0  0.61564883242E+01  0.34209830616E+01 -0.31536754279E+02  0.32362479402E+02  0.17770000000E+01 0. -1.
</event>
<event>
 6    1  0.1599106E-003  0.5304178E+03  0.7546771E-02  0.9334207E-01
        -11   -1    0    0    0    0  0.00000000000E+00  0.00000000000E+00  0.50000000000E+03  0.50000000000E+03  0.00000000000E+00 0. -1.
         11   -1    0    0    0    0 -0.00000000000E+00 -0.00000000000E+00 -0.50000000000E+03  0.50000000000E+03  0.00000000000E+00 0. -1.
        -11    1    1    2    0    0  0.12884289562E+02 -0.15753389622E+02  0.19793759342E+03  0.19898106717E+03  0.00000000000E+00 0. -1.
         11    1    1    2    0    0 -0.16507684603E+01  0.12007871155E+02 -0.46942573856E+03  0.46958219518E+03  0.00000000000E+00 0. -1.
        -15    1    1    2    0    0 -0.25414692634E+02  0.10283482206E+02  0.29872765653E+03  0.29998837830E+03  0.17770000000E+01 0. -1.
         15    1    1    2    0    0  0.14181171532E+02 -0.65379637390E+01 -0.27239511391E+02  0.31448359348E+02  0.17770000000E+01 0.  1.
</event>
<event>
 6    1  0.1599106E-003  0.5014827E+03  0.7546771E-02  0.9396498E-01
        -11   -1    0    0    0    0  0.00000000000E+00  0.00000000000E+00  0.50000000000E+03  0.50000000000E+03  0.00000000000E+00 0. -1.
         11   -1    0    0    0    0 -0.00000000000E+00 -0.00000000000E+00 -0.50000000000E+03  0.50000000000E+03  0.00000000000E+00 0. -1.
        -11    1    1    2    0    0 -0.84177809846E+01 -0.75479482676E+01  0.45071122310E+03  0.45085301062E+03  0.00000000000E+00 0. -1.
         11    1    1    2    0    0 -0.16147994739E+01  0.70705900168E+01 -0.49846451385E+03  0.49851727391E+03  0.00000000000E+00 0. -1.
        -15    1    1    2    0    0  0.44770873633E+01 -0.13130544744E+01  0.41827185795E+02  0.42124097899E+02  0.17770000000E+01 0.  1.
         15    1    1    2    0    0  0.55554930952E+01  0.17904127252E+01  0.59261049576E+01  0.85056175688E+01  0.17770000000E+01 0. -1.
</event>
<event>
 6    1  0.1599106E-003  0.5067783E+03  0.7546771E-02  0.9384769E-01
        -11   -1    0    0    0    0  0.00000000000E+00  0.00000000000E+00  0.50000000000E+03  0.50000000000E+03  0.00000000000E+00 0.  1.
         11   -1    0    0    0    0 -0.00000000000E+00 -0.00000000000E+00 -0.50000000000E+03  0.50000000000E+03  0.00000000000E+00 0. -1.
        -11    1    1    2    0    0 -0.33230443238E+01  0.81636777628E+01  0.38592719726E+03  0.38602783558E+03  0.00000000000E+00 0.  1.
         11    1    1    2    0    0 -0.12224535468E+02  0.18801082099E+02 -0.49271158239E+03  0.49322167772E+03  0.00000000000E+00 0. -1.
        -15    1    1    2    0    0 -0.71044678303E+01 -0.29922871849E+02  0.78637300934E+02  0.84456110200E+02  0.17770000000E+01 0.  1.
         15    1    1    2    0    0  0.22652047622E+02  0.29581119875E+01  0.28147084193E+02  0.36294376501E+02  0.17770000000E+01 0. -1.
</event>
<event>
 6    1  0.1599106E-003  0.5031632E+03  0.7546771E-02  0.9392760E-01
        -11   -1    0    0    0    0  0.00000000000E+00  0.00000000000E+00  0.50000000000E+03  0.50000000000E+03  0.00000000000E+00 0.  1.
         11   -1    0    0    0    0 -0.00000000000E+00 -0.00000000000E+00 -0.50000000000E+03  0.50000000000E+03  0.00000000000E+00 0. -1.
        -11    1    1    2    0    0  0.13561811789E+02  0.14238808262E+02  0.44800217530E+03  0.44843351288E+03  0.00000000000E+00 0.  1.
         11    1    1    2    0    0 -0.20629203984E+01 -0.77149473155E+01 -0.49677264983E+03  0.49683683607E+03  0.00000000000E+00 0. -1.
        -15    1    1    2    0    0 -0.84726892021E+01 -0.67590983305E+01  0.49853845800E+02  0.51049344194E+02  0.17770000000E+01 0.  1.
         15    1    1    2    0    0 -0.30262021883E+01  0.23523738419E+00 -0.10833712667E+01  0.36803068639E+01  0.17770000000E+01 0. -1.
</event>
<event>
 6    1  0.1599106E-003  0.5006274E+03  0.7546771E-02  0.9398407E-01
        -11   -1    0    0    0    0  0.00000000000E+00  0.00000000000E+00  0.50000000000E+03  0.50000000000E+03  0.00000000000E+00 0. -1.
         11   -1    0    0    0    0 -0.00000000000E+00 -0.00000000000E+00 -0.50000000000E+03  0.50000000000E+03  0.00000000000E+00 0.  1.
        -11    1    1    2    0    0 -0.33836805369E+01  0.82661339589E+01  0.49929274024E+03  0.49937262513E+03  0.00000000000E+00 0. -1.
         11    1    1    2    0    0  0.12599151040E+01  0.19052920890E+01 -0.11329056683E+03  0.11331359167E+03  0.00000000000E+00 0.  1.
        -15    1    1    2    0    0  0.52853055771E+01 -0.18845138960E+02 -0.32477028542E+03  0.32536436458E+03  0.17770000000E+01 0.  1.
         15    1    1    2    0    0 -0.31615401443E+01  0.86737129124E+01 -0.61231887987E+02  0.61949418618E+02  0.17770000000E+01 0. -1.
</event>
<event>
 6    1  0.1599106E-003  0.5100533E+03  0.7546771E-02  0.9377591E-01
        -11   -1    0    0    0    0  0.00000000000E+00  0.00000000000E+00  0.50000000000E+03  0.50000000000E+03  0.00000000000E+00 0. -1.
         11   -1    0    0    0    0 -0.00000000000E+00 -0.00000000000E+00 -0.50000000000E+03  0.50000000000E+03  0.00000000000E+00 0. -1.
        -11    1    1    2    0    0  0.13491903836E+02 -0.95093688741E+01  0.42664284377E+03  0.42696203076E+03  0.00000000000E+00 0. -1.
         11    1    1    2    0    0 -0.24440644509E+02  0.15359325785E+02 -0.48909558442E+03  0.48994667536E+03  0.00000000000E+00 0. -1.
        -15    1    1    2    0    0 -0.14450250833E+02  0.32311916724E+01  0.52020579369E+02  0.54116067444E+02  0.17770000000E+01 0. -1.
         15    1    1    2    0    0  0.25398991506E+02 -0.90811485833E+01  0.10432161281E+02  0.28975226438E+02  0.17770000000E+01 0.  1.
</event>
<event>
 6    1  0.1599106E-003  0.5041196E+03  0.7546771E-02  0.9390639E-01
        -11   -1    0    0    0    0  0.00000000000E+00  0.00000000000E+00  0.50000000000E+03  0.50000000000E+03  0.00000000000E+00 0. -1.
         11   -1    0    0    0    0 -0.00000000000E+00 -0.00000000000E+00 -0.50000000000E+03  0.50000000000E+03  0.00000000000E+00 0.  1.
        -11    1    1    2    0    0  0.11326176550E+01  0.45421024546E+01  0.32553459792E+03  0.32556825392E+03  0.00000000000E+00 0. -1.
         11    1    1    2    0    0 -0.24911393649E+02 -0.19764321573E+02 -0.49485971037E+03  0.49588036752E+03  0.00000000000E+00 0.  1.
        -15    1    1    2    0    0  0.21834286697E+02  0.21548412513E+02  0.47747114818E+02  0.56780409120E+02  0.17770000000E+01 0. -1.
         15    1    1    2    0    0  0.19444892975E+01 -0.63261933940E+01  0.12157799763E+03  0.12177096944E+03  0.17770000000E+01 0. -1.
</event>
<event>
 6    1  0.1599106E-003  0.5063564E+03  0.7546771E-02  0.9385698E-01
        -11   -1    0    0    0    0  0.00000000000E+00  0.00000000000E+00  0.50000000000E+03  0.50000000000E+03  0.00000000000E+00 0.  1.
         11   -1    0    0    0    0 -0.00000000000E+00 -0.00000000000E+00 -0.50000000000E+03  0.50000000000E+03  0.00000000000E+00 0. -1.
        -11    1    1    2    0    0  0.97762184235E+01  0.10138327727E+02  0.48490856359E+03  0.48511305402E+03  0.00000000000E+00 0.  1.
         11    1    1    2    0    0 -0.86882862595E+01 -0.14501879819E+01 -0.49356502236E+03  0.49364361706E+03  0.00000000000E+00 0. -1.
        -15    1    1    2    0    0 -0.86311411670E+01 -0.22831319238E+01  0.24464717603E+01  0.94261467366E+01  0.17770000000E+01 0.  1.
         15    1    1    2    0    0  0.75432090029E+01 -0.64050078217E+01  0.62099870088E+01  0.11817182190E+02  0.17770000000E+01 0. -1.
</event>
<event>
 6    1  0.1599106E-003  0.5149067E+03  0.7546771E-02  0.9367059E-01
        -11   -1    0    0    0    0  0.00000000000E+00  0.00000000000E+00  0.50000000000E+03  0.50000000000E+03  0.00000000000E+00 0.  1.
         11   -1    0    0    0    0 -0.00000000000E+00 -0.00000000000E+00 -0.50000000000E+03  0.50000000000E+03  0.00000000000E+00 0.  1.
        -11    1    1    2    0    0  0.81583214182E+01  0.24996878750E+02  0.48438012523E+03  0.48509329811E+03  0.00000000000E+00 0.  1.
         11    1    1    2    0    0 -0.55510774631E+01  0.62163293610E+01 -0.46040741060E+03  0.46048283459E+03  0.00000000000E+00 0.  1.
        -15    1    1    2    0    0 -0.32000671253E+01 -0.11349939760E+01 -0.23983122294E+02  0.24287373775E+02  0.17770000000E+01 0. -1.
         15    1    1    2    0    0  0.59282317015E+00 -0.30078214135E+02  0.10407671205E-01  0.30136493528E+02  0.17770000000E+01 0.  1.
</event>
<event>
 6    1  0.1599106E-003  0.5519902E+03  0.7546771E-02  0.9290448E-01
        -11   -1    0    0    0    0  0.00000000000E+00  0.00000000000E+00  0.50000000000E+03  0.50000000000E+03  0.00000000000E+00 0.  1.
         11   -1    0    0    0    0 -0.00000000000E+00 -0.00000000000E+00 -0.50000000000E+03  0.50000000000E+03  0.00000000000E+00 0. -1.
        -11    1    1    2    0    0  0.50090783147E+02 -0.61511544003E+02  0.44093089710E+03  0.44800983541E+03  0.00000000000E+00 0.  1.
         11    1    1    2    0    0 -0.14203292164E+02 -0.20514304452E+02 -0.37524883739E+03  0.37607746563E+03  0.00000000000E+00 0. -1.
        -15    1    1    2    0    0 -0.46707785265E+02  0.80676693443E+02  0.15034716613E+02  0.94443350755E+02  0.17770000000E+01 0. -1.
         15    1    1    2    0    0  0.10820294282E+02  0.13491550116E+01 -0.80716776325E+02  0.81469348205E+02  0.17770000000E+01 0.  1.
</event>
<event>
 6    1  0.1599106E-003  0.5007606E+03  0.7546771E-02  0.9398109E-01
        -11   -1    0    0    0    0  0.00000000000E+00  0.00000000000E+00  0.50000000000E+03  0.50000000000E+03  0.00000000000E+00 0.  1.
         11   -1    0    0    0    0 -0.00000000000E+00 -0.00000000000E+00 -0.50000000000E+03  0.50000000000E+03  0.00000000000E+00 0. -1.
        -11    1    1    2    0    0  0.97671398813E+01 -0.28506947240E+01  0.42799259317E+03  0.42811351683E+03  0.00000000000E+00 0.  1.
         11    1    1    2    0    0 -0.10293506153E+02  0.14824352263E+01 -0.49913103042E+03  0.49923936084E+03  0.00000000000E+00 0. -1.
        -15    1    1    2    0    0  0.21511980034E+01 -0.15020344612E+01  0.28680566849E+01  0.42740190126E+01  0.17770000000E+01 0. -1.
         15    1    1    2    0    0 -0.16248317319E+01  0.28702939589E+01  0.68270380568E+02  0.68373103319E+02  0.17770000000E+01 0.  1.
</event>
<event>
 6    1  0.1599106E-003  0.5004412E+03  0.7546771E-02  0.9398823E-01
        -11   -1    0    0    0    0  0.00000000000E+00  0.00000000000E+00  0.50000000000E+03  0.50000000000E+03  0.00000000000E+00 0.  1.
         11   -1    0    0    0    0 -0.00000000000E+00 -0.00000000000E+00 -0.50000000000E+03  0.50000000000E+03  0.00000000000E+00 0.  1.
        -11    1    1    2    0    0 -0.69182520798E-01 -0.52253937389E+01  0.36075121273E+03  0.36078906165E+03  0.00000000000E+00 0.  1.
         11    1    1    2    0    0 -0.30506719061E+01 -0.62313037164E+01 -0.49951057712E+03  0.49955875771E+03  0.00000000000E+00 0.  1.
        -15    1    1    2    0    0  0.35674385059E+01  0.12850822782E+02  0.11676751095E+03  0.11754011913E+03  0.17770000000E+01 0. -1.
         15    1    1    2    0    0 -0.44758407899E+00 -0.13941253269E+01  0.21991853452E+02  0.22112061509E+02  0.17770000000E+01 0. -1.
</event>
<event>
 6    1  0.1599106E-003  0.5023407E+03  0.7546771E-02  0.9394587E-01
        -11   -1    0    0    0    0  0.00000000000E+00  0.00000000000E+00  0.50000000000E+03  0.50000000000E+03  0.00000000000E+00 0.  1.
         11   -1    0    0    0    0 -0.00000000000E+00 -0.00000000000E+00 -0.50000000000E+03  0.50000000000E+03  0.00000000000E+00 0. -1.
        -11    1    1    2    0    0 -0.23671385962E+01 -0.79062452599E+01  0.37729734302E+03  0.37738759533E+03  0.00000000000E+00 0.  1.
         11    1    1    2    0    0 -0.68965510704E+00  0.73709082719E+01 -0.49760426444E+03  0.49765933117E+03  0.00000000000E+00 0. -1.
        -15    1    1    2    0    0  0.12772077809E+01 -0.15901201508E+01  0.12144052498E+03  0.12147064904E+03  0.17770000000E+01 0.  1.
         15    1    1    2    0    0  0.17795859224E+01  0.21254571388E+01 -0.11336035600E+01  0.34824244622E+01  0.17770000000E+01 0. -1.
</event>
<event>
 6    1  0.1599106E-003  0.5026382E+03  0.7546771E-02  0.9393926E-01
        -11   -1    0    0    0    0  0.00000000000E+00  0.00000000000E+00  0.50000000000E+03  0.50000000000E+03  0.00000000000E+00 0.  1.
         11   -1    0    0    0    0 -0.00000000000E+00 -0.00000000000E+00 -0.50000000000E+03  0.50000000000E+03  0.00000000000E+00 0. -1.
        -11    1    1    2    0    0  0.15343604707E+02 -0.48423099538E+01  0.49710152976E+03  0.49736184520E+03  0.00000000000E+00 0.  1.
         11    1    1    2    0    0  0.20557954910E+01  0.10786120161E+02 -0.38004496208E+03  0.38020355060E+03  0.00000000000E+00 0. -1.
        -15    1    1    2    0    0  0.46332234185E+01 -0.60235204073E+01 -0.80598378074E+01  0.11219102987E+02  0.17770000000E+01 0.  1.
         15    1    1    2    0    0 -0.22032623616E+02  0.79710200287E-01 -0.10899672988E+03  0.11121550121E+03  0.17770000000E+01 0. -1.
</event>
<event>
 6    1  0.1599106E-003  0.5068888E+03  0.7546771E-02  0.9384526E-01
        -11   -1    0    0    0    0  0.00000000000E+00  0.00000000000E+00  0.50000000000E+03  0.50000000000E+03  0.00000000000E+00 0.  1.
         11   -1    0    0    0    0 -0.00000000000E+00 -0.00000000000E+00 -0.50000000000E+03  0.50000000000E+03  0.00000000000E+00 0.  1.
        -11    1    1    2    0    0 -0.15501091904E+01 -0.70903108834E+01  0.49305775011E+03  0.49311116423E+03  0.00000000000E+00 0.  1.
         11    1    1    2    0    0 -0.34611612293E+01  0.57320017017E+01 -0.48922515939E+03  0.48927098019E+03  0.00000000000E+00 0.  1.
        -15    1    1    2    0    0 -0.12122750983E+01  0.42114967975E+01 -0.80837253410E+01  0.93653969792E+01  0.17770000000E+01 0. -1.
         15    1    1    2    0    0  0.62235455180E+01 -0.28531876158E+01  0.42511346231E+01  0.82524586015E+01  0.17770000000E+01 0.  1.
</event>
<event>
 6    1  0.1599106E-003  0.5019155E+03  0.7546771E-02  0.9395534E-01
        -11   -1    0    0    0    0  0.00000000000E+00  0.00000000000E+00  0.50000000000E+03  0.50000000000E+03  0.00000000000E+00 0. -1.
         11   -1    0    0    0    0 -0.00000000000E+00 -0.00000000000E+00 -0.50000000000E+03  0.50000000000E+03  0.00000000000E+00 0. -1.
        -11    1    1    2    0    0  0.55700066951E+01 -0.10469537407E+02  0.33229086244E+03  0.33250241120E+03  0.00000000000E+00 0. -1.
         11    1    1    2    0    0  0.55458043520E+01  0.98093701719E+01 -0.49795700706E+03  0.49808449139E+03  0.00000000000E+00 0. -1.
        -15    1    1    2    0    0  0.27145192841E+01  0.43164190390E+01  0.13895896514E+03  0.13906384077E+03  0.17770000000E+01 0.  1.
         15    1    1    2    0    0 -0.13830330331E+02 -0.36562518035E+01  0.26707179469E+02  0.30349256639E+02  0.17770000000E+01 0. -1.
</event>
<event>
 6    1  0.1599106E-003  0.5007608E+03  0.7546771E-02  0.9398109E-01
        -11   -1    0    0    0    0  0.00000000000E+00  0.00000000000E+00  0.50000000000E+03  0.50000000000E+03  0.00000000000E+00 0.  1.
         11   -1    0    0    0    0 -0.00000000000E+00 -0.00000000000E+00 -0.50000000000E+03  0.50000000000E+03  0.00000000000E+00 0.  1.
        -11    1    1    2    0    0  0.21014081156E+00  0.69953080888E+01  0.40421570802E+03  0.40427628808E+03  0.00000000000E+00 0.  1.
         11    1    1    2    0    0 -0.94489219806E+01  0.19851744976E+01 -0.49914586787E+03  0.49923924170E+03  0.00000000000E+00 0.  1.
        -15    1    1    2    0    0  0.45106294394E+00  0.10484657095E+01  0.36386637436E+01  0.42071773153E+01  0.17770000000E+01 0. -1.
         15    1    1    2    0    0  0.87877182251E+01 -0.10028948296E+02  0.91291496108E+02  0.92277292906E+02  0.17770000000E+01 0.  1.
</event>
<event>
 6    1  0.1599106E-003  0.5052956E+03  0.7546771E-02  0.9388038E-01
        -11   -1    0    0    0    0  0.00000000000E+00  0.00000000000E+00  0.50000000000E+03  0.50000000000E+03  0.00000000000E+00 0.  1.
         11   -1    0    0    0    0 -0.00000000000E+00 -0.00000000000E+00 -0.50000000000E+03  0.50000000000E+03  0.00000000000E+00 0. -1.
        -11    1    1    2    0    0 -0.83463926244E+01  0.12155232040E+02  0.49448464532E+03  0.49470443337E+03  0.00000000000E+00 0.  1.
         11    1    1    2    0    0 -0.80991972980E+01 -0.75522535207E+00 -0.47150538854E+03  0.47157554939E+03  0.00000000000E+00 0. -1.
        -15    1    1    2    0    0  0.17044472921E+02 -0.70014884940E+01 -0.22149798654E+02  0.28867043626E+02  0.17770000000E+01 0. -1.
         15    1    1    2    0    0 -0.59888299897E+00 -0.43985181944E+01 -0.82945812639E+00  0.48529736179E+01  0.17770000000E+01 0.  1.
</event>
<event>
 6    1  0.1599106E-003  0.5475509E+03  0.7546771E-02  0.9299278E-01
        -11   -1    0    0    0    0  0.00000000000E+00  0.00000000000E+00  0.50000000000E+03  0.50000000000E+03  0.00000000000E+00 0.  1.
         11   -1    0    0    0    0 -0.00000000000E+00 -0.00000000000E+00 -0.50000000000E+03  0.50000000000E+03  0.00000000000E+00 0.  1.
        -11    1    1    2    0    0  0.16007666668E+00 -0.80915794969E+01  0.45237669934E+03  0.45244908817E+03  0.00000000000E+00 0.  1.
         11    1    1    2    0    0  0.55181298249E+01  0.11645468882E+02 -0.26188914594E+03  0.26220600959E+03  0.00000000000E+00 0.  1.
        -15    1    1    2    0    0  0.46838623562E+02  0.63430967291E+02 -0.24229103577E+01  0.78907366528E+02  0.17770000000E+01 0.  1.
         15    1    1    2    0    0 -0.52516830054E+02 -0.66984856677E+02 -0.18806464304E+03  0.20643753572E+03  0.17770000000E+01 0. -1.
</event>
<event>
 6    1  0.1599106E-003  0.4897888E+03  0.7546771E-02  0.9422953E-01
        -11   -1    0    0    0    0  0.00000000000E+00  0.00000000000E+00  0.50000000000E+03  0.50000000000E+03  0.00000000000E+00 0. -1.
         11   -1    0    0    0    0 -0.00000000000E+00 -0.00000000000E+00 -0.50000000000E+03  0.50000000000E+03  0.00000000000E+00 0. -1.
        -11    1    1    2    0    0  0.31911275832E+01 -0.73044843843E+01  0.48959854251E+03  0.48966342688E+03  0.00000000000E+00 0. -1.
         11    1    1    2    0    0  0.10866848491E+02  0.20257412398E+01 -0.48990452504E+03  0.49002921921E+03  0.00000000000E+00 0. -1.
        -15    1    1    2    0    0 -0.16029935820E+02  0.46215158858E+01  0.22844840319E+01  0.16932036137E+02  0.17770000000E+01 0. -1.
         15    1    1    2    0    0  0.19719597455E+01  0.65722725873E+00 -0.19785015095E+01  0.33753177822E+01  0.17770000000E+01 0.  1.
</event>
<event>
 6    1  0.1599106E-003  0.5001897E+03  0.7546771E-02  0.9399385E-01
        -11   -1    0    0    0    0  0.00000000000E+00  0.00000000000E+00  0.50000000000E+03  0.50000000000E+03  0.00000000000E+00 0. -1.
         11   -1    0    0    0    0 -0.00000000000E+00 -0.00000000000E+00 -0.50000000000E+03  0.50000000000E+03  0.00000000000E+00 0.  1.
        -11    1    1    2    0    0  0.83415134378E+00 -0.31859746285E+01  0.17136965551E+03  0.17140129834E+03  0.00000000000E+00 0. -1.
         11    1    1    2    0    0 -0.13792099088E+01 -0.70306138962E+01 -0.49975892720E+03  0.49981028108E+03  0.00000000000E+00 0.  1.
        -15    1    1    2    0    0 -0.26623409653E+01  0.21204516351E+01  0.27373271185E+02  0.27641238737E+02  0.17770000000E+01 0.  1.
         15    1    1    2    0    0  0.32073995304E+01  0.80961368896E+01  0.30101600051E+03  0.30114718185E+03  0.17770000000E+01 0. -1.
</event>
<event>
 6    1  0.1599106E-003  0.5000555E+03  0.7546771E-02  0.9399686E-01
        -11   -1    0    0    0    0  0.00000000000E+00  0.00000000000E+00  0.50000000000E+03  0.50000000000E+03  0.00000000000E+00 0. -1.
         11   -1    0    0    0    0 -0.00000000000E+00 -0.00000000000E+00 -0.50000000000E+03  0.50000000000E+03  0.00000000000E+00 0. -1.
        -11    1    1    2    0    0  0.15045363025E+01 -0.48600828657E+00  0.88065278098E+02  0.88079470026E+02  0.00000000000E+00 0. -1.
         11    1    1    2    0    0 -0.46982376492E+01 -0.64218184888E+01 -0.49988118711E+03  0.49994451133E+03  0.00000000000E+00 0. -1.
        -15    1    1    2    0    0  0.15614074740E+01  0.48050588959E+01  0.36965626923E+03  0.36969506582E+03  0.17770000000E+01 0. -1.
         15    1    1    2    0    0  0.16322938727E+01  0.21027678794E+01  0.42159639777E+02  0.42280952818E+02  0.17770000000E+01 0.  1.
</event>
<event>
 6    1  0.1599106E-003  0.4928823E+03  0.7546771E-02  0.9415878E-01
        -11   -1    0    0    0    0  0.00000000000E+00  0.00000000000E+00  0.50000000000E+03  0.50000000000E+03  0.00000000000E+00 0.  1.
         11   -1    0    0    0    0 -0.00000000000E+00 -0.00000000000E+00 -0.50000000000E+03  0.50000000000E+03  0.00000000000E+00 0.  1.
        -11    1    1    2    0    0 -0.26349985940E+01  0.76789309994E+01  0.49350290372E+03  0.49356967611E+03  0.00000000000E+00 0.  1.
         11    1    1    2    0    0  0.74413935094E+01 -0.25556135597E+01 -0.49215797838E+03  0.49222086626E+03  0.00000000000E+00 0.  1.
        -15    1    1    2    0    0  0.12721184992E+01 -0.58426425927E+01  0.25509558108E+01  0.67394259763E+01  0.17770000000E+01 0.  1.
         15    1    1    2    0    0 -0.60785134146E+01  0.71932515291E+00 -0.38958811493E+01  0.74700316557E+01  0.17770000000E+01 0. -1.
</event>
<event>
 6    1  0.1599106E-003  0.5018846E+03  0.7546771E-02  0.9395603E-01
        -11   -1    0    0    0    0  0.00000000000E+00  0.00000000000E+00  0.50000000000E+03  0.50000000000E+03  0.00000000000E+00 0. -1.
         11   -1    0    0    0    0 -0.00000000000E+00 -0.00000000000E+00 -0.50000000000E+03  0.50000000000E+03  0.00000000000E+00 0.  1.
        -11    1    1    2    0    0 -0.26221857846E+01 -0.79433270103E+01  0.42137995352E+03  0.42146297291E+03  0.00000000000E+00 0. -1.
         11    1    1    2    0    0  0.89603169653E+01 -0.54010161128E+01 -0.49800555063E+03  0.49811543513E+03  0.00000000000E+00 0.  1.
        -15    1    1    2    0    0  0.32813563742E+01  0.75065169941E+01  0.11082325721E+02  0.13895710469E+02  0.17770000000E+01 0.  1.
         15    1    1    2    0    0 -0.96194875548E+01  0.58378261290E+01  0.65543271389E+02  0.66525881491E+02  0.17770000000E+01 0. -1.
</event>
<event>
 6    1  0.1599106E-003  0.5298899E+03  0.7546771E-02  0.9335306E-01
        -11   -1    0    0    0    0  0.00000000000E+00  0.00000000000E+00  0.50000000000E+03  0.50000000000E+03  0.00000000000E+00 0. -1.
         11   -1    0    0    0    0 -0.00000000000E+00 -0.00000000000E+00 -0.50000000000E+03  0.50000000000E+03  0.00000000000E+00 0.  1.
        -11    1    1    2    0    0 -0.23118294151E+02  0.93232380542E+01  0.46944878380E+03  0.47011013487E+03  0.00000000000E+00 0. -1.
         11    1    1    2    0    0  0.31360504681E+02 -0.10706671165E+00 -0.42357539963E+03  0.42473475475E+03  0.00000000000E+00 0.  1.
        -15    1    1    2    0    0  0.15856650311E+02  0.16817813783E+02  0.19802718838E+02  0.30488975415E+02  0.17770000000E+01 0. -1.
         15    1    1    2    0    0 -0.24098860840E+02 -0.26033985125E+02 -0.65676103007E+02  0.74666134964E+02  0.17770000000E+01 0.  1.
</event>
<event>
 6    1  0.1599106E-003  0.5008767E+03  0.7546771E-02  0.9397850E-01
        -11   -1    0    0    0    0  0.00000000000E+00  0.00000000000E+00  0.50000000000E+03  0.50000000000E+03  0.00000000000E+00 0. -1.
         11   -1    0    0    0    0 -0.00000000000E+00 -0.00000000000E+00 -0.50000000000E+03  0.50000000000E+03  0.00000000000E+00 0.  1.
        -11    1    1    2    0    0  0.28439536697E+02 -0.27960154437E+01  0.49830460206E+03  0.49912333284E+03  0.00000000000E+00 0. -1.
         11    1    1    2    0    0 -0.17710394724E+02 -0.29918585922E+01 -0.24075824628E+03  0.24142730262E+03  0.00000000000E+00 0.  1.
        -15    1    1    2    0    0 -0.12466935781E+02  0.11408724334E+02 -0.79441158423E+02  0.81238161349E+02  0.17770000000E+01 0. -1.
         15    1    1    2    0    0  0.17377938068E+01 -0.56208502977E+01 -0.17810519736E+03  0.17821120318E+03  0.17770000000E+01 0.  1.
</event>
<event>
 6    1  0.1599106E-003  0.5028924E+03  0.7546771E-02  0.9393361E-01
        -11   -1    0    0    0    0  0.00000000000E+00  0.00000000000E+00  0.50000000000E+03  0.50000000000E+03  0.00000000000E+00 0.  1.
         11   -1    0    0    0    0 -0.00000000000E+00 -0.00000000000E+00 -0.50000000000E+03  0.50000000000E+03  0.00000000000E+00 0. -1.
        -11    1    1    2    0    0  0.73766876674E+01 -0.62441733223E+01  0.49701364891E+03  0.49710760649E+03  0.00000000000E+00 0.  1.
         11    1    1    2    0    0 -0.13874692469E+02 -0.15467404080E+02 -0.40511163210E+03  0.40564415705E+03  0.00000000000E+00 0. -1.
        -15    1    1    2    0    0  0.66766412088E+01 -0.19836746944E+01 -0.13114229483E+02  0.14955040857E+02  0.17770000000E+01 0.  1.
         15    1    1    2    0    0 -0.17863640754E+00  0.23695252097E+02 -0.78787787325E+02  0.82293195609E+02  0.17770000000E+01 0. -1.
</event>
<event>
 6    1  0.1599106E-003  0.4970118E+03  0.7546771E-02  0.9406521E-01
        -11   -1    0    0    0    0  0.00000000000E+00  0.00000000000E+00  0.50000000000E+03  0.50000000000E+03  0.00000000000E+00 0.  1.
         11   -1    0    0    0    0 -0.00000000000E+00 -0.00000000000E+00 -0.50000000000E+03  0.50000000000E+03  0.00000000000E+00 0. -1.
        -11    1    1    2    0    0  0.57329281899E+00 -0.93450168690E+00  0.82568413346E+01  0.83293089080E+01  0.00000000000E+00 0.  1.
         11    1    1    2    0    0 -0.44194146274E+01  0.97280959813E+01 -0.49865567565E+03  0.49877013737E+03  0.00000000000E+00 0. -1.
        -15    1    1    2    0    0 -0.20265709226E+02 -0.82126051566E+01  0.32540676816E+03  0.32614547115E+03  0.17770000000E+01 0.  1.
         15    1    1    2    0    0  0.24111831034E+02 -0.58098913778E+00  0.16499206615E+03  0.16675508258E+03  0.17770000000E+01 0. -1.
</event>
<event>
 6    1  0.1599106E-003  0.5011326E+03  0.7546771E-02  0.9397279E-01
        -11   -1    0    0    0    0  0.00000000000E+00  0.00000000000E+00  0.50000000000E+03  0.50000000000E+03  0.00000000000E+00 0.  1.
         11   -1    0    0    0    0 -0.00000000000E+00 -0.00000000000E+00 -0.50000000000E+03  0.50000000000E+03  0.00000000000E+00 0.  1.
        -11    1    1    2    0    0  0.14827893566E+02 -0.24733229775E+01  0.30035431649E+03  0.30073027647E+03  0.00000000000E+00 0.  1.
         11    1    1    2    0    0 -0.99360819941E+01 -0.20371610723E+02 -0.49835223743E+03  0.49886739801E+03  0.00000000000E+00 0.  1.
        -15    1    1    2    0    0 -0.59876507836E+01 -0.15593432983E+01  0.38406243228E+02  0.38942017941E+02  0.17770000000E+01 0. -1.
         15    1    1    2    0    0  0.10958392120E+01  0.24404276999E+02  0.15959167771E+03  0.16146030758E+03  0.17770000000E+01 0.  1.
</event>
<event>
 6    1  0.1599106E-003  0.5008687E+03  0.7546771E-02  0.9397868E-01
        -11   -1    0    0    0    0  0.00000000000E+00  0.00000000000E+00  0.50000000000E+03  0.50000000000E+03  0.00000000000E+00 0. -1.
         11   -1    0    0    0    0 -0.00000000000E+00 -0.00000000000E+00 -0.50000000000E+03  0.50000000000E+03  0.00000000000E+00 0.  1.
        -11    1    1    2    0    0  0.35255474320E+01 -0.13656964253E+01  0.27237877063E+03  0.27240500968E+03  0.00000000000E+00 0. -1.
         11    1    1    2    0    0  0.79396622664E+01 -0.12096037086E+01 -0.49906672779E+03  0.49913134560E+03  0.00000000000E+00 0.  1.
        -15    1    1    2    0    0 -0.58638117276E+01  0.10413798837E+01  0.21659572272E+03  0.21668487162E+03  0.17770000000E+01 0. -1.
         15    1    1    2    0    0 -0.56013979708E+01  0.15339202503E+01  0.10092234443E+02  0.11778773094E+02  0.17770000000E+01 0.  1.
</event>
<event>
 6    1  0.1599106E-003  0.5004608E+03  0.7546771E-02  0.9398779E-01
        -11   -1    0    0    0    0  0.00000000000E+00  0.00000000000E+00  0.50000000000E+03  0.50000000000E+03  0.00000000000E+00 0.  1.
         11   -1    0    0    0    0 -0.00000000000E+00 -0.00000000000E+00 -0.50000000000E+03  0.50000000000E+03  0.00000000000E+00 0. -1.
        -11    1    1    2    0    0  0.90880099142E+01  0.38177922726E+01  0.49944188843E+03  0.49953915500E+03  0.00000000000E+00 0.  1.
         11    1    1    2    0    0 -0.10845737951E+02  0.40490354013E+01 -0.19536549921E+03  0.19570820883E+03  0.00000000000E+00 0. -1.
        -15    1    1    2    0    0 -0.45818064234E+01 -0.86391035893E+01 -0.85500493147E+02  0.86076240150E+02  0.17770000000E+01 0.  1.
         15    1    1    2    0    0  0.63395344605E+01  0.77227591533E+00 -0.21857589607E+03  0.21867639602E+03  0.17770000000E+01 0. -1.
</event>
<event>
 6    1  0.1599106E-003  0.5043311E+03  0.7546771E-02  0.9390170E-01
        -11   -1    0    0    0    0  0.00000000000E+00  0.00000000000E+00  0.50000000000E+03  0.50000000000E+03  0.00000000000E+00 0. -1.
         11   -1    0    0    0    0 -0.00000000000E+00 -0.00000000000E+00 -0.50000000000E+03  0.50000000000E+03  0.00000000000E+00 0.  1.
        -11    1    1    2    0    0 -0.66124599220E+01 -0.69980666022E+01  0.49557536647E+03  0.49566888284E+03  0.00000000000E+00 0. -1.
         11    1    1    2    0    0 -0.23676546815E+00  0.75507961025E+01 -0.48033299607E+03  0.48039239971E+03  0.00000000000E+00 0.  1.
        -15    1    1    2    0    0  0.10228540416E+02 -0.39748615954E+01 -0.15174815510E+02  0.18811042462E+02  0.17770000000E+01 0.  1.
         15    1    1    2    0    0 -0.33793150257E+01  0.34221320951E+01 -0.67554888507E-01  0.51276749879E+01  0.17770000000E+01 0. -1.
</event>
<event>
 6    1  0.1599106E-003  0.5011580E+03  0.7546771E-02  0.9397222E-01
        -11   -1    0    0    0    0  0.00000000000E+00  0.00000000000E+00  0.50000000000E+03  0.50000000000E+03  0.00000000000E+00 0.  1.
         11   -1    0    0    0    0 -0.00000000000E+00 -0.00000000000E+00 -0.50000000000E+03  0.50000000000E+03  0.00000000000E+00 0. -1.
        -11    1    1    2    0    0  0.81221192252E+01 -0.14143678373E+02  0.31055201481E+03  0.31098000959E+03  0.00000000000E+00 0.  1.
         11    1    1    2    0    0  0.26673637295E+01  0.16488510465E+02 -0.49856224148E+03  0.49884195336E+03  0.00000000000E+00 0. -1.
        -15    1    1    2    0    0  0.17786239198E+01  0.10220741826E+02  0.82167114874E+02  0.82838514968E+02  0.17770000000E+01 0. -1.
         15    1    1    2    0    0 -0.12568106874E+02 -0.12565573917E+02  0.10584311179E+03  0.10733952208E+03  0.17770000000E+01 0.  1.
</event>
<event>
 6    1  0.1599106E-003  0.5046748E+03  0.7546771E-02  0.9389410E-01
        -11   -1    0    0    0    0  0.00000000000E+00  0.00000000000E+00  0.50000000000E+03  0.50000000000E+03  0.00000000000E+00 0. -1.
         11   -1    0    0    0    0 -0.00000000000E+00 -0.00000000000E+00 -0.50000000000E+03  0.50000000000E+03  0.00000000000E+00 0.  1.
        -11    1    1    2    0    0  0.16339351114E+02 -0.11594523856E+01  0.41038067594E+03  0.41070746026E+03  0.00000000000E+00 0. -1.
         11    1    1    2    0    0 -0.18838896128E+02  0.17685534836E+01 -0.49496363956E+03  0.49532518236E+03  0.00000000000E+00 0.  1.
        -15    1    1    2    0    0  0.18735917498E+02  0.63316968275E+01  0.62832406417E+02  0.65895326195E+02  0.17770000000E+01 0. -1.
         15    1    1    2    0    0 -0.16236372484E+02 -0.69407979255E+01  0.21750557203E+02  0.28072031186E+02  0.17770000000E+01 0.  1.
</event>
<event>
 6    1  0.1599106E-003  0.5108428E+03  0.7546771E-02  0.9375870E-01
        -11   -1    0    0    0    0  0.00000000000E+00  0.00000000000E+00  0.50000000000E+03  0.50000000000E+03  0.00000000000E+00 0.  1.
         11   -1    0    0    0    0 -0.00000000000E+00 -0.00000000000E+00 -0.50000000000E+03  0.50000000000E+03  0.00000000000E+00 0.  1.
        -11    1    1    2    0    0  0.78211469099E+01  0.98517109511E+01  0.48899540800E+03  0.48915716860E+03  0.00000000000E+00 0.  1.
         11    1    1    2    0    0  0.65062003872E+01 -0.52000928523E+01 -0.46830047837E+03  0.46837453992E+03  0.00000000000E+00 0.  1.
        -15    1    1    2    0    0 -0.16819371844E+02 -0.15497797615E+02 -0.21132616547E+02  0.31190033845E+02  0.17770000000E+01 0.  1.
         15    1    1    2    0    0  0.24920245473E+01  0.10846179516E+02  0.43768691448E+00  0.11278257634E+02  0.17770000000E+01 0. -1.
</event>
<event>
 6    1  0.1599106E-003  0.5104803E+03  0.7546771E-02  0.9376660E-01
        -11   -1    0    0    0    0  0.00000000000E+00  0.00000000000E+00  0.50000000000E+03  0.50000000000E+03  0.00000000000E+00 0.  1.
         11   -1    0    0    0    0 -0.00000000000E+00 -0.00000000000E+00 -0.50000000000E+03  0.50000000000E+03  0.00000000000E+00 0. -1.
        -11    1    1    2    0    0 -0.11181355925E+01 -0.93238593068E+01  0.42622473136E+03  0.42632816726E+03  0.00000000000E+00 0.  1.
         11    1    1    2    0    0  0.82253110846E+01  0.57564090865E+01 -0.48941673999E+03  0.48951970070E+03  0.00000000000E+00 0. -1.
        -15    1    1    2    0    0  0.19526787497E+01  0.66431066492E+01  0.71194812563E+02  0.71552797885E+02  0.17770000000E+01 0.  1.
         15    1    1    2    0    0 -0.90598542418E+01 -0.30756564288E+01 -0.80028039338E+01  0.12599334155E+02  0.17770000000E+01 0. -1.
</event>
<event>
 6    1  0.1599106E-003  0.5011600E+03  0.7546771E-02  0.9397218E-01
        -11   -1    0    0    0    0  0.00000000000E+00  0.00000000000E+00  0.50000000000E+03  0.50000000000E+03  0.00000000000E+00 0.  1.
         11   -1    0    0    0    0 -0.00000000000E+00 -0.00000000000E+00 -0.50000000000E+03  0.50000000000E+03  0.00000000000E+00 0. -1.
        -11    1    1    2    0    0 -0.24175240427E+01 -0.49228617054E+01  0.38572462521E+03  0.38576361348E+03  0.00000000000E+00 0.  1.
         11    1    1    2    0    0 -0.56952589005E+01 -0.73741700840E+01 -0.49875300519E+03  0.49884002901E+03  0.00000000000E+00 0. -1.
        -15    1    1    2    0    0  0.14783136916E+01  0.17556582094E+01  0.80002155395E+02  0.80054795883E+02  0.17770000000E+01 0.  1.
         15    1    1    2    0    0  0.66344692517E+01  0.10541373580E+02  0.33026224582E+02  0.35341561628E+02  0.17770000000E+01 0. -1.
</event>
<event>
 6    1  0.1599106E-003  0.5033354E+03  0.7546771E-02  0.9392377E-01
        -11   -1    0    0    0    0  0.00000000000E+00  0.00000000000E+00  0.50000000000E+03  0.50000000000E+03  0.00000000000E+00 0. -1.
         11   -1    0    0    0    0 -0.00000000000E+00 -0.00000000000E+00 -0.50000000000E+03  0.50000000000E+03  0.00000000000E+00 0.  1.
        -11    1    1    2    0    0 -0.11852589508E+02 -0.70237490169E+01  0.49647342307E+03  0.49666455153E+03  0.00000000000E+00 0. -1.
         11    1    1    2    0    0  0.33191397964E+00  0.26470122066E+02 -0.27815996592E+03  0.27941679292E+03  0.00000000000E+00 0.  1.
        -15    1    1    2    0    0  0.27398176909E+01 -0.29980661355E+02 -0.19033333715E+03  0.19270776740E+03  0.17770000000E+01 0.  1.
         15    1    1    2    0    0  0.87808578376E+01  0.10534288306E+02 -0.27980120007E+02  0.31210888150E+02  0.17770000000E+01 0. -1.
</event>
<event>
 6    1  0.1599106E-003  0.5715579E+03  0.7546771E-02  0.9252550E-01
        -11   -1    0    0    0    0  0.00000000000E+00  0.00000000000E+00  0.50000000000E+03  0.50000000000E+03  0.00000000000E+00 0. -1.
         11   -1    0    0    0    0 -0.00000000000E+00 -0.00000000000E+00 -0.50000000000E+03  0.50000000000E+03  0.00000000000E+00 0. -1.
        -11    1    1    2    0    0  0.28684964379E+02  0.66119888118E+01  0.36943297741E+03  0.37060392655E+03  0.00000000000E+00 0. -1.
         11    1    1    2    0    0 -0.32822044557E+01 -0.51066425680E+02 -0.42537520605E+03  0.42844208316E+03  0.00000000000E+00 0. -1.
        -15    1    1    2    0    0 -0.85408804036E+02  0.40113406802E+02  0.91164062232E+02  0.13121658883E+03  0.17770000000E+01 0.  1.
         15    1    1    2    0    0  0.60006044113E+02  0.43410300666E+01 -0.35221833591E+02  0.69737401462E+02  0.17770000000E+01 0. -1.
</event>
<event>
 6    1  0.1599106E-003  0.5017317E+03  0.7546771E-02  0.9395943E-01
        -11   -1    0    0    0    0  0.00000000000E+00  0.00000000000E+00  0.50000000000E+03  0.50000000000E+03  0.00000000000E+00 0. -1.
         11   -1    0    0    0    0 -0.00000000000E+00 -0.00000000000E+00 -0.50000000000E+03  0.50000000000E+03  0.00000000000E+00 0.  1.
        -11    1    1    2    0    0 -0.68478376726E+01 -0.11331823151E+02  0.39885749749E+03  0.39907719353E+03  0.00000000000E+00 0. -1.
         11    1    1    2    0    0 -0.88267620855E+01 -0.29792850977E+01 -0.49818124516E+03  0.49826834226E+03  0.00000000000E+00 0.  1.
        -15    1    1    2    0    0  0.49035634460E+01 -0.21969181273E+01  0.14814063576E+02  0.15858297272E+02  0.17770000000E+01 0. -1.
         15    1    1    2    0    0  0.10771036312E+02  0.16508026376E+02  0.84509684101E+02  0.86796166931E+02  0.17770000000E+01 0.  1.
</event>
<event>
 6    1  0.1599106E-003  0.5070170E+03  0.7546771E-02  0.9384244E-01
        -11   -1    0    0    0    0  0.00000000000E+00  0.00000000000E+00  0.50000000000E+03  0.50000000000E+03  0.00000000000E+00 0.  1.
         11   -1    0    0    0    0 -0.00000000000E+00 -0.00000000000E+00 -0.50000000000E+03  0.50000000000E+03  0.00000000000E+00 0. -1.
        -11    1    1    2    0    0  0.35617070106E+01 -0.13461266111E+02  0.44335356709E+03  0.44357217777E+03  0.00000000000E+00 0.  1.
         11    1    1    2    0    0  0.69207459859E+01  0.29614741805E+01 -0.49292553311E+03  0.49298301010E+03  0.00000000000E+00 0. -1.
        -15    1    1    2    0    0  0.47358243615E+01  0.80968330678E+01  0.46707910652E+02  0.47673613085E+02  0.17770000000E+01 0.  1.
         15    1    1    2    0    0 -0.15218277358E+02  0.24029588629E+01  0.28640553734E+01  0.15771199042E+02  0.17770000000E+01 0. -1.
</event>
<event>
 6    1  0.1599106E-003  0.5005965E+03  0.7546771E-02  0.9398476E-01
        -11   -1    0    0    0    0  0.00000000000E+00  0.00000000000E+00  0.50000000000E+03  0.50000000000E+03  0.00000000000E+00 0.  1.
         11   -1    0    0    0    0 -0.00000000000E+00 -0.00000000000E+00 -0.50000000000E+03  0.50000000000E+03  0.00000000000E+00 0.  1.
        -11    1    1    2    0    0  0.55811555287E+01  0.41017002092E+01  0.37648440333E+03  0.37654811007E+03  0.00000000000E+00 0.  1.
         11    1    1    2    0    0 -0.53088614249E+01  0.44346712727E+01 -0.49935563777E+03  0.49940354754E+03  0.00000000000E+00 0.  1.
        -15    1    1    2    0    0  0.38781090668E+01 -0.10968619967E+02  0.92745909236E+02  0.93489634521E+02  0.17770000000E+01 0. -1.
         15    1    1    2    0    0 -0.41504031706E+01  0.24322484851E+01  0.30125325206E+02  0.30558707874E+02  0.17770000000E+01 0. -1.
</event>
<event>
 6    1  0.1599106E-003  0.4954581E+03  0.7546771E-02  0.9410030E-01
        -11   -1    0    0    0    0  0.00000000000E+00  0.00000000000E+00  0.50000000000E+03  0.50000000000E+03  0.00000000000E+00 0. -1.
         11   -1    0    0    0    0 -0.00000000000E+00 -0.00000000000E+00 -0.50000000000E+03  0.50000000000E+03  0.00000000000E+00 0. -1.
        -11    1    1    2    0    0 -0.49255712041E+01  0.19226335674E+02  0.49922095092E+03  0.49961532310E+03  0.00000000000E+00 0. -1.
         11    1    1    2    0    0 -0.12472829601E+01 -0.18115506306E+01 -0.93363127631E+01  0.95918802370E+01  0.00000000000E+00 0. -1.
        -15    1    1    2    0    0  0.90321196338E+01  0.32130877869E+00 -0.83324020489E+02  0.83831572476E+02  0.17770000000E+01 0.  1.
         15    1    1    2    0    0 -0.28592654696E+01 -0.17736093822E+02 -0.40656061767E+03  0.40696122419E+03  0.17770000000E+01 0. -1.
</event>
<event>
 6    1  0.1599106E-003  0.5144920E+03  0.7546771E-02  0.9367954E-01
        -11   -1    0    0    0    0  0.00000000000E+00  0.00000000000E+00  0.50000000000E+03  0.50000000000E+03  0.00000000000E+00 0. -1.
         11   -1    0    0    0    0 -0.00000000000E+00 -0.00000000000E+00 -0.50000000000E+03  0.50000000000E+03  0.00000000000E+00 0.  1.
        -11    1    1    2    0    0  0.41462289105E+01  0.10433011960E+02  0.48537822947E+03  0.48550804792E+03  0.00000000000E+00 0. -1.
         11    1    1    2    0    0  0.10332958416E+02 -0.30235243892E+01 -0.47209490854E+03  0.47221765575E+03  0.00000000000E+00 0.  1.
        -15    1    1    2    0    0 -0.17064134978E+02 -0.40642229425E+01 -0.24483740915E+02  0.30171408798E+02  0.17770000000E+01 0.  1.
         15    1    1    2    0    0  0.25849476517E+01 -0.33452646279E+01  0.11200419984E+02  0.12102887532E+02  0.17770000000E+01 0. -1.
</event>
<event>
 6    1  0.1599106E-003  0.5217965E+03  0.7546771E-02  0.9352317E-01
        -11   -1    0    0    0    0  0.00000000000E+00  0.00000000000E+00  0.50000000000E+03  0.50000000000E+03  0.00000000000E+00 0.  1.
         11   -1    0    0    0    0 -0.00000000000E+00 -0.00000000000E+00 -0.50000000000E+03  0.50000000000E+03  0.00000000000E+00 0.  1.
        -11    1    1    2    0    0 -0.24324899134E+01 -0.70406613767E+01  0.39329760745E+03  0.39336814302E+03  0.00000000000E+00 0.  1.
         11    1    1    2    0    0  0.16747868576E+02  0.39528793951E+00 -0.47790995365E+03  0.47820348300E+03  0.00000000000E+00 0.  1.
        -15    1    1    2    0    0 -0.20356265664E+02  0.78318343054E+01 -0.16316370394E+02  0.27296462266E+02  0.17770000000E+01 0.  1.
         15    1    1    2    0    0  0.60408870023E+01 -0.11864608682E+01  0.10092871659E+03  0.10113191171E+03  0.17770000000E+01 0. -1.
</event>
<event>
 6    1  0.1599106E-003  0.5001297E+03  0.7546771E-02  0.9399519E-01
        -11   -1    0    0    0    0  0.00000000000E+00  0.00000000000E+00  0.50000000000E+03  0.50000000000E+03  0.00000000000E+00 0.  1.
         11   -1    0    0    0    0 -0.00000000000E+00 -0.00000000000E+00 -0.50000000000E+03  0.50000000000E+03  0.00000000000E+00 0. -1.
        -11    1    1    2    0    0  0.28627085095E+01  0.77946571233E+01  0.49980129863E+03  0.49987027306E+03  0.00000000000E+00 0.  1.
         11    1    1    2    0    0 -0.15668867761E+01  0.22261916414E+01 -0.15664283202E+03  0.15666648616E+03  0.00000000000E+00 0. -1.
        -15    1    1    2    0    0 -0.80741007607E+00 -0.51679845601E+01 -0.28984766020E+03  0.28990029981E+03  0.17770000000E+01 0. -1.
         15    1    1    2    0    0 -0.48841165730E+00 -0.48528642046E+01 -0.53310806407E+02  0.53562940973E+02  0.17770000000E+01 0.  1.
</event>
<event>
 6    1  0.1599106E-003  0.4790381E+03  0.7546771E-02  0.9447975E-01
        -11   -1    0    0    0    0  0.00000000000E+00  0.00000000000E+00  0.50000000000E+03  0.50000000000E+03  0.00000000000E+00 0.  1.
         11   -1    0    0    0    0 -0.00000000000E+00 -0.00000000000E+00 -0.50000000000E+03  0.50000000000E+03  0.00000000000E+00 0.  1.
        -11    1    1    2    0    0 -0.88192075166E+01  0.10242399921E+02  0.47534839908E+03  0.47554051950E+03  0.00000000000E+00 0.  1.
         11    1    1    2    0    0 -0.95389201995E+01 -0.35564600217E+01 -0.48265544293E+03  0.48276279476E+03  0.00000000000E+00 0.  1.
        -15    1    1    2    0    0  0.12410744401E+02 -0.74952637293E+01  0.21610166573E+02  0.26083760911E+02  0.17770000000E+01 0. -1.
         15    1    1    2    0    0  0.59473833152E+01  0.80932383028E+00 -0.14303122719E+02  0.15612924834E+02  0.17770000000E+01 0.  1.
</event>
<event>
 6    1  0.1599106E-003  0.5005584E+03  0.7546771E-02  0.9398561E-01
        -11   -1    0    0    0    0  0.00000000000E+00  0.00000000000E+00  0.50000000000E+03  0.50000000000E+03  0.00000000000E+00 0. -1.
         11   -1    0    0    0    0 -0.00000000000E+00 -0.00000000000E+00 -0.50000000000E+03  0.50000000000E+03  0.00000000000E+00 0. -1.
        -11    1    1    2    0    0  0.31087593632E+01  0.78511250100E+01  0.49937025577E+03  0.49944164514E+03  0.00000000000E+00 0. -1.
         11    1    1    2    0    0  0.59260637670E+01  0.92869970569E+00 -0.34992227988E+03  0.34997368854E+03  0.00000000000E+00 0. -1.
        -15    1    1    2    0    0 -0.50667841118E+01 -0.53401106257E+01 -0.27874433910E+02  0.28884786264E+02  0.17770000000E+01 0.  1.
         15    1    1    2    0    0 -0.39680390184E+01 -0.34397140900E+01 -0.12157354198E+03  0.12169988005E+03  0.17770000000E+01 0. -1.
</event>
<event>
 6    1  0.1599106E-003  0.5003598E+03  0.7546771E-02  0.9399005E-01
        -11   -1    0    0    0    0  0.00000000000E+00  0.00000000000E+00  0.50000000000E+03  0.50000000000E+03  0.00000000000E+00 0. -1.
         11   -1    0    0    0    0 -0.00000000000E+00 -0.00000000000E+00 -0.50000000000E+03  0.50000000000E+03  0.00000000000E+00 0. -1.
        -11    1    1    2    0    0 -0.47908145628E+01 -0.58783481244E+01  0.22734529408E+03  0.22747173368E+03  0.00000000000E+00 0. -1.
         11    1    1    2    0    0 -0.12143034253E+02 -0.23524772511E+01 -0.49948704902E+03  0.49964017009E+03  0.00000000000E+00 0. -1.
        -15    1    1    2    0    0  0.35574178198E+01  0.23505020250E+01  0.10426248843E+03  0.10436476563E+03  0.17770000000E+01 0. -1.
         15    1    1    2    0    0  0.13376430995E+02  0.58803233505E+01  0.16787926650E+03  0.16852333061E+03  0.17770000000E+01 0.  1.
</event>
<event>
 6    1  0.1599106E-003  0.5004499E+03  0.7546771E-02  0.9398804E-01
        -11   -1    0    0    0    0  0.00000000000E+00  0.00000000000E+00  0.50000000000E+03  0.50000000000E+03  0.00000000000E+00 0.  1.
         11   -1    0    0    0    0 -0.00000000000E+00 -0.00000000000E+00 -0.50000000000E+03  0.50000000000E+03  0.00000000000E+00 0. -1.
        -11    1    1    2    0    0 -0.41623557110E+01  0.14599965831E+01  0.25862769118E+03  0.25866530390E+03  0.00000000000E+00 0.  1.
         11    1    1    2    0    0  0.51997881405E+01 -0.96866404171E+01 -0.49942911180E+03  0.49955010411E+03  0.00000000000E+00 0. -1.
        -15    1    1    2    0    0  0.41554499780E+01 -0.24243735195E+01  0.16165476863E+03  0.16173610389E+03  0.17770000000E+01 0. -1.
         15    1    1    2    0    0 -0.51928824075E+01  0.10651017353E+02  0.79146651987E+02  0.80048488106E+02  0.17770000000E+01 0.  1.
</event>
<event>
 6    1  0.1599106E-003  0.5051902E+03  0.7546771E-02  0.9388270E-01
        -11   -1    0    0    0    0  0.00000000000E+00  0.00000000000E+00  0.50000000000E+03  0.50000000000E+03  0.00000000000E+00 0.  1.
         11   -1    0    0    0    0 -0.00000000000E+00 -0.00000000000E+00 -0.50000000000E+03  0.50000000000E+03  0.00000000000E+00 0. -1.
        -11    1    1    2    0    0 -0.10571028357E+02 -0.27008896477E+01  0.49468944630E+03  0.49480975104E+03  0.00000000000E+00 0.  1.
         11    1    1    2    0    0  0.79312052900E+01  0.85510877547E+01 -0.43741091507E+03  0.43756637638E+03  0.00000000000E+00 0. -1.
        -15    1    1    2    0    0 -0.15752609249E+02  0.13431786679E+01 -0.29148595722E+02  0.33207637504E+02  0.17770000000E+01 0.  1.
         15    1    1    2    0    0  0.18392432316E+02 -0.71933767749E+01 -0.28129935512E+02  0.34416235077E+02  0.17770000000E+01 0.  1.
</event>
<event>
 6    1  0.1599106E-003  0.4828723E+03  0.7546771E-02  0.9438971E-01
        -11   -1    0    0    0    0  0.00000000000E+00  0.00000000000E+00  0.50000000000E+03  0.50000000000E+03  0.00000000000E+00 0. -1.
         11   -1    0    0    0    0 -0.00000000000E+00 -0.00000000000E+00 -0.50000000000E+03  0.50000000000E+03  0.00000000000E+00 0.  1.
        -11    1    1    2    0    0 -0.70659228364E+01  0.24341703029E+01  0.48413173196E+03  0.48418941164E+03  0.00000000000E+00 0. -1.
         11    1    1    2    0    0 -0.50189789017E+01 -0.58601315346E+01 -0.48157853237E+03  0.48164033690E+03  0.00000000000E+00 0.  1.
        -15    1    1    2    0    0  0.10447591404E+01 -0.90153378246E+01  0.97246877488E+01  0.13419952256E+02  0.17770000000E+01 0.  1.
         15    1    1    2    0    0  0.11040142598E+02  0.12441299056E+02 -0.12277887342E+02  0.20750299212E+02  0.17770000000E+01 0. -1.
</event>
<event>
 6    1  0.1599106E-003  0.5093560E+03  0.7546771E-02  0.9379115E-01
        -11   -1    0    0    0    0  0.00000000000E+00  0.00000000000E+00  0.50000000000E+03  0.50000000000E+03  0.00000000000E+00 0.  1.
         11   -1    0    0    0    0 -0.00000000000E+00 -0.00000000000E+00 -0.50000000000E+03  0.50000000000E+03  0.00000000000E+00 0.  1.
        -11    1    1    2    0    0  0.48121330439E+01 -0.10185759594E+02  0.49051461349E+03  0.49064395683E+03  0.00000000000E+00 0.  1.
         11    1    1    2    0    0 -0.66766081582E+01 -0.30361721300E+01 -0.46191092727E+03  0.46196915500E+03  0.00000000000E+00 0.  1.
        -15    1    1    2    0    0  0.44593535898E+01  0.40218602358E+01 -0.35125465546E+02  0.35679367330E+02  0.17770000000E+01 0.  1.
         15    1    1    2    0    0 -0.25948784755E+01  0.92000714882E+01  0.65217793259E+01  0.11707520842E+02  0.17770000000E+01 0. -1.
</event>
<event>
 6    1  0.1599106E-003  0.5109946E+03  0.7546771E-02  0.9375539E-01
        -11   -1    0    0    0    0  0.00000000000E+00  0.00000000000E+00  0.50000000000E+03  0.50000000000E+03  0.00000000000E+00 0. -1.
         11   -1    0    0    0    0 -0.00000000000E+00 -0.00000000000E+00 -0.50000000000E+03  0.50000000000E+03  0.00000000000E+00 0.  1.
        -11    1    1    2    0    0  0.15281723553E+02 -0.14643559064E+02  0.46965998216E+03  0.47013664369E+03  0.00000000000E+00 0. -1.
         11    1    1    2    0    0  0.69068022734E+01  0.93297898946E+01 -0.48886761651E+03  0.48900541446E+03  0.00000000000E+00 0.  1.
        -15    1    1    2    0    0 -0.85259278225E+01  0.11050989886E+01 -0.68150492839E+01  0.11113744407E+02  0.17770000000E+01 0.  1.
         15    1    1    2    0    0 -0.13662598004E+02  0.42086701810E+01  0.26022683636E+02  0.29744197443E+02  0.17770000000E+01 0. -1.
</event>
<event>
 6    1  0.1599106E-003  0.5004985E+03  0.7546771E-02  0.9398695E-01
        -11   -1    0    0    0    0  0.00000000000E+00  0.00000000000E+00  0.50000000000E+03  0.50000000000E+03  0.00000000000E+00 0. -1.
         11   -1    0    0    0    0 -0.00000000000E+00 -0.00000000000E+00 -0.50000000000E+03  0.50000000000E+03  0.00000000000E+00 0.  1.
        -11    1    1    2    0    0 -0.53456666912E+01 -0.24803185320E+01  0.39159715514E+03  0.39164149428E+03  0.00000000000E+00 0. -1.
         11    1    1    2    0    0 -0.17160591843E+01  0.84865965019E+01 -0.49942646273E+03  0.49950151036E+03  0.00000000000E+00 0.  1.
        -15    1    1    2    0    0  0.95819480903E+00  0.26337092028E+01  0.44687317567E+02  0.44810363107E+02  0.17770000000E+01 0.  1.
         15    1    1    2    0    0  0.61035310665E+01 -0.86399871727E+01  0.63141990022E+02  0.64046632252E+02  0.17770000000E+01 0.  1.
</event>
<event>
 6    1  0.1599106E-003  0.5045902E+03  0.7546771E-02  0.9389597E-01
        -11   -1    0    0    0    0  0.00000000000E+00  0.00000000000E+00  0.50000000000E+03  0.50000000000E+03  0.00000000000E+00 0.  1.
         11   -1    0    0    0    0 -0.00000000000E+00 -0.00000000000E+00 -0.50000000000E+03  0.50000000000E+03  0.00000000000E+00 0.  1.
        -11    1    1    2    0    0  0.55732863467E+01  0.66078290155E+01  0.49533439099E+03  0.49540981402E+03  0.00000000000E+00 0.  1.
         11    1    1    2    0    0  0.51169318582E+01 -0.11355609584E+02 -0.47067482985E+03  0.47083959935E+03  0.00000000000E+00 0.  1.
        -15    1    1    2    0    0 -0.87307263749E+01  0.12083712417E+02 -0.13882817489E+02  0.20448277170E+02  0.17770000000E+01 0. -1.
         15    1    1    2    0    0 -0.19594918299E+01 -0.73359318481E+01 -0.10776743656E+02  0.13302309466E+02  0.17770000000E+01 0.  1.
</event>
<event>
 6    1  0.2051774E-003  0.5006225E+03  0.7546771E-02  0.9398418E-01
        -11   -1    0    0    0    0  0.00000000000E+00  0.00000000000E+00  0.50000000000E+03  0.50000000000E+03  0.00000000000E+00 0. -1.
         11   -1    0    0    0    0 -0.00000000000E+00 -0.00000000000E+00 -0.50000000000E+03  0.50000000000E+03  0.00000000000E+00 0.  1.
        -11    1    1    2    0    0 -0.64923925662E+01 -0.22896642287E+01  0.49933005698E+03  0.49937751204E+03  0.00000000000E+00 0. -1.
         11    1    1    2    0    0  0.63365923812E+01  0.56339870909E+01 -0.13197459160E+03  0.13224669009E+03  0.00000000000E+00 0.  1.
        -15    1    1    2    0    0  0.28627756273E+01  0.10648209019E+01 -0.58883781779E+01  0.68673178470E+01  0.17770000000E+01 0. -1.
         15    1    1    2    0    0 -0.27069754424E+01 -0.44091437641E+01 -0.36146708721E+03  0.36150848002E+03  0.17770000000E+01 0.  1.
</event>
<event>
 6    1  0.1599106E-003  0.5001331E+03  0.7546771E-02  0.9399512E-01
        -11   -1    0    0    0    0  0.00000000000E+00  0.00000000000E+00  0.50000000000E+03  0.50000000000E+03  0.00000000000E+00 0. -1.
         11   -1    0    0    0    0 -0.00000000000E+00 -0.00000000000E+00 -0.50000000000E+03  0.50000000000E+03  0.00000000000E+00 0.  1.
        -11    1    1    2    0    0  0.96072717708E+00  0.16273731564E+02  0.49960097429E+03  0.49986687312E+03  0.00000000000E+00 0. -1.
         11    1    1    2    0    0 -0.15055478187E+01  0.10258809985E+01 -0.28022003734E+02  0.28081164494E+02  0.00000000000E+00 0.  1.
        -15    1    1    2    0    0  0.32132972579E+00 -0.14269455532E+02 -0.44600901858E+03  0.44624088002E+03  0.17770000000E+01 0.  1.
         15    1    1    2    0    0  0.22349091583E+00 -0.30301570310E+01 -0.25569951976E+02  0.25811082365E+02  0.17770000000E+01 0. -1.
</event>
<event>
 6    1  0.1599106E-003  0.5095830E+03  0.7546771E-02  0.9378619E-01
        -11   -1    0    0    0    0  0.00000000000E+00  0.00000000000E+00  0.50000000000E+03  0.50000000000E+03  0.00000000000E+00 0. -1.
         11   -1    0    0    0    0 -0.00000000000E+00 -0.00000000000E+00 -0.50000000000E+03  0.50000000000E+03  0.00000000000E+00 0.  1.
        -11    1    1    2    0    0  0.82634751397E+01  0.77348865819E+01  0.34580881146E+03  0.34599399933E+03  0.00000000000E+00 0. -1.
         11    1    1    2    0    0 -0.94998991527E+00  0.14242443847E+02 -0.49020924981E+03  0.49041702488E+03  0.00000000000E+00 0.  1.
        -15    1    1    2    0    0 -0.27382287540E+01 -0.14731457630E+01  0.14236218068E+03  0.14240721987E+03  0.17770000000E+01 0. -1.
         15    1    1    2    0    0 -0.45752564705E+01 -0.20504184666E+02  0.20382576756E+01  0.21181755922E+02  0.17770000000E+01 0.  1.
</event>
<event>
 6    1  0.1599106E-003  0.4789125E+03  0.7546771E-02  0.9448272E-01
        -11   -1    0    0    0    0  0.00000000000E+00  0.00000000000E+00  0.50000000000E+03  0.50000000000E+03  0.00000000000E+00 0. -1.
         11   -1    0    0    0    0 -0.00000000000E+00 -0.00000000000E+00 -0.50000000000E+03  0.50000000000E+03  0.00000000000E+00 0.  1.
        -11    1    1    2    0    0  0.26747365470E+02 -0.70219193133E+01  0.48256974415E+03  0.48336144538E+03  0.00000000000E+00 0. -1.
         11    1    1    2    0    0 -0.20371342783E+02 -0.80677357466E+01 -0.47413475746E+03  0.47464075699E+03  0.00000000000E+00 0.  1.
        -15    1    1    2    0    0 -0.19980959643E+02  0.11818627353E+02  0.34707217699E+01  0.23539803299E+02  0.17770000000E+01 0. -1.
         15    1    1    2    0    0  0.13604936957E+02  0.32710277074E+01 -0.11905708463E+02  0.18457994335E+02  0.17770000000E+01 0.  1.
</event>
<event>
 6    1  0.1599106E-003  0.6021834E+03  0.7546771E-02  0.9196351E-01
        -11   -1    0    0    0    0  0.00000000000E+00  0.00000000000E+00  0.50000000000E+03  0.50000000000E+03  0.00000000000E+00 0.  1.
         11   -1    0    0    0    0 -0.00000000000E+00 -0.00000000000E+00 -0.50000000000E+03  0.50000000000E+03  0.00000000000E+00 0. -1.
        -11    1    1    2    0    0 -0.18926826212E+02 -0.21828886458E+02  0.39676607865E+03  0.39781659871E+03  0.00000000000E+00 0.  1.
         11    1    1    2    0    0  0.79235671943E+00  0.15241700063E+02 -0.37202266470E+03  0.37233560171E+03  0.00000000000E+00 0. -1.
        -15    1    1    2    0    0  0.37113481097E+01  0.56837873152E+02  0.88412060693E+02  0.10518634956E+03  0.17770000000E+01 0.  1.
         15    1    1    2    0    0  0.14423121383E+02 -0.50250686757E+02 -0.11315547465E+03  0.12466145002E+03  0.17770000000E+01 0. -1.
</event>
<event>
 6    1  0.1599106E-003  0.4179987E+03  0.7546771E-02  0.9604666E-01
        -11   -1    0    0    0    0  0.00000000000E+00  0.00000000000E+00  0.50000000000E+03  0.50000000000E+03  0.00000000000E+00 0.  1.
         11   -1    0    0    0    0 -0.00000000000E+00 -0.00000000000E+00 -0.50000000000E+03  0.50000000000E+03  0.00000000000E+00 0.  1.
        -11    1    1    2    0    0  0.11959374080E+02 -0.35793351313E+01  0.44180978201E+03  0.44198611036E+03  0.00000000000E+00 0.  1.
         11    1    1    2    0    0  0.74382829519E+02 -0.64549098759E+02 -0.39054549129E+03  0.40277186129E+03  0.00000000000E+00 0.  1.
        -15    1    1    2    0    0 -0.91240590005E+01 -0.12840185499E+02  0.17728671084E+02  0.23781974764E+02  0.17770000000E+01 0. -1.
         15    1    1    2    0    0 -0.77218144599E+02  0.80968619389E+02 -0.68992961806E+02  0.13146005359E+03  0.17770000000E+01 0.  1.
</event>
<event>
 6    1  0.1599106E-003  0.5054015E+03  0.7546771E-02  0.9387804E-01
        -11   -1    0    0    0    0  0.00000000000E+00  0.00000000000E+00  0.50000000000E+03  0.50000000000E+03  0.00000000000E+00 0. -1.
         11   -1    0    0    0    0 -0.00000000000E+00 -0.00000000000E+00 -0.50000000000E+03  0.50000000000E+03  0.00000000000E+00 0.  1.
        -11    1    1    2    0    0  0.34128715507E+01  0.10913950958E+02  0.47685113413E+03  0.47698822432E+03  0.00000000000E+00 0. -1.
         11    1    1    2    0    0  0.10152056810E+02 -0.52695963999E+01 -0.49446621203E+03  0.49459849145E+03  0.00000000000E+00 0.  1.
        -15    1    1    2    0    0 -0.68923053867E+01  0.18198704559E+01 -0.78700858500E+00  0.73887017488E+01  0.17770000000E+01 0.  1.
         15    1    1    2    0    0 -0.66726229738E+01 -0.74642250142E+01  0.18402086488E+02  0.21024582482E+02  0.17770000000E+01 0. -1.
</event>
<event>
 6    1  0.1599106E-003  0.5076350E+03  0.7546771E-02  0.9382886E-01
        -11   -1    0    0    0    0  0.00000000000E+00  0.00000000000E+00  0.50000000000E+03  0.50000000000E+03  0.00000000000E+00 0.  1.
         11   -1    0    0    0    0 -0.00000000000E+00 -0.00000000000E+00 -0.50000000000E+03  0.50000000000E+03  0.00000000000E+00 0. -1.
        -11    1    1    2    0    0  0.79154155591E+01  0.28183336964E+01  0.39687742905E+03  0.39696635940E+03  0.00000000000E+00 0.  1.
         11    1    1    2    0    0  0.42096097124E+01 -0.63486761612E+01 -0.49230611679E+03  0.49236504662E+03  0.00000000000E+00 0. -1.
        -15    1    1    2    0    0 -0.48905072283E+01  0.72381278659E+01 -0.47799862519E+01  0.10115016239E+02  0.17770000000E+01 0.  1.
         15    1    1    2    0    0 -0.72345180432E+01 -0.37077854011E+01  0.10020867399E+03  0.10055357774E+03  0.17770000000E+01 0.  1.
</event>
<event>
 6    1  0.1599106E-003  0.4631987E+03  0.7546771E-02  0.9486143E-01
        -11   -1    0    0    0    0  0.00000000000E+00  0.00000000000E+00  0.50000000000E+03  0.50000000000E+03  0.00000000000E+00 0. -1.
         11   -1    0    0    0    0 -0.00000000000E+00 -0.00000000000E+00 -0.50000000000E+03  0.50000000000E+03  0.00000000000E+00 0. -1.
        -11    1    1    2    0    0 -0.45149584517E+01  0.53875322715E+01  0.46638778986E+03  0.46644075817E+03  0.00000000000E+00 0. -1.
         11    1    1    2    0    0 -0.72952078359E+01 -0.27817722772E+01 -0.45999139798E+03  0.46005765349E+03  0.00000000000E+00 0. -1.
        -15    1    1    2    0    0 -0.66724028353E+01  0.20322472268E+02 -0.29180793183E+02  0.36224304803E+02  0.17770000000E+01 0. -1.
         15    1    1    2    0    0  0.18482569123E+02 -0.22928232262E+02  0.22784401310E+02  0.37277283540E+02  0.17770000000E+01 0.  1.
</event>
<event>
 6    1  0.1599106E-003  0.5019844E+03  0.7546771E-02  0.9395380E-01
        -11   -1    0    0    0    0  0.00000000000E+00  0.00000000000E+00  0.50000000000E+03  0.50000000000E+03  0.00000000000E+00 0.  1.
         11   -1    0    0    0    0 -0.00000000000E+00 -0.00000000000E+00 -0.50000000000E+03  0.50000000000E+03  0.00000000000E+00 0. -1.
        -11    1    1    2    0    0 -0.39670361349E+01  0.10891558775E+02  0.29459547277E+03  0.29482343191E+03  0.00000000000E+00 0.  1.
         11    1    1    2    0    0  0.68698582124E+01 -0.11582126858E+02 -0.49783353976E+03  0.49801563623E+03  0.00000000000E+00 0. -1.
        -15    1    1    2    0    0 -0.20253992104E+02  0.23966260169E+01  0.75506331386E+02  0.78232549625E+02  0.17770000000E+01 0. -1.
         15    1    1    2    0    0  0.17351170026E+02 -0.17060579331E+01  0.12773173561E+03  0.12892838224E+03  0.17770000000E+01 0.  1.
</event>
<event>
 6    1  0.1599106E-003  0.5014997E+03  0.7546771E-02  0.9396460E-01
        -11   -1    0    0    0    0  0.00000000000E+00  0.00000000000E+00  0.50000000000E+03  0.50000000000E+03  0.00000000000E+00 0. -1.
         11   -1    0    0    0    0 -0.00000000000E+00 -0.00000000000E+00 -0.50000000000E+03  0.50000000000E+03  0.00000000000E+00 0.  1.
        -11    1    1    2    0    0 -0.45057754592E+01  0.56156099538E+01  0.49844826721E+03  0.49850026296E+03  0.00000000000E+00 0. -1.
         11    1    1    2    0    0 -0.66702231203E+01 -0.46368286470E+01 -0.44302620905E+03  0.44310068152E+03  0.00000000000E+00 0.  1.
        -15    1    1    2    0    0  0.94398020190E+01 -0.59535889136E+01 -0.24497250010E+02  0.26978288866E+02  0.17770000000E+01 0.  1.
         15    1    1    2    0    0  0.17361965605E+01  0.49748076068E+01 -0.30924808151E+02  0.31420766658E+02  0.17770000000E+01 0. -1.
</event>
<event>
 6    1  0.1599106E-003  0.5062872E+03  0.7546771E-02  0.9385850E-01
        -11   -1    0    0    0    0  0.00000000000E+00  0.00000000000E+00  0.50000000000E+03  0.50000000000E+03  0.00000000000E+00 0. -1.
         11   -1    0    0    0    0 -0.00000000000E+00 -0.00000000000E+00 -0.50000000000E+03  0.50000000000E+03  0.00000000000E+00 0.  1.
        -11    1    1    2    0    0  0.21578645762E+01 -0.80385425745E+01  0.49364262405E+03  0.49371278577E+03  0.00000000000E+00 0. -1.
         11    1    1    2    0    0 -0.15234079751E+02 -0.98589465103E+01 -0.30030853226E+03  0.30085626229E+03  0.00000000000E+00 0.  1.
        -15    1    1    2    0    0 -0.13277368265E+02  0.44796475324E+01 -0.53145750397E+01  0.15091659515E+02  0.17770000000E+01 0. -1.
         15    1    1    2    0    0  0.26353583440E+02  0.13417841552E+02 -0.18801951675E+03  0.19033929243E+03  0.17770000000E+01 0.  1.
</event>
<event>
 6    1  0.1599106E-003  0.5075445E+03  0.7546771E-02  0.9383085E-01
        -11   -1    0    0    0    0  0.00000000000E+00  0.00000000000E+00  0.50000000000E+03  0.50000000000E+03  0.00000000000E+00 0.  1.
         11   -1    0    0    0    0 -0.00000000000E+00 -0.00000000000E+00 -0.50000000000E+03  0.50000000000E+03  0.00000000000E+00 0. -1.
        -11    1    1    2    0    0 -0.82134801664E+01  0.65603334982E+00  0.49238654431E+03  0.49245548089E+03  0.00000000000E+00 0.  1.
         11    1    1    2    0    0 -0.16011537961E+02 -0.39054062121E+01 -0.47669761288E+03  0.47698242701E+03  0.00000000000E+00 0. -1.
        -15    1    1    2    0    0  0.51057179203E+01 -0.21380589802E+01 -0.61234817152E+01  0.84436016605E+01  0.17770000000E+01 0. -1.
         15    1    1    2    0    0  0.19119300207E+02  0.53874318425E+01 -0.95654497136E+01  0.22118490443E+02  0.17770000000E+01 0.  1.
</event>
<event>
 6    1  0.1599106E-003  0.5049504E+03  0.7546771E-02  0.9388801E-01
        -11   -1    0    0    0    0  0.00000000000E+00  0.00000000000E+00  0.50000000000E+03  0.50000000000E+03  0.00000000000E+00 0.  1.
         11   -1    0    0    0    0 -0.00000000000E+00 -0.00000000000E+00 -0.50000000000E+03  0.50000000000E+03  0.00000000000E+00 0.  1.
        -11    1    1    2    0    0 -0.72920685323E+01 -0.68251191744E+01  0.43154214985E+03  0.43165771581E+03  0.00000000000E+00 0.  1.
         11    1    1    2    0    0  0.21519325944E+01 -0.21242789094E+02 -0.49458898780E+03  0.49504964777E+03  0.00000000000E+00 0.  1.
        -15    1    1    2    0    0 -0.34526654443E+01  0.28171937459E+02  0.45140431687E+02  0.53351619102E+02  0.17770000000E+01 0. -1.
         15    1    1    2    0    0  0.85928013821E+01 -0.10402919013E+00  0.17906406261E+02  0.19941017322E+02  0.17770000000E+01 0.  1.
</event>
<event>
 6    1  0.1599106E-003  0.5916289E+03  0.7546771E-02  0.9215311E-01
        -11   -1    0    0    0    0  0.00000000000E+00  0.00000000000E+00  0.50000000000E+03  0.50000000000E+03  0.00000000000E+00 0.  1.
         11   -1    0    0    0    0 -0.00000000000E+00 -0.00000000000E+00 -0.50000000000E+03  0.50000000000E+03  0.00000000000E+00 0.  1.
        -11    1    1    2    0    0  0.70555600786E+01 -0.11408374699E+01  0.32852933361E+03  0.32860706852E+03  0.00000000000E+00 0.  1.
         11    1    1    2    0    0  0.13368300701E+02  0.12340732813E+02 -0.40796565953E+03  0.40837113574E+03  0.00000000000E+00 0.  1.
        -15    1    1    2    0    0  0.14876454793E+02 -0.84899563293E+02  0.13782832149E+03  0.16257013468E+03  0.17770000000E+01 0. -1.
         15    1    1    2    0    0 -0.35300315573E+02  0.73699667950E+02 -0.58391995566E+02  0.10045166106E+03  0.17770000000E+01 0.  1.
</event>
<event>
 6    1  0.1599106E-003  0.5024770E+03  0.7546771E-02  0.9394284E-01
        -11   -1    0    0    0    0  0.00000000000E+00  0.00000000000E+00  0.50000000000E+03  0.50000000000E+03  0.00000000000E+00 0.  1.
         11   -1    0    0    0    0 -0.00000000000E+00 -0.00000000000E+00 -0.50000000000E+03  0.50000000000E+03  0.00000000000E+00 0.  1.
        -11    1    1    2    0    0  0.47506189122E+01  0.51535379177E+01  0.49747366989E+03  0.49752304425E+03  0.00000000000E+00 0.  1.
         11    1    1    2    0    0 -0.66262479435E+01 -0.24033464809E+01 -0.49005849224E+03  0.49010918075E+03  0.00000000000E+00 0.  1.
        -15    1    1    2    0    0 -0.13366037191E+01 -0.49204277893E+01 -0.54513323751E+01  0.76728008442E+01  0.17770000000E+01 0. -1.
         15    1    1    2    0    0  0.32122327505E+01  0.21702363525E+01 -0.19638452729E+01  0.46949741559E+01  0.17770000000E+01 0.  1.
</event>
<event>
 6    1  0.1599106E-003  0.5018979E+03  0.7546771E-02  0.9395573E-01
        -11   -1    0    0    0    0  0.00000000000E+00  0.00000000000E+00  0.50000000000E+03  0.50000000000E+03  0.00000000000E+00 0.  1.
         11   -1    0    0    0    0 -0.00000000000E+00 -0.00000000000E+00 -0.50000000000E+03  0.50000000000E+03  0.00000000000E+00 0. -1.
        -11    1    1    2    0    0  0.79863586510E+01 -0.15990272379E+02  0.49778132437E+03  0.49810211567E+03  0.00000000000E+00 0.  1.
         11    1    1    2    0    0  0.55417591582E+01 -0.75701237362E+01 -0.27667749719E+03  0.27683651370E+03  0.00000000000E+00 0. -1.
        -15    1    1    2    0    0  0.28489895540E+01  0.12817445047E+02 -0.16645442043E+03  0.16698094337E+03  0.17770000000E+01 0.  1.
         15    1    1    2    0    0 -0.16377107363E+02  0.10742951068E+02 -0.54649406753E+02  0.58080427260E+02  0.17770000000E+01 0. -1.
</event>
<event>
 6    1  0.1599106E-003  0.4737948E+03  0.7546771E-02  0.9460434E-01
        -11   -1    0    0    0    0  0.00000000000E+00  0.00000000000E+00  0.50000000000E+03  0.50000000000E+03  0.00000000000E+00 0.  1.
         11   -1    0    0    0    0 -0.00000000000E+00 -0.00000000000E+00 -0.50000000000E+03  0.50000000000E+03  0.00000000000E+00 0. -1.
        -11    1    1    2    0    0  0.19407216340E+02  0.15068572815E+02  0.48331030016E+03  0.48393444615E+03  0.00000000000E+00 0.  1.
         11    1    1    2    0    0  0.99009762967E+01  0.78447531484E+01 -0.46440192338E+03  0.46457369267E+03  0.00000000000E+00 0. -1.
        -15    1    1    2    0    0 -0.11298022062E+02 -0.25341961018E+02 -0.18176171713E+02  0.33217333395E+02  0.17770000000E+01 0.  1.
         15    1    1    2    0    0 -0.18010170574E+02  0.24286350544E+01 -0.73220506227E+00  0.18274527780E+02  0.17770000000E+01 0. -1.
</event>
<event>
 6    1  0.1599106E-003  0.5228622E+03  0.7546771E-02  0.9350058E-01
        -11   -1    0    0    0    0  0.00000000000E+00  0.00000000000E+00  0.50000000000E+03  0.50000000000E+03  0.00000000000E+00 0. -1.
         11   -1    0    0    0    0 -0.00000000000E+00 -0.00000000000E+00 -0.50000000000E+03  0.50000000000E+03  0.00000000000E+00 0. -1.
        -11    1    1    2    0    0  0.12605542246E+02  0.34569213624E+01  0.47695872267E+03  0.47713779260E+03  0.00000000000E+00 0. -1.
         11    1    1    2    0    0  0.45036957106E+00  0.15317070856E+02 -0.43438011505E+03  0.43465031904E+03  0.00000000000E+00 0. -1.
        -15    1    1    2    0    0  0.16894029416E+02 -0.16774235323E+02 -0.51569416562E+02  0.56827331928E+02  0.17770000000E+01 0.  1.
         15    1    1    2    0    0 -0.29949941233E+02 -0.19997568946E+01  0.89908089441E+01  0.31384556425E+02  0.17770000000E+01 0. -1.
</event>
<event>
 6    1  0.1599106E-003  0.5004543E+03  0.7546771E-02  0.9398794E-01
        -11   -1    0    0    0    0  0.00000000000E+00  0.00000000000E+00  0.50000000000E+03  0.50000000000E+03  0.00000000000E+00 0. -1.
         11   -1    0    0    0    0 -0.00000000000E+00 -0.00000000000E+00 -0.50000000000E+03  0.50000000000E+03  0.00000000000E+00 0.  1.
        -11    1    1    2    0    0  0.13508433804E+01  0.47416612121E+01  0.24948709878E+03  0.24953581023E+03  0.00000000000E+00 0. -1.
         11    1    1    2    0    0  0.70486760312E+01 -0.10851255210E+02 -0.49937813304E+03  0.49954574699E+03  0.00000000000E+00 0.  1.
        -15    1    1    2    0    0 -0.64675049910E+01  0.82173844465E+01  0.55857853404E+02  0.56856059869E+02  0.17770000000E+01 0.  1.
         15    1    1    2    0    0 -0.19320144207E+01 -0.21077904482E+01  0.19403318086E+03  0.19406238292E+03  0.17770000000E+01 0. -1.
</event>
<event>
 6    1  0.1599106E-003  0.5053480E+03  0.7546771E-02  0.9387922E-01
        -11   -1    0    0    0    0  0.00000000000E+00  0.00000000000E+00  0.50000000000E+03  0.50000000000E+03  0.00000000000E+00 0.  1.
         11   -1    0    0    0    0 -0.00000000000E+00 -0.00000000000E+00 -0.50000000000E+03  0.50000000000E+03  0.00000000000E+00 0. -1.
        -11    1    1    2    0    0  0.17525765557E+02  0.24096761450E+01  0.49433560202E+03  0.49465204581E+03  0.00000000000E+00 0.  1.
         11    1    1    2    0    0 -0.14121387329E+01  0.17668683862E+02 -0.14019125337E+03  0.14130733897E+03  0.00000000000E+00 0. -1.
        -15    1    1    2    0    0 -0.11412079715E+02 -0.26366763134E+02 -0.35479808881E+03  0.35596387922E+03  0.17770000000E+01 0.  1.
         15    1    1    2    0    0 -0.47015471093E+01  0.62884031274E+01  0.65374015831E+00  0.80767359935E+01  0.17770000000E+01 0. -1.
</event>
<event>
 6    1  0.1599106E-003  0.4735725E+03  0.7546771E-02  0.9460966E-01
        -11   -1    0    0    0    0  0.00000000000E+00  0.00000000000E+00  0.50000000000E+03  0.50000000000E+03  0.00000000000E+00 0.  1.
         11   -1    0    0    0    0 -0.00000000000E+00 -0.00000000000E+00 -0.50000000000E+03  0.50000000000E+03  0.00000000000E+00 0. -1.
        -11    1    1    2    0    0  0.31143465155E+02 -0.21656574635E+02  0.46838522427E+03  0.46991875996E+03  0.00000000000E+00 0.  1.
         11    1    1    2    0    0 -0.31938805173E+02  0.48431708264E+01 -0.47631471520E+03  0.47740889340E+03  0.00000000000E+00 0. -1.
        -15    1    1    2    0    0 -0.86271362181E+01  0.12665827622E+02  0.26903112362E+02  0.31012672449E+02  0.17770000000E+01 0.  1.
         15    1    1    2    0    0  0.94224762363E+01  0.41475761864E+01 -0.18973621430E+02  0.21659674186E+02  0.17770000000E+01 0. -1.
</event>
<event>
 6    1  0.1599106E-003  0.5108382E+03  0.7546771E-02  0.9375880E-01
        -11   -1    0    0    0    0  0.00000000000E+00  0.00000000000E+00  0.50000000000E+03  0.50000000000E+03  0.00000000000E+00 0.  1.
         11   -1    0    0    0    0 -0.00000000000E+00 -0.00000000000E+00 -0.50000000000E+03  0.50000000000E+03  0.00000000000E+00 0. -1.
        -11    1    1    2    0    0 -0.46093372028E+02  0.32935782992E+02  0.48587024596E+03  0.48916179394E+03  0.00000000000E+00 0.  1.
         11    1    1    2    0    0 -0.45799463150E+00 -0.59212005463E+01 -0.36836742926E+03  0.36841530006E+03  0.00000000000E+00 0. -1.
        -15    1    1    2    0    0  0.40933710093E+02 -0.33808991459E+02 -0.45741790230E+02  0.70100539426E+02  0.17770000000E+01 0.  1.
         15    1    1    2    0    0  0.56176565664E+01  0.67944090126E+01 -0.71761026461E+02  0.72322366574E+02  0.17770000000E+01 0. -1.
</event>
<event>
 6    1  0.1599106E-003  0.5005280E+03  0.7546771E-02  0.9398629E-01
        -11   -1    0    0    0    0  0.00000000000E+00  0.00000000000E+00  0.50000000000E+03  0.50000000000E+03  0.00000000000E+00 0.  1.
         11   -1    0    0    0    0 -0.00000000000E+00 -0.00000000000E+00 -0.50000000000E+03  0.50000000000E+03  0.00000000000E+00 0.  1.
        -11    1    1    2    0    0  0.18885862547E+01 -0.28826138008E+01  0.20161855406E+03  0.20164800411E+03  0.00000000000E+00 0.  1.
         11    1    1    2    0    0  0.44639588242E+01 -0.52574051758E+01 -0.49942434553E+03  0.49947196533E+03  0.00000000000E+00 0.  1.
        -15    1    1    2    0    0  0.78592861412E+01 -0.11594375656E+01  0.10898721399E+03  0.10929081945E+03  0.17770000000E+01 0. -1.
         15    1    1    2    0    0 -0.14211831220E+02  0.92994565422E+01  0.18881857748E+03  0.18958921111E+03  0.17770000000E+01 0.  1.
</event>
<event>
 6    1  0.1599106E-003  0.5037461E+03  0.7546771E-02  0.9391466E-01
        -11   -1    0    0    0    0  0.00000000000E+00  0.00000000000E+00  0.50000000000E+03  0.50000000000E+03  0.00000000000E+00 0. -1.
         11   -1    0    0    0    0 -0.00000000000E+00 -0.00000000000E+00 -0.50000000000E+03  0.50000000000E+03  0.00000000000E+00 0. -1.
        -11    1    1    2    0    0  0.54981480821E+01 -0.48745085371E+01  0.48825307045E+03  0.48830835675E+03  0.00000000000E+00 0. -1.
         11    1    1    2    0    0 -0.68057595945E+01  0.41428700950E+01 -0.49618990785E+03  0.49625387292E+03  0.00000000000E+00 0. -1.
        -15    1    1    2    0    0  0.21405178106E+01 -0.57131357159E+01  0.50125280749E+01  0.80935099251E+01  0.17770000000E+01 0. -1.
         15    1    1    2    0    0 -0.83290629821E+00  0.64447741579E+01  0.29243093232E+01  0.73442604029E+01  0.17770000000E+01 0. -1.
</event>
<event>
 6    1  0.1599106E-003  0.5239387E+03  0.7546771E-02  0.9347783E-01
        -11   -1    0    0    0    0  0.00000000000E+00  0.00000000000E+00  0.50000000000E+03  0.50000000000E+03  0.00000000000E+00 0. -1.
         11   -1    0    0    0    0 -0.00000000000E+00 -0.00000000000E+00 -0.50000000000E+03  0.50000000000E+03  0.00000000000E+00 0. -1.
        -11    1    1    2    0    0  0.49059758116E+01 -0.18938394400E+02  0.47565916599E+03  0.47606131283E+03  0.00000000000E+00 0. -1.
         11    1    1    2    0    0 -0.98829138071E+00  0.10454029265E+02 -0.40329887680E+03  0.40343555555E+03  0.00000000000E+00 0. -1.
        -15    1    1    2    0    0 -0.12523374202E+00  0.84504673877E+01  0.23249487946E+02  0.24801663277E+02  0.17770000000E+01 0.  1.
         15    1    1    2    0    0 -0.37924506889E+01  0.33897747131E-01 -0.95609777134E+02  0.95701468348E+02  0.17770000000E+01 0. -1.
</event>
<event>
 6    1  0.1599106E-003  0.5017660E+03  0.7546771E-02  0.9395867E-01
        -11   -1    0    0    0    0  0.00000000000E+00  0.00000000000E+00  0.50000000000E+03  0.50000000000E+03  0.00000000000E+00 0.  1.
         11   -1    0    0    0    0 -0.00000000000E+00 -0.00000000000E+00 -0.50000000000E+03  0.50000000000E+03  0.00000000000E+00 0.  1.
        -11    1    1    2    0    0  0.41423596488E+01  0.93210131758E+01  0.49812958282E+03  0.49823400296E+03  0.00000000000E+00 0.  1.
         11    1    1    2    0    0  0.65348184352E+01 -0.11114999408E+01 -0.37479379931E+03  0.37485241267E+03  0.00000000000E+00 0.  1.
        -15    1    1    2    0    0  0.91797418591E+00  0.31235948214E+01 -0.87066138126E+02  0.87145106910E+02  0.17770000000E+01 0. -1.
         15    1    1    2    0    0 -0.11595152270E+02 -0.11333108056E+02 -0.36269645377E+02  0.39768477456E+02  0.17770000000E+01 0.  1.
</event>
<event>
 6    1  0.1599106E-003  0.5063456E+03  0.7546771E-02  0.9385722E-01
        -11   -1    0    0    0    0  0.00000000000E+00  0.00000000000E+00  0.50000000000E+03  0.50000000000E+03  0.00000000000E+00 0. -1.
         11   -1    0    0    0    0 -0.00000000000E+00 -0.00000000000E+00 -0.50000000000E+03  0.50000000000E+03  0.00000000000E+00 0. -1.
        -11    1    1    2    0    0 -0.30941504270E+02 -0.99019986890E+01  0.49258421555E+03  0.49365436863E+03  0.00000000000E+00 0. -1.
         11    1    1    2    0    0 -0.76603182262E+00  0.76467224641E+01 -0.31963765593E+03  0.31973002714E+03  0.00000000000E+00 0. -1.
        -15    1    1    2    0    0  0.44703432958E+02 -0.56791699080E+01 -0.16095250660E+03  0.16715118007E+03  0.17770000000E+01 0. -1.
         15    1    1    2    0    0 -0.12995896866E+02  0.79344461329E+01 -0.11994053020E+02  0.19464424153E+02  0.17770000000E+01 0.  1.
</event>
<event>
 6    1  0.1599106E-003  0.5021310E+03  0.7546771E-02  0.9395054E-01
        -11   -1    0    0    0    0  0.00000000000E+00  0.00000000000E+00  0.50000000000E+03  0.50000000000E+03  0.00000000000E+00 0.  1.
         11   -1    0    0    0    0 -0.00000000000E+00 -0.00000000000E+00 -0.50000000000E+03  0.50000000000E+03  0.00000000000E+00 0. -1.
        -11    1    1    2    0    0  0.16014964144E+01 -0.68612834317E+01  0.45918694002E+03  0.45924099108E+03  0.00000000000E+00 0.  1.
         11    1    1    2    0    0 -0.14547409248E+01 -0.78053315772E+01 -0.49780571926E+03  0.49786903258E+03  0.00000000000E+00 0. -1.
        -15    1    1    2    0    0 -0.42051879916E+00  0.60762314735E+01  0.48134553963E+01  0.79639504539E+01  0.17770000000E+01 0. -1.
         15    1    1    2    0    0  0.27376330950E+00  0.85903835354E+01  0.33805323843E+02  0.34926025894E+02  0.17770000000E+01 0.  1.
</event>
<event>
 6    1  0.1599106E-003  0.5095231E+03  0.7546771E-02  0.9378750E-01
        -11   -1    0    0    0    0  0.00000000000E+00  0.00000000000E+00  0.50000000000E+03  0.50000000000E+03  0.00000000000E+00 0.  1.
         11   -1    0    0    0    0 -0.00000000000E+00 -0.00000000000E+00 -0.50000000000E+03  0.50000000000E+03  0.00000000000E+00 0. -1.
        -11    1    1    2    0    0 -0.32219155934E+01  0.58179287991E+01  0.45639359747E+03  0.45644204982E+03  0.00000000000E+00 0.  1.
         11    1    1    2    0    0 -0.85006210349E+01 -0.54826778918E+01 -0.49037256036E+03  0.49047687843E+03  0.00000000000E+00 0. -1.
        -15    1    1    2    0    0  0.14336310314E+02  0.12784311400E+02  0.33074501200E+01  0.19572055760E+02  0.17770000000E+01 0.  1.
         15    1    1    2    0    0 -0.26137736856E+01 -0.13119562307E+02  0.30671512776E+02  0.33509015995E+02  0.17770000000E+01 0. -1.
</event>
<event>
 6    1  0.1599106E-003  0.5000991E+03  0.7546771E-02  0.9399588E-01
        -11   -1    0    0    0    0  0.00000000000E+00  0.00000000000E+00  0.50000000000E+03  0.50000000000E+03  0.00000000000E+00 0. -1.
         11   -1    0    0    0    0 -0.00000000000E+00 -0.00000000000E+00 -0.50000000000E+03  0.50000000000E+03  0.00000000000E+00 0.  1.
        -11    1    1    2    0    0  0.11030067497E+01  0.27757652411E+01  0.12044371035E+03  0.12048074062E+03  0.00000000000E+00 0. -1.
         11    1    1    2    0    0  0.51250966510E+01 -0.55280950557E+01 -0.49984407201E+03  0.49990091295E+03  0.00000000000E+00 0.  1.
        -15    1    1    2    0    0 -0.84584076645E+01 -0.12772132555E+00  0.28492201057E+03  0.28505310174E+03  0.17770000000E+01 0. -1.
         15    1    1    2    0    0  0.22303042639E+01  0.28800511401E+01  0.94478351086E+02  0.94565244697E+02  0.17770000000E+01 0.  1.
</event>
<event>
 6    1  0.3831379E-003  0.5656211E+03  0.7546771E-02  0.9263876E-01
        -11   -1    0    0    0    0  0.00000000000E+00  0.00000000000E+00  0.50000000000E+03  0.50000000000E+03  0.00000000000E+00 0.  1.
         11   -1    0    0    0    0 -0.00000000000E+00 -0.00000000000E+00 -0.50000000000E+03  0.50000000000E+03  0.00000000000E+00 0. -1.
        -11    1    1    2    0    0  0.15838768508E+02 -0.28615386539E+02  0.33932564922E+03  0.34089822990E+03  0.00000000000E+00 0.  1.
         11    1    1    2    0    0 -0.14373962182E+02 -0.22427327733E+02 -0.43356133298E+03  0.43437889599E+03  0.00000000000E+00 0. -1.
        -15    1    1    2    0    0 -0.98685317326E+01  0.36347742800E+02  0.15608471420E+03  0.16057441285E+03  0.17770000000E+01 0.  1.
         15    1    1    2    0    0  0.84037254061E+01  0.14694971472E+02 -0.61849030436E+02  0.64148461261E+02  0.17770000000E+01 0. -1.
</event>
<event>
 6    1  0.1599106E-003  0.5037520E+03  0.7546771E-02  0.9391453E-01
        -11   -1    0    0    0    0  0.00000000000E+00  0.00000000000E+00  0.50000000000E+03  0.50000000000E+03  0.00000000000E+00 0. -1.
         11   -1    0    0    0    0 -0.00000000000E+00 -0.00000000000E+00 -0.50000000000E+03  0.50000000000E+03  0.00000000000E+00 0.  1.
        -11    1    1    2    0    0  0.79698291279E+01 -0.11652489204E+01  0.43888785540E+03  0.43896175869E+03  0.00000000000E+00 0. -1.
         11    1    1    2    0    0 -0.34277048244E+01 -0.60466935915E+01 -0.49619927711E+03  0.49624795644E+03  0.00000000000E+00 0.  1.
        -15    1    1    2    0    0  0.10343285355E+02  0.57606939793E+01  0.11633038532E+02  0.16692946461E+02  0.17770000000E+01 0. -1.
         15    1    1    2    0    0 -0.14885409658E+02  0.14512485326E+01  0.45678383180E+02  0.48097338408E+02  0.17770000000E+01 0. -1.
</event>
<event>
 6    1  0.1599106E-003  0.5133522E+03  0.7546771E-02  0.9370419E-01
        -11   -1    0    0    0    0  0.00000000000E+00  0.00000000000E+00  0.50000000000E+03  0.50000000000E+03  0.00000000000E+00 0. -1.
         11   -1    0    0    0    0 -0.00000000000E+00 -0.00000000000E+00 -0.50000000000E+03  0.50000000000E+03  0.00000000000E+00 0.  1.
        -11    1    1    2    0    0 -0.62153778805E+01 -0.43497645512E+01  0.43983211914E+03  0.43989753853E+03  0.00000000000E+00 0. -1.
         11    1    1    2    0    0  0.18185289158E+01 -0.98099196918E+01 -0.48654550037E+03  0.48664778382E+03  0.00000000000E+00 0.  1.
        -15    1    1    2    0    0 -0.63085958647E+00  0.47280281916E+01 -0.12375090727E+02  0.13381062510E+02  0.17770000000E+01 0. -1.
         15    1    1    2    0    0  0.50277085511E+01  0.94316560514E+01  0.59088471955E+02  0.60073615141E+02  0.17770000000E+01 0.  1.
</event>
<event>
 6    1  0.1599106E-003  0.5153717E+03  0.7546771E-02  0.9366056E-01
        -11   -1    0    0    0    0  0.00000000000E+00  0.00000000000E+00  0.50000000000E+03  0.50000000000E+03  0.00000000000E+00 0. -1.
         11   -1    0    0    0    0 -0.00000000000E+00 -0.00000000000E+00 -0.50000000000E+03  0.50000000000E+03  0.00000000000E+00 0. -1.
        -11    1    1    2    0    0 -0.56399876913E+01 -0.30694296007E+01  0.45885484158E+03  0.45889976738E+03  0.00000000000E+00 0. -1.
         11    1    1    2    0    0 -0.13988740470E+02  0.11102322981E+02 -0.48429916942E+03  0.48462834413E+03  0.00000000000E+00 0. -1.
        -15    1    1    2    0    0  0.32502526638E+02  0.26194329011E+01  0.21838851823E+02  0.39285733346E+02  0.17770000000E+01 0.  1.
         15    1    1    2    0    0 -0.12873798476E+02 -0.10652326282E+02  0.36054760155E+01  0.17186155146E+02  0.17770000000E+01 0. -1.
</event>
<event>
 6    1  0.1599106E-003  0.5000731E+03  0.7546771E-02  0.9399646E-01
        -11   -1    0    0    0    0  0.00000000000E+00  0.00000000000E+00  0.50000000000E+03  0.50000000000E+03  0.00000000000E+00 0. -1.
         11   -1    0    0    0    0 -0.00000000000E+00 -0.00000000000E+00 -0.50000000000E+03  0.50000000000E+03  0.00000000000E+00 0.  1.
        -11    1    1    2    0    0  0.45289612690E+01 -0.70552887112E+01  0.49985660851E+03  0.49992691232E+03  0.00000000000E+00 0. -1.
         11    1    1    2    0    0  0.16089594119E+01  0.16854961524E+01 -0.14295989880E+03  0.14297888765E+03  0.00000000000E+00 0.  1.
        -15    1    1    2    0    0 -0.14151967436E+01  0.59928596902E+01 -0.24232069709E+03  0.24240543541E+03  0.17770000000E+01 0.  1.
         15    1    1    2    0    0 -0.47227239373E+01 -0.62306713137E+00 -0.11457601262E+03  0.11468876462E+03  0.17770000000E+01 0. -1.
</event>
<event>
 6    1  0.1599106E-003  0.5073020E+03  0.7546771E-02  0.9383618E-01
        -11   -1    0    0    0    0  0.00000000000E+00  0.00000000000E+00  0.50000000000E+03  0.50000000000E+03  0.00000000000E+00 0.  1.
         11   -1    0    0    0    0 -0.00000000000E+00 -0.00000000000E+00 -0.50000000000E+03  0.50000000000E+03  0.00000000000E+00 0.  1.
        -11    1    1    2    0    0 -0.26232334001E+00  0.74039102810E+01  0.49264228008E+03  0.49269798338E+03  0.00000000000E+00 0.  1.
         11    1    1    2    0    0 -0.46057749729E+01  0.57896421773E+01 -0.48015068340E+03  0.48020767580E+03  0.00000000000E+00 0.  1.
        -15    1    1    2    0    0  0.55826868695E+01 -0.68793208840E+01  0.35812578320E+01  0.97198037618E+01  0.17770000000E+01 0. -1.
         15    1    1    2    0    0 -0.71458855659E+00 -0.63142315743E+01 -0.16072854509E+02  0.17374537066E+02  0.17770000000E+01 0.  1.
</event>
<event>
 6    1  0.1599106E-003  0.5157201E+03  0.7546771E-02  0.9365306E-01
        -11   -1    0    0    0    0  0.00000000000E+00  0.00000000000E+00  0.50000000000E+03  0.50000000000E+03  0.00000000000E+00 0.  1.
         11   -1    0    0    0    0 -0.00000000000E+00 -0.00000000000E+00 -0.50000000000E+03  0.50000000000E+03  0.00000000000E+00 0.  1.
        -11    1    1    2    0    0  0.82572479940E+01  0.12636261312E+01  0.43745564812E+03  0.43753539625E+03  0.00000000000E+00 0.  1.
         11    1    1    2    0    0  0.36237954665E+01  0.14188656428E+02 -0.48405844976E+03  0.48427991147E+03  0.00000000000E+00 0.  1.
        -15    1    1    2    0    0 -0.48330131481E+01 -0.94993446101E+01  0.60473695839E+02  0.61431434800E+02  0.17770000000E+01 0.  1.
         15    1    1    2    0    0 -0.70480303124E+01 -0.59529379486E+01 -0.13870894199E+02  0.16753257486E+02  0.17770000000E+01 0. -1.
</event>
<event>
 6    1  0.1599106E-003  0.5157792E+03  0.7546771E-02  0.9365179E-01
        -11   -1    0    0    0    0  0.00000000000E+00  0.00000000000E+00  0.50000000000E+03  0.50000000000E+03  0.00000000000E+00 0.  1.
         11   -1    0    0    0    0 -0.00000000000E+00 -0.00000000000E+00 -0.50000000000E+03  0.50000000000E+03  0.00000000000E+00 0. -1.
        -11    1    1    2    0    0 -0.90821241922E+01  0.45933779950E+01  0.48411387427E+03  0.48422084565E+03  0.00000000000E+00 0.  1.
         11    1    1    2    0    0  0.22046864599E+02 -0.11660468380E+01 -0.33769640147E+03  0.33841732147E+03  0.00000000000E+00 0. -1.
        -15    1    1    2    0    0 -0.21482325315E+02  0.44060508255E+01 -0.15880230057E+03  0.16031915663E+03  0.17770000000E+01 0. -1.
         15    1    1    2    0    0  0.85175849081E+01 -0.78333819825E+01  0.12384827768E+02  0.17042676251E+02  0.17770000000E+01 0.  1.
</event>
<event>
 6    1  0.1599106E-003  0.5004039E+03  0.7546771E-02  0.9398906E-01
        -11   -1    0    0    0    0  0.00000000000E+00  0.00000000000E+00  0.50000000000E+03  0.50000000000E+03  0.00000000000E+00 0.  1.
         11   -1    0    0    0    0 -0.00000000000E+00 -0.00000000000E+00 -0.50000000000E+03  0.50000000000E+03  0.00000000000E+00 0. -1.
        -11    1    1    2    0    0 -0.75279674344E+01  0.32861819984E+01  0.49952859540E+03  0.49959612379E+03  0.00000000000E+00 0.  1.
         11    1    1    2    0    0 -0.74047610470E+00  0.30489993997E+01 -0.19471258866E+03  0.19473786711E+03  0.00000000000E+00 0. -1.
        -15    1    1    2    0    0  0.12102446204E+02 -0.11022323987E+02 -0.21807938788E+03  0.21870010969E+03  0.17770000000E+01 0.  1.
         15    1    1    2    0    0 -0.38340026653E+01  0.46871425885E+01 -0.86736618855E+02  0.86965899417E+02  0.17770000000E+01 0. -1.
</event>
<event>
 6    1  0.1599106E-003  0.5002657E+03  0.7546771E-02  0.9399215E-01
        -11   -1    0    0    0    0  0.00000000000E+00  0.00000000000E+00  0.50000000000E+03  0.50000000000E+03  0.00000000000E+00 0.  1.
         11   -1    0    0    0    0 -0.00000000000E+00 -0.00000000000E+00 -0.50000000000E+03  0.50000000000E+03  0.00000000000E+00 0.  1.
        -11    1    1    2    0    0 -0.16074840065E+01  0.53784902644E+01  0.25974013894E+03  0.25980079280E+03  0.00000000000E+00 0.  1.
         11    1    1    2    0    0 -0.98694404674E+01 -0.14354603818E+01 -0.49963477673E+03  0.49973430593E+03  0.00000000000E+00 0.  1.
        -15    1    1    2    0    0 -0.14383463067E+01  0.71926489063E+00  0.21831651742E+02  0.21962807855E+02  0.17770000000E+01 0.  1.
         15    1    1    2    0    0  0.12915270781E+02 -0.46622947732E+01  0.21806298605E+03  0.21850209341E+03  0.17770000000E+01 0.  1.
</event>
<event>
 6    1  0.1599106E-003  0.3850967E+03  0.7546771E-02  0.9701490E-01
        -11   -1    0    0    0    0  0.00000000000E+00  0.00000000000E+00  0.50000000000E+03  0.50000000000E+03  0.00000000000E+00 0.  1.
         11   -1    0    0    0    0 -0.00000000000E+00 -0.00000000000E+00 -0.50000000000E+03  0.50000000000E+03  0.00000000000E+00 0. -1.
        -11    1    1    2    0    0 -0.74195838483E+01  0.23291173911E+01  0.24322264237E+02  0.25535221751E+02  0.00000000000E+00 0.  1.
         11    1    1    2    0    0 -0.18165495943E+01 -0.25386095778E+02 -0.31237176657E+03  0.31340688292E+03  0.00000000000E+00 0. -1.
        -15    1    1    2    0    0 -0.26663296169E+02  0.41370967421E+02  0.47107342385E+03  0.47364102091E+03  0.17770000000E+01 0.  1.
         15    1    1    2    0    0  0.35899429612E+02 -0.18313989034E+02 -0.18302392151E+03  0.18741687441E+03  0.17770000000E+01 0. -1.
</event>
<event>
 6    1  0.1599106E-003  0.5028998E+03  0.7546771E-02  0.9393345E-01
        -11   -1    0    0    0    0  0.00000000000E+00  0.00000000000E+00  0.50000000000E+03  0.50000000000E+03  0.00000000000E+00 0.  1.
         11   -1    0    0    0    0 -0.00000000000E+00 -0.00000000000E+00 -0.50000000000E+03  0.50000000000E+03  0.00000000000E+00 0.  1.
        -11    1    1    2    0    0 -0.27851283607E+01 -0.71416402641E+01  0.49704111225E+03  0.49710021850E+03  0.00000000000E+00 0.  1.
         11    1    1    2    0    0 -0.77490816961E+01  0.93373851590E+01 -0.45040072880E+03  0.45056414807E+03  0.00000000000E+00 0.  1.
        -15    1    1    2    0    0  0.13381811241E+01  0.69708124154E+01 -0.54870023897E+01  0.91459214230E+01  0.17770000000E+01 0. -1.
         15    1    1    2    0    0  0.91960289328E+01 -0.91665573103E+01 -0.41153381064E+02  0.43189712005E+02  0.17770000000E+01 0.  1.
</event>
<event>
 6    1  0.1599106E-003  0.5721960E+03  0.7546771E-02  0.9251341E-01
        -11   -1    0    0    0    0  0.00000000000E+00  0.00000000000E+00  0.50000000000E+03  0.50000000000E+03  0.00000000000E+00 0. -1.
         11   -1    0    0    0    0 -0.00000000000E+00 -0.00000000000E+00 -0.50000000000E+03  0.50000000000E+03  0.00000000000E+00 0. -1.
        -11    1    1    2    0    0 -0.24438734872E+02 -0.25506675600E+02  0.42634310042E+03  0.42780402235E+03  0.00000000000E+00 0. -1.
         11    1    1    2    0    0  0.13927296598E+01  0.15440129575E+02 -0.37723940811E+03  0.37755782118E+03  0.00000000000E+00 0. -1.
        -15    1    1    2    0    0 -0.81420096060E+02 -0.57796494668E+01 -0.31477839618E+02  0.87502277150E+02  0.17770000000E+01 0.  1.
         15    1    1    2    0    0  0.10446610127E+03  0.15846195492E+02 -0.17625852689E+02  0.10713587932E+03  0.17770000000E+01 0. -1.
</event>
<event>
 6    1  0.1599106E-003  0.5462051E+03  0.7546771E-02  0.9301972E-01
        -11   -1    0    0    0    0  0.00000000000E+00  0.00000000000E+00  0.50000000000E+03  0.50000000000E+03  0.00000000000E+00 0.  1.
         11   -1    0    0    0    0 -0.00000000000E+00 -0.00000000000E+00 -0.50000000000E+03  0.50000000000E+03  0.00000000000E+00 0.  1.
        -11    1    1    2    0    0 -0.23652428087E+01  0.16302049847E+02  0.45349578870E+03  0.45379486729E+03  0.00000000000E+00 0.  1.
         11    1    1    2    0    0  0.20609290949E+01  0.13337806234E+02 -0.22304963334E+03  0.22345756518E+03  0.00000000000E+00 0.  1.
        -15    1    1    2    0    0  0.67215831888E+01 -0.22881255566E+02  0.42964943265E+02  0.49171898637E+02  0.17770000000E+01 0. -1.
         15    1    1    2    0    0 -0.64172694751E+01 -0.67586005154E+01 -0.27341109863E+03  0.27357566890E+03  0.17770000000E+01 0.  1.
</event>
<event>
 6    1  0.1599106E-003  0.5016832E+03  0.7546771E-02  0.9396051E-01
        -11   -1    0    0    0    0  0.00000000000E+00  0.00000000000E+00  0.50000000000E+03  0.50000000000E+03  0.00000000000E+00 0.  1.
         11   -1    0    0    0    0 -0.00000000000E+00 -0.00000000000E+00 -0.50000000000E+03  0.50000000000E+03  0.00000000000E+00 0. -1.
        -11    1    1    2    0    0  0.12822659839E+02 -0.87554785630E+01  0.49807488402E+03  0.49831683606E+03  0.00000000000E+00 0.  1.
         11    1    1    2    0    0  0.21600815214E+01 -0.21633129132E+01 -0.19670493848E+03  0.19672869312E+03  0.00000000000E+00 0. -1.
        -15    1    1    2    0    0 -0.15344109082E+02  0.26366963394E+02 -0.17742283965E+03  0.18003521934E+03  0.17770000000E+01 0.  1.
         15    1    1    2    0    0  0.36136772163E+00 -0.15448171918E+02 -0.12394710590E+03  0.12491925148E+03  0.17770000000E+01 0. -1.
</event>
<event>
 6    1  0.1599106E-003  0.5138952E+03  0.7546771E-02  0.9369244E-01
        -11   -1    0    0    0    0  0.00000000000E+00  0.00000000000E+00  0.50000000000E+03  0.50000000000E+03  0.00000000000E+00 0. -1.
         11   -1    0    0    0    0 -0.00000000000E+00 -0.00000000000E+00 -0.50000000000E+03  0.50000000000E+03  0.00000000000E+00 0.  1.
        -11    1    1    2    0    0 -0.72046726241E+01  0.43122032074E+01  0.41099612574E+03  0.41108188695E+03  0.00000000000E+00 0. -1.
         11    1    1    2    0    0 -0.11757374744E+02  0.50179511181E+01 -0.48593669296E+03  0.48610480893E+03  0.00000000000E+00 0.  1.
        -15    1    1    2    0    0  0.17598545477E+02 -0.35554584352E+01 -0.79327923453E+01  0.19708805418E+02  0.17770000000E+01 0.  1.
         15    1    1    2    0    0  0.13635018905E+01 -0.57746958903E+01  0.82873359564E+02  0.83104498702E+02  0.17770000000E+01 0. -1.
</event>
<event>
 6    1  0.1599106E-003  0.5021763E+03  0.7546771E-02  0.9394953E-01
        -11   -1    0    0    0    0  0.00000000000E+00  0.00000000000E+00  0.50000000000E+03  0.50000000000E+03  0.00000000000E+00 0.  1.
         11   -1    0    0    0    0 -0.00000000000E+00 -0.00000000000E+00 -0.50000000000E+03  0.50000000000E+03  0.00000000000E+00 0.  1.
        -11    1    1    2    0    0  0.12494109995E+02 -0.45662566545E+01  0.49764594770E+03  0.49782370649E+03  0.00000000000E+00 0.  1.
         11    1    1    2    0    0  0.11587035807E+02  0.86386234654E+01 -0.39194434465E+03  0.39221072718E+03  0.00000000000E+00 0.  1.
        -15    1    1    2    0    0 -0.13645264356E+02 -0.46692233680E+01 -0.28020924648E+02  0.31564613626E+02  0.17770000000E+01 0. -1.
         15    1    1    2    0    0 -0.10435881446E+02  0.59685655711E+00 -0.77680678398E+02  0.78400952702E+02  0.17770000000E+01 0.  1.
</event>
<event>
 6    1  0.1599106E-003  0.5021151E+03  0.7546771E-02  0.9395089E-01
        -11   -1    0    0    0    0  0.00000000000E+00  0.00000000000E+00  0.50000000000E+03  0.50000000000E+03  0.00000000000E+00 0. -1.
         11   -1    0    0    0    0 -0.00000000000E+00 -0.00000000000E+00 -0.50000000000E+03  0.50000000000E+03  0.00000000000E+00 0.  1.
        -11    1    1    2    0    0  0.10366640725E+01  0.42878993380E+01  0.19170430565E+03  0.19175505615E+03  0.00000000000E+00 0. -1.
         11    1    1    2    0    0  0.64532619391E+01  0.88076589022E+01 -0.49776518468E+03  0.49788492499E+03  0.00000000000E+00 0.  1.
        -15    1    1    2    0    0 -0.35959927306E+01 -0.10407357476E+02  0.12488339432E+02  0.16743972173E+02  0.17770000000E+01 0. -1.
         15    1    1    2    0    0 -0.38939332810E+01 -0.26882007647E+01  0.29357253960E+03  0.29361604669E+03  0.17770000000E+01 0.  1.
</event>
<event>
 6    1  0.1599106E-003  0.5004214E+03  0.7546771E-02  0.9398867E-01
        -11   -1    0    0    0    0  0.00000000000E+00  0.00000000000E+00  0.50000000000E+03  0.50000000000E+03  0.00000000000E+00 0. -1.
         11   -1    0    0    0    0 -0.00000000000E+00 -0.00000000000E+00 -0.50000000000E+03  0.50000000000E+03  0.00000000000E+00 0. -1.
        -11    1    1    2    0    0  0.96959891786E+00  0.68090456859E+01  0.31568671489E+03  0.31576162716E+03  0.00000000000E+00 0. -1.
         11    1    1    2    0    0 -0.88710993461E+01 -0.10046374443E+02 -0.49939878628E+03  0.49957859620E+03  0.00000000000E+00 0. -1.
        -15    1    1    2    0    0 -0.13732305484E+01  0.52837047362E+01  0.12705562149E+03  0.12718526636E+03  0.17770000000E+01 0. -1.
         15    1    1    2    0    0  0.92747309766E+01 -0.20463759787E+01  0.56656449890E+02  0.57474510285E+02  0.17770000000E+01 0.  1.
</event>
<event>
 6    1  0.1599106E-003  0.5004184E+03  0.7546771E-02  0.9398874E-01
        -11   -1    0    0    0    0  0.00000000000E+00  0.00000000000E+00  0.50000000000E+03  0.50000000000E+03  0.00000000000E+00 0. -1.
         11   -1    0    0    0    0 -0.00000000000E+00 -0.00000000000E+00 -0.50000000000E+03  0.50000000000E+03  0.00000000000E+00 0.  1.
        -11    1    1    2    0    0  0.16163859909E+01  0.13697401213E+01  0.14819916306E+03  0.14821430708E+03  0.00000000000E+00 0. -1.
         11    1    1    2    0    0 -0.36348903592E+01  0.73840366209E+01 -0.49951382677E+03  0.49958162452E+03  0.00000000000E+00 0.  1.
        -15    1    1    2    0    0  0.42681995661E+01 -0.14337404775E+02  0.14229634632E+03  0.14309153227E+03  0.17770000000E+01 0.  1.
         15    1    1    2    0    0 -0.22496951979E+01  0.55836280327E+01  0.20901831739E+03  0.20911253612E+03  0.17770000000E+01 0. -1.
</event>
<event>
 6    1  0.1599106E-003  0.4753883E+03  0.7546771E-02  0.9456629E-01
        -11   -1    0    0    0    0  0.00000000000E+00  0.00000000000E+00  0.50000000000E+03  0.50000000000E+03  0.00000000000E+00 0. -1.
         11   -1    0    0    0    0 -0.00000000000E+00 -0.00000000000E+00 -0.50000000000E+03  0.50000000000E+03  0.00000000000E+00 0. -1.
        -11    1    1    2    0    0 -0.25413983770E+02  0.12874390713E+02  0.47520312324E+03  0.47605632949E+03  0.00000000000E+00 0. -1.
         11    1    1    2    0    0  0.10283331219E+02  0.46935006245E+01 -0.47486845939E+03  0.47500297849E+03  0.00000000000E+00 0. -1.
        -15    1    1    2    0    0 -0.76886091206E+01 -0.19483794707E+02 -0.10876856864E+02  0.23668475038E+02  0.17770000000E+01 0. -1.
         15    1    1    2    0    0  0.22819261672E+02  0.19159033700E+01  0.10542193013E+02  0.25272216988E+02  0.17770000000E+01 0.  1.
</event>
<event>
 6    1  0.1599106E-003  0.5066891E+03  0.7546771E-02  0.9384966E-01
        -11   -1    0    0    0    0  0.00000000000E+00  0.00000000000E+00  0.50000000000E+03  0.50000000000E+03  0.00000000000E+00 0.  1.
         11   -1    0    0    0    0 -0.00000000000E+00 -0.00000000000E+00 -0.50000000000E+03  0.50000000000E+03  0.00000000000E+00 0. -1.
        -11    1    1    2    0    0  0.12371832465E+02 -0.89930560426E+01  0.49307374406E+03  0.49331091046E+03  0.00000000000E+00 0.  1.
         11    1    1    2    0    0  0.27770236868E+00  0.72590326341E+01 -0.48427635046E+03  0.48433083144E+03  0.00000000000E+00 0. -1.
        -15    1    1    2    0    0 -0.35237841718E+01  0.41493833380E+01  0.35324188476E+01  0.67283095120E+01  0.17770000000E+01 0.  1.
         15    1    1    2    0    0 -0.91257506617E+01 -0.24153599295E+01 -0.12329812449E+02  0.15629948584E+02  0.17770000000E+01 0. -1.
</event>
<event>
 6    1  0.2208221E-003  0.5664522E+03  0.7546771E-02  0.9262282E-01
        -11   -1    0    0    0    0  0.00000000000E+00  0.00000000000E+00  0.50000000000E+03  0.50000000000E+03  0.00000000000E+00 0. -1.
         11   -1    0    0    0    0 -0.00000000000E+00 -0.00000000000E+00 -0.50000000000E+03  0.50000000000E+03  0.00000000000E+00 0. -1.
        -11    1    1    2    0    0 -0.73126254496E+01 -0.71888286130E+01  0.36607480721E+03  0.36621840236E+03  0.00000000000E+00 0. -1.
         11    1    1    2    0    0  0.52511121027E+01 -0.49603351620E+01 -0.43348760275E+03  0.43354778380E+03  0.00000000000E+00 0. -1.
        -15    1    1    2    0    0  0.68921215001E+01  0.14416617466E+02  0.13322000483E+03  0.13418668941E+03  0.17770000000E+01 0. -1.
         15    1    1    2    0    0 -0.48306081531E+01 -0.22674536907E+01 -0.65807209295E+02  0.66047124431E+02  0.17770000000E+01 0.  1.
</event>
<event>
 6    1  0.1599106E-003  0.4792815E+03  0.7546771E-02  0.9447401E-01
        -11   -1    0    0    0    0  0.00000000000E+00  0.00000000000E+00  0.50000000000E+03  0.50000000000E+03  0.00000000000E+00 0.  1.
         11   -1    0    0    0    0 -0.00000000000E+00 -0.00000000000E+00 -0.50000000000E+03  0.50000000000E+03  0.00000000000E+00 0. -1.
        -11    1    1    2    0    0  0.37587171010E+01 -0.64918303599E+01  0.47652497957E+03  0.47658401984E+03  0.00000000000E+00 0.  1.
         11    1    1    2    0    0  0.20200721550E+01  0.18138206697E+02 -0.48173581198E+03  0.48208139124E+03  0.00000000000E+00 0. -1.
        -15    1    1    2    0    0  0.90044890782E+01 -0.20075599989E+02 -0.31383106112E+01  0.22296126591E+02  0.17770000000E+01 0.  1.
         15    1    1    2    0    0 -0.14783278334E+02  0.84292236523E+01  0.83491430233E+01  0.19038462331E+02  0.17770000000E+01 0. -1.
</event>
<event>
 6    1  0.1599106E-003  0.5012041E+03  0.7546771E-02  0.9397120E-01
        -11   -1    0    0    0    0  0.00000000000E+00  0.00000000000E+00  0.50000000000E+03  0.50000000000E+03  0.00000000000E+00 0. -1.
         11   -1    0    0    0    0 -0.00000000000E+00 -0.00000000000E+00 -0.50000000000E+03  0.50000000000E+03  0.00000000000E+00 0. -1.
        -11    1    1    2    0    0 -0.38581701757E+01  0.95075403942E+01  0.49869037763E+03  0.49879592174E+03  0.00000000000E+00 0. -1.
         11    1    1    2    0    0  0.11061668593E+02 -0.99833649603E+01 -0.37378959375E+03  0.37408647193E+03  0.00000000000E+00 0. -1.
        -15    1    1    2    0    0 -0.96341308472E+01  0.67107017998E+01 -0.11052785729E+03  0.11116391034E+03  0.17770000000E+01 0.  1.
         15    1    1    2    0    0  0.24306324299E+01 -0.62348772337E+01 -0.14372926595E+02  0.15953695999E+02  0.17770000000E+01 0.  1.
</event>
<event>
 6    1  0.1599106E-003  0.4677296E+03  0.7546771E-02  0.9475061E-01
        -11   -1    0    0    0    0  0.00000000000E+00  0.00000000000E+00  0.50000000000E+03  0.50000000000E+03  0.00000000000E+00 0. -1.
         11   -1    0    0    0    0 -0.00000000000E+00 -0.00000000000E+00 -0.50000000000E+03  0.50000000000E+03  0.00000000000E+00 0. -1.
        -11    1    1    2    0    0  0.11898085117E+01 -0.10154285071E+02  0.46297127261E+03  0.46308414398E+03  0.00000000000E+00 0. -1.
         11    1    1    2    0    0 -0.17652733772E+02 -0.14225733387E+02 -0.47234060970E+03  0.47288438553E+03  0.00000000000E+00 0. -1.
        -15    1    1    2    0    0  0.14800301188E+02  0.16389527473E+01 -0.21129168736E+02  0.25910125083E+02  0.17770000000E+01 0. -1.
         15    1    1    2    0    0  0.16626240724E+01  0.22741065711E+02  0.30498505834E+02  0.38121345406E+02  0.17770000000E+01 0.  1.
</event>
<event>
 6    1  0.1599106E-003  0.5137156E+03  0.7546771E-02  0.9369632E-01
        -11   -1    0    0    0    0  0.00000000000E+00  0.00000000000E+00  0.50000000000E+03  0.50000000000E+03  0.00000000000E+00 0.  1.
         11   -1    0    0    0    0 -0.00000000000E+00 -0.00000000000E+00 -0.50000000000E+03  0.50000000000E+03  0.00000000000E+00 0.  1.
        -11    1    1    2    0    0  0.55024588734E+01 -0.42240266725E+00  0.40533127286E+03  0.40536883975E+03  0.00000000000E+00 0.  1.
         11    1    1    2    0    0  0.76720044551E+01 -0.17163941982E+01 -0.48622086025E+03  0.48628441329E+03  0.00000000000E+00 0.  1.
        -15    1    1    2    0    0 -0.18861933362E+02 -0.23145660153E+02  0.79935516280E+01  0.30960437831E+02  0.17770000000E+01 0. -1.
         15    1    1    2    0    0  0.56874700338E+01  0.25284457018E+02  0.72896035764E+02  0.77386309133E+02  0.17770000000E+01 0.  1.
</event>
<event>
 6    1  0.1599106E-003  0.5113027E+03  0.7546771E-02  0.9374868E-01
        -11   -1    0    0    0    0  0.00000000000E+00  0.00000000000E+00  0.50000000000E+03  0.50000000000E+03  0.00000000000E+00 0. -1.
         11   -1    0    0    0    0 -0.00000000000E+00 -0.00000000000E+00 -0.50000000000E+03  0.50000000000E+03  0.00000000000E+00 0. -1.
        -11    1    1    2    0    0 -0.15826160049E+02  0.26188536325E+02  0.45172341039E+03  0.45275859603E+03  0.00000000000E+00 0. -1.
         11    1    1    2    0    0 -0.51368083884E+01  0.44382077844E+01 -0.48865015682E+03  0.48869730943E+03  0.00000000000E+00 0. -1.
        -15    1    1    2    0    0  0.10418776470E+02 -0.29144193490E+01 -0.23957307225E+00  0.10966306011E+02  0.17770000000E+01 0. -1.
         15    1    1    2    0    0  0.10544191967E+02 -0.27712324760E+02  0.37166319494E+02  0.47577788532E+02  0.17770000000E+01 0.  1.
</event>
<event>
 6    1  0.1599106E-003  0.5200972E+03  0.7546771E-02  0.9355931E-01
        -11   -1    0    0    0    0  0.00000000000E+00  0.00000000000E+00  0.50000000000E+03  0.50000000000E+03  0.00000000000E+00 0. -1.
         11   -1    0    0    0    0 -0.00000000000E+00 -0.00000000000E+00 -0.50000000000E+03  0.50000000000E+03  0.00000000000E+00 0.  1.
        -11    1    1    2    0    0  0.68066872605E+01 -0.13487853979E+02  0.32272387211E+03  0.32307731400E+03  0.00000000000E+00 0. -1.
         11    1    1    2    0    0  0.13592340870E+02 -0.24250011494E+02 -0.47909695861E+03  0.47990281364E+03  0.00000000000E+00 0.  1.
        -15    1    1    2    0    0 -0.32767453189E+01 -0.16803675416E+02 -0.10809439547E+02  0.20324917705E+02  0.17770000000E+01 0. -1.
         15    1    1    2    0    0 -0.17122282812E+02  0.54541540889E+02  0.16718252605E+03  0.17669495465E+03  0.17770000000E+01 0.  1.
</event>
<event>
 6    1  0.1599106E-003  0.5058058E+03  0.7546771E-02  0.9386912E-01
        -11   -1    0    0    0    0  0.00000000000E+00  0.00000000000E+00  0.50000000000E+03  0.50000000000E+03  0.00000000000E+00 0. -1.
         11   -1    0    0    0    0 -0.00000000000E+00 -0.00000000000E+00 -0.50000000000E+03  0.50000000000E+03  0.00000000000E+00 0. -1.
        -11    1    1    2    0    0 -0.22450270380E+01 -0.27317184858E+02  0.49343354990E+03  0.49419422994E+03  0.00000000000E+00 0. -1.
         11    1    1    2    0    0  0.22701559505E+01 -0.64937989888E+01 -0.35303385081E+03  0.35310086781E+03  0.00000000000E+00 0. -1.
        -15    1    1    2    0    0  0.32084265351E+01  0.42101234083E+02 -0.13638454104E+03  0.14278203205E+03  0.17770000000E+01 0. -1.
         15    1    1    2    0    0 -0.32335554476E+01 -0.82902502364E+01 -0.40151580499E+01  0.99228701987E+01  0.17770000000E+01 0.  1.
</event>
<event>
 6    1  0.1599106E-003  0.5042184E+03  0.7546771E-02  0.9390420E-01
        -11   -1    0    0    0    0  0.00000000000E+00  0.00000000000E+00  0.50000000000E+03  0.50000000000E+03  0.00000000000E+00 0.  1.
         11   -1    0    0    0    0 -0.00000000000E+00 -0.00000000000E+00 -0.50000000000E+03  0.50000000000E+03  0.00000000000E+00 0.  1.
        -11    1    1    2    0    0  0.30748944221E+01 -0.11266139352E+02  0.40813783808E+03  0.40830488088E+03  0.00000000000E+00 0.  1.
         11    1    1    2    0    0 -0.13570182331E+02 -0.36176331229E+01 -0.49558268882E+03  0.49578164405E+03  0.00000000000E+00 0.  1.
        -15    1    1    2    0    0  0.20529572864E+02 -0.88261385329E+00  0.44854261835E+02  0.49369068281E+02  0.17770000000E+01 0.  1.
         15    1    1    2    0    0 -0.10034284955E+02  0.15766386329E+02  0.42590588898E+02  0.46544406797E+02  0.17770000000E+01 0. -1.
</event>
<event>
 6    1  0.1599106E-003  0.5019698E+03  0.7546771E-02  0.9395413E-01
        -11   -1    0    0    0    0  0.00000000000E+00  0.00000000000E+00  0.50000000000E+03  0.50000000000E+03  0.00000000000E+00 0. -1.
         11   -1    0    0    0    0 -0.00000000000E+00 -0.00000000000E+00 -0.50000000000E+03  0.50000000000E+03  0.00000000000E+00 0.  1.
        -11    1    1    2    0    0  0.80731933216E+01  0.12717305633E+02  0.49780235531E+03  0.49803021120E+03  0.00000000000E+00 0. -1.
         11    1    1    2    0    0 -0.27900483243E+01 -0.64905215901E+01 -0.25925498015E+03  0.25935122127E+03  0.00000000000E+00 0.  1.
        -15    1    1    2    0    0 -0.22838256298E+01  0.42438066060E+01 -0.22537840700E+03  0.22543693092E+03  0.17770000000E+01 0.  1.
         15    1    1    2    0    0 -0.29993193675E+01 -0.10470590649E+02 -0.13168968166E+02  0.17181636615E+02  0.17770000000E+01 0. -1.
</event>
<event>
 6    1  0.1599106E-003  0.5002021E+03  0.7546771E-02  0.9399358E-01
        -11   -1    0    0    0    0  0.00000000000E+00  0.00000000000E+00  0.50000000000E+03  0.50000000000E+03  0.00000000000E+00 0.  1.
         11   -1    0    0    0    0 -0.00000000000E+00 -0.00000000000E+00 -0.50000000000E+03  0.50000000000E+03  0.00000000000E+00 0. -1.
        -11    1    1    2    0    0  0.49987556865E+00 -0.94233081270E+01  0.49970876308E+03  0.49979785565E+03  0.00000000000E+00 0.  1.
         11    1    1    2    0    0 -0.90900792978E+00  0.47269594666E+01 -0.35677436960E+03  0.35680684025E+03  0.00000000000E+00 0. -1.
        -15    1    1    2    0    0 -0.19622277083E+01 -0.25287613515E+01 -0.41982981297E+02  0.42142299642E+02  0.17770000000E+01 0. -1.
         15    1    1    2    0    0  0.23713600694E+01  0.72251100120E+01 -0.10095141218E+03  0.10125300447E+03  0.17770000000E+01 0. -1.
</event>
<event>
 6    1  0.1599106E-003  0.5039331E+03  0.7546771E-02  0.9391052E-01
        -11   -1    0    0    0    0  0.00000000000E+00  0.00000000000E+00  0.50000000000E+03  0.50000000000E+03  0.00000000000E+00 0. -1.
         11   -1    0    0    0    0 -0.00000000000E+00 -0.00000000000E+00 -0.50000000000E+03  0.50000000000E+03  0.00000000000E+00 0.  1.
        -11    1    1    2    0    0  0.24607302547E+02  0.28067238324E+01  0.42526231258E+03  0.42598290052E+03  0.00000000000E+00 0. -1.
         11    1    1    2    0    0 -0.74189016206E+01 -0.11847358270E+02 -0.49586986362E+03  0.49606685199E+03  0.00000000000E+00 0.  1.
        -15    1    1    2    0    0 -0.20277699544E+02  0.36627689110E+01  0.67853230044E+02  0.70935319350E+02  0.17770000000E+01 0.  1.
         15    1    1    2    0    0  0.30892986176E+01  0.53778655262E+01  0.27543210020E+01  0.70149281357E+01  0.17770000000E+01 0. -1.
</event>
<event>
 6    1  0.1599106E-003  0.5014732E+03  0.7546771E-02  0.9396519E-01
        -11   -1    0    0    0    0  0.00000000000E+00  0.00000000000E+00  0.50000000000E+03  0.50000000000E+03  0.00000000000E+00 0.  1.
         11   -1    0    0    0    0 -0.00000000000E+00 -0.00000000000E+00 -0.50000000000E+03  0.50000000000E+03  0.00000000000E+00 0. -1.
        -11    1    1    2    0    0 -0.54842989599E+01 -0.11983839366E+02  0.40691599673E+03  0.40712936314E+03  0.00000000000E+00 0.  1.
         11    1    1    2    0    0 -0.30745369324E+01  0.99452108515E+01 -0.49841809402E+03  0.49852678609E+03  0.00000000000E+00 0. -1.
        -15    1    1    2    0    0  0.14884880768E+02  0.68670030579E+00  0.46959973841E+02  0.49299372257E+02  0.17770000000E+01 0. -1.
         15    1    1    2    0    0 -0.63260448758E+01  0.13519282085E+01  0.44542123454E+02  0.45044478512E+02  0.17770000000E+01 0.  1.
</event>
<event>
 6    1  0.1599106E-003  0.5012613E+03  0.7546771E-02  0.9396992E-01
        -11   -1    0    0    0    0  0.00000000000E+00  0.00000000000E+00  0.50000000000E+03  0.50000000000E+03  0.00000000000E+00 0. -1.
         11   -1    0    0    0    0 -0.00000000000E+00 -0.00000000000E+00 -0.50000000000E+03  0.50000000000E+03  0.00000000000E+00 0. -1.
        -11    1    1    2    0    0  0.91176082172E+01 -0.48962828768E+00  0.24424541170E+03  0.24441602167E+03  0.00000000000E+00 0. -1.
         11    1    1    2    0    0  0.44734182893E+01 -0.18926479776E+02 -0.49835935992E+03  0.49873868381E+03  0.00000000000E+00 0. -1.
        -15    1    1    2    0    0 -0.85902478343E+01  0.32854772446E+01  0.19792162067E+03  0.19814316131E+03  0.17770000000E+01 0.  1.
         15    1    1    2    0    0 -0.50007786722E+01  0.16130630819E+02  0.56192327555E+02  0.58702133207E+02  0.17770000000E+01 0. -1.
</event>
<event>
 6    1  0.1599106E-003  0.5065327E+03  0.7546771E-02  0.9385310E-01
        -11   -1    0    0    0    0  0.00000000000E+00  0.00000000000E+00  0.50000000000E+03  0.50000000000E+03  0.00000000000E+00 0.  1.
         11   -1    0    0    0    0 -0.00000000000E+00 -0.00000000000E+00 -0.50000000000E+03  0.50000000000E+03  0.00000000000E+00 0.  1.
        -11    1    1    2    0    0  0.19676270563E+02  0.99935038642E+01  0.44021332068E+03  0.44076614372E+03  0.00000000000E+00 0.  1.
         11    1    1    2    0    0  0.75209041708E-01 -0.85147121465E+01 -0.49339379810E+03  0.49346726942E+03  0.00000000000E+00 0.  1.
        -15    1    1    2    0    0 -0.27216711212E+02 -0.58916089971E+01  0.47968351007E+02  0.55493971322E+02  0.17770000000E+01 0. -1.
         15    1    1    2    0    0  0.74652316072E+01  0.44128172795E+01  0.52121264138E+01  0.10272615541E+02  0.17770000000E+01 0.  1.
</event>
<event>
 6    1  0.1599106E-003  0.5053517E+03  0.7546771E-02  0.9387914E-01
        -11   -1    0    0    0    0  0.00000000000E+00  0.00000000000E+00  0.50000000000E+03  0.50000000000E+03  0.00000000000E+00 0.  1.
         11   -1    0    0    0    0 -0.00000000000E+00 -0.00000000000E+00 -0.50000000000E+03  0.50000000000E+03  0.00000000000E+00 0. -1.
        -11    1    1    2    0    0 -0.10898914296E+00  0.71168948658E+01  0.49459708626E+03  0.49464829911E+03  0.00000000000E+00 0.  1.
         11    1    1    2    0    0  0.22261214183E+00 -0.67324313541E+01 -0.40389961281E+03  0.40395578027E+03  0.00000000000E+00 0. -1.
        -15    1    1    2    0    0 -0.19821449929E+02 -0.10618363659E+02 -0.38122290877E+02  0.44295669255E+02  0.17770000000E+01 0. -1.
         15    1    1    2    0    0  0.19707826930E+02  0.10233900147E+02 -0.52575182576E+02  0.57100251369E+02  0.17770000000E+01 0.  1.
</event>
<event>
 6    1  0.1599106E-003  0.5269073E+03  0.7546771E-02  0.9341537E-01
        -11   -1    0    0    0    0  0.00000000000E+00  0.00000000000E+00  0.50000000000E+03  0.50000000000E+03  0.00000000000E+00 0.  1.
         11   -1    0    0    0    0 -0.00000000000E+00 -0.00000000000E+00 -0.50000000000E+03  0.50000000000E+03  0.00000000000E+00 0.  1.
        -11    1    1    2    0    0 -0.24302170891E+01  0.73198057290E+01  0.32273030356E+03  0.32282245020E+03  0.00000000000E+00 0.  1.
         11    1    1    2    0    0  0.14768430617E+02 -0.22334863615E+02 -0.47233438503E+03  0.47309272237E+03  0.00000000000E+00 0.  1.
        -15    1    1    2    0    0  0.30225632237E+02  0.51053204774E+01  0.15678283807E+03  0.15976128812E+03  0.17770000000E+01 0.  1.
         15    1    1    2    0    0 -0.42563845764E+02  0.99097374086E+01 -0.71787565958E+01  0.44323539310E+02  0.17770000000E+01 0. -1.
</event>
<event>
 6    1  0.1599106E-003  0.5211175E+03  0.7546771E-02  0.9353759E-01
        -11   -1    0    0    0    0  0.00000000000E+00  0.00000000000E+00  0.50000000000E+03  0.50000000000E+03  0.00000000000E+00 0.  1.
         11   -1    0    0    0    0 -0.00000000000E+00 -0.00000000000E+00 -0.50000000000E+03  0.50000000000E+03  0.00000000000E+00 0. -1.
        -11    1    1    2    0    0 -0.14123742918E+02  0.39262658829E+01  0.45373628727E+03  0.45397303230E+03  0.00000000000E+00 0.  1.
         11    1    1    2    0    0  0.64756580581E+01 -0.13394618922E+02 -0.47865131292E+03  0.47888247966E+03  0.00000000000E+00 0. -1.
        -15    1    1    2    0    0 -0.72072822624E+01  0.18316873055E+02 -0.14203343249E+02  0.24338147928E+02  0.17770000000E+01 0.  1.
         15    1    1    2    0    0  0.14855367122E+02 -0.88485200153E+01  0.39118368904E+02  0.42806340109E+02  0.17770000000E+01 0. -1.
</event>
<event>
 6    1  0.1599106E-003  0.4794962E+03  0.7546771E-02  0.9446895E-01
        -11   -1    0    0    0    0  0.00000000000E+00  0.00000000000E+00  0.50000000000E+03  0.50000000000E+03  0.00000000000E+00 0. -1.
         11   -1    0    0    0    0 -0.00000000000E+00 -0.00000000000E+00 -0.50000000000E+03  0.50000000000E+03  0.00000000000E+00 0.  1.
        -11    1    1    2    0    0 -0.15287286099E+01 -0.18458922769E+02  0.47767901752E+03  0.47803798240E+03  0.00000000000E+00 0. -1.
         11    1    1    2    0    0 -0.29859358679E+00 -0.18234567886E+02 -0.48131951769E+03  0.48166489049E+03  0.00000000000E+00 0.  1.
        -15    1    1    2    0    0  0.20947779718E+01  0.10070427032E+02  0.81396844354E+01  0.13236834481E+02  0.17770000000E+01 0. -1.
         15    1    1    2    0    0 -0.26745577516E+00  0.26623063623E+02 -0.44991842642E+01  0.27060292632E+02  0.17770000000E+01 0.  1.
</event>
<event>
 6    1  0.1599106E-003  0.5141489E+03  0.7546771E-02  0.9368695E-01
        -11   -1    0    0    0    0  0.00000000000E+00  0.00000000000E+00  0.50000000000E+03  0.50000000000E+03  0.00000000000E+00 0.  1.
         11   -1    0    0    0    0 -0.00000000000E+00 -0.00000000000E+00 -0.50000000000E+03  0.50000000000E+03  0.00000000000E+00 0.  1.
        -11    1    1    2    0    0 -0.45947401073E+01 -0.20577702968E+02  0.44652555490E+03  0.44702306951E+03  0.00000000000E+00 0.  1.
         11    1    1    2    0    0 -0.54624657104E+01  0.13221076346E+02 -0.48564041231E+03  0.48585105275E+03  0.00000000000E+00 0.  1.
        -15    1    1    2    0    0 -0.26718901189E+01 -0.10604948378E+02 -0.89411318104E+01  0.14237467962E+02  0.17770000000E+01 0. -1.
         15    1    1    2    0    0  0.12729095937E+02  0.17961575000E+02  0.48055989218E+02  0.52888409776E+02  0.17770000000E+01 0.  1.
</event>
<event>
 6    1  0.1599106E-003  0.5008542E+03  0.7546771E-02  0.9397900E-01
        -11   -1    0    0    0    0  0.00000000000E+00  0.00000000000E+00  0.50000000000E+03  0.50000000000E+03  0.00000000000E+00 0. -1.
         11   -1    0    0    0    0 -0.00000000000E+00 -0.00000000000E+00 -0.50000000000E+03  0.50000000000E+03  0.00000000000E+00 0. -1.
        -11    1    1    2    0    0  0.10334203619E+01 -0.12924339640E+02  0.49897738687E+03  0.49914580948E+03  0.00000000000E+00 0. -1.
         11    1    1    2    0    0 -0.58009397628E+01  0.92287179319E+01 -0.33929335770E+03  0.33946841195E+03  0.00000000000E+00 0. -1.
        -15    1    1    2    0    0  0.12843282078E+02 -0.40500002909E+00 -0.11689741900E+03  0.11761495746E+03  0.17770000000E+01 0.  1.
         15    1    1    2    0    0 -0.80757626774E+01  0.41006217376E+01 -0.42786610173E+02  0.43770821109E+02  0.17770000000E+01 0. -1.
</event>
<event>
 6    1  0.1599106E-003  0.5054636E+03  0.7546771E-02  0.9387667E-01
        -11   -1    0    0    0    0  0.00000000000E+00  0.00000000000E+00  0.50000000000E+03  0.50000000000E+03  0.00000000000E+00 0. -1.
         11   -1    0    0    0    0 -0.00000000000E+00 -0.00000000000E+00 -0.50000000000E+03  0.50000000000E+03  0.00000000000E+00 0.  1.
        -11    1    1    2    0    0  0.40163551255E+02  0.92435538464E+01  0.49281605929E+03  0.49453637119E+03  0.00000000000E+00 0. -1.
         11    1    1    2    0    0 -0.58581282720E+01  0.36913992689E+01 -0.31992867737E+03  0.32000359795E+03  0.00000000000E+00 0.  1.
        -15    1    1    2    0    0 -0.29221998946E+02 -0.14774761171E+02 -0.36948569971E+02  0.49402159285E+02  0.17770000000E+01 0. -1.
         15    1    1    2    0    0 -0.50834240374E+01  0.18398080560E+01 -0.13593881195E+03  0.13605787157E+03  0.17770000000E+01 0.  1.
</event>
<event>
 6    1  0.1599106E-003  0.5088032E+03  0.7546771E-02  0.9380325E-01
        -11   -1    0    0    0    0  0.00000000000E+00  0.00000000000E+00  0.50000000000E+03  0.50000000000E+03  0.00000000000E+00 0.  1.
         11   -1    0    0    0    0 -0.00000000000E+00 -0.00000000000E+00 -0.50000000000E+03  0.50000000000E+03  0.00000000000E+00 0.  1.
        -11    1    1    2    0    0 -0.29512886714E+01  0.15055099436E+02  0.49095718606E+03  0.49119682884E+03  0.00000000000E+00 0.  1.
         11    1    1    2    0    0 -0.64366684002E+01 -0.38120694826E+01 -0.45968187012E+03  0.45974273707E+03  0.00000000000E+00 0.  1.
        -15    1    1    2    0    0  0.11441184844E+02  0.10344261977E+02 -0.17077641150E+02  0.23080468425E+02  0.17770000000E+01 0.  1.
         15    1    1    2    0    0 -0.20532277720E+01 -0.21587291930E+02 -0.14197674786E+02  0.25979965656E+02  0.17770000000E+01 0. -1.
</event>
<event>
 6    1  0.1599106E-003  0.5008003E+03  0.7546771E-02  0.9398021E-01
        -11   -1    0    0    0    0  0.00000000000E+00  0.00000000000E+00  0.50000000000E+03  0.50000000000E+03  0.00000000000E+00 0.  1.
         11   -1    0    0    0    0 -0.00000000000E+00 -0.00000000000E+00 -0.50000000000E+03  0.50000000000E+03  0.00000000000E+00 0.  1.
        -11    1    1    2    0    0  0.11527469904E+01 -0.75868753080E+01  0.49914068566E+03  0.49919967306E+03  0.00000000000E+00 0.  1.
         11    1    1    2    0    0  0.34753639085E+01 -0.77186513712E+01 -0.38533660654E+03  0.38542957343E+03  0.00000000000E+00 0.  1.
        -15    1    1    2    0    0 -0.71750680781E+01  0.13029827153E+02 -0.95315618194E+02  0.96485661102E+02  0.17770000000E+01 0. -1.
         15    1    1    2    0    0  0.25469571791E+01  0.22756995261E+01 -0.18488460924E+02  0.18885092416E+02  0.17770000000E+01 0. -1.
</event>
<event>
 6    1  0.1599106E-003  0.5087286E+03  0.7546771E-02  0.9380488E-01
        -11   -1    0    0    0    0  0.00000000000E+00  0.00000000000E+00  0.50000000000E+03  0.50000000000E+03  0.00000000000E+00 0. -1.
         11   -1    0    0    0    0 -0.00000000000E+00 -0.00000000000E+00 -0.50000000000E+03  0.50000000000E+03  0.00000000000E+00 0.  1.
        -11    1    1    2    0    0  0.40184887984E+01 -0.64816081687E+01  0.49121218945E+03  0.49127138585E+03  0.00000000000E+00 0. -1.
         11    1    1    2    0    0  0.76598168451E+01 -0.12539598183E+00 -0.46404312848E+03  0.46410636023E+03  0.00000000000E+00 0.  1.
        -15    1    1    2    0    0 -0.10644632568E+02  0.16992856433E+02 -0.60858226477E+01  0.21029986651E+02  0.17770000000E+01 0.  1.
         15    1    1    2    0    0 -0.10336730759E+01 -0.10385852283E+02 -0.21083238318E+02  0.23592267264E+02  0.17770000000E+01 0. -1.
</event>
<event>
 6    1  0.1599106E-003  0.5009864E+03  0.7546771E-02  0.9397605E-01
        -11   -1    0    0    0    0  0.00000000000E+00  0.00000000000E+00  0.50000000000E+03  0.50000000000E+03  0.00000000000E+00 0.  1.
         11   -1    0    0    0    0 -0.00000000000E+00 -0.00000000000E+00 -0.50000000000E+03  0.50000000000E+03  0.00000000000E+00 0.  1.
        -11    1    1    2    0    0 -0.46304125135E+00 -0.65275734715E+01  0.36896250945E+03  0.36902053738E+03  0.00000000000E+00 0.  1.
         11    1    1    2    0    0  0.61380582082E+01 -0.50155793568E+01 -0.49895065858E+03  0.49901361855E+03  0.00000000000E+00 0.  1.
        -15    1    1    2    0    0  0.78879142252E+00  0.24074374343E+01  0.97665594266E+02  0.97714604739E+02  0.17770000000E+01 0.  1.
         15    1    1    2    0    0 -0.64638083793E+01  0.91357153939E+01  0.32322554861E+02  0.34251239339E+02  0.17770000000E+01 0.  1.
</event>
<event>
 6    1  0.1599106E-003  0.5108350E+03  0.7546771E-02  0.9375887E-01
        -11   -1    0    0    0    0  0.00000000000E+00  0.00000000000E+00  0.50000000000E+03  0.50000000000E+03  0.00000000000E+00 0. -1.
         11   -1    0    0    0    0 -0.00000000000E+00 -0.00000000000E+00 -0.50000000000E+03  0.50000000000E+03  0.00000000000E+00 0.  1.
        -11    1    1    2    0    0 -0.54370142594E+01 -0.83949567986E+01  0.42081784008E+03  0.42093668283E+03  0.00000000000E+00 0. -1.
         11    1    1    2    0    0  0.68459533529E+01  0.11852087381E+01 -0.48911562192E+03  0.48916496543E+03  0.00000000000E+00 0.  1.
        -15    1    1    2    0    0 -0.97282418522E+01  0.74789246260E+01 -0.69209217498E+01  0.14199644008E+02  0.17770000000E+01 0.  1.
         15    1    1    2    0    0  0.83193027588E+01 -0.26917656555E+00  0.75218703588E+02  0.75698707736E+02  0.17770000000E+01 0. -1.
</event>
<event>
 6    1  0.1599106E-003  0.5150245E+03  0.7546771E-02  0.9366805E-01
        -11   -1    0    0    0    0  0.00000000000E+00  0.00000000000E+00  0.50000000000E+03  0.50000000000E+03  0.00000000000E+00 0. -1.
         11   -1    0    0    0    0 -0.00000000000E+00 -0.00000000000E+00 -0.50000000000E+03  0.50000000000E+03  0.00000000000E+00 0.  1.
        -11    1    1    2    0    0  0.11894891390E+02 -0.43795208318E+01  0.48480985088E+03  0.48497552532E+03  0.00000000000E+00 0. -1.
         11    1    1    2    0    0  0.77382201636E+01 -0.12818606741E+02 -0.45276203920E+03  0.45300955936E+03  0.00000000000E+00 0.  1.
        -15    1    1    2    0    0 -0.11034346711E+02  0.12145725320E+02 -0.43618060783E+02  0.46636556545E+02  0.17770000000E+01 0.  1.
         15    1    1    2    0    0 -0.85987648424E+01  0.50524022529E+01  0.11570249102E+02  0.15378358775E+02  0.17770000000E+01 0. -1.
</event>
<event>
 6    1  0.1599106E-003  0.4924008E+03  0.7546771E-02  0.9416976E-01
        -11   -1    0    0    0    0  0.00000000000E+00  0.00000000000E+00  0.50000000000E+03  0.50000000000E+03  0.00000000000E+00 0.  1.
         11   -1    0    0    0    0 -0.00000000000E+00 -0.00000000000E+00 -0.50000000000E+03  0.50000000000E+03  0.00000000000E+00 0.  1.
        -11    1    1    2    0    0 -0.83338000149E+01  0.82677980238E+00  0.49188151680E+03  0.49195280501E+03  0.00000000000E+00 0.  1.
         11    1    1    2    0    0  0.50785020350E+01  0.62859470846E+01 -0.49281411978E+03  0.49288037186E+03  0.00000000000E+00 0.  1.
        -15    1    1    2    0    0 -0.16716762249E+01  0.54821651649E+00 -0.39542356670E+01  0.46785415954E+01  0.17770000000E+01 0.  1.
         15    1    1    2    0    0  0.49269742048E+01 -0.76609434035E+01  0.48868386399E+01  0.10488281534E+02  0.17770000000E+01 0.  1.
</event>
<event>
 6    1  0.1599106E-003  0.5178811E+03  0.7546771E-02  0.9360665E-01
        -11   -1    0    0    0    0  0.00000000000E+00  0.00000000000E+00  0.50000000000E+03  0.50000000000E+03  0.00000000000E+00 0.  1.
         11   -1    0    0    0    0 -0.00000000000E+00 -0.00000000000E+00 -0.50000000000E+03  0.50000000000E+03  0.00000000000E+00 0.  1.
        -11    1    1    2    0    0  0.17606382258E+01  0.64616136747E+01  0.32238400039E+03  0.32245355635E+03  0.00000000000E+00 0.  1.
         11    1    1    2    0    0  0.77036863180E+01  0.21908476408E+01 -0.48205234060E+03  0.48211887090E+03  0.00000000000E+00 0.  1.
        -15    1    1    2    0    0  0.27990355569E+01 -0.36629485197E+01  0.17501315951E+03  0.17508288187E+03  0.17770000000E+01 0.  1.
         15    1    1    2    0    0 -0.12263360101E+02 -0.49895127958E+01 -0.15344819299E+02  0.20344690886E+02  0.17770000000E+01 0.  1.
</event>
<event>
 6    1  0.1599106E-003  0.5051806E+03  0.7546771E-02  0.9388292E-01
        -11   -1    0    0    0    0  0.00000000000E+00  0.00000000000E+00  0.50000000000E+03  0.50000000000E+03  0.00000000000E+00 0. -1.
         11   -1    0    0    0    0 -0.00000000000E+00 -0.00000000000E+00 -0.50000000000E+03  0.50000000000E+03  0.00000000000E+00 0. -1.
        -11    1    1    2    0    0 -0.12811632348E+01  0.87588769781E+01  0.39927279821E+03  0.39937091368E+03  0.00000000000E+00 0. -1.
         11    1    1    2    0    0  0.51781314188E+00 -0.74716142587E+01 -0.49476269200E+03  0.49481937567E+03  0.00000000000E+00 0. -1.
        -15    1    1    2    0    0 -0.93676502478E+01  0.35173818808E+01  0.53317791692E+00  0.10176780147E+02  0.17770000000E+01 0. -1.
         15    1    1    2    0    0  0.10131000341E+02 -0.48046446002E+01  0.94956715875E+02  0.95632930502E+02  0.17770000000E+01 0.  1.
</event>
<event>
 6    1  0.1599106E-003  0.4816447E+03  0.7546771E-02  0.9441844E-01
        -11   -1    0    0    0    0  0.00000000000E+00  0.00000000000E+00  0.50000000000E+03  0.50000000000E+03  0.00000000000E+00 0. -1.
         11   -1    0    0    0    0 -0.00000000000E+00 -0.00000000000E+00 -0.50000000000E+03  0.50000000000E+03  0.00000000000E+00 0.  1.
        -11    1    1    2    0    0 -0.73485025534E+01  0.46697568056E+01  0.48583539508E+03  0.48591340610E+03  0.00000000000E+00 0. -1.
         11    1    1    2    0    0 -0.47621947735E+01  0.10209329518E+02 -0.47747053803E+03  0.47760341665E+03  0.00000000000E+00 0.  1.
        -15    1    1    2    0    0  0.66797275087E+01 -0.93416508042E+01  0.10717361037E+02  0.15808376132E+02  0.17770000000E+01 0.  1.
         15    1    1    2    0    0  0.54309698182E+01 -0.55374355194E+01 -0.19082218080E+02  0.20674801116E+02  0.17770000000E+01 0. -1.
</event>
<event>
 6    1  0.1599106E-003  0.5004256E+03  0.7546771E-02  0.9398858E-01
        -11   -1    0    0    0    0  0.00000000000E+00  0.00000000000E+00  0.50000000000E+03  0.50000000000E+03  0.00000000000E+00 0. -1.
         11   -1    0    0    0    0 -0.00000000000E+00 -0.00000000000E+00 -0.50000000000E+03  0.50000000000E+03  0.00000000000E+00 0.  1.
        -11    1    1    2    0    0  0.40758948247E+01  0.70090937937E+00  0.12154127771E+03  0.12161162107E+03  0.00000000000E+00 0. -1.
         11    1    1    2    0    0  0.10693067511E+02  0.14968514048E+02 -0.49923559791E+03  0.49957439919E+03  0.00000000000E+00 0.  1.
        -15    1    1    2    0    0 -0.11216635292E+02 -0.10360195487E+02  0.11347596214E+03  0.11451243718E+03  0.17770000000E+01 0.  1.
         15    1    1    2    0    0 -0.35523270436E+01 -0.53092279399E+01  0.26421835806E+03  0.26430154255E+03  0.17770000000E+01 0. -1.
</event>
<event>
 6    1  0.1599106E-003  0.5006319E+03  0.7546771E-02  0.9398397E-01
        -11   -1    0    0    0    0  0.00000000000E+00  0.00000000000E+00  0.50000000000E+03  0.50000000000E+03  0.00000000000E+00 0. -1.
         11   -1    0    0    0    0 -0.00000000000E+00 -0.00000000000E+00 -0.50000000000E+03  0.50000000000E+03  0.00000000000E+00 0.  1.
        -11    1    1    2    0    0  0.74897681245E+01 -0.39643065789E+01  0.49929617453E+03  0.49936808293E+03  0.00000000000E+00 0. -1.
         11    1    1    2    0    0  0.52504547444E+01 -0.42523430767E+00 -0.31559008555E+03  0.31563404474E+03  0.00000000000E+00 0.  1.
        -15    1    1    2    0    0 -0.19363008003E+01  0.75141573732E+01 -0.12134475768E+03  0.12160559102E+03  0.17770000000E+01 0.  1.
         15    1    1    2    0    0 -0.10803922069E+02 -0.31246164866E+01 -0.62361331297E+02  0.63392281315E+02  0.17770000000E+01 0. -1.
</event>
<event>
 6    1  0.1599106E-003  0.5004129E+03  0.7546771E-02  0.9398886E-01
        -11   -1    0    0    0    0  0.00000000000E+00  0.00000000000E+00  0.50000000000E+03  0.50000000000E+03  0.00000000000E+00 0. -1.
         11   -1    0    0    0    0 -0.00000000000E+00 -0.00000000000E+00 -0.50000000000E+03  0.50000000000E+03  0.00000000000E+00 0.  1.
        -11    1    1    2    0    0  0.10124670612E+02 -0.31923211986E+01  0.35336479314E+03  0.35352422392E+03  0.00000000000E+00 0. -1.
         11    1    1    2    0    0  0.19958362671E+01  0.84960576136E+01 -0.49951088069E+03  0.49958711581E+03  0.00000000000E+00 0.  1.
        -15    1    1    2    0    0 -0.36136766879E+01 -0.28222578964E+01  0.76616324297E+02  0.76773971349E+02  0.17770000000E+01 0. -1.
         15    1    1    2    0    0 -0.85068301915E+01 -0.24814785185E+01  0.69529763251E+02  0.70114688920E+02  0.17770000000E+01 0.  1.
</event>
<event>
 6    1  0.1599106E-003  0.5061340E+03  0.7546771E-02  0.9386188E-01
        -11   -1    0    0    0    0  0.00000000000E+00  0.00000000000E+00  0.50000000000E+03  0.50000000000E+03  0.00000000000E+00 0. -1.
         11   -1    0    0    0    0 -0.00000000000E+00 -0.00000000000E+00 -0.50000000000E+03  0.50000000000E+03  0.00000000000E+00 0. -1.
        -11    1    1    2    0    0  0.66058666613E+01 -0.59847614795E+01  0.46600505837E+03  0.46609030162E+03  0.00000000000E+00 0. -1.
         11    1    1    2    0    0 -0.91733804739E+01  0.12366987610E+01 -0.49377929377E+03  0.49386604589E+03  0.00000000000E+00 0. -1.
        -15    1    1    2    0    0 -0.61688396175E+01  0.56514982719E+01  0.29675352233E+02  0.30883300894E+02  0.17770000000E+01 0.  1.
         15    1    1    2    0    0  0.87363534301E+01 -0.90343555335E+00 -0.19011168321E+01  0.91603515906E+01  0.17770000000E+01 0.  1.
</event>
<event>
 6    1  0.1599106E-003  0.5021645E+03  0.7546771E-02  0.9394979E-01
        -11   -1    0    0    0    0  0.00000000000E+00  0.00000000000E+00  0.50000000000E+03  0.50000000000E+03  0.00000000000E+00 0. -1.
         11   -1    0    0    0    0 -0.00000000000E+00 -0.00000000000E+00 -0.50000000000E+03  0.50000000000E+03  0.00000000000E+00 0. -1.
        -11    1    1    2    0    0  0.87331636920E+01 -0.10546983405E+01  0.38306430879E+03  0.38316529750E+03  0.00000000000E+00 0. -1.
         11    1    1    2    0    0 -0.47819465210E+01  0.11503838207E+02 -0.49767958957E+03  0.49783549409E+03  0.00000000000E+00 0. -1.
        -15    1    1    2    0    0 -0.41448432491E+01 -0.48742107213E+01  0.11261770234E+03  0.11281330713E+03  0.17770000000E+01 0. -1.
         15    1    1    2    0    0  0.19362607814E+00 -0.55749291451E+01  0.19975784349E+01  0.61859012791E+01  0.17770000000E+01 0.  1.
</event>
<event>
 6    1  0.1599106E-003  0.5033206E+03  0.7546771E-02  0.9392410E-01
        -11   -1    0    0    0    0  0.00000000000E+00  0.00000000000E+00  0.50000000000E+03  0.50000000000E+03  0.00000000000E+00 0. -1.
         11   -1    0    0    0    0 -0.00000000000E+00 -0.00000000000E+00 -0.50000000000E+03  0.50000000000E+03  0.00000000000E+00 0.  1.
        -11    1    1    2    0    0 -0.55128683872E+01  0.11967556882E+02  0.45168346255E+03  0.45187560731E+03  0.00000000000E+00 0. -1.
         11    1    1    2    0    0 -0.17847765582E+02 -0.75015294984E+01 -0.49630190154E+03  0.49667936655E+03  0.00000000000E+00 0.  1.
        -15    1    1    2    0    0  0.73433207329E+01  0.11189864213E+01  0.80615038905E+01  0.11105046779E+02  0.17770000000E+01 0. -1.
         15    1    1    2    0    0  0.16017313236E+02 -0.55850138052E+01  0.36556935097E+02  0.40339979365E+02  0.17770000000E+01 0.  1.
</event>
<event>
 6    1  0.2075253E-003  0.5000807E+03  0.7546771E-02  0.9399629E-01
        -11   -1    0    0    0    0  0.00000000000E+00  0.00000000000E+00  0.50000000000E+03  0.50000000000E+03  0.00000000000E+00 0. -1.
         11   -1    0    0    0    0 -0.00000000000E+00 -0.00000000000E+00 -0.50000000000E+03  0.50000000000E+03  0.00000000000E+00 0.  1.
        -11    1    1    2    0    0  0.28491321339E+01  0.73618459547E+01  0.49985695199E+03  0.49991928027E+03  0.00000000000E+00 0. -1.
         11    1    1    2    0    0 -0.10492043113E+01 -0.14991870920E+01 -0.10032223236E+03  0.10033891915E+03  0.00000000000E+00 0.  1.
        -15    1    1    2    0    0 -0.22647543977E+01  0.22776327878E+00 -0.27220801513E+02  0.27373541104E+02  0.17770000000E+01 0.  1.
         15    1    1    2    0    0  0.46482657503E+00 -0.60904221415E+01 -0.37231391812E+03  0.37236825947E+03  0.17770000000E+01 0.  1.
</event>
<event>
 6    1  0.1599106E-003  0.5076307E+03  0.7546771E-02  0.9382896E-01
        -11   -1    0    0    0    0  0.00000000000E+00  0.00000000000E+00  0.50000000000E+03  0.50000000000E+03  0.00000000000E+00 0.  1.
         11   -1    0    0    0    0 -0.00000000000E+00 -0.00000000000E+00 -0.50000000000E+03  0.50000000000E+03  0.00000000000E+00 0.  1.
        -11    1    1    2    0    0 -0.13826487754E+00 -0.19766057966E+02  0.45527458659E+03  0.45570348403E+03  0.00000000000E+00 0.  1.
         11    1    1    2    0    0  0.86557282879E+01 -0.55425325480E+01 -0.49226202871E+03  0.49236931891E+03  0.00000000000E+00 0.  1.
        -15    1    1    2    0    0 -0.50931808516E+01  0.23208670188E+01  0.25069098014E+02  0.25747705124E+02  0.17770000000E+01 0. -1.
         15    1    1    2    0    0 -0.34242825588E+01  0.22987723496E+02  0.11918344105E+02  0.26179491931E+02  0.17770000000E+01 0.  1.
</event>
<event>
 6    1  0.1599106E-003  0.5087187E+03  0.7546771E-02  0.9380510E-01
        -11   -1    0    0    0    0  0.00000000000E+00  0.00000000000E+00  0.50000000000E+03  0.50000000000E+03  0.00000000000E+00 0. -1.
         11   -1    0    0    0    0 -0.00000000000E+00 -0.00000000000E+00 -0.50000000000E+03  0.50000000000E+03  0.00000000000E+00 0. -1.
        -11    1    1    2    0    0  0.16188350618E+02 -0.19025138581E+02  0.49064582665E+03  0.49128133061E+03  0.00000000000E+00 0. -1.
         11    1    1    2    0    0  0.75305631480E+01  0.49428133903E+01 -0.44898873519E+03  0.44907908559E+03  0.00000000000E+00 0. -1.
        -15    1    1    2    0    0 -0.11158058686E+02  0.28922664497E+01  0.28671188478E+01  0.12010228072E+02  0.17770000000E+01 0.  1.
         15    1    1    2    0    0 -0.12560855080E+02  0.11190058741E+02 -0.44524210305E+02  0.47629355730E+02  0.17770000000E+01 0. -1.
</event>
<event>
 6    1  0.1599106E-003  0.5006369E+03  0.7546771E-02  0.9398386E-01
        -11   -1    0    0    0    0  0.00000000000E+00  0.00000000000E+00  0.50000000000E+03  0.50000000000E+03  0.00000000000E+00 0.  1.
         11   -1    0    0    0    0 -0.00000000000E+00 -0.00000000000E+00 -0.50000000000E+03  0.50000000000E+03  0.00000000000E+00 0. -1.
        -11    1    1    2    0    0  0.72503347352E+01  0.21311609518E+01  0.33747422710E+03  0.33755882918E+03  0.00000000000E+00 0.  1.
         11    1    1    2    0    0 -0.85112002387E+01  0.46184698111E+01 -0.49926919354E+03  0.49936309276E+03  0.00000000000E+00 0. -1.
        -15    1    1    2    0    0  0.98331316691E+00 -0.80237986495E+00  0.14691002410E+01  0.26318629809E+01  0.17770000000E+01 0. -1.
         15    1    1    2    0    0  0.27755233659E+00 -0.59472508979E+01  0.16032586621E+03  0.16044621508E+03  0.17770000000E+01 0.  1.
</event>
<event>
 6    1  0.1599106E-003  0.5076828E+03  0.7546771E-02  0.9382781E-01
        -11   -1    0    0    0    0  0.00000000000E+00  0.00000000000E+00  0.50000000000E+03  0.50000000000E+03  0.00000000000E+00 0.  1.
         11   -1    0    0    0    0 -0.00000000000E+00 -0.00000000000E+00 -0.50000000000E+03  0.50000000000E+03  0.00000000000E+00 0. -1.
        -11    1    1    2    0    0  0.11849007625E+02 -0.32347406219E+01  0.49216399004E+03  0.49231723068E+03  0.00000000000E+00 0.  1.
         11    1    1    2    0    0 -0.13348557839E+02 -0.10919594117E+01 -0.39079324167E+03  0.39102267723E+03  0.00000000000E+00 0. -1.
        -15    1    1    2    0    0  0.13837523266E+02 -0.21417652206E+02 -0.28007358157E+02  0.37917841659E+02  0.17770000000E+01 0.  1.
         15    1    1    2    0    0 -0.12337973052E+02  0.25744352240E+02 -0.73363390213E+02  0.78742250436E+02  0.17770000000E+01 0. -1.
</event>
<event>
 6    1  0.1599106E-003  0.5027545E+03  0.7546771E-02  0.9393667E-01
        -11   -1    0    0    0    0  0.00000000000E+00  0.00000000000E+00  0.50000000000E+03  0.50000000000E+03  0.00000000000E+00 0. -1.
         11   -1    0    0    0    0 -0.00000000000E+00 -0.00000000000E+00 -0.50000000000E+03  0.50000000000E+03  0.00000000000E+00 0.  1.
        -11    1    1    2    0    0  0.45635320084E+01 -0.11578091418E+02  0.27742735072E+03  0.27770634302E+03  0.00000000000E+00 0. -1.
         11    1    1    2    0    0 -0.22274480871E+01  0.64771983218E+01 -0.49719829900E+03  0.49724547675E+03  0.00000000000E+00 0.  1.
        -15    1    1    2    0    0  0.12753601255E+01  0.21633601605E+02  0.18565842166E+03  0.18692738303E+03  0.17770000000E+01 0. -1.
         15    1    1    2    0    0 -0.36114440467E+01 -0.16532708509E+02  0.34112526610E+02  0.38120797204E+02  0.17770000000E+01 0.  1.
</event>
<event>
 6    1  0.1599106E-003  0.5600372E+03  0.7546771E-02  0.9274664E-01
        -11   -1    0    0    0    0  0.00000000000E+00  0.00000000000E+00  0.50000000000E+03  0.50000000000E+03  0.00000000000E+00 0. -1.
         11   -1    0    0    0    0 -0.00000000000E+00 -0.00000000000E+00 -0.50000000000E+03  0.50000000000E+03  0.00000000000E+00 0.  1.
        -11    1    1    2    0    0  0.60041719443E+02  0.23974070128E+02  0.43518674152E+03  0.43996279854E+03  0.00000000000E+00 0. -1.
         11    1    1    2    0    0  0.10315856349E+01 -0.13703562960E+02 -0.26548117848E+03  0.26583661887E+03  0.00000000000E+00 0.  1.
        -15    1    1    2    0    0 -0.72171374374E+02 -0.35350384461E+02  0.34989629604E+02  0.87668631046E+02  0.17770000000E+01 0. -1.
         15    1    1    2    0    0  0.11098069297E+02  0.25079877292E+02 -0.20469519264E+03  0.20653195154E+03  0.17770000000E+01 0.  1.
</event>
<event>
 6    1  0.1599106E-003  0.4783654E+03  0.7546771E-02  0.9449564E-01
        -11   -1    0    0    0    0  0.00000000000E+00  0.00000000000E+00  0.50000000000E+03  0.50000000000E+03  0.00000000000E+00 0.  1.
         11   -1    0    0    0    0 -0.00000000000E+00 -0.00000000000E+00 -0.50000000000E+03  0.50000000000E+03  0.00000000000E+00 0. -1.
        -11    1    1    2    0    0  0.50275146874E+01 -0.63073013734E+01  0.47379909588E+03  0.47386774654E+03  0.00000000000E+00 0.  1.
         11    1    1    2    0    0 -0.94158795748E+01 -0.25532496840E+02 -0.48267743086E+03  0.48344396722E+03  0.00000000000E+00 0. -1.
        -15    1    1    2    0    0  0.12064523285E+01  0.34371684977E+02  0.12825279366E+02  0.36749337072E+02  0.17770000000E+01 0.  1.
         15    1    1    2    0    0  0.31819125589E+01 -0.25318867641E+01 -0.39469443940E+01  0.59389491637E+01  0.17770000000E+01 0. -1.
</event>
<event>
 6    1  0.1599106E-003  0.5208658E+03  0.7546771E-02  0.9354294E-01
        -11   -1    0    0    0    0  0.00000000000E+00  0.00000000000E+00  0.50000000000E+03  0.50000000000E+03  0.00000000000E+00 0. -1.
         11   -1    0    0    0    0 -0.00000000000E+00 -0.00000000000E+00 -0.50000000000E+03  0.50000000000E+03  0.00000000000E+00 0. -1.
        -11    1    1    2    0    0  0.33721527660E+02  0.14204385859E+02  0.47773498969E+03  0.47913424672E+03  0.00000000000E+00 0. -1.
         11    1    1    2    0    0  0.51707237657E+01  0.48139148751E+01 -0.44013570686E+03  0.44019240182E+03  0.00000000000E+00 0. -1.
        -15    1    1    2    0    0  0.78604332144E+01 -0.12723467156E+02 -0.29015304308E+02  0.32691262439E+02  0.17770000000E+01 0. -1.
         15    1    1    2    0    0 -0.46752684640E+02 -0.62948335779E+01 -0.85839785207E+01  0.47982089023E+02  0.17770000000E+01 0.  1.
</event>
<event>
 6    1  0.1599106E-003  0.5040032E+03  0.7546771E-02  0.9390897E-01
        -11   -1    0    0    0    0  0.00000000000E+00  0.00000000000E+00  0.50000000000E+03  0.50000000000E+03  0.00000000000E+00 0.  1.
         11   -1    0    0    0    0 -0.00000000000E+00 -0.00000000000E+00 -0.50000000000E+03  0.50000000000E+03  0.00000000000E+00 0. -1.
        -11    1    1    2    0    0  0.26079996849E+01 -0.14840304782E+01  0.13029625055E+03  0.13033079804E+03  0.00000000000E+00 0.  1.
         11    1    1    2    0    0  0.20571131647E+02  0.22037761275E+02 -0.49507982062E+03  0.49599683785E+03  0.00000000000E+00 0. -1.
        -15    1    1    2    0    0 -0.31173826512E+02 -0.14061553890E+02  0.36090337578E+03  0.36252439798E+03  0.17770000000E+01 0.  1.
         15    1    1    2    0    0  0.79946951794E+01 -0.64921769071E+01  0.38801942878E+01  0.11147966125E+02  0.17770000000E+01 0. -1.
</event>
<event>
 6    1  0.1599106E-003  0.5195387E+03  0.7546771E-02  0.9357121E-01
        -11   -1    0    0    0    0  0.00000000000E+00  0.00000000000E+00  0.50000000000E+03  0.50000000000E+03  0.00000000000E+00 0.  1.
         11   -1    0    0    0    0 -0.00000000000E+00 -0.00000000000E+00 -0.50000000000E+03  0.50000000000E+03  0.00000000000E+00 0. -1.
        -11    1    1    2    0    0  0.65047564853E+01 -0.83029377226E+01  0.45779590592E+03  0.45791739660E+03  0.00000000000E+00 0.  1.
         11    1    1    2    0    0  0.24712504951E+02 -0.17698416956E+01 -0.47982205090E+03  0.48046127915E+03  0.00000000000E+00 0. -1.
        -15    1    1    2    0    0 -0.28897716227E+02  0.33733683071E+01 -0.83961840236E+01  0.30333335657E+02  0.17770000000E+01 0. -1.
         15    1    1    2    0    0 -0.23195452085E+01  0.66994111111E+01  0.30422328995E+02  0.31287988585E+02  0.17770000000E+01 0.  1.
</event>
<event>
 6    1  0.1599106E-003  0.4840729E+03  0.7546771E-02  0.9436170E-01
        -11   -1    0    0    0    0  0.00000000000E+00  0.00000000000E+00  0.50000000000E+03  0.50000000000E+03  0.00000000000E+00 0.  1.
         11   -1    0    0    0    0 -0.00000000000E+00 -0.00000000000E+00 -0.50000000000E+03  0.50000000000E+03  0.00000000000E+00 0. -1.
        -11    1    1    2    0    0 -0.16117426474E+02  0.32069439435E+01  0.48405248204E+03  0.48433135486E+03  0.00000000000E+00 0.  1.
         11    1    1    2    0    0  0.13541779684E+02 -0.22261851290E+01 -0.48362373693E+03  0.48381841079E+03  0.00000000000E+00 0. -1.
        -15    1    1    2    0    0 -0.13340981828E+02  0.45479260586E+01 -0.34998636977E+01  0.14631206460E+02  0.17770000000E+01 0. -1.
         15    1    1    2    0    0  0.15916628618E+02 -0.55286848731E+01  0.30711185879E+01  0.17219027887E+02  0.17770000000E+01 0.  1.
</event>
<event>
 6    1  0.1599106E-003  0.5035056E+03  0.7546771E-02  0.9392000E-01
        -11   -1    0    0    0    0  0.00000000000E+00  0.00000000000E+00  0.50000000000E+03  0.50000000000E+03  0.00000000000E+00 0. -1.
         11   -1    0    0    0    0 -0.00000000000E+00 -0.00000000000E+00 -0.50000000000E+03  0.50000000000E+03  0.00000000000E+00 0. -1.
        -11    1    1    2    0    0 -0.52886228481E+01 -0.44171950161E+01  0.49053589693E+03  0.49058429176E+03  0.00000000000E+00 0. -1.
         11    1    1    2    0    0  0.67922426514E+01 -0.39068142983E+01 -0.49643260665E+03  0.49649444177E+03  0.00000000000E+00 0. -1.
        -15    1    1    2    0    0 -0.37968710346E+01  0.24219251274E+01  0.32551606402E+01  0.58340166926E+01  0.17770000000E+01 0. -1.
         15    1    1    2    0    0  0.22932512312E+01  0.59020841871E+01  0.26415490811E+01  0.70872497846E+01  0.17770000000E+01 0.  1.
</event>
<event>
 6    1  0.1599106E-003  0.5014710E+03  0.7546771E-02  0.9396524E-01
        -11   -1    0    0    0    0  0.00000000000E+00  0.00000000000E+00  0.50000000000E+03  0.50000000000E+03  0.00000000000E+00 0.  1.
         11   -1    0    0    0    0 -0.00000000000E+00 -0.00000000000E+00 -0.50000000000E+03  0.50000000000E+03  0.00000000000E+00 0.  1.
        -11    1    1    2    0    0 -0.16045512783E+02 -0.78873876338E+00  0.49827009823E+03  0.49852900756E+03  0.00000000000E+00 0.  1.
         11    1    1    2    0    0 -0.52101728624E+01 -0.35388334144E+00 -0.36512811354E+03  0.36516545624E+03  0.00000000000E+00 0.  1.
        -15    1    1    2    0    0  0.16816956504E+02  0.25809508616E+01 -0.46954184820E+02  0.49973238183E+02  0.17770000000E+01 0. -1.
         15    1    1    2    0    0  0.44387291416E+01 -0.14383287568E+01 -0.86187799865E+02  0.86332298015E+02  0.17770000000E+01 0.  1.
</event>
<event>
 6    1  0.1599106E-003  0.5016832E+03  0.7546771E-02  0.9396051E-01
        -11   -1    0    0    0    0  0.00000000000E+00  0.00000000000E+00  0.50000000000E+03  0.50000000000E+03  0.00000000000E+00 0.  1.
         11   -1    0    0    0    0 -0.00000000000E+00 -0.00000000000E+00 -0.50000000000E+03  0.50000000000E+03  0.00000000000E+00 0.  1.
        -11    1    1    2    0    0 -0.60771492960E+01  0.37668984834E+01  0.36713168881E+03  0.36720130473E+03  0.00000000000E+00 0.  1.
         11    1    1    2    0    0 -0.33798143976E+01 -0.81658411811E+01 -0.49823843207E+03  0.49831680616E+03  0.00000000000E+00 0.  1.
        -15    1    1    2    0    0  0.57610263374E+01  0.12335825156E+02  0.11687328792E+03  0.11767703754E+03  0.17770000000E+01 0.  1.
         15    1    1    2    0    0  0.36959373562E+01 -0.79368824586E+01  0.14233455342E+02  0.16804851563E+02  0.17770000000E+01 0.  1.
</event>
<event>
 6    1  0.1599106E-003  0.5014825E+03  0.7546771E-02  0.9396499E-01
        -11   -1    0    0    0    0  0.00000000000E+00  0.00000000000E+00  0.50000000000E+03  0.50000000000E+03  0.00000000000E+00 0.  1.
         11   -1    0    0    0    0 -0.00000000000E+00 -0.00000000000E+00 -0.50000000000E+03  0.50000000000E+03  0.00000000000E+00 0. -1.
        -11    1    1    2    0    0  0.29207033569E+01  0.73012059749E+01  0.43050189423E+03  0.43057370919E+03  0.00000000000E+00 0.  1.
         11    1    1    2    0    0  0.44983940102E+01 -0.54068987040E+01 -0.49846789456E+03  0.49851751424E+03  0.00000000000E+00 0. -1.
        -15    1    1    2    0    0 -0.62525422757E+01  0.76161427254E+01  0.41924606167E+02  0.43103714993E+02  0.17770000000E+01 0.  1.
         15    1    1    2    0    0 -0.11665550915E+01 -0.95104499964E+01  0.26041394164E+02  0.27805061570E+02  0.17770000000E+01 0. -1.
</event>
<event>
 6    1  0.1599106E-003  0.5043963E+03  0.7546771E-02  0.9390026E-01
        -11   -1    0    0    0    0  0.00000000000E+00  0.00000000000E+00  0.50000000000E+03  0.50000000000E+03  0.00000000000E+00 0.  1.
         11   -1    0    0    0    0 -0.00000000000E+00 -0.00000000000E+00 -0.50000000000E+03  0.50000000000E+03  0.00000000000E+00 0. -1.
        -11    1    1    2    0    0  0.30250028964E+01 -0.90652830628E+01  0.45569823021E+03  0.45579842805E+03  0.00000000000E+00 0.  1.
         11    1    1    2    0    0 -0.14018872587E+02 -0.84650121444E+01 -0.49533304904E+03  0.49560368712E+03  0.00000000000E+00 0. -1.
        -15    1    1    2    0    0  0.60751281477E+01  0.14040433260E+02  0.10138146903E+02  0.18438565556E+02  0.17770000000E+01 0. -1.
         15    1    1    2    0    0  0.49187415424E+01  0.34898619475E+01  0.29496671929E+02  0.30159319267E+02  0.17770000000E+01 0.  1.
</event>
<event>
 6    1  0.1599106E-003  0.5183588E+03  0.7546771E-02  0.9359642E-01
        -11   -1    0    0    0    0  0.00000000000E+00  0.00000000000E+00  0.50000000000E+03  0.50000000000E+03  0.00000000000E+00 0. -1.
         11   -1    0    0    0    0 -0.00000000000E+00 -0.00000000000E+00 -0.50000000000E+03  0.50000000000E+03  0.00000000000E+00 0.  1.
        -11    1    1    2    0    0  0.20816095222E+02  0.41754813555E+01  0.48117305201E+03  0.48164120510E+03  0.00000000000E+00 0. -1.
         11    1    1    2    0    0  0.50074858080E+01  0.10131792005E+02 -0.46278895091E+03  0.46292692858E+03  0.00000000000E+00 0.  1.
        -15    1    1    2    0    0 -0.33002963123E+02 -0.16673367091E+02 -0.17327086405E+01  0.37058828278E+02  0.17770000000E+01 0. -1.
         15    1    1    2    0    0  0.71793820933E+01  0.23660937305E+01 -0.16651392464E+02  0.18373038039E+02  0.17770000000E+01 0.  1.
</event>
<event>
 6    1  0.1599106E-003  0.5008016E+03  0.7546771E-02  0.9398018E-01
        -11   -1    0    0    0    0  0.00000000000E+00  0.00000000000E+00  0.50000000000E+03  0.50000000000E+03  0.00000000000E+00 0. -1.
         11   -1    0    0    0    0 -0.00000000000E+00 -0.00000000000E+00 -0.50000000000E+03  0.50000000000E+03  0.00000000000E+00 0.  1.
        -11    1    1    2    0    0 -0.35983546098E+01  0.48262761282E+01  0.44208104479E+03  0.44212203209E+03  0.00000000000E+00 0. -1.
         11    1    1    2    0    0  0.60056840466E+01  0.33298700166E+01 -0.49915119196E+03  0.49919842619E+03  0.00000000000E+00 0.  1.
        -15    1    1    2    0    0 -0.50808070456E+01 -0.84435088392E+01  0.36092907175E+02  0.37456149283E+02  0.17770000000E+01 0.  1.
         15    1    1    2    0    0  0.26734776087E+01  0.28736269443E+00  0.20977239990E+02  0.21223392435E+02  0.17770000000E+01 0. -1.
</event>
<event>
 6    1  0.1599106E-003  0.5013829E+03  0.7546771E-02  0.9396721E-01
        -11   -1    0    0    0    0  0.00000000000E+00  0.00000000000E+00  0.50000000000E+03  0.50000000000E+03  0.00000000000E+00 0.  1.
         11   -1    0    0    0    0 -0.00000000000E+00 -0.00000000000E+00 -0.50000000000E+03  0.50000000000E+03  0.00000000000E+00 0.  1.
        -11    1    1    2    0    0 -0.22314128956E+01  0.12925615193E+01  0.18358458585E+03  0.18360269628E+03  0.00000000000E+00 0.  1.
         11    1    1    2    0    0 -0.15995913062E+02  0.13510584654E+02 -0.49817729169E+03  0.49861710669E+03  0.00000000000E+00 0.  1.
        -15    1    1    2    0    0  0.10874650828E+02 -0.18611621514E+02  0.75485287598E+02  0.78522842910E+02  0.17770000000E+01 0.  1.
         15    1    1    2    0    0  0.73526751298E+01  0.38084753404E+01  0.23910741824E+03  0.23925735412E+03  0.17770000000E+01 0. -1.
</event>
<event>
 6    1  0.1599106E-003  0.5018121E+03  0.7546771E-02  0.9395764E-01
        -11   -1    0    0    0    0  0.00000000000E+00  0.00000000000E+00  0.50000000000E+03  0.50000000000E+03  0.00000000000E+00 0.  1.
         11   -1    0    0    0    0 -0.00000000000E+00 -0.00000000000E+00 -0.50000000000E+03  0.50000000000E+03  0.00000000000E+00 0.  1.
        -11    1    1    2    0    0 -0.23717079862E+01 -0.85913721664E+00  0.17380464500E+03  0.17382294940E+03  0.00000000000E+00 0.  1.
         11    1    1    2    0    0 -0.48169785871E+00  0.16162992178E+02 -0.49792545028E+03  0.49818794485E+03  0.00000000000E+00 0.  1.
        -15    1    1    2    0    0 -0.88338408446E+01 -0.10098401494E+02  0.30250762700E+03  0.30281023196E+03  0.17770000000E+01 0.  1.
         15    1    1    2    0    0  0.11687246690E+02 -0.52054534669E+01  0.21613178282E+02  0.25178873792E+02  0.17770000000E+01 0. -1.
</event>
<event>
 6    1  0.1599106E-003  0.5036086E+03  0.7546771E-02  0.9391771E-01
        -11   -1    0    0    0    0  0.00000000000E+00  0.00000000000E+00  0.50000000000E+03  0.50000000000E+03  0.00000000000E+00 0. -1.
         11   -1    0    0    0    0 -0.00000000000E+00 -0.00000000000E+00 -0.50000000000E+03  0.50000000000E+03  0.00000000000E+00 0.  1.
        -11    1    1    2    0    0 -0.77672807144E+01 -0.11780659698E+00  0.49633061769E+03  0.49639140462E+03  0.00000000000E+00 0. -1.
         11    1    1    2    0    0 -0.87223411486E+01 -0.80146015619E+01 -0.45169032935E+03  0.45184562264E+03  0.00000000000E+00 0.  1.
        -15    1    1    2    0    0  0.65834629097E+01 -0.47169539048E+01 -0.74421672235E+01  0.11141598629E+02  0.17770000000E+01 0.  1.
         15    1    1    2    0    0  0.99061589534E+01  0.12849362064E+02 -0.37198121114E+02  0.40621374103E+02  0.17770000000E+01 0. -1.
</event>
<event>
 6    1  0.1599106E-003  0.5241422E+03  0.7546771E-02  0.9347353E-01
        -11   -1    0    0    0    0  0.00000000000E+00  0.00000000000E+00  0.50000000000E+03  0.50000000000E+03  0.00000000000E+00 0.  1.
         11   -1    0    0    0    0 -0.00000000000E+00 -0.00000000000E+00 -0.50000000000E+03  0.50000000000E+03  0.00000000000E+00 0. -1.
        -11    1    1    2    0    0  0.68078863247E+01 -0.66500381823E+00  0.47580862642E+03  0.47585779233E+03  0.00000000000E+00 0.  1.
         11    1    1    2    0    0  0.98702755472E+01 -0.83738080564E+01 -0.46276221240E+03  0.46294320195E+03  0.00000000000E+00 0. -1.
        -15    1    1    2    0    0  0.61748335439E+01 -0.11140202986E+02 -0.25230859425E+02  0.28319369488E+02  0.17770000000E+01 0. -1.
         15    1    1    2    0    0 -0.22852995416E+02  0.20179014861E+02  0.12184445408E+02  0.32879636238E+02  0.17770000000E+01 0.  1.
</event>
<event>
 6    1  0.1599106E-003  0.5028326E+03  0.7546771E-02  0.9393494E-01
        -11   -1    0    0    0    0  0.00000000000E+00  0.00000000000E+00  0.50000000000E+03  0.50000000000E+03  0.00000000000E+00 0.  1.
         11   -1    0    0    0    0 -0.00000000000E+00 -0.00000000000E+00 -0.50000000000E+03  0.50000000000E+03  0.00000000000E+00 0.  1.
        -11    1    1    2    0    0 -0.45690890109E+01 -0.60685220895E+01  0.49710938533E+03  0.49716742101E+03  0.00000000000E+00 0.  1.
         11    1    1    2    0    0 -0.73344971871E+01  0.31750772251E+01 -0.38736312389E+03  0.38744556484E+03  0.00000000000E+00 0.  1.
        -15    1    1    2    0    0  0.11355409986E+02 -0.72065634787E+01 -0.10097238199E+03  0.10187963264E+03  0.17770000000E+01 0.  1.
         15    1    1    2    0    0  0.54817621207E+00  0.10100008343E+02 -0.87738794426E+01  0.13507381507E+02  0.17770000000E+01 0. -1.
</event>
<event>
 6    1  0.1599106E-003  0.5005331E+03  0.7546771E-02  0.9398618E-01
        -11   -1    0    0    0    0  0.00000000000E+00  0.00000000000E+00  0.50000000000E+03  0.50000000000E+03  0.00000000000E+00 0.  1.
         11   -1    0    0    0    0 -0.00000000000E+00 -0.00000000000E+00 -0.50000000000E+03  0.50000000000E+03  0.00000000000E+00 0. -1.
        -11    1    1    2    0    0  0.40009868006E+01 -0.13228389389E+02  0.49927565917E+03  0.49946689782E+03  0.00000000000E+00 0.  1.
         11    1    1    2    0    0 -0.20553283412E+01 -0.16340763505E+01 -0.19121649606E+03  0.19123452342E+03  0.00000000000E+00 0. -1.
        -15    1    1    2    0    0  0.25136107906E+01  0.92077517348E+01 -0.28295557003E+03  0.28312208193E+03  0.17770000000E+01 0.  1.
         15    1    1    2    0    0 -0.44592692501E+01  0.56547140051E+01 -0.25103593067E+02  0.26176496836E+02  0.17770000000E+01 0. -1.
</event>
<event>
 6    1  0.1599106E-003  0.5035198E+03  0.7546771E-02  0.9391968E-01
        -11   -1    0    0    0    0  0.00000000000E+00  0.00000000000E+00  0.50000000000E+03  0.50000000000E+03  0.00000000000E+00 0.  1.
         11   -1    0    0    0    0 -0.00000000000E+00 -0.00000000000E+00 -0.50000000000E+03  0.50000000000E+03  0.00000000000E+00 0.  1.
        -11    1    1    2    0    0  0.71428513203E+01  0.21929725721E+01  0.49642396325E+03  0.49648019169E+03  0.00000000000E+00 0.  1.
         11    1    1    2    0    0  0.51574928914E+01  0.70568172308E+01 -0.23533644685E+03  0.23549870831E+03  0.00000000000E+00 0.  1.
        -15    1    1    2    0    0  0.14499897146E+01 -0.13303519923E+02 -0.10723124926E+02  0.17240337864E+02  0.17770000000E+01 0. -1.
         15    1    1    2    0    0 -0.13750333926E+02  0.40537301196E+01 -0.25036439147E+03  0.25078076213E+03  0.17770000000E+01 0.  1.
</event>
<event>
 6    1  0.1599106E-003  0.4856747E+03  0.7546771E-02  0.9432447E-01
        -11   -1    0    0    0    0  0.00000000000E+00  0.00000000000E+00  0.50000000000E+03  0.50000000000E+03  0.00000000000E+00 0.  1.
         11   -1    0    0    0    0 -0.00000000000E+00 -0.00000000000E+00 -0.50000000000E+03  0.50000000000E+03  0.00000000000E+00 0.  1.
        -11    1    1    2    0    0 -0.26182741666E+01 -0.11747791229E+02  0.49599676049E+03  0.49614277418E+03  0.00000000000E+00 0.  1.
         11    1    1    2    0    0  0.21660979328E+01 -0.15731144593E+02 -0.26310743600E+02  0.30731354010E+02  0.00000000000E+00 0.  1.
        -15    1    1    2    0    0  0.42801771748E+01  0.32197176425E+02 -0.15501769187E+03  0.15839387806E+03  0.17770000000E+01 0.  1.
         15    1    1    2    0    0 -0.38280009410E+01 -0.47182406037E+01 -0.31466832502E+03  0.31473199375E+03  0.17770000000E+01 0. -1.
</event>
<event>
 6    1  0.1599106E-003  0.5089813E+03  0.7546771E-02  0.9379935E-01
        -11   -1    0    0    0    0  0.00000000000E+00  0.00000000000E+00  0.50000000000E+03  0.50000000000E+03  0.00000000000E+00 0.  1.
         11   -1    0    0    0    0 -0.00000000000E+00 -0.00000000000E+00 -0.50000000000E+03  0.50000000000E+03  0.00000000000E+00 0.  1.
        -11    1    1    2    0    0  0.17148721093E+01 -0.18333618932E+02  0.49067327986E+03  0.49101866557E+03  0.00000000000E+00 0.  1.
         11    1    1    2    0    0  0.53649825268E+01  0.12469234492E+01 -0.11400782805E+03  0.11414080213E+03  0.00000000000E+00 0.  1.
        -15    1    1    2    0    0 -0.10931746716E+02  0.67794260403E+00 -0.37769794425E+03  0.37786089704E+03  0.17770000000E+01 0.  1.
         15    1    1    2    0    0  0.38518920800E+01  0.16408752879E+02  0.10324924345E+01  0.16979635251E+02  0.17770000000E+01 0. -1.
</event>
<event>
 6    1  0.1599106E-003  0.5050554E+03  0.7546771E-02  0.9388568E-01
        -11   -1    0    0    0    0  0.00000000000E+00  0.00000000000E+00  0.50000000000E+03  0.50000000000E+03  0.00000000000E+00 0.  1.
         11   -1    0    0    0    0 -0.00000000000E+00 -0.00000000000E+00 -0.50000000000E+03  0.50000000000E+03  0.00000000000E+00 0.  1.
        -11    1    1    2    0    0  0.72914887566E+01 -0.72346123575E+00  0.46806675270E+03  0.46812410127E+03  0.00000000000E+00 0.  1.
         11    1    1    2    0    0  0.29230749658E+01  0.17276039501E+02 -0.49463436782E+03  0.49494460673E+03  0.00000000000E+00 0.  1.
        -15    1    1    2    0    0 -0.24882682821E+01 -0.26703542096E+01  0.18658979957E+02  0.19095484615E+02  0.17770000000E+01 0. -1.
         15    1    1    2    0    0 -0.77262954403E+01 -0.13882224055E+02  0.79086351563E+01  0.17835807383E+02  0.17770000000E+01 0.  1.
</event>
<event>
 6    1  0.1599106E-003  0.4907274E+03  0.7546771E-02  0.9420800E-01
        -11   -1    0    0    0    0  0.00000000000E+00  0.00000000000E+00  0.50000000000E+03  0.50000000000E+03  0.00000000000E+00 0.  1.
         11   -1    0    0    0    0 -0.00000000000E+00 -0.00000000000E+00 -0.50000000000E+03  0.50000000000E+03  0.00000000000E+00 0. -1.
        -11    1    1    2    0    0 -0.34631616574E+01  0.62280870802E+01  0.48680204323E+03  0.48685419979E+03  0.00000000000E+00 0.  1.
         11    1    1    2    0    0  0.72686853450E+01  0.66396718968E+01 -0.49462559040E+03  0.49472355281E+03  0.00000000000E+00 0. -1.
        -15    1    1    2    0    0 -0.47518357020E+01 -0.23819989566E+01  0.46524442150E+01  0.72840117890E+01  0.17770000000E+01 0. -1.
         15    1    1    2    0    0  0.94631201445E+00 -0.10485760020E+02  0.31711029457E+01  0.11138235611E+02  0.17770000000E+01 0.  1.
</event>
<event>
 6    1  0.1599106E-003  0.5057673E+03  0.7546771E-02  0.9386997E-01
        -11   -1    0    0    0    0  0.00000000000E+00  0.00000000000E+00  0.50000000000E+03  0.50000000000E+03  0.00000000000E+00 0. -1.
         11   -1    0    0    0    0 -0.00000000000E+00 -0.00000000000E+00 -0.50000000000E+03  0.50000000000E+03  0.00000000000E+00 0.  1.
        -11    1    1    2    0    0 -0.26752127973E+01 -0.71184202999E+01  0.39359202375E+03  0.39366547960E+03  0.00000000000E+00 0. -1.
         11    1    1    2    0    0  0.64885080830E+01 -0.24745539030E+01 -0.49418390987E+03  0.49423269917E+03  0.00000000000E+00 0.  1.
        -15    1    1    2    0    0 -0.79813855338E+01  0.25044335427E+02  0.87404785981E+02  0.91288967534E+02  0.17770000000E+01 0.  1.
         15    1    1    2    0    0  0.41680902482E+01 -0.15451361224E+02  0.13187100142E+02  0.20812853700E+02  0.17770000000E+01 0. -1.
</event>
<event>
 6    1  0.1599106E-003  0.5050644E+03  0.7546771E-02  0.9388548E-01
        -11   -1    0    0    0    0  0.00000000000E+00  0.00000000000E+00  0.50000000000E+03  0.50000000000E+03  0.00000000000E+00 0.  1.
         11   -1    0    0    0    0 -0.00000000000E+00 -0.00000000000E+00 -0.50000000000E+03  0.50000000000E+03  0.00000000000E+00 0. -1.
        -11    1    1    2    0    0  0.61656560904E+01 -0.85012056294E+01  0.49482415379E+03  0.49493558064E+03  0.00000000000E+00 0.  1.
         11    1    1    2    0    0  0.12743185235E+02 -0.61233558020E+01 -0.41733349079E+03  0.41757289998E+03  0.00000000000E+00 0. -1.
        -15    1    1    2    0    0 -0.27172616798E+02  0.85856787517E+01 -0.66489354720E+02  0.72360603945E+02  0.17770000000E+01 0.  1.
         15    1    1    2    0    0  0.82637754730E+01  0.60388826797E+01 -0.11001308278E+02  0.15130915436E+02  0.17770000000E+01 0. -1.
</event>
<event>
 6    1  0.1599106E-003  0.4898826E+03  0.7546771E-02  0.9422737E-01
        -11   -1    0    0    0    0  0.00000000000E+00  0.00000000000E+00  0.50000000000E+03  0.50000000000E+03  0.00000000000E+00 0. -1.
         11   -1    0    0    0    0 -0.00000000000E+00 -0.00000000000E+00 -0.50000000000E+03  0.50000000000E+03  0.00000000000E+00 0.  1.
        -11    1    1    2    0    0 -0.72977857146E+01  0.19557364495E+01  0.48848099890E+03  0.48853942407E+03  0.00000000000E+00 0. -1.
         11    1    1    2    0    0  0.52407709613E+01  0.64983289319E+01 -0.49119724958E+03  0.49126818741E+03  0.00000000000E+00 0.  1.
        -15    1    1    2    0    0  0.80029956748E+01 -0.21693409371E+01  0.63985058182E+01  0.10623209759E+02  0.17770000000E+01 0.  1.
         15    1    1    2    0    0 -0.59459809216E+01 -0.62847244443E+01 -0.36822551349E+01  0.95691787704E+01  0.17770000000E+01 0.  1.
</event>
<event>
 6    1  0.1599106E-003  0.4884552E+03  0.7546771E-02  0.9426019E-01
        -11   -1    0    0    0    0  0.00000000000E+00  0.00000000000E+00  0.50000000000E+03  0.50000000000E+03  0.00000000000E+00 0.  1.
         11   -1    0    0    0    0 -0.00000000000E+00 -0.00000000000E+00 -0.50000000000E+03  0.50000000000E+03  0.00000000000E+00 0.  1.
        -11    1    1    2    0    0  0.27341178362E+01 -0.79230235873E+01  0.49010150868E+03  0.49017317196E+03  0.00000000000E+00 0.  1.
         11    1    1    2    0    0 -0.61676208187E+01 -0.66199313928E+01 -0.48677310950E+03  0.48685718971E+03  0.00000000000E+00 0.  1.
        -15    1    1    2    0    0  0.68120711679E+01  0.93902842179E+00 -0.50799535763E+01  0.87321100148E+01  0.17770000000E+01 0. -1.
         15    1    1    2    0    0 -0.33785681854E+01  0.13603926558E+02  0.17515543958E+01  0.14237528317E+02  0.17770000000E+01 0.  1.
</event>
<event>
 6    1  0.1599106E-003  0.5108832E+03  0.7546771E-02  0.9375782E-01
        -11   -1    0    0    0    0  0.00000000000E+00  0.00000000000E+00  0.50000000000E+03  0.50000000000E+03  0.00000000000E+00 0.  1.
         11   -1    0    0    0    0 -0.00000000000E+00 -0.00000000000E+00 -0.50000000000E+03  0.50000000000E+03  0.00000000000E+00 0. -1.
        -11    1    1    2    0    0  0.53965905572E+01  0.27938477556E+01  0.38912615440E+03  0.38917360241E+03  0.00000000000E+00 0.  1.
         11    1    1    2    0    0  0.14693146421E+02 -0.21609359983E+00 -0.48889602179E+03  0.48911681158E+03  0.00000000000E+00 0. -1.
        -15    1    1    2    0    0 -0.12588855304E+02  0.50467700547E+00  0.10874311354E+03  0.10948495992E+03  0.17770000000E+01 0.  1.
         15    1    1    2    0    0 -0.75008816740E+01 -0.30824311612E+01 -0.89732461503E+01  0.12224626098E+02  0.17770000000E+01 0. -1.
</event>
<event>
 6    1  0.1599106E-003  0.4907532E+03  0.7546771E-02  0.9420741E-01
        -11   -1    0    0    0    0  0.00000000000E+00  0.00000000000E+00  0.50000000000E+03  0.50000000000E+03  0.00000000000E+00 0. -1.
         11   -1    0    0    0    0 -0.00000000000E+00 -0.00000000000E+00 -0.50000000000E+03  0.50000000000E+03  0.00000000000E+00 0.  1.
        -11    1    1    2    0    0  0.77880174379E+01  0.10256962048E+00  0.49427194448E+03  0.49433330743E+03  0.00000000000E+00 0. -1.
         11    1    1    2    0    0 -0.64125912841E+01 -0.11931322416E+02 -0.48708328518E+03  0.48727159212E+03  0.00000000000E+00 0.  1.
        -15    1    1    2    0    0 -0.62327765255E+01  0.42430700158E+01 -0.30767653504E+01  0.83351880841E+01  0.17770000000E+01 0.  1.
         15    1    1    2    0    0  0.48573503717E+01  0.75856827802E+01 -0.41118939480E+01  0.10059912361E+02  0.17770000000E+01 0. -1.
</event>
<event>
 6    1  0.1599106E-003  0.5166462E+03  0.7546771E-02  0.9363314E-01
        -11   -1    0    0    0    0  0.00000000000E+00  0.00000000000E+00  0.50000000000E+03  0.50000000000E+03  0.00000000000E+00 0. -1.
         11   -1    0    0    0    0 -0.00000000000E+00 -0.00000000000E+00 -0.50000000000E+03  0.50000000000E+03  0.00000000000E+00 0.  1.
        -11    1    1    2    0    0 -0.60268346524E+01  0.38639458441E+01  0.48330080339E+03  0.48335382420E+03  0.00000000000E+00 0. -1.
         11    1    1    2    0    0 -0.26234011581E+02  0.20549490674E+01 -0.44324893904E+03  0.44402935504E+03  0.00000000000E+00 0.  1.
        -15    1    1    2    0    0 -0.17649139360E+01 -0.87154371759E+01  0.90333291349E+01  0.12799708224E+02  0.17770000000E+01 0. -1.
         15    1    1    2    0    0  0.34025760170E+02  0.27965422645E+01 -0.49085193479E+02  0.59817112532E+02  0.17770000000E+01 0.  1.
</event>
<event>
 6    1  0.1599106E-003  0.5000519E+03  0.7546771E-02  0.9399693E-01
        -11   -1    0    0    0    0  0.00000000000E+00  0.00000000000E+00  0.50000000000E+03  0.50000000000E+03  0.00000000000E+00 0.  1.
         11   -1    0    0    0    0 -0.00000000000E+00 -0.00000000000E+00 -0.50000000000E+03  0.50000000000E+03  0.00000000000E+00 0. -1.
        -11    1    1    2    0    0  0.19576798013E+01  0.83108873595E+00  0.12707578838E+03  0.12709358446E+03  0.00000000000E+00 0.  1.
         11    1    1    2    0    0 -0.38230866962E+01  0.72514025344E+01 -0.49988084390E+03  0.49994805423E+03  0.00000000000E+00 0. -1.
        -15    1    1    2    0    0 -0.66167619193E-01 -0.67947936983E+01  0.31607376229E+03  0.31615179034E+03  0.17770000000E+01 0.  1.
         15    1    1    2    0    0  0.19315745141E+01 -0.12876975721E+01  0.56731293227E+02  0.56806570970E+02  0.17770000000E+01 0. -1.
</event>
<event>
 6    1  0.1599106E-003  0.5153375E+03  0.7546771E-02  0.9366130E-01
        -11   -1    0    0    0    0  0.00000000000E+00  0.00000000000E+00  0.50000000000E+03  0.50000000000E+03  0.00000000000E+00 0. -1.
         11   -1    0    0    0    0 -0.00000000000E+00 -0.00000000000E+00 -0.50000000000E+03  0.50000000000E+03  0.00000000000E+00 0. -1.
        -11    1    1    2    0    0 -0.26166619427E+02 -0.11630476321E+02  0.48381590218E+03  0.48466254977E+03  0.00000000000E+00 0. -1.
         11    1    1    2    0    0  0.46724677634E+01 -0.51817448783E+01 -0.16238247389E+03  0.16253230529E+03  0.00000000000E+00 0. -1.
        -15    1    1    2    0    0  0.26706310149E+02 -0.34892634698E+02 -0.22527451498E+02  0.49410188807E+02  0.17770000000E+01 0. -1.
         15    1    1    2    0    0 -0.52121584847E+01  0.51704855897E+02 -0.29890597679E+03  0.30339495614E+03  0.17770000000E+01 0.  1.
</event>
<event>
 6    1  0.1599106E-003  0.5047846E+03  0.7546771E-02  0.9389167E-01
        -11   -1    0    0    0    0  0.00000000000E+00  0.00000000000E+00  0.50000000000E+03  0.50000000000E+03  0.00000000000E+00 0. -1.
         11   -1    0    0    0    0 -0.00000000000E+00 -0.00000000000E+00 -0.50000000000E+03  0.50000000000E+03  0.00000000000E+00 0.  1.
        -11    1    1    2    0    0  0.21450735828E+02  0.17929605907E+02  0.22590956565E+03  0.22763289896E+03  0.00000000000E+00 0. -1.
         11    1    1    2    0    0 -0.40307591174E+01 -0.54901542465E+01 -0.49516855988E+03  0.49521539910E+03  0.00000000000E+00 0.  1.
        -15    1    1    2    0    0 -0.49068315301E+01 -0.10900323708E+02  0.26242186968E+03  0.26269999899E+03  0.17770000000E+01 0. -1.
         15    1    1    2    0    0 -0.12513145181E+02 -0.15391279522E+01  0.68371245512E+01  0.14451702955E+02  0.17770000000E+01 0.  1.
</event>
<event>
 6    1  0.1599106E-003  0.5082354E+03  0.7546771E-02  0.9381569E-01
        -11   -1    0    0    0    0  0.00000000000E+00  0.00000000000E+00  0.50000000000E+03  0.50000000000E+03  0.00000000000E+00 0. -1.
         11   -1    0    0    0    0 -0.00000000000E+00 -0.00000000000E+00 -0.50000000000E+03  0.50000000000E+03  0.00000000000E+00 0.  1.
        -11    1    1    2    0    0 -0.51370991232E+01 -0.84814949731E+01  0.40484810996E+03  0.40496952686E+03  0.00000000000E+00 0. -1.
         11    1    1    2    0    0 -0.12224156760E+02 -0.28401235513E+02 -0.49079153305E+03  0.49176456674E+03  0.00000000000E+00 0.  1.
        -15    1    1    2    0    0  0.28082913737E+02  0.36572004737E+02  0.73006107599E+02  0.86366724207E+02  0.17770000000E+01 0.  1.
         15    1    1    2    0    0 -0.10721657854E+02  0.31072574840E+00  0.12937315492E+02  0.16899182192E+02  0.17770000000E+01 0. -1.
</event>
<event>
 6    1  0.1599106E-003  0.5025098E+03  0.7546771E-02  0.9394211E-01
        -11   -1    0    0    0    0  0.00000000000E+00  0.00000000000E+00  0.50000000000E+03  0.50000000000E+03  0.00000000000E+00 0. -1.
         11   -1    0    0    0    0 -0.00000000000E+00 -0.00000000000E+00 -0.50000000000E+03  0.50000000000E+03  0.00000000000E+00 0. -1.
        -11    1    1    2    0    0  0.29692769301E+01 -0.15684036646E+02  0.37905506186E+03  0.37939101931E+03  0.00000000000E+00 0. -1.
         11    1    1    2    0    0  0.90240909450E+01  0.87615154395E+00 -0.49740755971E+03  0.49749018313E+03  0.00000000000E+00 0. -1.
        -15    1    1    2    0    0  0.48510996008E+01  0.99381389905E+01  0.81531752030E+02  0.82297533936E+02  0.17770000000E+01 0. -1.
         15    1    1    2    0    0 -0.16844467476E+02  0.48697461111E+01  0.36820745822E+02  0.40821263621E+02  0.17770000000E+01 0.  1.
</event>
<event>
 6    1  0.1599106E-003  0.5005571E+03  0.7546771E-02  0.9398564E-01
        -11   -1    0    0    0    0  0.00000000000E+00  0.00000000000E+00  0.50000000000E+03  0.50000000000E+03  0.00000000000E+00 0.  1.
         11   -1    0    0    0    0 -0.00000000000E+00 -0.00000000000E+00 -0.50000000000E+03  0.50000000000E+03  0.00000000000E+00 0.  1.
        -11    1    1    2    0    0 -0.79493391571E+01  0.23421274104E+01  0.49937416284E+03  0.49944292173E+03  0.00000000000E+00 0.  1.
         11    1    1    2    0    0 -0.27320290846E+01 -0.26878396091E+00 -0.17191578978E+03  0.17193770675E+03  0.00000000000E+00 0.  1.
        -15    1    1    2    0    0  0.45636314007E+01  0.28370905866E+01 -0.29880094386E+03  0.29885454254E+03  0.17770000000E+01 0.  1.
         15    1    1    2    0    0  0.61177368410E+01 -0.49104340361E+01 -0.28657429208E+02  0.29764828982E+02  0.17770000000E+01 0. -1.
</event>
<event>
 6    1  0.1599106E-003  0.4928166E+03  0.7546771E-02  0.9416028E-01
        -11   -1    0    0    0    0  0.00000000000E+00  0.00000000000E+00  0.50000000000E+03  0.50000000000E+03  0.00000000000E+00 0.  1.
         11   -1    0    0    0    0 -0.00000000000E+00 -0.00000000000E+00 -0.50000000000E+03  0.50000000000E+03  0.00000000000E+00 0. -1.
        -11    1    1    2    0    0 -0.12882733389E+01 -0.93077388899E+01  0.49244360128E+03  0.49253324162E+03  0.00000000000E+00 0.  1.
         11    1    1    2    0    0 -0.66497206236E+01  0.48082221886E+00 -0.49312669038E+03  0.49317175785E+03  0.00000000000E+00 0. -1.
        -15    1    1    2    0    0  0.42477267894E+01  0.42855909550E+01  0.38836982822E+01  0.73925850728E+01  0.17770000000E+01 0. -1.
         15    1    1    2    0    0  0.36902671732E+01  0.45413257160E+01 -0.32006091876E+01  0.69024154642E+01  0.17770000000E+01 0.  1.
</event>
<event>
 6    1  0.1599106E-003  0.5009778E+03  0.7546771E-02  0.9397624E-01
        -11   -1    0    0    0    0  0.00000000000E+00  0.00000000000E+00  0.50000000000E+03  0.50000000000E+03  0.00000000000E+00 0.  1.
         11   -1    0    0    0    0 -0.00000000000E+00 -0.00000000000E+00 -0.50000000000E+03  0.50000000000E+03  0.00000000000E+00 0. -1.
        -11    1    1    2    0    0  0.29021669953E+01  0.63502483921E+01  0.49897333454E+03  0.49902218068E+03  0.00000000000E+00 0.  1.
         11    1    1    2    0    0 -0.23203929267E+01  0.32686760060E+01 -0.11301070803E+03  0.11308177835E+03  0.00000000000E+00 0. -1.
        -15    1    1    2    0    0  0.10835747483E+02 -0.89891905627E+01 -0.34601972937E+03  0.34631059731E+03  0.17770000000E+01 0. -1.
         15    1    1    2    0    0 -0.11417521551E+02 -0.62973383538E+00 -0.39942897147E+02  0.41585443662E+02  0.17770000000E+01 0.  1.
</event>
<event>
 6    1  0.1599106E-003  0.5185175E+03  0.7546771E-02  0.9359303E-01
        -11   -1    0    0    0    0  0.00000000000E+00  0.00000000000E+00  0.50000000000E+03  0.50000000000E+03  0.00000000000E+00 0. -1.
         11   -1    0    0    0    0 -0.00000000000E+00 -0.00000000000E+00 -0.50000000000E+03  0.50000000000E+03  0.00000000000E+00 0.  1.
        -11    1    1    2    0    0  0.72436065592E+01  0.70126199798E+00  0.28905637549E+03  0.28914797218E+03  0.00000000000E+00 0. -1.
         11    1    1    2    0    0 -0.60914720562E+01  0.18017618109E+02 -0.48110672607E+03  0.48148252561E+03  0.00000000000E+00 0.  1.
        -15    1    1    2    0    0 -0.10833308503E+02  0.92568581375E+00  0.20404097279E+03  0.20433818482E+03  0.17770000000E+01 0. -1.
         15    1    1    2    0    0  0.96811740004E+01 -0.19644565920E+02 -0.11990622211E+02  0.25031317389E+02  0.17770000000E+01 0.  1.
</event>
<event>
 6    1  0.1599106E-003  0.5030833E+03  0.7546771E-02  0.9392937E-01
        -11   -1    0    0    0    0  0.00000000000E+00  0.00000000000E+00  0.50000000000E+03  0.50000000000E+03  0.00000000000E+00 0.  1.
         11   -1    0    0    0    0 -0.00000000000E+00 -0.00000000000E+00 -0.50000000000E+03  0.50000000000E+03  0.00000000000E+00 0. -1.
        -11    1    1    2    0    0 -0.87634975163E+01  0.44951925565E+01  0.49681908956E+03  0.49691670670E+03  0.00000000000E+00 0.  1.
         11    1    1    2    0    0 -0.70885029956E+01  0.30089959479E-01 -0.43406832823E+03  0.43412620441E+03  0.00000000000E+00 0. -1.
        -15    1    1    2    0    0  0.23495873908E+01 -0.98583928018E-01 -0.49049813399E+02  0.49138296706E+02  0.17770000000E+01 0.  1.
         15    1    1    2    0    0  0.13502413121E+02 -0.44266985879E+01 -0.13700947929E+02  0.19818792184E+02  0.17770000000E+01 0. -1.
</event>
<event>
 6    1  0.1599106E-003  0.5009845E+03  0.7546771E-02  0.9397610E-01
        -11   -1    0    0    0    0  0.00000000000E+00  0.00000000000E+00  0.50000000000E+03  0.50000000000E+03  0.00000000000E+00 0.  1.
         11   -1    0    0    0    0 -0.00000000000E+00 -0.00000000000E+00 -0.50000000000E+03  0.50000000000E+03  0.00000000000E+00 0.  1.
        -11    1    1    2    0    0  0.36270061005E+01  0.69791499402E+01  0.12306136622E+03  0.12331246313E+03  0.00000000000E+00 0.  1.
         11    1    1    2    0    0  0.64446372383E+01  0.76544306786E+01 -0.49891519553E+03  0.49901552680E+03  0.00000000000E+00 0.  1.
        -15    1    1    2    0    0 -0.14805645265E+02  0.35169866195E+01  0.24377864534E+03  0.24425962003E+03  0.17770000000E+01 0.  1.
         15    1    1    2    0    0  0.47340019263E+01 -0.18150567238E+02  0.13207518397E+03  0.13341239004E+03  0.17770000000E+01 0. -1.
</event>
<event>
 6    1  0.1599106E-003  0.5094314E+03  0.7546771E-02  0.9378950E-01
        -11   -1    0    0    0    0  0.00000000000E+00  0.00000000000E+00  0.50000000000E+03  0.50000000000E+03  0.00000000000E+00 0.  1.
         11   -1    0    0    0    0 -0.00000000000E+00 -0.00000000000E+00 -0.50000000000E+03  0.50000000000E+03  0.00000000000E+00 0. -1.
        -11    1    1    2    0    0  0.20567931921E+02 -0.66790714814E+01  0.46472637682E+03  0.46522925008E+03  0.00000000000E+00 0.  1.
         11    1    1    2    0    0  0.94382037423E+01  0.17398934835E+01 -0.49047469461E+03  0.49056858131E+03  0.00000000000E+00 0. -1.
        -15    1    1    2    0    0  0.53903293048E+00 -0.47697854656E-01  0.85522465119E+01  0.87516558997E+01  0.17770000000E+01 0.  1.
         15    1    1    2    0    0 -0.30545168593E+02  0.49868758526E+01  0.17196071279E+02  0.35450512713E+02  0.17770000000E+01 0. -1.
</event>
<event>
 6    1  0.1599106E-003  0.5123904E+03  0.7546771E-02  0.9372504E-01
        -11   -1    0    0    0    0  0.00000000000E+00  0.00000000000E+00  0.50000000000E+03  0.50000000000E+03  0.00000000000E+00 0.  1.
         11   -1    0    0    0    0 -0.00000000000E+00 -0.00000000000E+00 -0.50000000000E+03  0.50000000000E+03  0.00000000000E+00 0.  1.
        -11    1    1    2    0    0  0.15764094100E+01  0.60402409740E+01  0.36980496826E+03  0.36985765387E+03  0.00000000000E+00 0.  1.
         11    1    1    2    0    0 -0.15697824557E+02 -0.19648233257E+01 -0.48735292564E+03  0.48760963522E+03  0.00000000000E+00 0.  1.
        -15    1    1    2    0    0  0.44838923015E+02 -0.91048717130E+01  0.89781842691E+02  0.10078375222E+03  0.17770000000E+01 0. -1.
         15    1    1    2    0    0 -0.30717507868E+02  0.50294540647E+01  0.27766114687E+02  0.41748958689E+02  0.17770000000E+01 0.  1.
</event>
<event>
 6    1  0.1599106E-003  0.5021449E+03  0.7546771E-02  0.9395023E-01
        -11   -1    0    0    0    0  0.00000000000E+00  0.00000000000E+00  0.50000000000E+03  0.50000000000E+03  0.00000000000E+00 0. -1.
         11   -1    0    0    0    0 -0.00000000000E+00 -0.00000000000E+00 -0.50000000000E+03  0.50000000000E+03  0.00000000000E+00 0.  1.
        -11    1    1    2    0    0 -0.52351676175E+01 -0.48608404533E+01  0.37825674782E+03  0.37832420226E+03  0.00000000000E+00 0. -1.
         11    1    1    2    0    0 -0.16673294239E+01 -0.15706655490E+02 -0.49760447376E+03  0.49785509069E+03  0.00000000000E+00 0.  1.
        -15    1    1    2    0    0  0.48429045925E+01  0.59941712029E+01  0.94902006825E+02  0.95230942670E+02  0.17770000000E+01 0. -1.
         15    1    1    2    0    0  0.20595924489E+01  0.14573324741E+02  0.24445719120E+02  0.28589764381E+02  0.17770000000E+01 0.  1.
</event>
<event>
 6    1  0.1599106E-003  0.5035942E+03  0.7546771E-02  0.9391803E-01
        -11   -1    0    0    0    0  0.00000000000E+00  0.00000000000E+00  0.50000000000E+03  0.50000000000E+03  0.00000000000E+00 0.  1.
         11   -1    0    0    0    0 -0.00000000000E+00 -0.00000000000E+00 -0.50000000000E+03  0.50000000000E+03  0.00000000000E+00 0. -1.
        -11    1    1    2    0    0 -0.75091932294E+01  0.51682139849E+01  0.12788960741E+03  0.12821407919E+03  0.00000000000E+00 0.  1.
         11    1    1    2    0    0  0.97278210624E+01 -0.71341175848E+01 -0.49625917067E+03  0.49640577213E+03  0.00000000000E+00 0. -1.
        -15    1    1    2    0    0 -0.73195510658E+01  0.53488402535E+01  0.26578447794E+01  0.96128969481E+01  0.17770000000E+01 0. -1.
         15    1    1    2    0    0  0.51009232328E+01 -0.33829366537E+01  0.36571171848E+03  0.36576725173E+03  0.17770000000E+01 0.  1.
</event>
<event>
 6    1  0.1599106E-003  0.5351961E+03  0.7546771E-02  0.9324326E-01
        -11   -1    0    0    0    0  0.00000000000E+00  0.00000000000E+00  0.50000000000E+03  0.50000000000E+03  0.00000000000E+00 0. -1.
         11   -1    0    0    0    0 -0.00000000000E+00 -0.00000000000E+00 -0.50000000000E+03  0.50000000000E+03  0.00000000000E+00 0. -1.
        -11    1    1    2    0    0 -0.16339463065E+01  0.73618757108E+01  0.46474274948E+03  0.46480392661E+03  0.00000000000E+00 0. -1.
         11    1    1    2    0    0  0.39564293572E+00 -0.60014916368E+01 -0.22376751895E+03  0.22384833475E+03  0.00000000000E+00 0. -1.
        -15    1    1    2    0    0  0.54591041035E+01  0.15773617725E+02 -0.27365298877E+03  0.27416732997E+03  0.17770000000E+01 0. -1.
         15    1    1    2    0    0 -0.42208007327E+01 -0.17134001799E+02  0.32677758236E+02  0.37180408669E+02  0.17770000000E+01 0.  1.
</event>
<event>
 6    1  0.1599106E-003  0.5049160E+03  0.7546771E-02  0.9388877E-01
        -11   -1    0    0    0    0  0.00000000000E+00  0.00000000000E+00  0.50000000000E+03  0.50000000000E+03  0.00000000000E+00 0. -1.
         11   -1    0    0    0    0 -0.00000000000E+00 -0.00000000000E+00 -0.50000000000E+03  0.50000000000E+03  0.00000000000E+00 0. -1.
        -11    1    1    2    0    0 -0.50461127733E+01 -0.39824773359E+01  0.42251078615E+03  0.42255968548E+03  0.00000000000E+00 0. -1.
         11    1    1    2    0    0 -0.89646508402E+01  0.34343747505E+01 -0.49499096295E+03  0.49508404670E+03  0.00000000000E+00 0. -1.
        -15    1    1    2    0    0 -0.33168620684E+01  0.41896122184E+01 -0.18485954044E+01  0.59270109237E+01  0.17770000000E+01 0.  1.
         15    1    1    2    0    0  0.17327625682E+02 -0.36415096330E+01  0.74328772198E+02  0.76429256896E+02  0.17770000000E+01 0. -1.
</event>
<event>
 6    1  0.1599106E-003  0.5028326E+03  0.7546771E-02  0.9393494E-01
        -11   -1    0    0    0    0  0.00000000000E+00  0.00000000000E+00  0.50000000000E+03  0.50000000000E+03  0.00000000000E+00 0.  1.
         11   -1    0    0    0    0 -0.00000000000E+00 -0.00000000000E+00 -0.50000000000E+03  0.50000000000E+03  0.00000000000E+00 0.  1.
        -11    1    1    2    0    0 -0.40312633542E+00  0.10720663988E+02  0.49705159145E+03  0.49716735583E+03  0.00000000000E+00 0.  1.
         11    1    1    2    0    0  0.46447776442E+01 -0.49412106149E+01 -0.37719664717E+03  0.37725760450E+03  0.00000000000E+00 0.  1.
        -15    1    1    2    0    0  0.48289387156E+00 -0.93785935172E+01 -0.54501741125E+01  0.11002423811E+02  0.17770000000E+01 0.  1.
         15    1    1    2    0    0 -0.47245451803E+01  0.35991401441E+01 -0.11440477017E+03  0.11457261585E+03  0.17770000000E+01 0.  1.
</event>
<event>
 6    1  0.1599106E-003  0.5017316E+03  0.7546771E-02  0.9395944E-01
        -11   -1    0    0    0    0  0.00000000000E+00  0.00000000000E+00  0.50000000000E+03  0.50000000000E+03  0.00000000000E+00 0.  1.
         11   -1    0    0    0    0 -0.00000000000E+00 -0.00000000000E+00 -0.50000000000E+03  0.50000000000E+03  0.00000000000E+00 0.  1.
        -11    1    1    2    0    0 -0.13122025925E+02  0.48134455522E+01  0.49807237267E+03  0.49826844696E+03  0.00000000000E+00 0.  1.
         11    1    1    2    0    0 -0.36543970455E+01 -0.21662944757E+01 -0.31198139298E+03  0.31201031556E+03  0.00000000000E+00 0.  1.
        -15    1    1    2    0    0  0.95451675341E+01  0.32115665209E+01 -0.13832259181E+02  0.17202136664E+02  0.17770000000E+01 0. -1.
         15    1    1    2    0    0  0.72312554367E+01 -0.58587175973E+01 -0.17225872050E+03  0.17251910081E+03  0.17770000000E+01 0.  1.
</event>
<event>
 6    1  0.1599106E-003  0.5004279E+03  0.7546771E-02  0.9398853E-01
        -11   -1    0    0    0    0  0.00000000000E+00  0.00000000000E+00  0.50000000000E+03  0.50000000000E+03  0.00000000000E+00 0. -1.
         11   -1    0    0    0    0 -0.00000000000E+00 -0.00000000000E+00 -0.50000000000E+03  0.50000000000E+03  0.00000000000E+00 0.  1.
        -11    1    1    2    0    0  0.46773062186E+01 -0.79890351869E+01  0.23553415700E+03  0.23571601768E+03  0.00000000000E+00 0. -1.
         11    1    1    2    0    0 -0.53080004050E+01 -0.61775291352E+01 -0.49950569483E+03  0.49957209280E+03  0.00000000000E+00 0.  1.
        -15    1    1    2    0    0 -0.31249532109E+01  0.19626995542E+01  0.20831738457E+02  0.21230557653E+02  0.17770000000E+01 0.  1.
         15    1    1    2    0    0  0.37556473973E+01  0.12203864768E+02  0.24313979937E+03  0.24348133187E+03  0.17770000000E+01 0. -1.
</event>
<event>
 6    1  0.1599106E-003  0.5098212E+03  0.7546771E-02  0.9378098E-01
        -11   -1    0    0    0    0  0.00000000000E+00  0.00000000000E+00  0.50000000000E+03  0.50000000000E+03  0.00000000000E+00 0.  1.
         11   -1    0    0    0    0 -0.00000000000E+00 -0.00000000000E+00 -0.50000000000E+03  0.50000000000E+03  0.00000000000E+00 0. -1.
        -11    1    1    2    0    0 -0.61975272596E+01  0.23149957028E+00  0.43935685473E+03  0.43940062442E+03  0.00000000000E+00 0.  1.
         11    1    1    2    0    0 -0.93833653052E+01  0.35112655487E+01 -0.49007638853E+03  0.49017878690E+03  0.00000000000E+00 0. -1.
        -15    1    1    2    0    0  0.19642395664E+02 -0.37069743861E+00  0.33482219470E+00  0.19728937095E+02  0.17770000000E+01 0.  1.
         15    1    1    2    0    0 -0.40615030989E+01 -0.33720676804E+01  0.50384711607E+02  0.50691651587E+02  0.17770000000E+01 0. -1.
</event>
<event>
 6    1  0.1599106E-003  0.5023732E+03  0.7546771E-02  0.9394515E-01
        -11   -1    0    0    0    0  0.00000000000E+00  0.00000000000E+00  0.50000000000E+03  0.50000000000E+03  0.00000000000E+00 0. -1.
         11   -1    0    0    0    0 -0.00000000000E+00 -0.00000000000E+00 -0.50000000000E+03  0.50000000000E+03  0.00000000000E+00 0.  1.
        -11    1    1    2    0    0  0.63122983761E+01 -0.53045320982E+01  0.49755845557E+03  0.49762676765E+03  0.00000000000E+00 0. -1.
         11    1    1    2    0    0 -0.49574855853E+01 -0.64178536696E+01 -0.44270622424E+03  0.44278049471E+03  0.00000000000E+00 0.  1.
        -15    1    1    2    0    0  0.41838901653E+01  0.15390622067E+02 -0.33208159250E+02  0.36882458626E+02  0.17770000000E+01 0.  1.
         15    1    1    2    0    0 -0.55387029560E+01 -0.36682362989E+01 -0.21644072077E+02  0.22710279018E+02  0.17770000000E+01 0. -1.
</event>
<event>
 6    1  0.1599106E-003  0.5064630E+03  0.7546771E-02  0.9385463E-01
        -11   -1    0    0    0    0  0.00000000000E+00  0.00000000000E+00  0.50000000000E+03  0.50000000000E+03  0.00000000000E+00 0.  1.
         11   -1    0    0    0    0 -0.00000000000E+00 -0.00000000000E+00 -0.50000000000E+03  0.50000000000E+03  0.00000000000E+00 0.  1.
        -11    1    1    2    0    0  0.34672019058E+01  0.12153290779E+00  0.15398685877E+03  0.15402593591E+03  0.00000000000E+00 0.  1.
         11    1    1    2    0    0 -0.17016081872E+02  0.12689740598E+02 -0.49308027290E+03  0.49353696121E+03  0.00000000000E+00 0.  1.
        -15    1    1    2    0    0  0.10367928185E+02 -0.18143845629E+02  0.99200616450E+01  0.23200397003E+02  0.17770000000E+01 0. -1.
         15    1    1    2    0    0  0.31809517817E+01  0.53325721232E+01  0.32917335248E+03  0.32923670587E+03  0.17770000000E+01 0.  1.
</event>
<event>
 6    1  0.1599106E-003  0.5024859E+03  0.7546771E-02  0.9394264E-01
        -11   -1    0    0    0    0  0.00000000000E+00  0.00000000000E+00  0.50000000000E+03  0.50000000000E+03  0.00000000000E+00 0.  1.
         11   -1    0    0    0    0 -0.00000000000E+00 -0.00000000000E+00 -0.50000000000E+03  0.50000000000E+03  0.00000000000E+00 0. -1.
        -11    1    1    2    0    0 -0.24725040439E+01  0.15161374714E+02  0.49727685422E+03  0.49751407046E+03  0.00000000000E+00 0.  1.
         11    1    1    2    0    0  0.24948008845E+02 -0.80747809752E+00 -0.34170608431E+03  0.34261655421E+03  0.00000000000E+00 0. -1.
        -15    1    1    2    0    0 -0.12088924379E+02 -0.20954603966E+02 -0.96259687228E+02  0.99268940934E+02  0.17770000000E+01 0. -1.
         15    1    1    2    0    0 -0.10386580422E+02  0.66007073492E+01 -0.59311082686E+02  0.60600434394E+02  0.17770000000E+01 0.  1.
</event>
<event>
 6    1  0.1599106E-003  0.5028771E+03  0.7546771E-02  0.9393395E-01
        -11   -1    0    0    0    0  0.00000000000E+00  0.00000000000E+00  0.50000000000E+03  0.50000000000E+03  0.00000000000E+00 0. -1.
         11   -1    0    0    0    0 -0.00000000000E+00 -0.00000000000E+00 -0.50000000000E+03  0.50000000000E+03  0.00000000000E+00 0. -1.
        -11    1    1    2    0    0 -0.49068995563E+01  0.69837691790E+01  0.49704962825E+03  0.49712290597E+03  0.00000000000E+00 0. -1.
         11    1    1    2    0    0  0.11372119469E+02  0.50478410940E+01 -0.35826574222E+03  0.35848172596E+03  0.00000000000E+00 0. -1.
        -15    1    1    2    0    0 -0.62128970791E+01 -0.47056169609E+01 -0.13618221787E+03  0.13641663064E+03  0.17770000000E+01 0. -1.
         15    1    1    2    0    0 -0.25232283374E+00 -0.73259933121E+01 -0.26016681642E+01  0.79787374351E+01  0.17770000000E+01 0.  1.
</event>
<event>
 6    1  0.1599106E-003  0.5010868E+03  0.7546771E-02  0.9397381E-01
        -11   -1    0    0    0    0  0.00000000000E+00  0.00000000000E+00  0.50000000000E+03  0.50000000000E+03  0.00000000000E+00 0.  1.
         11   -1    0    0    0    0 -0.00000000000E+00 -0.00000000000E+00 -0.50000000000E+03  0.50000000000E+03  0.00000000000E+00 0.  1.
        -11    1    1    2    0    0 -0.11149681766E+02  0.35073667089E+01  0.36448385780E+03  0.36467122127E+03  0.00000000000E+00 0.  1.
         11    1    1    2    0    0 -0.61227630894E+01 -0.27983532301E+01 -0.49886780601E+03  0.49891322581E+03  0.00000000000E+00 0.  1.
        -15    1    1    2    0    0  0.63152509517E+01 -0.44473045982E+00  0.10139727885E+03  0.10161026556E+03  0.17770000000E+01 0.  1.
         15    1    1    2    0    0  0.10957193904E+02 -0.26428301895E+00  0.32986669365E+02  0.34805287365E+02  0.17770000000E+01 0. -1.
</event>
<event>
 6    1  0.1599106E-003  0.5098079E+03  0.7546771E-02  0.9378127E-01
        -11   -1    0    0    0    0  0.00000000000E+00  0.00000000000E+00  0.50000000000E+03  0.50000000000E+03  0.00000000000E+00 0.  1.
         11   -1    0    0    0    0 -0.00000000000E+00 -0.00000000000E+00 -0.50000000000E+03  0.50000000000E+03  0.00000000000E+00 0.  1.
        -11    1    1    2    0    0 -0.21290328793E+02  0.66008449315E+01  0.39310433618E+03  0.39373578499E+03  0.00000000000E+00 0.  1.
         11    1    1    2    0    0  0.10062563370E+02 -0.26573502900E+01 -0.49008159780E+03  0.49019209417E+03  0.00000000000E+00 0.  1.
        -15    1    1    2    0    0 -0.24823820803E+02 -0.34765960336E+01  0.24465096967E+02  0.35071462728E+02  0.17770000000E+01 0. -1.
         15    1    1    2    0    0  0.36051586226E+02 -0.46689860796E+00  0.72512164649E+02  0.81000658113E+02  0.17770000000E+01 0.  1.
</event>
<event>
 6    1  0.1599106E-003  0.4870943E+03  0.7546771E-02  0.9429159E-01
        -11   -1    0    0    0    0  0.00000000000E+00  0.00000000000E+00  0.50000000000E+03  0.50000000000E+03  0.00000000000E+00 0. -1.
         11   -1    0    0    0    0 -0.00000000000E+00 -0.00000000000E+00 -0.50000000000E+03  0.50000000000E+03  0.00000000000E+00 0. -1.
        -11    1    1    2    0    0 -0.88447481763E+01 -0.16304547258E+01  0.48338301763E+03  0.48346667898E+03  0.00000000000E+00 0. -1.
         11    1    1    2    0    0 -0.11818972874E+01  0.14517243053E+02 -0.49066983677E+03  0.49088597041E+03  0.00000000000E+00 0. -1.
        -15    1    1    2    0    0  0.84350951516E+01 -0.48749547470E+01  0.12383762626E+02  0.15856586007E+02  0.17770000000E+01 0.  1.
         15    1    1    2    0    0  0.15915503121E+01 -0.80118335806E+01 -0.50969434810E+01  0.97907646058E+01  0.17770000000E+01 0. -1.
</event>
<event>
 6    1  0.1599106E-003  0.5034996E+03  0.7546771E-02  0.9392013E-01
        -11   -1    0    0    0    0  0.00000000000E+00  0.00000000000E+00  0.50000000000E+03  0.50000000000E+03  0.00000000000E+00 0.  1.
         11   -1    0    0    0    0 -0.00000000000E+00 -0.00000000000E+00 -0.50000000000E+03  0.50000000000E+03  0.00000000000E+00 0. -1.
        -11    1    1    2    0    0  0.81982688112E+01 -0.19598552549E+01  0.49642886820E+03  0.49650042682E+03  0.00000000000E+00 0.  1.
         11    1    1    2    0    0 -0.15752408878E+02  0.11981109488E+02 -0.39620687769E+03  0.39670086375E+03  0.00000000000E+00 0. -1.
        -15    1    1    2    0    0  0.12045955395E+02 -0.16784665997E+02 -0.94401186145E+02  0.96651806649E+02  0.17770000000E+01 0. -1.
         15    1    1    2    0    0 -0.44918153287E+01  0.67634117641E+01 -0.58208043716E+01  0.10146902787E+02  0.17770000000E+01 0. -1.
</event>
<event>
 6    1  0.1599106E-003  0.5016645E+03  0.7546771E-02  0.9396093E-01
        -11   -1    0    0    0    0  0.00000000000E+00  0.00000000000E+00  0.50000000000E+03  0.50000000000E+03  0.00000000000E+00 0. -1.
         11   -1    0    0    0    0 -0.00000000000E+00 -0.00000000000E+00 -0.50000000000E+03  0.50000000000E+03  0.00000000000E+00 0.  1.
        -11    1    1    2    0    0 -0.22466671397E+01 -0.81417351501E+01  0.49826391597E+03  0.49833549474E+03  0.00000000000E+00 0. -1.
         11    1    1    2    0    0  0.57964602608E+01  0.55529951283E+01 -0.47929760048E+03  0.47936481361E+03  0.00000000000E+00 0.  1.
        -15    1    1    2    0    0 -0.27445103449E+01  0.63661550663E+01 -0.92609980640E+01  0.11704019886E+02  0.17770000000E+01 0. -1.
         15    1    1    2    0    0 -0.80528277621E+00 -0.37774150445E+01 -0.97053174248E+01  0.10595671762E+02  0.17770000000E+01 0.  1.
</event>
<event>
 6    1  0.1599106E-003  0.5053613E+03  0.7546771E-02  0.9387893E-01
        -11   -1    0    0    0    0  0.00000000000E+00  0.00000000000E+00  0.50000000000E+03  0.50000000000E+03  0.00000000000E+00 0. -1.
         11   -1    0    0    0    0 -0.00000000000E+00 -0.00000000000E+00 -0.50000000000E+03  0.50000000000E+03  0.00000000000E+00 0.  1.
        -11    1    1    2    0    0  0.11153049172E+02  0.24778576938E+01  0.37829094951E+03  0.37846343650E+03  0.00000000000E+00 0. -1.
         11    1    1    2    0    0 -0.86254265912E+00 -0.16602604279E+02 -0.49435921202E+03  0.49463867717E+03  0.00000000000E+00 0.  1.
        -15    1    1    2    0    0 -0.45593971623E+01  0.18998361481E+02  0.12987828828E+02  0.23528010288E+02  0.17770000000E+01 0.  1.
         15    1    1    2    0    0 -0.57311093506E+01 -0.48736148955E+01  0.10308043368E+03  0.10336987604E+03  0.17770000000E+01 0. -1.
</event>
<event>
 6    1  0.1599106E-003  0.3712020E+03  0.7546771E-02  0.9745539E-01
        -11   -1    0    0    0    0  0.00000000000E+00  0.00000000000E+00  0.50000000000E+03  0.50000000000E+03  0.00000000000E+00 0. -1.
         11   -1    0    0    0    0 -0.00000000000E+00 -0.00000000000E+00 -0.50000000000E+03  0.50000000000E+03  0.00000000000E+00 0. -1.
        -11    1    1    2    0    0 -0.32081993713E+02 -0.46774969865E+02  0.43408636248E+03  0.43777633812E+03  0.00000000000E+00 0. -1.
         11    1    1    2    0    0  0.41306631272E+00 -0.20349019208E+01 -0.14994401904E+03  0.14995839521E+03  0.00000000000E+00 0. -1.
        -15    1    1    2    0    0 -0.23151090430E+01 -0.31913278569E+02 -0.31706471805E+03  0.31868010644E+03  0.17770000000E+01 0. -1.
         15    1    1    2    0    0  0.33984036443E+02  0.80723150355E+02  0.32922374606E+02  0.93585160228E+02  0.17770000000E+01 0.  1.
</event>
<event>
 6    1  0.1599106E-003  0.5360360E+03  0.7546771E-02  0.9322601E-01
        -11   -1    0    0    0    0  0.00000000000E+00  0.00000000000E+00  0.50000000000E+03  0.50000000000E+03  0.00000000000E+00 0.  1.
         11   -1    0    0    0    0 -0.00000000000E+00 -0.00000000000E+00 -0.50000000000E+03  0.50000000000E+03  0.00000000000E+00 0. -1.
        -11    1    1    2    0    0  0.14552513230E+02  0.40959908188E+01  0.46371763488E+03  0.46396400473E+03  0.00000000000E+00 0.  1.
         11    1    1    2    0    0  0.14511871856E+02 -0.11459543509E+02 -0.41890274208E+03  0.41931065201E+03  0.00000000000E+00 0. -1.
        -15    1    1    2    0    0 -0.29600987895E+02  0.11262005573E+02  0.28883455426E+02  0.42900617480E+02  0.17770000000E+01 0.  1.
         15    1    1    2    0    0  0.53660280934E+00 -0.38984528821E+01 -0.73698348222E+02  0.73824725784E+02  0.17770000000E+01 0. -1.
</event>
<event>
 6    1  0.1599106E-003  0.5019487E+03  0.7546771E-02  0.9395460E-01
        -11   -1    0    0    0    0  0.00000000000E+00  0.00000000000E+00  0.50000000000E+03  0.50000000000E+03  0.00000000000E+00 0.  1.
         11   -1    0    0    0    0 -0.00000000000E+00 -0.00000000000E+00 -0.50000000000E+03  0.50000000000E+03  0.00000000000E+00 0. -1.
        -11    1    1    2    0    0  0.37296071414E+01 -0.20688052620E+01  0.27878832538E+03  0.27882094665E+03  0.00000000000E+00 0.  1.
         11    1    1    2    0    0 -0.21649191739E+02  0.13052861288E+02 -0.49740934269E+03  0.49805132154E+03  0.00000000000E+00 0. -1.
        -15    1    1    2    0    0  0.26741052888E+02 -0.46922878047E+01  0.19708485849E+03  0.19895401642E+03  0.17770000000E+01 0.  1.
         15    1    1    2    0    0 -0.88214682899E+01 -0.62917682218E+01  0.21536158813E+02  0.24173715386E+02  0.17770000000E+01 0. -1.
</event>
<event>
 6    1  0.1599106E-003  0.4792694E+03  0.7546771E-02  0.9447429E-01
        -11   -1    0    0    0    0  0.00000000000E+00  0.00000000000E+00  0.50000000000E+03  0.50000000000E+03  0.00000000000E+00 0.  1.
         11   -1    0    0    0    0 -0.00000000000E+00 -0.00000000000E+00 -0.50000000000E+03  0.50000000000E+03  0.00000000000E+00 0. -1.
        -11    1    1    2    0    0  0.62818164209E+01 -0.33201816160E+01  0.47741795634E+03  0.47747082618E+03  0.00000000000E+00 0.  1.
         11    1    1    2    0    0 -0.31778228502E+01  0.92867669886E+01 -0.48099821303E+03  0.48109835121E+03  0.00000000000E+00 0. -1.
        -15    1    1    2    0    0 -0.38746407284E+01 -0.10758518543E+02  0.20608591256E+02  0.23635361740E+02  0.17770000000E+01 0.  1.
         15    1    1    2    0    0  0.77064715769E+00  0.47919331703E+01 -0.17028334565E+02  0.17795460871E+02  0.17770000000E+01 0. -1.
</event>
<event>
 6    1  0.1599106E-003  0.5289429E+03  0.7546771E-02  0.9337279E-01
        -11   -1    0    0    0    0  0.00000000000E+00  0.00000000000E+00  0.50000000000E+03  0.50000000000E+03  0.00000000000E+00 0.  1.
         11   -1    0    0    0    0 -0.00000000000E+00 -0.00000000000E+00 -0.50000000000E+03  0.50000000000E+03  0.00000000000E+00 0.  1.
        -11    1    1    2    0    0  0.48401918104E+00 -0.73849144956E+01  0.41680539105E+03  0.41687108948E+03  0.00000000000E+00 0.  1.
         11    1    1    2    0    0  0.13511335341E+02  0.11347027675E+02 -0.47072649630E+03  0.47105705126E+03  0.00000000000E+00 0.  1.
        -15    1    1    2    0    0 -0.54226886140E+02 -0.10281683131E+02  0.42662940899E+02  0.69782178553E+02  0.17770000000E+01 0.  1.
         15    1    1    2    0    0  0.40231531618E+02  0.63195699516E+01  0.11258164348E+02  0.42289680706E+02  0.17770000000E+01 0. -1.
</event>
<event>
 6    1  0.1599106E-003  0.5003533E+03  0.7546771E-02  0.9399020E-01
        -11   -1    0    0    0    0  0.00000000000E+00  0.00000000000E+00  0.50000000000E+03  0.50000000000E+03  0.00000000000E+00 0. -1.
         11   -1    0    0    0    0 -0.00000000000E+00 -0.00000000000E+00 -0.50000000000E+03  0.50000000000E+03  0.00000000000E+00 0. -1.
        -11    1    1    2    0    0  0.44556817774E+01 -0.21376262304E+02  0.49916938189E+03  0.49964674471E+03  0.00000000000E+00 0. -1.
         11    1    1    2    0    0 -0.19828848050E+01 -0.59318243003E+00 -0.51990243128E+02  0.52031423948E+02  0.00000000000E+00 0. -1.
        -15    1    1    2    0    0 -0.14098930573E+01 -0.45125932475E+01 -0.49653651600E+02  0.49909860173E+02  0.17770000000E+01 0.  1.
         15    1    1    2    0    0 -0.10629039150E+01  0.26482037982E+02 -0.39752548716E+03  0.39841197117E+03  0.17770000000E+01 0. -1.
</event>
<event>
 6    1  0.1599106E-003  0.5007280E+03  0.7546771E-02  0.9398182E-01
        -11   -1    0    0    0    0  0.00000000000E+00  0.00000000000E+00  0.50000000000E+03  0.50000000000E+03  0.00000000000E+00 0.  1.
         11   -1    0    0    0    0 -0.00000000000E+00 -0.00000000000E+00 -0.50000000000E+03  0.50000000000E+03  0.00000000000E+00 0. -1.
        -11    1    1    2    0    0 -0.95576602791E+01  0.22945296806E+01  0.36520253281E+03  0.36533478305E+03  0.00000000000E+00 0.  1.
         11    1    1    2    0    0  0.21222428575E+01  0.96256530914E+01 -0.49917466902E+03  0.49927197729E+03  0.00000000000E+00 0. -1.
        -15    1    1    2    0    0  0.70611370781E+01 -0.66342821673E+01  0.11908152202E+03  0.11948824198E+03  0.17770000000E+01 0.  1.
         15    1    1    2    0    0  0.37428034351E+00 -0.52859006047E+01  0.14890614198E+02  0.15904997679E+02  0.17770000000E+01 0. -1.
</event>
<event>
 6    1  0.1599106E-003  0.5016073E+03  0.7546771E-02  0.9396220E-01
        -11   -1    0    0    0    0  0.00000000000E+00  0.00000000000E+00  0.50000000000E+03  0.50000000000E+03  0.00000000000E+00 0. -1.
         11   -1    0    0    0    0 -0.00000000000E+00 -0.00000000000E+00 -0.50000000000E+03  0.50000000000E+03  0.00000000000E+00 0.  1.
        -11    1    1    2    0    0 -0.16108578378E+02 -0.34652956233E+01  0.49812024951E+03  0.49839269411E+03  0.00000000000E+00 0. -1.
         11    1    1    2    0    0  0.26990684144E+01 -0.65617243181E+01 -0.30899596964E+03  0.30907741821E+03  0.00000000000E+00 0.  1.
        -15    1    1    2    0    0 -0.55066469785E+01 -0.21781571663E+01 -0.85616672406E+01  0.10560653603E+02  0.17770000000E+01 0.  1.
         15    1    1    2    0    0  0.18916156942E+02  0.12205177108E+02 -0.18056261263E+03  0.18196923408E+03  0.17770000000E+01 0. -1.
</event>
<event>
 6    1  0.1599106E-003  0.5002238E+03  0.7546771E-02  0.9399309E-01
        -11   -1    0    0    0    0  0.00000000000E+00  0.00000000000E+00  0.50000000000E+03  0.50000000000E+03  0.00000000000E+00 0.  1.
         11   -1    0    0    0    0 -0.00000000000E+00 -0.00000000000E+00 -0.50000000000E+03  0.50000000000E+03  0.00000000000E+00 0.  1.
        -11    1    1    2    0    0  0.72572761307E+01  0.47044699145E+01  0.49970131472E+03  0.49977615392E+03  0.00000000000E+00 0.  1.
         11    1    1    2    0    0 -0.88842038001E+00 -0.27791982465E+01 -0.18585643212E+03  0.18587933342E+03  0.00000000000E+00 0.  1.
        -15    1    1    2    0    0 -0.10826816704E+02 -0.45170612882E+01 -0.18159908615E+03  0.18198628965E+03  0.17770000000E+01 0.  1.
         15    1    1    2    0    0  0.44579609534E+01  0.25917896201E+01 -0.13224579645E+03  0.13235822301E+03  0.17770000000E+01 0.  1.
</event>
<event>
 6    1  0.1599106E-003  0.5557070E+03  0.7546771E-02  0.9283122E-01
        -11   -1    0    0    0    0  0.00000000000E+00  0.00000000000E+00  0.50000000000E+03  0.50000000000E+03  0.00000000000E+00 0.  1.
         11   -1    0    0    0    0 -0.00000000000E+00 -0.00000000000E+00 -0.50000000000E+03  0.50000000000E+03  0.00000000000E+00 0.  1.
        -11    1    1    2    0    0 -0.17324084545E+02 -0.97319307107E+01  0.36884143362E+03  0.36937628177E+03  0.00000000000E+00 0.  1.
         11    1    1    2    0    0  0.73986430061E+01 -0.13609522747E+00 -0.44423134824E+03  0.44429297676E+03  0.00000000000E+00 0.  1.
        -15    1    1    2    0    0 -0.46778009242E+02 -0.44634798720E+02 -0.15104953421E+02  0.66421116764E+02  0.17770000000E+01 0.  1.
         15    1    1    2    0    0  0.56703450780E+02  0.54502824658E+02  0.90494868044E+02  0.11990962471E+03  0.17770000000E+01 0. -1.
</event>
<event>
 6    1  0.1599106E-003  0.5064810E+03  0.7546771E-02  0.9385424E-01
        -11   -1    0    0    0    0  0.00000000000E+00  0.00000000000E+00  0.50000000000E+03  0.50000000000E+03  0.00000000000E+00 0. -1.
         11   -1    0    0    0    0 -0.00000000000E+00 -0.00000000000E+00 -0.50000000000E+03  0.50000000000E+03  0.00000000000E+00 0.  1.
        -11    1    1    2    0    0  0.67566749728E+01 -0.27890939812E+01  0.48579825085E+03  0.48585324145E+03  0.00000000000E+00 0. -1.
         11    1    1    2    0    0  0.35718298852E+01  0.66617133866E+01 -0.49346115895E+03  0.49351904906E+03  0.00000000000E+00 0.  1.
        -15    1    1    2    0    0 -0.10443387180E+02  0.12155739249E-01 -0.13245510825E+01  0.10675984644E+02  0.17770000000E+01 0.  1.
         15    1    1    2    0    0  0.11488232187E+00 -0.38847751447E+01  0.89874591846E+01  0.99517248489E+01  0.17770000000E+01 0. -1.
</event>
<event>
 6    1  0.1599106E-003  0.5011638E+03  0.7546771E-02  0.9397209E-01
        -11   -1    0    0    0    0  0.00000000000E+00  0.00000000000E+00  0.50000000000E+03  0.50000000000E+03  0.00000000000E+00 0. -1.
         11   -1    0    0    0    0 -0.00000000000E+00 -0.00000000000E+00 -0.50000000000E+03  0.50000000000E+03  0.00000000000E+00 0.  1.
        -11    1    1    2    0    0 -0.55404805129E+01 -0.45083436723E+01  0.31667399000E+03  0.31675453909E+03  0.00000000000E+00 0. -1.
         11    1    1    2    0    0  0.65372716425E+01 -0.29188101025E+01 -0.49878486685E+03  0.49883624444E+03  0.00000000000E+00 0.  1.
        -15    1    1    2    0    0  0.48799758536E+01  0.89141906347E+00  0.16506063258E+03  0.16514472123E+03  0.17770000000E+01 0. -1.
         15    1    1    2    0    0 -0.58767669832E+01  0.65357347113E+01  0.17050244265E+02  0.19264495240E+02  0.17770000000E+01 0.  1.
</event>
<event>
 6    1  0.1599106E-003  0.5050100E+03  0.7546771E-02  0.9388669E-01
        -11   -1    0    0    0    0  0.00000000000E+00  0.00000000000E+00  0.50000000000E+03  0.50000000000E+03  0.00000000000E+00 0.  1.
         11   -1    0    0    0    0 -0.00000000000E+00 -0.00000000000E+00 -0.50000000000E+03  0.50000000000E+03  0.00000000000E+00 0.  1.
        -11    1    1    2    0    0  0.86805773693E+00  0.63529553519E+01  0.47218359698E+03  0.47222713055E+03  0.00000000000E+00 0.  1.
         11    1    1    2    0    0 -0.34663855561E+01 -0.93024398728E+01 -0.49489040754E+03  0.49498996625E+03  0.00000000000E+00 0.  1.
        -15    1    1    2    0    0  0.62403437333E+01  0.41640031014E+01 -0.17972377294E+01  0.79163504340E+01  0.17770000000E+01 0. -1.
         15    1    1    2    0    0 -0.36420159141E+01 -0.12145185805E+01  0.24504048286E+02  0.24866552770E+02  0.17770000000E+01 0.  1.
</event>
<event>
 6    1  0.1599106E-003  0.5032000E+03  0.7546771E-02  0.9392678E-01
        -11   -1    0    0    0    0  0.00000000000E+00  0.00000000000E+00  0.50000000000E+03  0.50000000000E+03  0.00000000000E+00 0.  1.
         11   -1    0    0    0    0 -0.00000000000E+00 -0.00000000000E+00 -0.50000000000E+03  0.50000000000E+03  0.00000000000E+00 0.  1.
        -11    1    1    2    0    0  0.33116869715E+01 -0.71416360034E+01  0.49673761485E+03  0.49679998816E+03  0.00000000000E+00 0.  1.
         11    1    1    2    0    0  0.68822100065E+01 -0.95160895083E+00 -0.46216638029E+03  0.46221859920E+03  0.00000000000E+00 0.  1.
        -15    1    1    2    0    0 -0.56848549316E+01  0.12521556069E+02 -0.29793003860E+02  0.32861645576E+02  0.17770000000E+01 0.  1.
         15    1    1    2    0    0 -0.45090420464E+01 -0.44283111150E+01 -0.47782306952E+01  0.81197670585E+01  0.17770000000E+01 0. -1.
</event>
<event>
 6    1  0.1599106E-003  0.4679974E+03  0.7546771E-02  0.9474410E-01
        -11   -1    0    0    0    0  0.00000000000E+00  0.00000000000E+00  0.50000000000E+03  0.50000000000E+03  0.00000000000E+00 0. -1.
         11   -1    0    0    0    0 -0.00000000000E+00 -0.00000000000E+00 -0.50000000000E+03  0.50000000000E+03  0.00000000000E+00 0. -1.
        -11    1    1    2    0    0 -0.97344719812E+01  0.12290438141E+02  0.46165314516E+03  0.46191930167E+03  0.00000000000E+00 0. -1.
         11    1    1    2    0    0  0.32527486529E+02  0.12106561364E+02 -0.47347503504E+03  0.47474542126E+03  0.00000000000E+00 0. -1.
        -15    1    1    2    0    0 -0.22364777009E+02 -0.25916752401E+02 -0.14273711417E+02  0.37131629002E+02  0.17770000000E+01 0.  1.
         15    1    1    2    0    0 -0.42823753864E+00  0.15197528965E+01  0.26095601289E+02  0.26203648065E+02  0.17770000000E+01 0. -1.
</event>
<event>
 6    1  0.1599106E-003  0.4615229E+03  0.7546771E-02  0.9490276E-01
        -11   -1    0    0    0    0  0.00000000000E+00  0.00000000000E+00  0.50000000000E+03  0.50000000000E+03  0.00000000000E+00 0. -1.
         11   -1    0    0    0    0 -0.00000000000E+00 -0.00000000000E+00 -0.50000000000E+03  0.50000000000E+03  0.00000000000E+00 0.  1.
        -11    1    1    2    0    0  0.15917873605E+02 -0.15934147146E+02  0.46710572164E+03  0.46764840525E+03  0.00000000000E+00 0. -1.
         11    1    1    2    0    0  0.24599792610E+02 -0.11714490624E+02 -0.45595368315E+03  0.45676705252E+03  0.00000000000E+00 0.  1.
        -15    1    1    2    0    0 -0.21480825915E+02  0.20880417859E+01  0.21080328304E+02  0.30221247011E+02  0.17770000000E+01 0.  1.
         15    1    1    2    0    0 -0.19036840301E+02  0.25560595983E+02 -0.32232366792E+02  0.45363295225E+02  0.17770000000E+01 0. -1.
</event>
<event>
 6    1  0.1599106E-003  0.5031065E+03  0.7546771E-02  0.9392885E-01
        -11   -1    0    0    0    0  0.00000000000E+00  0.00000000000E+00  0.50000000000E+03  0.50000000000E+03  0.00000000000E+00 0.  1.
         11   -1    0    0    0    0 -0.00000000000E+00 -0.00000000000E+00 -0.50000000000E+03  0.50000000000E+03  0.00000000000E+00 0. -1.
        -11    1    1    2    0    0  0.71316552964E+01 -0.16309871025E+01  0.49683959762E+03  0.49689345577E+03  0.00000000000E+00 0.  1.
         11    1    1    2    0    0 -0.38754302976E+01  0.53526303121E+01 -0.44937153651E+03  0.44942012353E+03  0.00000000000E+00 0. -1.
        -15    1    1    2    0    0  0.36927379200E+01 -0.12831335617E+02 -0.24557249342E+02  0.28008850589E+02  0.17770000000E+01 0.  1.
         15    1    1    2    0    0 -0.69489629187E+01  0.91096924077E+01 -0.22910811769E+02  0.25677570101E+02  0.17770000000E+01 0. -1.
</event>
<event>
 6    1  0.1599106E-003  0.5051464E+03  0.7546771E-02  0.9388367E-01
        -11   -1    0    0    0    0  0.00000000000E+00  0.00000000000E+00  0.50000000000E+03  0.50000000000E+03  0.00000000000E+00 0.  1.
         11   -1    0    0    0    0 -0.00000000000E+00 -0.00000000000E+00 -0.50000000000E+03  0.50000000000E+03  0.00000000000E+00 0. -1.
        -11    1    1    2    0    0 -0.39661339691E+01 -0.87324888805E+01  0.46629198706E+03  0.46639061288E+03  0.00000000000E+00 0.  1.
         11    1    1    2    0    0  0.54007519767E+01 -0.10493717353E+02 -0.49471283806E+03  0.49485359286E+03  0.00000000000E+00 0. -1.
        -15    1    1    2    0    0 -0.16191810146E+01  0.11405683170E+02  0.29109072011E+01  0.12014260921E+02  0.17770000000E+01 0. -1.
         15    1    1    2    0    0  0.18456300703E+00  0.78205230628E+01  0.25509943790E+02  0.26741533345E+02  0.17770000000E+01 0.  1.
</event>
<event>
 6    1  0.1599106E-003  0.5186109E+03  0.7546771E-02  0.9359103E-01
        -11   -1    0    0    0    0  0.00000000000E+00  0.00000000000E+00  0.50000000000E+03  0.50000000000E+03  0.00000000000E+00 0. -1.
         11   -1    0    0    0    0 -0.00000000000E+00 -0.00000000000E+00 -0.50000000000E+03  0.50000000000E+03  0.00000000000E+00 0. -1.
        -11    1    1    2    0    0 -0.69427817468E+01 -0.42359304151E+01  0.48132037880E+03  0.48138908626E+03  0.00000000000E+00 0. -1.
         11    1    1    2    0    0 -0.33469712769E+02 -0.24835046987E+02 -0.39726378569E+03  0.39944400940E+03  0.00000000000E+00 0. -1.
        -15    1    1    2    0    0  0.34705723190E+02  0.51014506955E+02 -0.61700626398E+02  0.87275954128E+02  0.17770000000E+01 0.  1.
         15    1    1    2    0    0  0.57067713256E+01 -0.21943529553E+02 -0.22355966715E+02  0.31890950205E+02  0.17770000000E+01 0. -1.
</event>
<event>
 6    1  0.1599106E-003  0.5023850E+03  0.7546771E-02  0.9394489E-01
        -11   -1    0    0    0    0  0.00000000000E+00  0.00000000000E+00  0.50000000000E+03  0.50000000000E+03  0.00000000000E+00 0.  1.
         11   -1    0    0    0    0 -0.00000000000E+00 -0.00000000000E+00 -0.50000000000E+03  0.50000000000E+03  0.00000000000E+00 0. -1.
        -11    1    1    2    0    0  0.16300409533E+01  0.93204359129E+01  0.34273305271E+03  0.34286363613E+03  0.00000000000E+00 0.  1.
         11    1    1    2    0    0 -0.95621127913E+01  0.74629889123E+00 -0.49752256544E+03  0.49761500589E+03  0.00000000000E+00 0. -1.
        -15    1    1    2    0    0 -0.79533649790E+01 -0.18396799101E+02  0.69843839888E+02  0.72684371985E+02  0.17770000000E+01 0. -1.
         15    1    1    2    0    0  0.15885436817E+02  0.83300642967E+01  0.84945672844E+02  0.86836986003E+02  0.17770000000E+01 0.  1.
</event>
<event>
 6    1  0.1599106E-003  0.5160162E+03  0.7546771E-02  0.9364668E-01
        -11   -1    0    0    0    0  0.00000000000E+00  0.00000000000E+00  0.50000000000E+03  0.50000000000E+03  0.00000000000E+00 0.  1.
         11   -1    0    0    0    0 -0.00000000000E+00 -0.00000000000E+00 -0.50000000000E+03  0.50000000000E+03  0.00000000000E+00 0. -1.
        -11    1    1    2    0    0  0.16681481489E+02  0.22477306936E+01  0.45126090890E+03  0.45157472473E+03  0.00000000000E+00 0.  1.
         11    1    1    2    0    0 -0.45053985650E+01 -0.84343295026E+01 -0.48388927987E+03  0.48398375149E+03  0.00000000000E+00 0. -1.
        -15    1    1    2    0    0  0.19658137548E+02  0.77401265826E+00  0.19231051295E+01  0.19846851886E+02  0.17770000000E+01 0. -1.
         15    1    1    2    0    0 -0.31834220472E+02  0.54125861508E+01  0.30705265840E+02  0.44594671893E+02  0.17770000000E+01 0.  1.
</event>
<event>
 6    1  0.1599106E-003  0.5005195E+03  0.7546771E-02  0.9398648E-01
        -11   -1    0    0    0    0  0.00000000000E+00  0.00000000000E+00  0.50000000000E+03  0.50000000000E+03  0.00000000000E+00 0. -1.
         11   -1    0    0    0    0 -0.00000000000E+00 -0.00000000000E+00 -0.50000000000E+03  0.50000000000E+03  0.00000000000E+00 0.  1.
        -11    1    1    2    0    0  0.65444099963E+01  0.80483797948E+00  0.37327762313E+03  0.37333585549E+03  0.00000000000E+00 0. -1.
         11    1    1    2    0    0 -0.90049067176E+00  0.78855187703E+01 -0.49941744372E+03  0.49948050551E+03  0.00000000000E+00 0.  1.
        -15    1    1    2    0    0  0.23573263055E+01 -0.39339767016E+01  0.19026021274E+02  0.19651472579E+02  0.17770000000E+01 0.  1.
         15    1    1    2    0    0 -0.80012456300E+01 -0.47563800481E+01  0.10711379932E+03  0.10753216643E+03  0.17770000000E+01 0. -1.
</event>
<event>
 6    1  0.1599106E-003  0.5036464E+03  0.7546771E-02  0.9391687E-01
        -11   -1    0    0    0    0  0.00000000000E+00  0.00000000000E+00  0.50000000000E+03  0.50000000000E+03  0.00000000000E+00 0.  1.
         11   -1    0    0    0    0 -0.00000000000E+00 -0.00000000000E+00 -0.50000000000E+03  0.50000000000E+03  0.00000000000E+00 0. -1.
        -11    1    1    2    0    0  0.18305182439E+02  0.49842597045E+01  0.49599090500E+03  0.49635360419E+03  0.00000000000E+00 0.  1.
         11    1    1    2    0    0 -0.62293365714E+01  0.15067296904E+01 -0.39919451932E+03  0.39924596319E+03  0.00000000000E+00 0. -1.
        -15    1    1    2    0    0 -0.23055258360E+02  0.45338717630E+00 -0.78865176146E+02  0.82186521009E+02  0.17770000000E+01 0. -1.
         15    1    1    2    0    0  0.10979412492E+02 -0.69443765712E+01 -0.17931209533E+02  0.22213911608E+02  0.17770000000E+01 0.  1.
</event>
<event>
 6    1  0.1599106E-003  0.5024331E+03  0.7546771E-02  0.9394382E-01
        -11   -1    0    0    0    0  0.00000000000E+00  0.00000000000E+00  0.50000000000E+03  0.50000000000E+03  0.00000000000E+00 0.  1.
         11   -1    0    0    0    0 -0.00000000000E+00 -0.00000000000E+00 -0.50000000000E+03  0.50000000000E+03  0.00000000000E+00 0.  1.
        -11    1    1    2    0    0 -0.69890680004E+01  0.27676524431E+01  0.35597896848E+03  0.35605832805E+03  0.00000000000E+00 0.  1.
         11    1    1    2    0    0 -0.85419902510E+01 -0.63506053053E+01 -0.49745300721E+03  0.49756687004E+03  0.00000000000E+00 0.  1.
        -15    1    1    2    0    0  0.13359654605E+02  0.14578496943E+02  0.44362549692E+02  0.48602535824E+02  0.17770000000E+01 0.  1.
         15    1    1    2    0    0  0.21714036464E+01 -0.10995544081E+02  0.97111489038E+02  0.97772266086E+02  0.17770000000E+01 0. -1.
</event>
<event>
 6    1  0.1599106E-003  0.5117891E+03  0.7546771E-02  0.9373810E-01
        -11   -1    0    0    0    0  0.00000000000E+00  0.00000000000E+00  0.50000000000E+03  0.50000000000E+03  0.00000000000E+00 0. -1.
         11   -1    0    0    0    0 -0.00000000000E+00 -0.00000000000E+00 -0.50000000000E+03  0.50000000000E+03  0.00000000000E+00 0.  1.
        -11    1    1    2    0    0 -0.14350293696E+02 -0.54145593837E+01  0.48796991361E+03  0.48821090214E+03  0.00000000000E+00 0. -1.
         11    1    1    2    0    0  0.65581686290E-02  0.68539893273E+01 -0.36400994752E+03  0.36407446918E+03  0.00000000000E+00 0.  1.
        -15    1    1    2    0    0 -0.46613124634E+01 -0.33500119007E+01 -0.12797470229E+03  0.12811569993E+03  0.17770000000E+01 0.  1.
         15    1    1    2    0    0  0.19005047991E+02  0.19105819570E+01  0.40147362034E+01  0.19598928755E+02  0.17770000000E+01 0.  1.
</event>
<event>
 6    1  0.1599106E-003  0.5794519E+03  0.7546771E-02  0.9237713E-01
        -11   -1    0    0    0    0  0.00000000000E+00  0.00000000000E+00  0.50000000000E+03  0.50000000000E+03  0.00000000000E+00 0. -1.
         11   -1    0    0    0    0 -0.00000000000E+00 -0.00000000000E+00 -0.50000000000E+03  0.50000000000E+03  0.00000000000E+00 0.  1.
        -11    1    1    2    0    0 -0.59274161993E+01  0.86482767366E+02  0.41151709022E+03  0.42054811717E+03  0.00000000000E+00 0. -1.
         11    1    1    2    0    0  0.10013503809E+02  0.93597355755E+01 -0.31502219803E+03  0.31532025016E+03  0.00000000000E+00 0.  1.
        -15    1    1    2    0    0 -0.14931607320E+00 -0.82210274264E+02  0.63254101209E+02  0.10374386988E+03  0.17770000000E+01 0. -1.
         15    1    1    2    0    0 -0.39367715363E+01 -0.13632228678E+02 -0.15974899340E+03  0.16038776278E+03  0.17770000000E+01 0.  1.
</event>
<event>
 6    1  0.1599106E-003  0.5003826E+03  0.7546771E-02  0.9398954E-01
        -11   -1    0    0    0    0  0.00000000000E+00  0.00000000000E+00  0.50000000000E+03  0.50000000000E+03  0.00000000000E+00 0. -1.
         11   -1    0    0    0    0 -0.00000000000E+00 -0.00000000000E+00 -0.50000000000E+03  0.50000000000E+03  0.00000000000E+00 0.  1.
        -11    1    1    2    0    0 -0.77468941567E+01 -0.23731115531E+01  0.49955172416E+03  0.49961742477E+03  0.00000000000E+00 0. -1.
         11    1    1    2    0    0  0.26211054809E+01 -0.41647648563E+01 -0.15868825667E+03  0.15876453718E+03  0.00000000000E+00 0.  1.
        -15    1    1    2    0    0  0.20616921847E+01  0.14011147835E+02 -0.19631441211E+03  0.19683259123E+03  0.17770000000E+01 0.  1.
         15    1    1    2    0    0  0.30640964910E+01 -0.74732714253E+01 -0.14454905537E+03  0.14478544682E+03  0.17770000000E+01 0. -1.
</event>
<event>
 6    1  0.1599106E-003  0.4826848E+03  0.7546771E-02  0.9439410E-01
        -11   -1    0    0    0    0  0.00000000000E+00  0.00000000000E+00  0.50000000000E+03  0.50000000000E+03  0.00000000000E+00 0. -1.
         11   -1    0    0    0    0 -0.00000000000E+00 -0.00000000000E+00 -0.50000000000E+03  0.50000000000E+03  0.00000000000E+00 0. -1.
        -11    1    1    2    0    0  0.23430551497E+01 -0.12394340510E+02  0.48762464110E+03  0.48778776142E+03  0.00000000000E+00 0. -1.
         11    1    1    2    0    0  0.10823062415E+02 -0.38067994657E+01 -0.47772067129E+03  0.47785842064E+03  0.00000000000E+00 0. -1.
        -15    1    1    2    0    0 -0.54272749994E+01 -0.54193609033E+01  0.24135907626E+01  0.82345574191E+01  0.17770000000E+01 0.  1.
         15    1    1    2    0    0 -0.77388425654E+01  0.21620500879E+02 -0.12317560571E+02  0.26119260516E+02  0.17770000000E+01 0. -1.
</event>
<event>
 6    1  0.1599106E-003  0.5107792E+03  0.7546771E-02  0.9376008E-01
        -11   -1    0    0    0    0  0.00000000000E+00  0.00000000000E+00  0.50000000000E+03  0.50000000000E+03  0.00000000000E+00 0.  1.
         11   -1    0    0    0    0 -0.00000000000E+00 -0.00000000000E+00 -0.50000000000E+03  0.50000000000E+03  0.00000000000E+00 0. -1.
        -11    1    1    2    0    0 -0.86120642620E+01  0.12495149750E+02  0.46189512746E+03  0.46214435536E+03  0.00000000000E+00 0.  1.
         11    1    1    2    0    0 -0.73514903681E+01  0.71333084083E+01 -0.48911354710E+03  0.48922079929E+03  0.00000000000E+00 0. -1.
        -15    1    1    2    0    0 -0.55841742870E+01 -0.49205091932E+01 -0.33970011423E+01  0.83720821155E+01  0.17770000000E+01 0. -1.
         15    1    1    2    0    0  0.21547728917E+02 -0.14707948966E+02  0.30615420781E+02  0.40262763229E+02  0.17770000000E+01 0.  1.
</event>
<event>
 6    1  0.2542336E-003  0.2752742E+03  0.7546771E-02  0.1011966E+00
        -11   -1    0    0    0    0  0.00000000000E+00  0.00000000000E+00  0.50000000000E+03  0.50000000000E+03  0.00000000000E+00 0. -1.
         11   -1    0    0    0    0 -0.00000000000E+00 -0.00000000000E+00 -0.50000000000E+03  0.50000000000E+03  0.00000000000E+00 0. -1.
        -11    1    1    2    0    0  0.13103677152E+02  0.90389845944E+01  0.27348527374E+03  0.27394817858E+03  0.00000000000E+00 0. -1.
         11    1    1    2    0    0  0.10430919134E+02  0.17559442575E+02 -0.33416854025E+03  0.33479210174E+03  0.00000000000E+00 0. -1.
        -15    1    1    2    0    0 -0.89890225397E+01  0.23390291471E+02 -0.16130087353E+03  0.16324533007E+03  0.17770000000E+01 0.  1.
         15    1    1    2    0    0 -0.14545573747E+02 -0.49988718641E+02  0.22198414004E+03  0.22801438960E+03  0.17770000000E+01 0. -1.
</event>
<event>
 6    1  0.1599106E-003  0.5528988E+03  0.7546771E-02  0.9288651E-01
        -11   -1    0    0    0    0  0.00000000000E+00  0.00000000000E+00  0.50000000000E+03  0.50000000000E+03  0.00000000000E+00 0.  1.
         11   -1    0    0    0    0 -0.00000000000E+00 -0.00000000000E+00 -0.50000000000E+03  0.50000000000E+03  0.00000000000E+00 0.  1.
        -11    1    1    2    0    0  0.51148377249E+01 -0.38283512451E+01  0.40502381865E+03  0.40507420495E+03  0.00000000000E+00 0.  1.
         11    1    1    2    0    0 -0.14750991676E+02  0.50627139174E+01 -0.44682907240E+03  0.44710115496E+03  0.00000000000E+00 0.  1.
        -15    1    1    2    0    0  0.63144399937E+01 -0.15177645950E+02 -0.51148939709E+02  0.53755044892E+02  0.17770000000E+01 0.  1.
         15    1    1    2    0    0  0.33217139577E+01  0.13943283277E+02  0.92954193450E+02  0.94069595200E+02  0.17770000000E+01 0. -1.
</event>
<event>
 6    1  0.1599106E-003  0.5197414E+03  0.7546771E-02  0.9356689E-01
        -11   -1    0    0    0    0  0.00000000000E+00  0.00000000000E+00  0.50000000000E+03  0.50000000000E+03  0.00000000000E+00 0.  1.
         11   -1    0    0    0    0 -0.00000000000E+00 -0.00000000000E+00 -0.50000000000E+03  0.50000000000E+03  0.00000000000E+00 0. -1.
        -11    1    1    2    0    0  0.20724011469E+02  0.44515543618E+01  0.47979062709E+03  0.48025862494E+03  0.00000000000E+00 0.  1.
         11    1    1    2    0    0 -0.60392344839E+00 -0.94034044779E+01 -0.65565563179E+02  0.66239201492E+02  0.00000000000E+00 0. -1.
        -15    1    1    2    0    0 -0.25313793731E+01  0.19267906950E+02 -0.42697772746E+03  0.42742344063E+03  0.17770000000E+01 0. -1.
         15    1    1    2    0    0 -0.17588708648E+02 -0.14316056833E+02  0.12752663547E+02  0.26078732939E+02  0.17770000000E+01 0.  1.
</event>
<event>
 6    1  0.1599106E-003  0.3709254E+03  0.7546771E-02  0.9746436E-01
        -11   -1    0    0    0    0  0.00000000000E+00  0.00000000000E+00  0.50000000000E+03  0.50000000000E+03  0.00000000000E+00 0.  1.
         11   -1    0    0    0    0 -0.00000000000E+00 -0.00000000000E+00 -0.50000000000E+03  0.50000000000E+03  0.00000000000E+00 0. -1.
        -11    1    1    2    0    0  0.13286125248E+01  0.37637536118E+01  0.84650040730E+02  0.84744087983E+02  0.00000000000E+00 0.  1.
         11    1    1    2    0    0 -0.67947069835E+01  0.67960007172E+00 -0.16850885350E+03  0.16864715712E+03  0.00000000000E+00 0. -1.
        -15    1    1    2    0    0 -0.27236782555E+02  0.41114678735E+02 -0.32762310287E+03  0.33131905227E+03  0.17770000000E+01 0. -1.
         15    1    1    2    0    0  0.32702877014E+02 -0.45558032418E+02  0.41148191564E+03  0.41528970263E+03  0.17770000000E+01 0.  1.
</event>
<event>
 6    1  0.1599106E-003  0.3799335E+03  0.7546771E-02  0.9717623E-01
        -11   -1    0    0    0    0  0.00000000000E+00  0.00000000000E+00  0.50000000000E+03  0.50000000000E+03  0.00000000000E+00 0. -1.
         11   -1    0    0    0    0 -0.00000000000E+00 -0.00000000000E+00 -0.50000000000E+03  0.50000000000E+03  0.00000000000E+00 0. -1.
        -11    1    1    2    0    0 -0.79890139031E+02 -0.48431558622E+02  0.35247646680E+03  0.36464737738E+03  0.00000000000E+00 0. -1.
         11    1    1    2    0    0  0.87497594512E+01 -0.50639932517E+02 -0.40336614692E+03  0.40662662177E+03  0.00000000000E+00 0. -1.
        -15    1    1    2    0    0 -0.32590755424E+02 -0.22147520329E+02  0.56695622999E+02  0.69066789357E+02  0.17770000000E+01 0.  1.
         15    1    1    2    0    0  0.10373113500E+03  0.12121901147E+03 -0.58059428832E+01  0.15965921149E+03  0.17770000000E+01 0. -1.
</event>
<event>
 6    1  0.1599106E-003  0.5017982E+03  0.7546771E-02  0.9395795E-01
        -11   -1    0    0    0    0  0.00000000000E+00  0.00000000000E+00  0.50000000000E+03  0.50000000000E+03  0.00000000000E+00 0. -1.
         11   -1    0    0    0    0 -0.00000000000E+00 -0.00000000000E+00 -0.50000000000E+03  0.50000000000E+03  0.00000000000E+00 0.  1.
        -11    1    1    2    0    0 -0.90405812149E+00 -0.11549258948E+02  0.49806707496E+03  0.49820178027E+03  0.00000000000E+00 0. -1.
         11    1    1    2    0    0 -0.55984404880E+01  0.61561984103E+01 -0.27135059138E+03  0.27147814784E+03  0.00000000000E+00 0.  1.
        -15    1    1    2    0    0  0.52770599248E+01 -0.56313388605E+01 -0.21017782513E+03  0.21032697222E+03  0.17770000000E+01 0.  1.
         15    1    1    2    0    0  0.12254386847E+01  0.11024399399E+02 -0.16538658448E+02  0.19993099668E+02  0.17770000000E+01 0.  1.
</event>
<event>
 6    1  0.1599106E-003  0.5184380E+03  0.7546771E-02  0.9359473E-01
        -11   -1    0    0    0    0  0.00000000000E+00  0.00000000000E+00  0.50000000000E+03  0.50000000000E+03  0.00000000000E+00 0. -1.
         11   -1    0    0    0    0 -0.00000000000E+00 -0.00000000000E+00 -0.50000000000E+03  0.50000000000E+03  0.00000000000E+00 0. -1.
        -11    1    1    2    0    0  0.20306005675E+02 -0.76394187413E+01  0.43857249483E+03  0.43910878812E+03  0.00000000000E+00 0. -1.
         11    1    1    2    0    0  0.27015896301E+01  0.69427778398E+01 -0.48150435907E+03  0.48156198828E+03  0.00000000000E+00 0. -1.
        -15    1    1    2    0    0 -0.38582415594E+01  0.38394698959E+01 -0.16140329132E+02  0.17125872547E+02  0.17770000000E+01 0. -1.
         15    1    1    2    0    0 -0.19149353746E+02 -0.31428289944E+01  0.59072193372E+02  0.62203351049E+02  0.17770000000E+01 0.  1.
</event>
<event>
 6    1  0.1599106E-003  0.5123430E+03  0.7546771E-02  0.9372607E-01
        -11   -1    0    0    0    0  0.00000000000E+00  0.00000000000E+00  0.50000000000E+03  0.50000000000E+03  0.00000000000E+00 0.  1.
         11   -1    0    0    0    0 -0.00000000000E+00 -0.00000000000E+00 -0.50000000000E+03  0.50000000000E+03  0.00000000000E+00 0. -1.
        -11    1    1    2    0    0  0.51187139683E+01  0.46662393214E+01  0.48760780184E+03  0.48765699363E+03  0.00000000000E+00 0.  1.
         11    1    1    2    0    0 -0.12523461049E+02 -0.44627395773E+01 -0.46885687849E+03  0.46904533430E+03  0.00000000000E+00 0. -1.
        -15    1    1    2    0    0  0.82625852037E+01  0.44184006041E+01  0.10170798918E+02  0.13942577157E+02  0.17770000000E+01 0. -1.
         15    1    1    2    0    0 -0.85783812331E+00 -0.46219003483E+01 -0.28921722266E+02  0.29355094906E+02  0.17770000000E+01 0.  1.
</event>
<event>
 6    1  0.1599106E-003  0.5014529E+03  0.7546771E-02  0.9396565E-01
        -11   -1    0    0    0    0  0.00000000000E+00  0.00000000000E+00  0.50000000000E+03  0.50000000000E+03  0.00000000000E+00 0.  1.
         11   -1    0    0    0    0 -0.00000000000E+00 -0.00000000000E+00 -0.50000000000E+03  0.50000000000E+03  0.00000000000E+00 0.  1.
        -11    1    1    2    0    0 -0.94835835580E+01  0.53197180054E+01  0.49842849812E+03  0.49854709456E+03  0.00000000000E+00 0.  1.
         11    1    1    2    0    0  0.43952091192E+01  0.62131437590E+01 -0.44523516481E+03  0.44530020548E+03  0.00000000000E+00 0.  1.
        -15    1    1    2    0    0 -0.22526779156E+01 -0.47482979644E+01 -0.33900891993E+02  0.34351842721E+02  0.17770000000E+01 0.  1.
         15    1    1    2    0    0  0.73410523545E+01 -0.67845638000E+01 -0.19292441311E+02  0.21800857239E+02  0.17770000000E+01 0. -1.
</event>
<event>
 6    1  0.1599106E-003  0.4074434E+03  0.7546771E-02  0.9634660E-01
        -11   -1    0    0    0    0  0.00000000000E+00  0.00000000000E+00  0.50000000000E+03  0.50000000000E+03  0.00000000000E+00 0. -1.
         11   -1    0    0    0    0 -0.00000000000E+00 -0.00000000000E+00 -0.50000000000E+03  0.50000000000E+03  0.00000000000E+00 0. -1.
        -11    1    1    2    0    0 -0.40264510826E+00  0.15706214298E+01  0.79903286122E+02  0.79919735409E+02  0.00000000000E+00 0. -1.
         11    1    1    2    0    0  0.14084247206E+02  0.86402455987E+01 -0.47751047528E+03  0.47779626815E+03  0.00000000000E+00 0. -1.
        -15    1    1    2    0    0  0.59981887682E+02  0.44293849573E+01  0.34587468369E+03  0.35106965242E+03  0.17770000000E+01 0. -1.
         15    1    1    2    0    0 -0.73663489780E+02 -0.14640251986E+02  0.51732505463E+02  0.91214344021E+02  0.17770000000E+01 0.  1.
</event>
<event>
 6    1  0.1599106E-003  0.5034421E+03  0.7546771E-02  0.9392141E-01
        -11   -1    0    0    0    0  0.00000000000E+00  0.00000000000E+00  0.50000000000E+03  0.50000000000E+03  0.00000000000E+00 0. -1.
         11   -1    0    0    0    0 -0.00000000000E+00 -0.00000000000E+00 -0.50000000000E+03  0.50000000000E+03  0.00000000000E+00 0. -1.
        -11    1    1    2    0    0 -0.70971156980E+00 -0.18289477171E+02  0.49622048609E+03  0.49655793165E+03  0.00000000000E+00 0. -1.
         11    1    1    2    0    0 -0.12904645133E+02  0.80264419802E+00 -0.44351942587E+03  0.44370784896E+03  0.00000000000E+00 0. -1.
        -15    1    1    2    0    0  0.13796467714E+02  0.41282354443E+01 -0.30214489618E+02  0.33518024422E+02  0.17770000000E+01 0. -1.
         15    1    1    2    0    0 -0.18211101179E+00  0.13358597528E+02 -0.22486570601E+02  0.26216194971E+02  0.17770000000E+01 0.  1.
</event>
<event>
 6    1  0.1599106E-003  0.5006223E+03  0.7546771E-02  0.9398418E-01
        -11   -1    0    0    0    0  0.00000000000E+00  0.00000000000E+00  0.50000000000E+03  0.50000000000E+03  0.00000000000E+00 0. -1.
         11   -1    0    0    0    0 -0.00000000000E+00 -0.00000000000E+00 -0.50000000000E+03  0.50000000000E+03  0.00000000000E+00 0. -1.
        -11    1    1    2    0    0  0.20392003633E+01  0.74026629458E+01  0.49931862554E+03  0.49937766027E+03  0.00000000000E+00 0. -1.
         11    1    1    2    0    0  0.26440819294E+01 -0.43383425667E+01 -0.35724566389E+03  0.35728178901E+03  0.00000000000E+00 0. -1.
        -15    1    1    2    0    0 -0.75729690189E+01  0.36347585879E+01 -0.11257099124E+03  0.11289795006E+03  0.17770000000E+01 0. -1.
         15    1    1    2    0    0  0.28896867262E+01 -0.66990789670E+01 -0.29501970412E+02  0.30442600671E+02  0.17770000000E+01 0.  1.
</event>
<event>
 6    1  0.1599106E-003  0.5076838E+03  0.7546771E-02  0.9382779E-01
        -11   -1    0    0    0    0  0.00000000000E+00  0.00000000000E+00  0.50000000000E+03  0.50000000000E+03  0.00000000000E+00 0. -1.
         11   -1    0    0    0    0 -0.00000000000E+00 -0.00000000000E+00 -0.50000000000E+03  0.50000000000E+03  0.00000000000E+00 0.  1.
        -11    1    1    2    0    0  0.14445367407E+02 -0.27144108243E+01  0.11695890701E+03  0.11787884710E+03  0.00000000000E+00 0. -1.
         11    1    1    2    0    0 -0.99114566424E+01 -0.63642702365E+01 -0.49217531573E+03  0.49231624219E+03  0.00000000000E+00 0.  1.
        -15    1    1    2    0    0 -0.98932368249E+01 -0.88812860188E+01  0.37003541618E+03  0.37027843622E+03  0.17770000000E+01 0. -1.
         15    1    1    2    0    0  0.53593260600E+01  0.17959967080E+02  0.51809925460E+01  0.19526474492E+02  0.17770000000E+01 0.  1.
</event>
<event>
 6    1  0.1599106E-003  0.4619349E+03  0.7546771E-02  0.9489258E-01
        -11   -1    0    0    0    0  0.00000000000E+00  0.00000000000E+00  0.50000000000E+03  0.50000000000E+03  0.00000000000E+00 0. -1.
         11   -1    0    0    0    0 -0.00000000000E+00 -0.00000000000E+00 -0.50000000000E+03  0.50000000000E+03  0.00000000000E+00 0.  1.
        -11    1    1    2    0    0 -0.79234080604E+01 -0.91273712289E+00  0.46079094177E+03  0.46085996300E+03  0.00000000000E+00 0. -1.
         11    1    1    2    0    0 -0.30025010227E+01 -0.25351198065E+02 -0.46274614503E+03  0.46344977398E+03  0.00000000000E+00 0.  1.
        -15    1    1    2    0    0 -0.25662503130E+02  0.22703249152E+02 -0.11972827250E+02  0.36338793462E+02  0.17770000000E+01 0.  1.
         15    1    1    2    0    0  0.36588412213E+02  0.35606860358E+01  0.13928030515E+02  0.39351469557E+02  0.17770000000E+01 0. -1.
</event>
<event>
 6    1  0.1599106E-003  0.5044305E+03  0.7546771E-02  0.9389950E-01
        -11   -1    0    0    0    0  0.00000000000E+00  0.00000000000E+00  0.50000000000E+03  0.50000000000E+03  0.00000000000E+00 0.  1.
         11   -1    0    0    0    0 -0.00000000000E+00 -0.00000000000E+00 -0.50000000000E+03  0.50000000000E+03  0.00000000000E+00 0. -1.
        -11    1    1    2    0    0  0.87702562498E+01  0.15567644890E+02  0.49524727916E+03  0.49556950721E+03  0.00000000000E+00 0.  1.
         11    1    1    2    0    0 -0.74413920012E+01  0.27319441111E+01 -0.41863717331E+03  0.41871221706E+03  0.00000000000E+00 0. -1.
        -15    1    1    2    0    0  0.14089441428E+02 -0.16505909070E+02 -0.54100197459E+02  0.58317634452E+02  0.17770000000E+01 0. -1.
         15    1    1    2    0    0 -0.15418305677E+02 -0.17936799312E+01 -0.22509908389E+02  0.27400641276E+02  0.17770000000E+01 0.  1.
</event>
<event>
 6    1  0.1599106E-003  0.5109389E+03  0.7546771E-02  0.9375660E-01
        -11   -1    0    0    0    0  0.00000000000E+00  0.00000000000E+00  0.50000000000E+03  0.50000000000E+03  0.00000000000E+00 0. -1.
         11   -1    0    0    0    0 -0.00000000000E+00 -0.00000000000E+00 -0.50000000000E+03  0.50000000000E+03  0.00000000000E+00 0.  1.
        -11    1    1    2    0    0  0.10216001293E+02  0.34459321681E+01  0.41369112737E+03  0.41383159617E+03  0.00000000000E+00 0. -1.
         11    1    1    2    0    0  0.10380385584E+02  0.68099072317E+00 -0.48895048837E+03  0.48906113752E+03  0.00000000000E+00 0.  1.
        -15    1    1    2    0    0 -0.10922794694E+02 -0.84965781685E+01 -0.59645517369E+01  0.15173427132E+02  0.17770000000E+01 0. -1.
         15    1    1    2    0    0 -0.96735921833E+01  0.43696552772E+01  0.81223912739E+02  0.81933839179E+02  0.17770000000E+01 0.  1.
</event>
<event>
 6    1  0.1599106E-003  0.5153307E+03  0.7546771E-02  0.9366145E-01
        -11   -1    0    0    0    0  0.00000000000E+00  0.00000000000E+00  0.50000000000E+03  0.50000000000E+03  0.00000000000E+00 0. -1.
         11   -1    0    0    0    0 -0.00000000000E+00 -0.00000000000E+00 -0.50000000000E+03  0.50000000000E+03  0.00000000000E+00 0.  1.
        -11    1    1    2    0    0  0.12640236989E+02 -0.58910759746E+01  0.48446857767E+03  0.48466925126E+03  0.00000000000E+00 0. -1.
         11    1    1    2    0    0  0.64841875525E+01  0.10906356123E+01 -0.46284813976E+03  0.46289484190E+03  0.00000000000E+00 0.  1.
        -15    1    1    2    0    0 -0.13392243920E+02 -0.38910864995E+00  0.11888855494E+02  0.18000172686E+02  0.17770000000E+01 0. -1.
         15    1    1    2    0    0 -0.57321806217E+01  0.51895490123E+01 -0.33509293404E+02  0.34435734159E+02  0.17770000000E+01 0.  1.
</event>
<event>
 6    1  0.1599106E-003  0.5044062E+03  0.7546771E-02  0.9390004E-01
        -11   -1    0    0    0    0  0.00000000000E+00  0.00000000000E+00  0.50000000000E+03  0.50000000000E+03  0.00000000000E+00 0. -1.
         11   -1    0    0    0    0 -0.00000000000E+00 -0.00000000000E+00 -0.50000000000E+03  0.50000000000E+03  0.00000000000E+00 0. -1.
        -11    1    1    2    0    0  0.51962449083E+01  0.34137166020E+01  0.34773689925E+03  0.34779247479E+03  0.00000000000E+00 0. -1.
         11    1    1    2    0    0  0.40184401353E+01  0.14052345544E+02 -0.49537820402E+03  0.49559376640E+03  0.00000000000E+00 0. -1.
        -15    1    1    2    0    0  0.87483785502E+01 -0.71836787515E+01  0.50582417482E+01  0.12525290665E+02  0.17770000000E+01 0. -1.
         15    1    1    2    0    0 -0.17963063594E+02 -0.10282383394E+02  0.14258306302E+03  0.14408846814E+03  0.17770000000E+01 0.  1.
</event>
<event>
 6    1  0.1599106E-003  0.5145932E+03  0.7546771E-02  0.9367736E-01
        -11   -1    0    0    0    0  0.00000000000E+00  0.00000000000E+00  0.50000000000E+03  0.50000000000E+03  0.00000000000E+00 0. -1.
         11   -1    0    0    0    0 -0.00000000000E+00 -0.00000000000E+00 -0.50000000000E+03  0.50000000000E+03  0.00000000000E+00 0. -1.
        -11    1    1    2    0    0 -0.33829074486E+02 -0.11715394170E+02  0.48408484510E+03  0.48540683349E+03  0.00000000000E+00 0. -1.
         11    1    1    2    0    0  0.80012869518E+00 -0.10311422613E+02 -0.45710553445E+03  0.45722252271E+03  0.00000000000E+00 0. -1.
        -15    1    1    2    0    0 -0.43228707096E+01 -0.22096609793E+00 -0.92875038775E+01  0.10399591072E+02  0.17770000000E+01 0. -1.
         15    1    1    2    0    0  0.37351816501E+02  0.22247782882E+02 -0.17691806770E+02  0.46971052733E+02  0.17770000000E+01 0.  1.
</event>
<event>
 6    1  0.1599106E-003  0.5034411E+03  0.7546771E-02  0.9392143E-01
        -11   -1    0    0    0    0  0.00000000000E+00  0.00000000000E+00  0.50000000000E+03  0.50000000000E+03  0.00000000000E+00 0.  1.
         11   -1    0    0    0    0 -0.00000000000E+00 -0.00000000000E+00 -0.50000000000E+03  0.50000000000E+03  0.00000000000E+00 0. -1.
        -11    1    1    2    0    0 -0.14864629460E+01  0.18142538237E+01  0.14178093763E+03  0.14180033626E+03  0.00000000000E+00 0.  1.
         11    1    1    2    0    0 -0.29644873310E+01  0.76374444334E+01 -0.49649129467E+03  0.49655888314E+03  0.00000000000E+00 0. -1.
        -15    1    1    2    0    0 -0.24209962763E+01 -0.20017932723E+01 -0.24307943210E+01  0.43514238251E+01  0.17770000000E+01 0. -1.
         15    1    1    2    0    0  0.68719465533E+01 -0.74499049848E+01  0.35714115136E+03  0.35728935677E+03  0.17770000000E+01 0.  1.
</event>
<event>
 6    1  0.1599106E-003  0.5031908E+03  0.7546771E-02  0.9392698E-01
        -11   -1    0    0    0    0  0.00000000000E+00  0.00000000000E+00  0.50000000000E+03  0.50000000000E+03  0.00000000000E+00 0. -1.
         11   -1    0    0    0    0 -0.00000000000E+00 -0.00000000000E+00 -0.50000000000E+03  0.50000000000E+03  0.00000000000E+00 0.  1.
        -11    1    1    2    0    0  0.11176302542E+02  0.26810021226E+01  0.45358938854E+03  0.45373497871E+03  0.00000000000E+00 0. -1.
         11    1    1    2    0    0 -0.63090947032E+01 -0.25868589362E+01 -0.49676245124E+03  0.49680924858E+03  0.00000000000E+00 0.  1.
        -15    1    1    2    0    0 -0.18249857837E+01 -0.45434851906E+01 -0.66570896743E+00  0.52511644630E+01  0.17770000000E+01 0. -1.
         15    1    1    2    0    0 -0.30422220555E+01  0.44493420042E+01  0.43838771669E+02  0.44204608241E+02  0.17770000000E+01 0.  1.
</event>
<event>
 6    1  0.1599106E-003  0.5037666E+03  0.7546771E-02  0.9391421E-01
        -11   -1    0    0    0    0  0.00000000000E+00  0.00000000000E+00  0.50000000000E+03  0.50000000000E+03  0.00000000000E+00 0. -1.
         11   -1    0    0    0    0 -0.00000000000E+00 -0.00000000000E+00 -0.50000000000E+03  0.50000000000E+03  0.00000000000E+00 0.  1.
        -11    1    1    2    0    0 -0.11336050872E+02 -0.36804585557E+01  0.49609027763E+03  0.49623342832E+03  0.00000000000E+00 0. -1.
         11    1    1    2    0    0  0.12212005851E+01  0.77444199613E+01 -0.46067781711E+03  0.46074452634E+03  0.00000000000E+00 0.  1.
        -15    1    1    2    0    0  0.36170720561E+01  0.35047305383E+01  0.81653115021E+00  0.54028509627E+01  0.17770000000E+01 0.  1.
         15    1    1    2    0    0  0.64977782312E+01 -0.75686919440E+01 -0.36228991665E+02  0.37619194379E+02  0.17770000000E+01 0. -1.
</event>
<event>
 6    1  0.1599106E-003  0.5011432E+03  0.7546771E-02  0.9397255E-01
        -11   -1    0    0    0    0  0.00000000000E+00  0.00000000000E+00  0.50000000000E+03  0.50000000000E+03  0.00000000000E+00 0. -1.
         11   -1    0    0    0    0 -0.00000000000E+00 -0.00000000000E+00 -0.50000000000E+03  0.50000000000E+03  0.00000000000E+00 0.  1.
        -11    1    1    2    0    0  0.80309629520E+01  0.16491353284E-01  0.49879217593E+03  0.49885682455E+03  0.00000000000E+00 0. -1.
         11    1    1    2    0    0 -0.33916538445E+01 -0.50996044724E+01 -0.45276109281E+03  0.45280251373E+03  0.00000000000E+00 0.  1.
        -15    1    1    2    0    0 -0.46282647824E+01  0.31966054231E+01 -0.67099802755E+01  0.89342422971E+01  0.17770000000E+01 0. -1.
         15    1    1    2    0    0 -0.11044325153E-01  0.18865076960E+01 -0.39321102842E+02  0.39406419413E+02  0.17770000000E+01 0.  1.
</event>
<event>
 6    1  0.1599106E-003  0.5119258E+03  0.7546771E-02  0.9373513E-01
        -11   -1    0    0    0    0  0.00000000000E+00  0.00000000000E+00  0.50000000000E+03  0.50000000000E+03  0.00000000000E+00 0. -1.
         11   -1    0    0    0    0 -0.00000000000E+00 -0.00000000000E+00 -0.50000000000E+03  0.50000000000E+03  0.00000000000E+00 0.  1.
        -11    1    1    2    0    0 -0.45696352604E+02  0.79493090151E+01  0.48586525467E+03  0.48807416839E+03  0.00000000000E+00 0. -1.
         11    1    1    2    0    0  0.14894275013E+02 -0.33306210950E+01 -0.44881041859E+03  0.44906984346E+03  0.00000000000E+00 0.  1.
        -15    1    1    2    0    0  0.33555179397E+02 -0.16929292570E+02 -0.30997814040E+02  0.48750109903E+02  0.17770000000E+01 0.  1.
         15    1    1    2    0    0 -0.27531018053E+01  0.12310604650E+02 -0.60570220325E+01  0.14105878253E+02  0.17770000000E+01 0. -1.
</event>
<event>
 6    1  0.1599106E-003  0.5034453E+03  0.7546771E-02  0.9392133E-01
        -11   -1    0    0    0    0  0.00000000000E+00  0.00000000000E+00  0.50000000000E+03  0.50000000000E+03  0.00000000000E+00 0.  1.
         11   -1    0    0    0    0 -0.00000000000E+00 -0.00000000000E+00 -0.50000000000E+03  0.50000000000E+03  0.00000000000E+00 0. -1.
        -11    1    1    2    0    0  0.57875278764E+01 -0.34377979631E+01  0.49650907257E+03  0.49655470301E+03  0.00000000000E+00 0.  1.
         11    1    1    2    0    0 -0.78053440549E+01  0.10374044642E+02 -0.39625994752E+03  0.39647255921E+03  0.00000000000E+00 0. -1.
        -15    1    1    2    0    0  0.70921109346E+01 -0.16687452746E+02 -0.90043639704E+02  0.91868296473E+02  0.17770000000E+01 0.  1.
         15    1    1    2    0    0 -0.50742947562E+01  0.97512060666E+01 -0.10205485354E+02  0.15104441312E+02  0.17770000000E+01 0. -1.
</event>
<event>
 6    1  0.2092637E-003  0.5000621E+03  0.7546771E-02  0.9399671E-01
        -11   -1    0    0    0    0  0.00000000000E+00  0.00000000000E+00  0.50000000000E+03  0.50000000000E+03  0.00000000000E+00 0. -1.
         11   -1    0    0    0    0 -0.00000000000E+00 -0.00000000000E+00 -0.50000000000E+03  0.50000000000E+03  0.00000000000E+00 0. -1.
        -11    1    1    2    0    0 -0.61966298570E+01 -0.48889026253E+01  0.49987554784E+03  0.49993785906E+03  0.00000000000E+00 0. -1.
         11    1    1    2    0    0 -0.58790836635E+00  0.11865957387E+00 -0.58730111739E+01  0.59035562664E+01  0.00000000000E+00 0. -1.
        -15    1    1    2    0    0  0.26783035549E+01 -0.18796061296E+01 -0.90670828376E+02  0.90747248314E+02  0.17770000000E+01 0.  1.
         15    1    1    2    0    0  0.41062346684E+01  0.66498491811E+01 -0.40333170829E+03  0.40341133636E+03  0.17770000000E+01 0. -1.
</event>
<event>
 6    1  0.1599106E-003  0.5113913E+03  0.7546771E-02  0.9374676E-01
        -11   -1    0    0    0    0  0.00000000000E+00  0.00000000000E+00  0.50000000000E+03  0.50000000000E+03  0.00000000000E+00 0.  1.
         11   -1    0    0    0    0 -0.00000000000E+00 -0.00000000000E+00 -0.50000000000E+03  0.50000000000E+03  0.00000000000E+00 0.  1.
        -11    1    1    2    0    0  0.28592067189E+02 -0.97431266662E+01  0.48767412802E+03  0.48860872890E+03  0.00000000000E+00 0.  1.
         11    1    1    2    0    0  0.42628412819E+02 -0.82052033911E+01 -0.23418256495E+03  0.23817216603E+03  0.00000000000E+00 0.  1.
        -15    1    1    2    0    0 -0.62810261889E+02  0.25678698230E+02 -0.10996985390E+03  0.12923254635E+03  0.17770000000E+01 0.  1.
         15    1    1    2    0    0 -0.84102181193E+01 -0.77303681728E+01 -0.14352170917E+03  0.14398655872E+03  0.17770000000E+01 0. -1.
</event>
<event>
 6    1  0.1599106E-003  0.5020701E+03  0.7546771E-02  0.9395190E-01
        -11   -1    0    0    0    0  0.00000000000E+00  0.00000000000E+00  0.50000000000E+03  0.50000000000E+03  0.00000000000E+00 0.  1.
         11   -1    0    0    0    0 -0.00000000000E+00 -0.00000000000E+00 -0.50000000000E+03  0.50000000000E+03  0.00000000000E+00 0. -1.
        -11    1    1    2    0    0  0.72595022807E+01  0.26199672410E+01  0.49787008626E+03  0.49792990209E+03  0.00000000000E+00 0.  1.
         11    1    1    2    0    0  0.69545513497E+01  0.11344818377E+01 -0.43305468996E+03  0.43311201476E+03  0.00000000000E+00 0. -1.
        -15    1    1    2    0    0 -0.50013760585E+01  0.27227467764E+01 -0.42388436940E+01  0.73179667497E+01  0.17770000000E+01 0.  1.
         15    1    1    2    0    0 -0.92126775719E+01 -0.64771958552E+01 -0.60576552608E+02  0.61640116394E+02  0.17770000000E+01 0. -1.
</event>
<event>
 6    1  0.1599106E-003  0.5030545E+03  0.7546771E-02  0.9393001E-01
        -11   -1    0    0    0    0  0.00000000000E+00  0.00000000000E+00  0.50000000000E+03  0.50000000000E+03  0.00000000000E+00 0.  1.
         11   -1    0    0    0    0 -0.00000000000E+00 -0.00000000000E+00 -0.50000000000E+03  0.50000000000E+03  0.00000000000E+00 0.  1.
        -11    1    1    2    0    0 -0.10100868968E+02 -0.13296218406E+02  0.49666485183E+03  0.49694546182E+03  0.00000000000E+00 0.  1.
         11    1    1    2    0    0  0.42774998134E+01  0.90893598116E+01 -0.43677366677E+03  0.43688917296E+03  0.00000000000E+00 0.  1.
        -15    1    1    2    0    0  0.96908935574E+01  0.11080707427E+02 -0.17171230654E+02  0.22687097351E+02  0.17770000000E+01 0. -1.
         15    1    1    2    0    0 -0.38675244032E+01 -0.68738488330E+01 -0.42719954415E+02  0.43478267871E+02  0.17770000000E+01 0.  1.
</event>
<event>
 6    1  0.1599106E-003  0.5032538E+03  0.7546771E-02  0.9392558E-01
        -11   -1    0    0    0    0  0.00000000000E+00  0.00000000000E+00  0.50000000000E+03  0.50000000000E+03  0.00000000000E+00 0.  1.
         11   -1    0    0    0    0 -0.00000000000E+00 -0.00000000000E+00 -0.50000000000E+03  0.50000000000E+03  0.00000000000E+00 0. -1.
        -11    1    1    2    0    0 -0.16605065380E+02 -0.81720706816E+01  0.49640135721E+03  0.49674623136E+03  0.00000000000E+00 0.  1.
         11    1    1    2    0    0  0.77158239483E+01 -0.12107860286E+02 -0.44059170556E+03  0.44082557233E+03  0.00000000000E+00 0. -1.
        -15    1    1    2    0    0  0.77930389175E+01  0.94204958512E+01 -0.46051852224E+02  0.47680268665E+02  0.17770000000E+01 0.  1.
         15    1    1    2    0    0  0.10962025137E+01  0.10859435117E+02 -0.97577994267E+01  0.14747927639E+02  0.17770000000E+01 0. -1.
</event>
<event>
 6    1  0.1599106E-003  0.5141301E+03  0.7546771E-02  0.9368736E-01
        -11   -1    0    0    0    0  0.00000000000E+00  0.00000000000E+00  0.50000000000E+03  0.50000000000E+03  0.00000000000E+00 0. -1.
         11   -1    0    0    0    0 -0.00000000000E+00 -0.00000000000E+00 -0.50000000000E+03  0.50000000000E+03  0.00000000000E+00 0.  1.
        -11    1    1    2    0    0 -0.16505376095E+02  0.31282917878E+02  0.48458078124E+03  0.48586992286E+03  0.00000000000E+00 0. -1.
         11    1    1    2    0    0  0.33233169809E+01  0.33233345487E+02 -0.37566649651E+03  0.37714826831E+03  0.00000000000E+00 0.  1.
        -15    1    1    2    0    0  0.13827043078E+02 -0.15731454123E+02 -0.74087365671E+02  0.77011435841E+02  0.17770000000E+01 0. -1.
         15    1    1    2    0    0 -0.64498396355E+00 -0.48784809242E+02 -0.34826919059E+02  0.59970372995E+02  0.17770000000E+01 0.  1.
</event>
<event>
 6    1  0.1599106E-003  0.5070749E+03  0.7546771E-02  0.9384117E-01
        -11   -1    0    0    0    0  0.00000000000E+00  0.00000000000E+00  0.50000000000E+03  0.50000000000E+03  0.00000000000E+00 0. -1.
         11   -1    0    0    0    0 -0.00000000000E+00 -0.00000000000E+00 -0.50000000000E+03  0.50000000000E+03  0.00000000000E+00 0.  1.
        -11    1    1    2    0    0 -0.10526492177E+02 -0.90804833274E+01  0.45890483655E+03  0.45911535720E+03  0.00000000000E+00 0. -1.
         11    1    1    2    0    0  0.79507711913E+01 -0.69287572107E+01 -0.49281225023E+03  0.49292508195E+03  0.00000000000E+00 0.  1.
        -15    1    1    2    0    0  0.11526268812E+02  0.20603173104E+02  0.22808721563E+02  0.32874627345E+02  0.17770000000E+01 0. -1.
         15    1    1    2    0    0 -0.89505478263E+01 -0.45939325661E+01  0.11098692122E+02  0.15084933498E+02  0.17770000000E+01 0.  1.
</event>
<event>
 6    1  0.1599106E-003  0.4576863E+03  0.7546771E-02  0.9499809E-01
        -11   -1    0    0    0    0  0.00000000000E+00  0.00000000000E+00  0.50000000000E+03  0.50000000000E+03  0.00000000000E+00 0. -1.
         11   -1    0    0    0    0 -0.00000000000E+00 -0.00000000000E+00 -0.50000000000E+03  0.50000000000E+03  0.00000000000E+00 0.  1.
        -11    1    1    2    0    0  0.17292492729E+02  0.35379563983E+02  0.45190027019E+03  0.45361282836E+03  0.00000000000E+00 0. -1.
         11    1    1    2    0    0  0.37432595325E+01  0.22163803480E+02 -0.46333413738E+03  0.46387904570E+03  0.00000000000E+00 0.  1.
        -15    1    1    2    0    0  0.12614929035E+02 -0.33978365083E+02 -0.77928266530E+01  0.37115382317E+02  0.17770000000E+01 0.  1.
         15    1    1    2    0    0 -0.33650681296E+02 -0.23565002379E+02  0.19226693843E+02  0.45392743627E+02  0.17770000000E+01 0. -1.
</event>
<event>
 6    1  0.1599106E-003  0.5258063E+03  0.7546771E-02  0.9343848E-01
        -11   -1    0    0    0    0  0.00000000000E+00  0.00000000000E+00  0.50000000000E+03  0.50000000000E+03  0.00000000000E+00 0. -1.
         11   -1    0    0    0    0 -0.00000000000E+00 -0.00000000000E+00 -0.50000000000E+03  0.50000000000E+03  0.00000000000E+00 0.  1.
        -11    1    1    2    0    0  0.48668143203E+01 -0.87468723218E+01  0.47408804937E+03  0.47419370748E+03  0.00000000000E+00 0. -1.
         11    1    1    2    0    0  0.56753855695E+01  0.14862516975E+01 -0.19115930586E+03  0.19124931154E+03  0.00000000000E+00 0.  1.
        -15    1    1    2    0    0 -0.89117055095E+01  0.20299327940E+02  0.20852109444E+02  0.30486872703E+02  0.17770000000E+01 0.  1.
         15    1    1    2    0    0 -0.16304943804E+01 -0.13038707316E+02 -0.30378085295E+03  0.30407010828E+03  0.17770000000E+01 0. -1.
</event>
<event>
 6    1  0.1599106E-003  0.5039970E+03  0.7546771E-02  0.9390910E-01
        -11   -1    0    0    0    0  0.00000000000E+00  0.00000000000E+00  0.50000000000E+03  0.50000000000E+03  0.00000000000E+00 0. -1.
         11   -1    0    0    0    0 -0.00000000000E+00 -0.00000000000E+00 -0.50000000000E+03  0.50000000000E+03  0.00000000000E+00 0. -1.
        -11    1    1    2    0    0 -0.66182677078E+01  0.74081399079E+01  0.49590350984E+03  0.49600299705E+03  0.00000000000E+00 0. -1.
         11    1    1    2    0    0 -0.45452587708E+01  0.11414145721E+02 -0.28724358435E+03  0.28750620663E+03  0.00000000000E+00 0. -1.
        -15    1    1    2    0    0  0.75820889154E+01 -0.29620083626E+01 -0.19500736490E+03  0.19518527522E+03  0.17770000000E+01 0.  1.
         15    1    1    2    0    0  0.35814375633E+01 -0.15860277267E+02 -0.13652560590E+02  0.21305521107E+02  0.17770000000E+01 0. -1.
</event>
<event>
 6    1  0.1599106E-003  0.5058160E+03  0.7546771E-02  0.9386889E-01
        -11   -1    0    0    0    0  0.00000000000E+00  0.00000000000E+00  0.50000000000E+03  0.50000000000E+03  0.00000000000E+00 0. -1.
         11   -1    0    0    0    0 -0.00000000000E+00 -0.00000000000E+00 -0.50000000000E+03  0.50000000000E+03  0.00000000000E+00 0.  1.
        -11    1    1    2    0    0 -0.46785973235E+01 -0.10033940605E+02  0.49406001870E+03  0.49418404600E+03  0.00000000000E+00 0. -1.
         11    1    1    2    0    0  0.29359237502E+01 -0.45655320910E+01 -0.40242010131E+03  0.40245670782E+03  0.00000000000E+00 0.  1.
        -15    1    1    2    0    0 -0.76390727476E+01  0.83646272379E+01 -0.91230251352E+02  0.91948022882E+02  0.17770000000E+01 0. -1.
         15    1    1    2    0    0  0.93817463209E+01  0.62348454576E+01 -0.40966603866E+00  0.11411223299E+02  0.17770000000E+01 0.  1.
</event>
<event>
 6    1  0.1599106E-003  0.5052472E+03  0.7546771E-02  0.9388145E-01
        -11   -1    0    0    0    0  0.00000000000E+00  0.00000000000E+00  0.50000000000E+03  0.50000000000E+03  0.00000000000E+00 0. -1.
         11   -1    0    0    0    0 -0.00000000000E+00 -0.00000000000E+00 -0.50000000000E+03  0.50000000000E+03  0.00000000000E+00 0. -1.
        -11    1    1    2    0    0  0.20927603212E+01  0.70556658144E+01  0.49469810260E+03  0.49475284212E+03  0.00000000000E+00 0. -1.
         11    1    1    2    0    0 -0.37194752247E+01 -0.91632637417E+01 -0.56197277121E+02  0.57060790865E+02  0.00000000000E+00 0. -1.
        -15    1    1    2    0    0  0.29334307369E+02 -0.22577049530E+02 -0.84855730962E+02  0.92595235085E+02  0.17770000000E+01 0. -1.
         15    1    1    2    0    0 -0.27707592466E+02  0.24684647457E+02 -0.35364509452E+03  0.35559113193E+03  0.17770000000E+01 0.  1.
</event>
<event>
 6    1  0.1599106E-003  0.5004578E+03  0.7546771E-02  0.9398786E-01
        -11   -1    0    0    0    0  0.00000000000E+00  0.00000000000E+00  0.50000000000E+03  0.50000000000E+03  0.00000000000E+00 0.  1.
         11   -1    0    0    0    0 -0.00000000000E+00 -0.00000000000E+00 -0.50000000000E+03  0.50000000000E+03  0.00000000000E+00 0. -1.
        -11    1    1    2    0    0 -0.62900028257E+01  0.73095991069E+01  0.27895887862E+03  0.27912551001E+03  0.00000000000E+00 0.  1.
         11    1    1    2    0    0  0.64974262058E+01  0.42082103877E+01 -0.49948224186E+03  0.49954222596E+03  0.00000000000E+00 0. -1.
        -15    1    1    2    0    0 -0.39156629146E+01 -0.12093841516E+02  0.19890804265E+03  0.19932175140E+03  0.17770000000E+01 0.  1.
         15    1    1    2    0    0  0.37082395346E+01  0.57603202101E+00  0.21615320585E+02  0.22010512632E+02  0.17770000000E+01 0.  1.
</event>
<event>
 6    1  0.1599106E-003  0.5353534E+03  0.7546771E-02  0.9324003E-01
        -11   -1    0    0    0    0  0.00000000000E+00  0.00000000000E+00  0.50000000000E+03  0.50000000000E+03  0.00000000000E+00 0.  1.
         11   -1    0    0    0    0 -0.00000000000E+00 -0.00000000000E+00 -0.50000000000E+03  0.50000000000E+03  0.00000000000E+00 0. -1.
        -11    1    1    2    0    0  0.10206625590E+02 -0.46458261121E+01  0.46451129151E+03  0.46464663869E+03  0.00000000000E+00 0.  1.
         11    1    1    2    0    0  0.10290498183E+01 -0.81275590246E+01 -0.41307812540E+03  0.41315935648E+03  0.00000000000E+00 0. -1.
        -15    1    1    2    0    0 -0.15213156808E+01  0.14348014444E+02 -0.85480784916E+02  0.86708144016E+02  0.17770000000E+01 0. -1.
         15    1    1    2    0    0 -0.97143597270E+01 -0.15746293077E+01  0.34047618806E+02  0.35485860814E+02  0.17770000000E+01 0.  1.
</event>
<event>
 6    1  0.1599106E-003  0.5026223E+03  0.7546771E-02  0.9393961E-01
        -11   -1    0    0    0    0  0.00000000000E+00  0.00000000000E+00  0.50000000000E+03  0.50000000000E+03  0.00000000000E+00 0.  1.
         11   -1    0    0    0    0 -0.00000000000E+00 -0.00000000000E+00 -0.50000000000E+03  0.50000000000E+03  0.00000000000E+00 0. -1.
        -11    1    1    2    0    0 -0.33008828335E+01 -0.74135953303E+01  0.30280502704E+03  0.30291375278E+03  0.00000000000E+00 0.  1.
         11    1    1    2    0    0  0.88442891585E+00  0.52805285663E+02 -0.49456588170E+03  0.49737771537E+03  0.00000000000E+00 0. -1.
        -15    1    1    2    0    0  0.35399970219E+01 -0.45048641106E+02  0.12525603543E+03  0.13316960533E+03  0.17770000000E+01 0. -1.
         15    1    1    2    0    0 -0.11235431042E+01 -0.34304922673E+00  0.66504819231E+02  0.66538926516E+02  0.17770000000E+01 0.  1.
</event>
<event>
 6    1  0.1599106E-003  0.5015493E+03  0.7546771E-02  0.9396350E-01
        -11   -1    0    0    0    0  0.00000000000E+00  0.00000000000E+00  0.50000000000E+03  0.50000000000E+03  0.00000000000E+00 0. -1.
         11   -1    0    0    0    0 -0.00000000000E+00 -0.00000000000E+00 -0.50000000000E+03  0.50000000000E+03  0.00000000000E+00 0.  1.
        -11    1    1    2    0    0  0.11539453691E+02 -0.45687465023E+01  0.49829617436E+03  0.49845070952E+03  0.00000000000E+00 0. -1.
         11    1    1    2    0    0 -0.82676836482E+01  0.56598141360E+00 -0.39653433622E+03  0.39662092070E+03  0.00000000000E+00 0.  1.
        -15    1    1    2    0    0  0.45256998275E+01 -0.89870365142E+01 -0.45689591020E+02  0.46818214840E+02  0.17770000000E+01 0.  1.
         15    1    1    2    0    0 -0.77974698700E+01  0.12989801603E+02 -0.56072247117E+02  0.58110154946E+02  0.17770000000E+01 0. -1.
</event>
<event>
 6    1  0.1599106E-003  0.5154797E+03  0.7546771E-02  0.9365824E-01
        -11   -1    0    0    0    0  0.00000000000E+00  0.00000000000E+00  0.50000000000E+03  0.50000000000E+03  0.00000000000E+00 0.  1.
         11   -1    0    0    0    0 -0.00000000000E+00 -0.00000000000E+00 -0.50000000000E+03  0.50000000000E+03  0.00000000000E+00 0.  1.
        -11    1    1    2    0    0  0.49455500333E+02  0.17286380763E+02  0.12804894869E+03  0.13835172111E+03  0.00000000000E+00 0.  1.
         11    1    1    2    0    0  0.13839803737E+02 -0.10324387643E+02 -0.48421257598E+03  0.48452033176E+03  0.00000000000E+00 0.  1.
        -15    1    1    2    0    0 -0.57748085345E+02  0.17199822416E+02  0.34439061498E+03  0.34962655601E+03  0.17770000000E+01 0.  1.
         15    1    1    2    0    0 -0.55472187246E+01 -0.24161815535E+02  0.11773012313E+02  0.27501391119E+02  0.17770000000E+01 0. -1.
</event>
<event>
 6    1  0.1599106E-003  0.5160756E+03  0.7546771E-02  0.9364541E-01
        -11   -1    0    0    0    0  0.00000000000E+00  0.00000000000E+00  0.50000000000E+03  0.50000000000E+03  0.00000000000E+00 0.  1.
         11   -1    0    0    0    0 -0.00000000000E+00 -0.00000000000E+00 -0.50000000000E+03  0.50000000000E+03  0.00000000000E+00 0.  1.
        -11    1    1    2    0    0 -0.17323059815E+02 -0.75837338137E+01  0.46563402535E+03  0.46601786123E+03  0.00000000000E+00 0.  1.
         11    1    1    2    0    0 -0.34781360557E+01 -0.55509247123E+01 -0.48388002664E+03  0.48392436432E+03  0.00000000000E+00 0.  1.
        -15    1    1    2    0    0  0.23596069920E+02  0.54174691320E+01  0.28085060288E+02  0.37122120465E+02  0.17770000000E+01 0. -1.
         15    1    1    2    0    0 -0.27948740486E+01  0.77171893940E+01 -0.98390589993E+01  0.12935653987E+02  0.17770000000E+01 0.  1.
</event>
<event>
 6    1  0.1599106E-003  0.5366207E+03  0.7546771E-02  0.9321402E-01
        -11   -1    0    0    0    0  0.00000000000E+00  0.00000000000E+00  0.50000000000E+03  0.50000000000E+03  0.00000000000E+00 0.  1.
         11   -1    0    0    0    0 -0.00000000000E+00 -0.00000000000E+00 -0.50000000000E+03  0.50000000000E+03  0.00000000000E+00 0.  1.
        -11    1    1    2    0    0  0.86866106269E+00  0.63057870532E+01  0.38964732916E+03  0.38969931825E+03  0.00000000000E+00 0.  1.
         11    1    1    2    0    0 -0.55582001977E+01  0.16890259477E+02 -0.46303799791E+03  0.46337928521E+03  0.00000000000E+00 0.  1.
        -15    1    1    2    0    0 -0.31487157162E+01 -0.55701761256E+01  0.10749466607E+03  0.10769959255E+03  0.17770000000E+01 0. -1.
         15    1    1    2    0    0  0.78382548512E+01 -0.17625870405E+02 -0.34103997313E+02  0.39221803992E+02  0.17770000000E+01 0.  1.
</event>
<event>
 6    1  0.1599106E-003  0.5013589E+03  0.7546771E-02  0.9396774E-01
        -11   -1    0    0    0    0  0.00000000000E+00  0.00000000000E+00  0.50000000000E+03  0.50000000000E+03  0.00000000000E+00 0. -1.
         11   -1    0    0    0    0 -0.00000000000E+00 -0.00000000000E+00 -0.50000000000E+03  0.50000000000E+03  0.00000000000E+00 0.  1.
        -11    1    1    2    0    0  0.14811835368E+02 -0.28471780884E+02  0.49760720933E+03  0.49864112100E+03  0.00000000000E+00 0. -1.
         11    1    1    2    0    0  0.99945120621E+00  0.38300789056E+01 -0.14753625677E+03  0.14758934741E+03  0.00000000000E+00 0.  1.
        -15    1    1    2    0    0  0.10066502447E+02  0.77366165817E+01 -0.20652651117E+03  0.20692401323E+03  0.17770000000E+01 0.  1.
         15    1    1    2    0    0 -0.25877789021E+02  0.16905085397E+02 -0.14354444139E+03  0.14684551835E+03  0.17770000000E+01 0. -1.
</event>
<event>
 6    1  0.1599106E-003  0.5101886E+03  0.7546771E-02  0.9377296E-01
        -11   -1    0    0    0    0  0.00000000000E+00  0.00000000000E+00  0.50000000000E+03  0.50000000000E+03  0.00000000000E+00 0.  1.
         11   -1    0    0    0    0 -0.00000000000E+00 -0.00000000000E+00 -0.50000000000E+03  0.50000000000E+03  0.00000000000E+00 0. -1.
        -11    1    1    2    0    0  0.28788250089E+02  0.11161246275E+02  0.28263333440E+03  0.28431485800E+03  0.00000000000E+00 0.  1.
         11    1    1    2    0    0  0.64884104450E+01  0.34294971590E+01 -0.48975643342E+03  0.48981141779E+03  0.00000000000E+00 0. -1.
        -15    1    1    2    0    0 -0.93420712137E+01 -0.65323482006E+01 -0.45913997917E+01  0.12417107096E+02  0.17770000000E+01 0.  1.
         15    1    1    2    0    0 -0.25934589320E+02 -0.80583952338E+01  0.21171449881E+03  0.21345661712E+03  0.17770000000E+01 0.  1.
</event>
<event>
 6    1  0.1599106E-003  0.5014300E+03  0.7546771E-02  0.9396616E-01
        -11   -1    0    0    0    0  0.00000000000E+00  0.00000000000E+00  0.50000000000E+03  0.50000000000E+03  0.00000000000E+00 0. -1.
         11   -1    0    0    0    0 -0.00000000000E+00 -0.00000000000E+00 -0.50000000000E+03  0.50000000000E+03  0.00000000000E+00 0.  1.
        -11    1    1    2    0    0  0.68044593341E+01 -0.77264209528E+01  0.49846370458E+03  0.49857001818E+03  0.00000000000E+00 0. -1.
         11    1    1    2    0    0 -0.30140482257E+01  0.29376112849E+01 -0.14470478899E+02  0.15070129606E+02  0.00000000000E+00 0.  1.
        -15    1    1    2    0    0  0.44895523326E+01  0.78189630540E+01 -0.17380175915E+02  0.19660124802E+02  0.17770000000E+01 0. -1.
         15    1    1    2    0    0 -0.82799634410E+01 -0.30301533860E+01 -0.46661304977E+03  0.46669972741E+03  0.17770000000E+01 0.  1.
</event>
<event>
 6    1  0.1599106E-003  0.5064737E+03  0.7546771E-02  0.9385440E-01
        -11   -1    0    0    0    0  0.00000000000E+00  0.00000000000E+00  0.50000000000E+03  0.50000000000E+03  0.00000000000E+00 0.  1.
         11   -1    0    0    0    0 -0.00000000000E+00 -0.00000000000E+00 -0.50000000000E+03  0.50000000000E+03  0.00000000000E+00 0.  1.
        -11    1    1    2    0    0 -0.22527511752E+01 -0.64593965490E+01  0.49347891527E+03  0.49352633011E+03  0.00000000000E+00 0.  1.
         11    1    1    2    0    0  0.50376801735E+01 -0.37016672539E+01 -0.19503547861E+03  0.19513564123E+03  0.00000000000E+00 0.  1.
        -15    1    1    2    0    0  0.10643554730E+01  0.35340199028E+01  0.57406078061E+01  0.70522660351E+01  0.17770000000E+01 0. -1.
         15    1    1    2    0    0 -0.38492844713E+01  0.66270439000E+01 -0.30418404447E+03  0.30428576263E+03  0.17770000000E+01 0.  1.
</event>
<event>
 6    1  0.1599106E-003  0.5005233E+03  0.7546771E-02  0.9398640E-01
        -11   -1    0    0    0    0  0.00000000000E+00  0.00000000000E+00  0.50000000000E+03  0.50000000000E+03  0.00000000000E+00 0.  1.
         11   -1    0    0    0    0 -0.00000000000E+00 -0.00000000000E+00 -0.50000000000E+03  0.50000000000E+03  0.00000000000E+00 0.  1.
        -11    1    1    2    0    0 -0.88656437018E+01  0.42094042839E+01  0.49938026568E+03  0.49947669462E+03  0.00000000000E+00 0.  1.
         11    1    1    2    0    0 -0.44273191932E+01  0.38636726537E+01 -0.31160990768E+03  0.31166530716E+03  0.00000000000E+00 0.  1.
        -15    1    1    2    0    0  0.13158705673E+02 -0.73281887934E+01 -0.10751520409E+03  0.10857960548E+03  0.17770000000E+01 0. -1.
         15    1    1    2    0    0  0.13425722244E+00 -0.74488814427E+00 -0.80255153908E+02  0.80278392742E+02  0.17770000000E+01 0. -1.
</event>
<event>
 6    1  0.1599106E-003  0.5004731E+03  0.7546771E-02  0.9398752E-01
        -11   -1    0    0    0    0  0.00000000000E+00  0.00000000000E+00  0.50000000000E+03  0.50000000000E+03  0.00000000000E+00 0. -1.
         11   -1    0    0    0    0 -0.00000000000E+00 -0.00000000000E+00 -0.50000000000E+03  0.50000000000E+03  0.00000000000E+00 0. -1.
        -11    1    1    2    0    0 -0.16972636767E+01  0.27372285303E+01  0.23674776954E+02  0.23892848047E+02  0.00000000000E+00 0. -1.
         11    1    1    2    0    0 -0.37320815976E+01  0.18099915075E+02 -0.49918492075E+03  0.49952689663E+03  0.00000000000E+00 0. -1.
        -15    1    1    2    0    0 -0.18121983707E+01 -0.23290261979E+01  0.88957210054E+01  0.95393923901E+01  0.17770000000E+01 0.  1.
         15    1    1    2    0    0  0.72415436450E+01 -0.18508117408E+02  0.46661442279E+03  0.46704086293E+03  0.17770000000E+01 0. -1.
</event>
<event>
 6    1  0.1599106E-003  0.5020734E+03  0.7546771E-02  0.9395182E-01
        -11   -1    0    0    0    0  0.00000000000E+00  0.00000000000E+00  0.50000000000E+03  0.50000000000E+03  0.00000000000E+00 0. -1.
         11   -1    0    0    0    0 -0.00000000000E+00 -0.00000000000E+00 -0.50000000000E+03  0.50000000000E+03  0.00000000000E+00 0. -1.
        -11    1    1    2    0    0 -0.52799248853E+01  0.37725849323E+01  0.45327766909E+03  0.45332411727E+03  0.00000000000E+00 0. -1.
         11    1    1    2    0    0  0.28986283990E+01  0.69967144144E+01 -0.49786899065E+03  0.49792658888E+03  0.00000000000E+00 0. -1.
        -15    1    1    2    0    0 -0.93852462558E+00 -0.58477032890E+01  0.33257522397E+01  0.70210269326E+01  0.17770000000E+01 0. -1.
         15    1    1    2    0    0  0.33198211119E+01 -0.49215960578E+01  0.41265569322E+02  0.41728266923E+02  0.17770000000E+01 0.  1.
</event>
<event>
 6    1  0.1599106E-003  0.5058924E+03  0.7546771E-02  0.9386721E-01
        -11   -1    0    0    0    0  0.00000000000E+00  0.00000000000E+00  0.50000000000E+03  0.50000000000E+03  0.00000000000E+00 0.  1.
         11   -1    0    0    0    0 -0.00000000000E+00 -0.00000000000E+00 -0.50000000000E+03  0.50000000000E+03  0.00000000000E+00 0. -1.
        -11    1    1    2    0    0  0.72562609445E+01 -0.16677722082E+02  0.49377272047E+03  0.49410757859E+03  0.00000000000E+00 0.  1.
         11    1    1    2    0    0 -0.51873874536E+01 -0.68324148991E+00 -0.34579479408E+03  0.34583437571E+03  0.00000000000E+00 0. -1.
        -15    1    1    2    0    0  0.24618716520E+00 -0.78928962034E+01 -0.12655406541E+03  0.12681264771E+03  0.17770000000E+01 0. -1.
         15    1    1    2    0    0 -0.23150606561E+01  0.25253859776E+02 -0.21423860982E+02  0.33245397994E+02  0.17770000000E+01 0.  1.
</event>
<event>
 6    1  0.1599106E-003  0.5142541E+03  0.7546771E-02  0.9368468E-01
        -11   -1    0    0    0    0  0.00000000000E+00  0.00000000000E+00  0.50000000000E+03  0.50000000000E+03  0.00000000000E+00 0.  1.
         11   -1    0    0    0    0 -0.00000000000E+00 -0.00000000000E+00 -0.50000000000E+03  0.50000000000E+03  0.00000000000E+00 0. -1.
        -11    1    1    2    0    0  0.20331656749E+02 -0.97702484029E-01  0.44709441283E+03  0.44755647666E+03  0.00000000000E+00 0.  1.
         11    1    1    2    0    0  0.31247965617E+01 -0.14796514513E+02 -0.48551041932E+03  0.48574588878E+03  0.00000000000E+00 0. -1.
        -15    1    1    2    0    0  0.12704225699E+02  0.54509701720E+01  0.21530719833E+02  0.25648392775E+02  0.17770000000E+01 0.  1.
         15    1    1    2    0    0 -0.36160679009E+02  0.94432468250E+01  0.16885286653E+02  0.41049241788E+02  0.17770000000E+01 0. -1.
</event>
<event>
 6    1  0.1599106E-003  0.4851317E+03  0.7546771E-02  0.9433707E-01
        -11   -1    0    0    0    0  0.00000000000E+00  0.00000000000E+00  0.50000000000E+03  0.50000000000E+03  0.00000000000E+00 0.  1.
         11   -1    0    0    0    0 -0.00000000000E+00 -0.00000000000E+00 -0.50000000000E+03  0.50000000000E+03  0.00000000000E+00 0. -1.
        -11    1    1    2    0    0 -0.41447769529E+01  0.51942193041E+01  0.48990851557E+03  0.48995358220E+03  0.00000000000E+00 0.  1.
         11    1    1    2    0    0 -0.11311338777E+02  0.57084521735E+00 -0.48036344268E+03  0.48049693996E+03  0.00000000000E+00 0. -1.
        -15    1    1    2    0    0  0.17091305232E+02 -0.24448481557E+01 -0.14849415555E+02  0.22841910349E+02  0.17770000000E+01 0. -1.
         15    1    1    2    0    0 -0.16351895022E+01 -0.33202163657E+01  0.53043426697E+01  0.67075674861E+01  0.17770000000E+01 0.  1.
</event>
<event>
 6    1  0.1599106E-003  0.5010123E+03  0.7546771E-02  0.9397548E-01
        -11   -1    0    0    0    0  0.00000000000E+00  0.00000000000E+00  0.50000000000E+03  0.50000000000E+03  0.00000000000E+00 0. -1.
         11   -1    0    0    0    0 -0.00000000000E+00 -0.00000000000E+00 -0.50000000000E+03  0.50000000000E+03  0.00000000000E+00 0. -1.
        -11    1    1    2    0    0  0.10305456422E+02  0.12581888145E+02  0.49872262193E+03  0.49898773529E+03  0.00000000000E+00 0. -1.
         11    1    1    2    0    0 -0.12769888532E+01 -0.56934939888E+00 -0.53359080208E+02  0.53377395027E+02  0.00000000000E+00 0. -1.
        -15    1    1    2    0    0 -0.18626184170E+02 -0.17905804098E+02 -0.16329057400E+03  0.16533155126E+03  0.17770000000E+01 0. -1.
         15    1    1    2    0    0  0.95977166010E+01  0.58932653518E+01 -0.28207296773E+03  0.28230331842E+03  0.17770000000E+01 0.  1.
</event>
<event>
 6    1  0.1599106E-003  0.5017173E+03  0.7546771E-02  0.9395975E-01
        -11   -1    0    0    0    0  0.00000000000E+00  0.00000000000E+00  0.50000000000E+03  0.50000000000E+03  0.00000000000E+00 0.  1.
         11   -1    0    0    0    0 -0.00000000000E+00 -0.00000000000E+00 -0.50000000000E+03  0.50000000000E+03  0.00000000000E+00 0.  1.
        -11    1    1    2    0    0 -0.30526659357E+00 -0.12919866795E+02  0.25418104561E+03  0.25450937132E+03  0.00000000000E+00 0.  1.
         11    1    1    2    0    0  0.95926702830E+01  0.27290220092E+02 -0.49744237080E+03  0.49828273871E+03  0.00000000000E+00 0.  1.
        -15    1    1    2    0    0  0.11034902454E+02 -0.19930051135E+01  0.22914658803E+02  0.25573041638E+02  0.17770000000E+01 0. -1.
         15    1    1    2    0    0 -0.20322306143E+02 -0.12377348184E+02  0.22034666639E+03  0.22163484832E+03  0.17770000000E+01 0.  1.
</event>
<event>
 6    1  0.1789271E-003  0.3252434E+03  0.7546771E-02  0.9907396E-01
        -11   -1    0    0    0    0  0.00000000000E+00  0.00000000000E+00  0.50000000000E+03  0.50000000000E+03  0.00000000000E+00 0.  1.
         11   -1    0    0    0    0 -0.00000000000E+00 -0.00000000000E+00 -0.50000000000E+03  0.50000000000E+03  0.00000000000E+00 0. -1.
        -11    1    1    2    0    0  0.69996882385E+01  0.21768052307E+02  0.33073833656E+03  0.33152781332E+03  0.00000000000E+00 0.  1.
         11    1    1    2    0    0  0.51280478651E+01  0.22470942969E+00 -0.17686878052E+03  0.17694324766E+03  0.00000000000E+00 0. -1.
        -15    1    1    2    0    0 -0.21547585576E+02 -0.36522445919E+02  0.16592184628E+03  0.17126413606E+03  0.17770000000E+01 0.  1.
         15    1    1    2    0    0  0.94198494728E+01  0.14529684182E+02 -0.31979140231E+03  0.32026480295E+03  0.17770000000E+01 0. -1.
</event>
<event>
 6    1  0.1599106E-003  0.5026710E+03  0.7546771E-02  0.9393853E-01
        -11   -1    0    0    0    0  0.00000000000E+00  0.00000000000E+00  0.50000000000E+03  0.50000000000E+03  0.00000000000E+00 0. -1.
         11   -1    0    0    0    0 -0.00000000000E+00 -0.00000000000E+00 -0.50000000000E+03  0.50000000000E+03  0.00000000000E+00 0.  1.
        -11    1    1    2    0    0  0.34404929509E+01 -0.95370243269E+01  0.49722568748E+03  0.49732904209E+03  0.00000000000E+00 0. -1.
         11    1    1    2    0    0  0.21039676530E+01 -0.13140909678E+02 -0.44392382998E+03  0.44412326782E+03  0.00000000000E+00 0.  1.
        -15    1    1    2    0    0 -0.50354362307E+01  0.17720145736E+02 -0.45509280940E+02  0.49128520878E+02  0.17770000000E+01 0.  1.
         15    1    1    2    0    0 -0.50902437317E+00  0.49577882699E+01 -0.77925765507E+01  0.94191692118E+01  0.17770000000E+01 0. -1.
</event>
<event>
 6    1  0.1599106E-003  0.5002548E+03  0.7546771E-02  0.9399240E-01
        -11   -1    0    0    0    0  0.00000000000E+00  0.00000000000E+00  0.50000000000E+03  0.50000000000E+03  0.00000000000E+00 0.  1.
         11   -1    0    0    0    0 -0.00000000000E+00 -0.00000000000E+00 -0.50000000000E+03  0.50000000000E+03  0.00000000000E+00 0. -1.
        -11    1    1    2    0    0  0.71098360313E+01  0.42129836958E+01  0.49967681915E+03  0.49974515766E+03  0.00000000000E+00 0.  1.
         11    1    1    2    0    0  0.16027722218E+01 -0.49890339034E+01 -0.22756389151E+03  0.22762421676E+03  0.00000000000E+00 0. -1.
        -15    1    1    2    0    0  0.33542519196E+00  0.48987792599E+01 -0.46610143381E+02  0.46901745631E+02  0.17770000000E+01 0.  1.
         15    1    1    2    0    0 -0.90480334451E+01 -0.41227290523E+01 -0.22550278427E+03  0.22572887995E+03  0.17770000000E+01 0. -1.
</event>
<event>
 6    1  0.1599106E-003  0.5003126E+03  0.7546771E-02  0.9399111E-01
        -11   -1    0    0    0    0  0.00000000000E+00  0.00000000000E+00  0.50000000000E+03  0.50000000000E+03  0.00000000000E+00 0.  1.
         11   -1    0    0    0    0 -0.00000000000E+00 -0.00000000000E+00 -0.50000000000E+03  0.50000000000E+03  0.00000000000E+00 0. -1.
        -11    1    1    2    0    0  0.61894517463E+01  0.56229354023E+01  0.49961742954E+03  0.49968740490E+03  0.00000000000E+00 0.  1.
         11    1    1    2    0    0  0.43124152801E+01 -0.17136560007E+01 -0.26339789019E+03  0.26343876347E+03  0.00000000000E+00 0. -1.
        -15    1    1    2    0    0 -0.85862234754E+01 -0.73349197212E+01 -0.11250454347E+03  0.11308383753E+03  0.17770000000E+01 0. -1.
         15    1    1    2    0    0 -0.19156435510E+01  0.34256403195E+01 -0.12371499588E+03  0.12378999409E+03  0.17770000000E+01 0.  1.
</event>
<event>
 6    1  0.1599106E-003  0.5044346E+03  0.7546771E-02  0.9389941E-01
        -11   -1    0    0    0    0  0.00000000000E+00  0.00000000000E+00  0.50000000000E+03  0.50000000000E+03  0.00000000000E+00 0. -1.
         11   -1    0    0    0    0 -0.00000000000E+00 -0.00000000000E+00 -0.50000000000E+03  0.50000000000E+03  0.00000000000E+00 0. -1.
        -11    1    1    2    0    0 -0.83622700985E+01 -0.59792551430E+01  0.49545875405E+03  0.49556539026E+03  0.00000000000E+00 0. -1.
         11    1    1    2    0    0 -0.90964690499E+01  0.23705670362E+01 -0.43106402018E+03  0.43116650476E+03  0.00000000000E+00 0. -1.
        -15    1    1    2    0    0  0.59682649178E+01  0.35723875253E+01 -0.60619953809E+02  0.61043580069E+02  0.17770000000E+01 0.  1.
         15    1    1    2    0    0  0.11490474231E+02  0.36300581519E-01 -0.37747800671E+01  0.12224524912E+02  0.17770000000E+01 0. -1.
</event>
<event>
 6    1  0.1599106E-003  0.5054311E+03  0.7546771E-02  0.9387739E-01
        -11   -1    0    0    0    0  0.00000000000E+00  0.00000000000E+00  0.50000000000E+03  0.50000000000E+03  0.00000000000E+00 0.  1.
         11   -1    0    0    0    0 -0.00000000000E+00 -0.00000000000E+00 -0.50000000000E+03  0.50000000000E+03  0.00000000000E+00 0. -1.
        -11    1    1    2    0    0  0.90508099336E+01  0.70332875163E+01  0.43352818853E+03  0.43367969119E+03  0.00000000000E+00 0.  1.
         11    1    1    2    0    0  0.29623256796E+01  0.71533892671E+01 -0.49450830705E+03  0.49456891541E+03  0.00000000000E+00 0. -1.
        -15    1    1    2    0    0  0.68851777132E+01 -0.41421373930E+01  0.42889178360E+02  0.43671527609E+02  0.17770000000E+01 0.  1.
         15    1    1    2    0    0 -0.18898313326E+02 -0.10044539390E+02  0.18090940156E+02  0.28079865792E+02  0.17770000000E+01 0. -1.
</event>
<event>
 6    1  0.1599106E-003  0.5004609E+03  0.7546771E-02  0.9398779E-01
        -11   -1    0    0    0    0  0.00000000000E+00  0.00000000000E+00  0.50000000000E+03  0.50000000000E+03  0.00000000000E+00 0. -1.
         11   -1    0    0    0    0 -0.00000000000E+00 -0.00000000000E+00 -0.50000000000E+03  0.50000000000E+03  0.00000000000E+00 0.  1.
        -11    1    1    2    0    0 -0.14411972320E+01 -0.14596094075E+02  0.49932371078E+03  0.49953907871E+03  0.00000000000E+00 0. -1.
         11    1    1    2    0    0  0.29649026024E+01 -0.46077614332E+01 -0.13523439377E+03  0.13534534854E+03  0.00000000000E+00 0.  1.
        -15    1    1    2    0    0 -0.49381595678E+01 -0.12267040844E+01 -0.12773774884E+03  0.12785139980E+03  0.17770000000E+01 0.  1.
         15    1    1    2    0    0  0.34144541974E+01  0.20430559593E+02 -0.23635156816E+03  0.23726417295E+03  0.17770000000E+01 0. -1.
</event>
<event>
 6    1  0.1599106E-003  0.4450200E+03  0.7546771E-02  0.9532002E-01
        -11   -1    0    0    0    0  0.00000000000E+00  0.00000000000E+00  0.50000000000E+03  0.50000000000E+03  0.00000000000E+00 0. -1.
         11   -1    0    0    0    0 -0.00000000000E+00 -0.00000000000E+00 -0.50000000000E+03  0.50000000000E+03  0.00000000000E+00 0.  1.
        -11    1    1    2    0    0  0.13928896837E+02 -0.53608258964E+02  0.44970447214E+03  0.45310260632E+03  0.00000000000E+00 0. -1.
         11    1    1    2    0    0  0.14982431163E+01 -0.19473095328E+00 -0.51147564732E+02  0.51169874249E+02  0.00000000000E+00 0.  1.
        -15    1    1    2    0    0 -0.44685438300E+02 -0.13357335461E+02  0.33531585365E+02  0.57469398403E+02  0.17770000000E+01 0. -1.
         15    1    1    2    0    0  0.29258298347E+02  0.67160325378E+02 -0.43208849277E+03  0.43825812102E+03  0.17770000000E+01 0.  1.
</event>
<event>
 6    1  0.1599106E-003  0.5027296E+03  0.7546771E-02  0.9393723E-01
        -11   -1    0    0    0    0  0.00000000000E+00  0.00000000000E+00  0.50000000000E+03  0.50000000000E+03  0.00000000000E+00 0. -1.
         11   -1    0    0    0    0 -0.00000000000E+00 -0.00000000000E+00 -0.50000000000E+03  0.50000000000E+03  0.00000000000E+00 0. -1.
        -11    1    1    2    0    0  0.80677994061E+01 -0.28959602447E+01  0.49719652077E+03  0.49727040555E+03  0.00000000000E+00 0. -1.
         11    1    1    2    0    0 -0.74436939663E+01  0.56349832394E+01 -0.48048176393E+03  0.48057245769E+03  0.00000000000E+00 0. -1.
        -15    1    1    2    0    0 -0.66741726795E+01  0.95829631667E+00 -0.60728926771E+01  0.92466570853E+01  0.17770000000E+01 0. -1.
         15    1    1    2    0    0  0.60500672397E+01 -0.36973193113E+01 -0.10641864158E+02  0.12910479676E+02  0.17770000000E+01 0. -1.
</event>
<event>
 6    1  0.1599106E-003  0.5177601E+03  0.7546771E-02  0.9360924E-01
        -11   -1    0    0    0    0  0.00000000000E+00  0.00000000000E+00  0.50000000000E+03  0.50000000000E+03  0.00000000000E+00 0.  1.
         11   -1    0    0    0    0 -0.00000000000E+00 -0.00000000000E+00 -0.50000000000E+03  0.50000000000E+03  0.00000000000E+00 0.  1.
        -11    1    1    2    0    0 -0.45424836390E+01  0.62112122180E+00  0.31505882375E+03  0.31509218075E+03  0.00000000000E+00 0.  1.
         11    1    1    2    0    0  0.25580226186E+02  0.75709933781E+01 -0.48150144812E+03  0.48223989098E+03  0.00000000000E+00 0.  1.
        -15    1    1    2    0    0  0.27349819046E+02  0.37447288661E+02  0.47673992455E+02  0.66530288708E+02  0.17770000000E+01 0.  1.
         15    1    1    2    0    0 -0.48387561593E+02 -0.45639403261E+02  0.11876863192E+03  0.13613763956E+03  0.17770000000E+01 0. -1.
</event>
<event>
 6    1  0.1599106E-003  0.5035189E+03  0.7546771E-02  0.9391970E-01
        -11   -1    0    0    0    0  0.00000000000E+00  0.00000000000E+00  0.50000000000E+03  0.50000000000E+03  0.00000000000E+00 0.  1.
         11   -1    0    0    0    0 -0.00000000000E+00 -0.00000000000E+00 -0.50000000000E+03  0.50000000000E+03  0.00000000000E+00 0.  1.
        -11    1    1    2    0    0  0.11432832170E+02  0.21442554379E+02  0.49588608594E+03  0.49648112051E+03  0.00000000000E+00 0.  1.
         11    1    1    2    0    0 -0.29557703538E+01 -0.24144510089E+02 -0.20310306946E+03  0.20455451784E+03  0.00000000000E+00 0.  1.
        -15    1    1    2    0    0 -0.55623572162E+00  0.25833164877E+02 -0.23174066742E+03  0.23318352530E+03  0.17770000000E+01 0. -1.
         15    1    1    2    0    0 -0.79208260946E+01 -0.23131209167E+02 -0.61042349062E+02  0.65780836355E+02  0.17770000000E+01 0.  1.
</event>
<event>
 6    1  0.1599106E-003  0.5002233E+03  0.7546771E-02  0.9399310E-01
        -11   -1    0    0    0    0  0.00000000000E+00  0.00000000000E+00  0.50000000000E+03  0.50000000000E+03  0.00000000000E+00 0. -1.
         11   -1    0    0    0    0 -0.00000000000E+00 -0.00000000000E+00 -0.50000000000E+03  0.50000000000E+03  0.00000000000E+00 0. -1.
        -11    1    1    2    0    0  0.59930992154E+01 -0.30008820932E+00  0.34371654769E+03  0.34376892304E+03  0.00000000000E+00 0. -1.
         11    1    1    2    0    0 -0.57391603696E+01  0.38757501651E+01 -0.49972876380E+03  0.49977674693E+03  0.00000000000E+00 0. -1.
        -15    1    1    2    0    0 -0.36669541868E+01 -0.55822590927E+01  0.11642587159E+03  0.11663082557E+03  0.17770000000E+01 0. -1.
         15    1    1    2    0    0  0.34130153410E+01  0.20065971370E+01  0.39586344521E+02  0.39823504458E+02  0.17770000000E+01 0.  1.
</event>
<event>
 6    1  0.1599106E-003  0.5013991E+03  0.7546771E-02  0.9396685E-01
        -11   -1    0    0    0    0  0.00000000000E+00  0.00000000000E+00  0.50000000000E+03  0.50000000000E+03  0.00000000000E+00 0. -1.
         11   -1    0    0    0    0 -0.00000000000E+00 -0.00000000000E+00 -0.50000000000E+03  0.50000000000E+03  0.00000000000E+00 0.  1.
        -11    1    1    2    0    0  0.26840084628E+01 -0.39850858796E+01  0.28647806003E+03  0.28651834791E+03  0.00000000000E+00 0. -1.
         11    1    1    2    0    0  0.15233544167E+02  0.10023075811E+02 -0.49826732061E+03  0.49860088819E+03  0.00000000000E+00 0.  1.
        -15    1    1    2    0    0 -0.11253169750E+02  0.34559761352E+01  0.18778128486E+03  0.18815830110E+03  0.17770000000E+01 0.  1.
         15    1    1    2    0    0 -0.66643828788E+01 -0.94939660662E+01  0.24007975722E+02  0.26722462800E+02  0.17770000000E+01 0. -1.
</event>
<event>
 6    1  0.1599106E-003  0.5005922E+03  0.7546771E-02  0.9398486E-01
        -11   -1    0    0    0    0  0.00000000000E+00  0.00000000000E+00  0.50000000000E+03  0.50000000000E+03  0.00000000000E+00 0.  1.
         11   -1    0    0    0    0 -0.00000000000E+00 -0.00000000000E+00 -0.50000000000E+03  0.50000000000E+03  0.00000000000E+00 0. -1.
        -11    1    1    2    0    0  0.63006832508E+01 -0.57293142755E+01  0.37413141318E+03  0.37422832332E+03  0.00000000000E+00 0.  1.
         11    1    1    2    0    0  0.33985070796E+01 -0.60406071473E+01 -0.49935967556E+03  0.49940777363E+03  0.00000000000E+00 0. -1.
        -15    1    1    2    0    0 -0.68604530599E+01  0.41857808088E+01  0.75750310500E+02  0.76196153754E+02  0.17770000000E+01 0.  1.
         15    1    1    2    0    0 -0.28387372704E+01  0.75841406139E+01  0.49477951882E+02  0.50167749297E+02  0.17770000000E+01 0. -1.
</event>
<event>
 6    1  0.1599106E-003  0.5004176E+03  0.7546771E-02  0.9398876E-01
        -11   -1    0    0    0    0  0.00000000000E+00  0.00000000000E+00  0.50000000000E+03  0.50000000000E+03  0.00000000000E+00 0.  1.
         11   -1    0    0    0    0 -0.00000000000E+00 -0.00000000000E+00 -0.50000000000E+03  0.50000000000E+03  0.00000000000E+00 0. -1.
        -11    1    1    2    0    0 -0.11827114699E+02 -0.37365026220E+01  0.49942844395E+03  0.49958243836E+03  0.00000000000E+00 0.  1.
         11    1    1    2    0    0 -0.12207956782E+01 -0.85118006183E+00 -0.97329999376E+02  0.97341376753E+02  0.00000000000E+00 0. -1.
        -15    1    1    2    0    0  0.14963717677E+02  0.63472761462E+01 -0.39465455215E+03  0.39499313162E+03  0.17770000000E+01 0. -1.
         15    1    1    2    0    0 -0.19158073000E+01 -0.17595934623E+01 -0.74438924202E+01  0.80830532676E+01  0.17770000000E+01 0. -1.
</event>
<event>
 6    1  0.1599106E-003  0.5150137E+03  0.7546771E-02  0.9366828E-01
        -11   -1    0    0    0    0  0.00000000000E+00  0.00000000000E+00  0.50000000000E+03  0.50000000000E+03  0.00000000000E+00 0.  1.
         11   -1    0    0    0    0 -0.00000000000E+00 -0.00000000000E+00 -0.50000000000E+03  0.50000000000E+03  0.00000000000E+00 0.  1.
        -11    1    1    2    0    0 -0.75898219597E+00 -0.11389415729E+02  0.45978248812E+03  0.45992415812E+03  0.00000000000E+00 0.  1.
         11    1    1    2    0    0  0.14515101430E+02  0.17135679542E+01 -0.48476599464E+03  0.48498628232E+03  0.00000000000E+00 0.  1.
        -15    1    1    2    0    0 -0.13617545928E+01  0.45013138487E+01  0.36782067677E+02  0.37124041180E+02  0.17770000000E+01 0.  1.
         15    1    1    2    0    0 -0.12394364641E+02  0.51745339265E+01 -0.11798561156E+02  0.17965518377E+02  0.17770000000E+01 0. -1.
</event>
<event>
 6    1  0.1599106E-003  0.4731558E+03  0.7546771E-02  0.9461964E-01
        -11   -1    0    0    0    0  0.00000000000E+00  0.00000000000E+00  0.50000000000E+03  0.50000000000E+03  0.00000000000E+00 0.  1.
         11   -1    0    0    0    0 -0.00000000000E+00 -0.00000000000E+00 -0.50000000000E+03  0.50000000000E+03  0.00000000000E+00 0.  1.
        -11    1    1    2    0    0 -0.10958340756E+02 -0.73891882758E+01  0.48636189662E+03  0.48654144717E+03  0.00000000000E+00 0.  1.
         11    1    1    2    0    0  0.15736178160E+00  0.36666364734E+01 -0.75267837396E+02  0.75357257991E+02  0.00000000000E+00 0.  1.
        -15    1    1    2    0    0  0.24778569481E+02 -0.55932396688E+02 -0.33423900063E+03  0.33979593549E+03  0.17770000000E+01 0. -1.
         15    1    1    2    0    0 -0.13977590507E+02  0.59654948491E+02 -0.76855058588E+02  0.98305359342E+02  0.17770000000E+01 0.  1.
</event>
<event>
 6    1  0.1599106E-003  0.5028262E+03  0.7546771E-02  0.9393508E-01
        -11   -1    0    0    0    0  0.00000000000E+00  0.00000000000E+00  0.50000000000E+03  0.50000000000E+03  0.00000000000E+00 0. -1.
         11   -1    0    0    0    0 -0.00000000000E+00 -0.00000000000E+00 -0.50000000000E+03  0.50000000000E+03  0.00000000000E+00 0. -1.
        -11    1    1    2    0    0 -0.14457096343E+02 -0.19367487934E+01  0.37760448369E+03  0.37788610021E+03  0.00000000000E+00 0. -1.
         11    1    1    2    0    0  0.13345106716E+01 -0.66202447611E+01 -0.49712792584E+03  0.49717379578E+03  0.00000000000E+00 0. -1.
        -15    1    1    2    0    0  0.56723195992E+01 -0.99291503855E+01  0.77919991436E+02  0.78774653484E+02  0.17770000000E+01 0.  1.
         15    1    1    2    0    0  0.74502660721E+01  0.18486143940E+02  0.41603450710E+02  0.46165450527E+02  0.17770000000E+01 0. -1.
</event>
<event>
 6    1  0.1599106E-003  0.5003705E+03  0.7546771E-02  0.9398981E-01
        -11   -1    0    0    0    0  0.00000000000E+00  0.00000000000E+00  0.50000000000E+03  0.50000000000E+03  0.00000000000E+00 0. -1.
         11   -1    0    0    0    0 -0.00000000000E+00 -0.00000000000E+00 -0.50000000000E+03  0.50000000000E+03  0.00000000000E+00 0.  1.
        -11    1    1    2    0    0  0.69467529218E-03 -0.28049040560E+01  0.20455274243E+03  0.20457197248E+03  0.00000000000E+00 0. -1.
         11    1    1    2    0    0  0.68825952473E+01  0.26056952961E+01 -0.49957531240E+03  0.49962951526E+03  0.00000000000E+00 0.  1.
        -15    1    1    2    0    0 -0.19032314759E+01 -0.57438525398E+01  0.24993748298E+03  0.25001703394E+03  0.17770000000E+01 0. -1.
         15    1    1    2    0    0 -0.49800584467E+01  0.59430612997E+01  0.45085086980E+02  0.45781478316E+02  0.17770000000E+01 0.  1.
</event>
<event>
 6    1  0.1599106E-003  0.5007560E+03  0.7546771E-02  0.9398120E-01
        -11   -1    0    0    0    0  0.00000000000E+00  0.00000000000E+00  0.50000000000E+03  0.50000000000E+03  0.00000000000E+00 0. -1.
         11   -1    0    0    0    0 -0.00000000000E+00 -0.00000000000E+00 -0.50000000000E+03  0.50000000000E+03  0.00000000000E+00 0.  1.
        -11    1    1    2    0    0  0.35156105558E+01  0.56220125086E+01  0.42158247384E+03  0.42163461527E+03  0.00000000000E+00 0. -1.
         11    1    1    2    0    0 -0.50749237589E+01  0.66984490924E+01 -0.49917324275E+03  0.49924397878E+03  0.00000000000E+00 0.  1.
        -15    1    1    2    0    0 -0.59602884632E+00 -0.63740073013E+01  0.59588958634E+02  0.59958193264E+02  0.17770000000E+01 0.  1.
         15    1    1    2    0    0  0.21553420495E+01 -0.59464542997E+01  0.18001810277E+02  0.19163212683E+02  0.17770000000E+01 0. -1.
</event>
<event>
 6    1  0.1599106E-003  0.5105713E+03  0.7546771E-02  0.9376461E-01
        -11   -1    0    0    0    0  0.00000000000E+00  0.00000000000E+00  0.50000000000E+03  0.50000000000E+03  0.00000000000E+00 0.  1.
         11   -1    0    0    0    0 -0.00000000000E+00 -0.00000000000E+00 -0.50000000000E+03  0.50000000000E+03  0.00000000000E+00 0. -1.
        -11    1    1    2    0    0  0.11133389116E+01  0.72539445198E+01  0.48937367682E+03  0.48942870246E+03  0.00000000000E+00 0.  1.
         11    1    1    2    0    0  0.13708402961E+02 -0.12239895313E+02 -0.28230694017E+03  0.28290447826E+03  0.00000000000E+00 0. -1.
        -15    1    1    2    0    0 -0.41419869327E+02  0.70418323826E+01 -0.19285772903E+03  0.19738909381E+03  0.17770000000E+01 0. -1.
         15    1    1    2    0    0  0.26598127455E+02 -0.20558815896E+01 -0.14209007614E+02  0.30277725469E+02  0.17770000000E+01 0.  1.
</event>
<event>
 6    1  0.1599106E-003  0.5011312E+03  0.7546771E-02  0.9397282E-01
        -11   -1    0    0    0    0  0.00000000000E+00  0.00000000000E+00  0.50000000000E+03  0.50000000000E+03  0.00000000000E+00 0. -1.
         11   -1    0    0    0    0 -0.00000000000E+00 -0.00000000000E+00 -0.50000000000E+03  0.50000000000E+03  0.00000000000E+00 0.  1.
        -11    1    1    2    0    0  0.49988690838E+01  0.91111135385E-01  0.32317782897E+03  0.32321650040E+03  0.00000000000E+00 0. -1.
         11    1    1    2    0    0  0.65875475893E+01 -0.42366807034E+01 -0.49880727446E+03  0.49886876260E+03  0.00000000000E+00 0.  1.
        -15    1    1    2    0    0 -0.26514352110E+01 -0.36398035785E+01  0.14415388452E+03  0.14423514977E+03  0.17770000000E+01 0.  1.
         15    1    1    2    0    0 -0.89349814620E+01  0.77853731466E+01  0.31475560964E+02  0.33679587226E+02  0.17770000000E+01 0.  1.
</event>
<event>
 6    1  0.1599106E-003  0.5055513E+03  0.7546771E-02  0.9387473E-01
        -11   -1    0    0    0    0  0.00000000000E+00  0.00000000000E+00  0.50000000000E+03  0.50000000000E+03  0.00000000000E+00 0.  1.
         11   -1    0    0    0    0 -0.00000000000E+00 -0.00000000000E+00 -0.50000000000E+03  0.50000000000E+03  0.00000000000E+00 0. -1.
        -11    1    1    2    0    0  0.35873176422E+01 -0.86902112958E+01  0.49435934506E+03  0.49444873411E+03  0.00000000000E+00 0.  1.
         11    1    1    2    0    0  0.16110222976E+02  0.25044743596E+01 -0.39044660779E+03  0.39078685394E+03  0.00000000000E+00 0. -1.
        -15    1    1    2    0    0 -0.22402868959E+02  0.11333349149E+02 -0.24518150116E+02  0.35137312855E+02  0.17770000000E+01 0.  1.
         15    1    1    2    0    0  0.27053283410E+01 -0.51476122127E+01 -0.79394587145E+02  0.79627099093E+02  0.17770000000E+01 0. -1.
</event>
<event>
 6    1  0.1599106E-003  0.5071096E+03  0.7546771E-02  0.9384040E-01
        -11   -1    0    0    0    0  0.00000000000E+00  0.00000000000E+00  0.50000000000E+03  0.50000000000E+03  0.00000000000E+00 0.  1.
         11   -1    0    0    0    0 -0.00000000000E+00 -0.00000000000E+00 -0.50000000000E+03  0.50000000000E+03  0.00000000000E+00 0. -1.
        -11    1    1    2    0    0 -0.52348312682E+01 -0.68820574568E+01  0.49281451174E+03  0.49289036221E+03  0.00000000000E+00 0.  1.
         11    1    1    2    0    0 -0.98925708636E+00  0.12581074186E+02 -0.42857216587E+03  0.42875793103E+03  0.00000000000E+00 0. -1.
        -15    1    1    2    0    0  0.10739076057E+02 -0.17333803087E+02 -0.62325995322E+02  0.65600883423E+02  0.17770000000E+01 0.  1.
         15    1    1    2    0    0 -0.45149877023E+01  0.11634786358E+02 -0.19163505471E+01  0.12750823344E+02  0.17770000000E+01 0. -1.
</event>
<event>
 6    1  0.1599106E-003  0.5050900E+03  0.7546771E-02  0.9388492E-01
        -11   -1    0    0    0    0  0.00000000000E+00  0.00000000000E+00  0.50000000000E+03  0.50000000000E+03  0.00000000000E+00 0.  1.
         11   -1    0    0    0    0 -0.00000000000E+00 -0.00000000000E+00 -0.50000000000E+03  0.50000000000E+03  0.00000000000E+00 0. -1.
        -11    1    1    2    0    0 -0.23009548164E+02 -0.35359162141E+01  0.49436213760E+03  0.49490995656E+03  0.00000000000E+00 0.  1.
         11    1    1    2    0    0 -0.62260556174E+01  0.37744533395E+01 -0.34979788120E+03  0.34987364570E+03  0.00000000000E+00 0. -1.
        -15    1    1    2    0    0  0.24899918494E+02 -0.21936117598E+02 -0.10093416623E+03  0.10626411830E+03  0.17770000000E+01 0. -1.
         15    1    1    2    0    0  0.43356852881E+01  0.21697580472E+02 -0.43630090175E+02  0.48952279446E+02  0.17770000000E+01 0.  1.
</event>
<event>
 6    1  0.1599106E-003  0.5005331E+03  0.7546771E-02  0.9398618E-01
        -11   -1    0    0    0    0  0.00000000000E+00  0.00000000000E+00  0.50000000000E+03  0.50000000000E+03  0.00000000000E+00 0. -1.
         11   -1    0    0    0    0 -0.00000000000E+00 -0.00000000000E+00 -0.50000000000E+03  0.50000000000E+03  0.00000000000E+00 0.  1.
        -11    1    1    2    0    0  0.10151985195E+02 -0.12614138336E+01  0.49936207519E+03  0.49946685186E+03  0.00000000000E+00 0. -1.
         11    1    1    2    0    0 -0.20669128497E+01  0.65313114149E+01 -0.35732582522E+03  0.35739148776E+03  0.00000000000E+00 0.  1.
        -15    1    1    2    0    0 -0.30720177955E+01 -0.41963140969E+01 -0.12761732835E+03  0.12773561199E+03  0.17770000000E+01 0.  1.
         15    1    1    2    0    0 -0.50130545503E+01 -0.10735834845E+01 -0.14418921619E+02  0.15406048393E+02  0.17770000000E+01 0. -1.
</event>
<event>
 6    1  0.1599106E-003  0.5088976E+03  0.7546771E-02  0.9380118E-01
        -11   -1    0    0    0    0  0.00000000000E+00  0.00000000000E+00  0.50000000000E+03  0.50000000000E+03  0.00000000000E+00 0.  1.
         11   -1    0    0    0    0 -0.00000000000E+00 -0.00000000000E+00 -0.50000000000E+03  0.50000000000E+03  0.00000000000E+00 0.  1.
        -11    1    1    2    0    0  0.10791653594E+02 -0.15005117181E+01  0.49098152722E+03  0.49110240418E+03  0.00000000000E+00 0.  1.
         11    1    1    2    0    0 -0.44379919240E+01  0.12020296465E+02 -0.44118354431E+03  0.44136957651E+03  0.00000000000E+00 0.  1.
        -15    1    1    2    0    0 -0.14409887252E+02 -0.14191036739E+02 -0.53909809342E+02  0.57606038283E+02  0.17770000000E+01 0.  1.
         15    1    1    2    0    0  0.80562255818E+01  0.36712519921E+01  0.41118264330E+01  0.99219810234E+01  0.17770000000E+01 0. -1.
</event>
<event>
 6    1  0.1599106E-003  0.5029021E+03  0.7546771E-02  0.9393339E-01
        -11   -1    0    0    0    0  0.00000000000E+00  0.00000000000E+00  0.50000000000E+03  0.50000000000E+03  0.00000000000E+00 0. -1.
         11   -1    0    0    0    0 -0.00000000000E+00 -0.00000000000E+00 -0.50000000000E+03  0.50000000000E+03  0.00000000000E+00 0. -1.
        -11    1    1    2    0    0 -0.64718041214E+01 -0.24294608864E+01  0.46006938278E+03  0.46012131390E+03  0.00000000000E+00 0. -1.
         11    1    1    2    0    0 -0.47332509794E+01  0.96722640070E+01 -0.49698120803E+03  0.49709785504E+03  0.00000000000E+00 0. -1.
        -15    1    1    2    0    0  0.46604025034E+01 -0.49424169553E+01  0.22298856044E+01  0.73672895737E+01  0.17770000000E+01 0.  1.
         15    1    1    2    0    0  0.65446525973E+01 -0.23003861652E+01  0.34681939644E+02  0.35413541487E+02  0.17770000000E+01 0. -1.
</event>
<event>
 6    1  0.1599106E-003  0.5005390E+03  0.7546771E-02  0.9398605E-01
        -11   -1    0    0    0    0  0.00000000000E+00  0.00000000000E+00  0.50000000000E+03  0.50000000000E+03  0.00000000000E+00 0.  1.
         11   -1    0    0    0    0 -0.00000000000E+00 -0.00000000000E+00 -0.50000000000E+03  0.50000000000E+03  0.00000000000E+00 0. -1.
        -11    1    1    2    0    0  0.33493816392E+01  0.16625214863E-01  0.22364081204E+03  0.22366589245E+03  0.00000000000E+00 0.  1.
         11    1    1    2    0    0  0.83826668713E+01 -0.69120002986E+01 -0.49934283392E+03  0.49946102014E+03  0.00000000000E+00 0. -1.
        -15    1    1    2    0    0 -0.39274883589E+01 -0.16309234974E+01  0.21530096841E+03  0.21535029557E+03  0.17770000000E+01 0.  1.
         15    1    1    2    0    0 -0.78045601516E+01  0.85262985812E+01  0.60401053464E+02  0.61522791835E+02  0.17770000000E+01 0.  1.
</event>
<event>
 6    1  0.1599106E-003  0.5139320E+03  0.7546771E-02  0.9369164E-01
        -11   -1    0    0    0    0  0.00000000000E+00  0.00000000000E+00  0.50000000000E+03  0.50000000000E+03  0.00000000000E+00 0. -1.
         11   -1    0    0    0    0 -0.00000000000E+00 -0.00000000000E+00 -0.50000000000E+03  0.50000000000E+03  0.00000000000E+00 0.  1.
        -11    1    1    2    0    0  0.77059473376E+01 -0.55460915358E+00  0.47342089251E+03  0.47348392864E+03  0.00000000000E+00 0. -1.
         11    1    1    2    0    0 -0.29256002270E+01 -0.13617752552E+02 -0.48586843623E+03  0.48606804014E+03  0.00000000000E+00 0.  1.
        -15    1    1    2    0    0 -0.34444869026E+01 -0.67137111414E+01  0.17241257376E+02  0.18903890928E+02  0.17770000000E+01 0. -1.
         15    1    1    2    0    0 -0.13358602080E+01  0.20886072847E+02 -0.47937136507E+01  0.21544140295E+02  0.17770000000E+01 0.  1.
</event>
<event>
 6    1  0.1599106E-003  0.4876058E+03  0.7546771E-02  0.9427978E-01
        -11   -1    0    0    0    0  0.00000000000E+00  0.00000000000E+00  0.50000000000E+03  0.50000000000E+03  0.00000000000E+00 0. -1.
         11   -1    0    0    0    0 -0.00000000000E+00 -0.00000000000E+00 -0.50000000000E+03  0.50000000000E+03  0.00000000000E+00 0.  1.
        -11    1    1    2    0    0  0.68420496678E+01 -0.15135746915E+01  0.49011679828E+03  0.49016689046E+03  0.00000000000E+00 0. -1.
         11    1    1    2    0    0  0.33040814976E+01 -0.81558990834E+01 -0.48507870942E+03  0.48515852047E+03  0.00000000000E+00 0.  1.
        -15    1    1    2    0    0  0.13271501161E+01 -0.41571496954E+01 -0.46439265133E+01  0.66156634952E+01  0.17770000000E+01 0.  1.
         15    1    1    2    0    0 -0.11473281282E+02  0.13826623470E+02 -0.39416234246E+00  0.18058925574E+02  0.17770000000E+01 0. -1.
</event>
<event>
 6    1  0.1599106E-003  0.4241330E+03  0.7546771E-02  0.9587666E-01
        -11   -1    0    0    0    0  0.00000000000E+00  0.00000000000E+00  0.50000000000E+03  0.50000000000E+03  0.00000000000E+00 0.  1.
         11   -1    0    0    0    0 -0.00000000000E+00 -0.00000000000E+00 -0.50000000000E+03  0.50000000000E+03  0.00000000000E+00 0. -1.
        -11    1    1    2    0    0  0.70253028119E+01 -0.54113981746E+01  0.44783271030E+03  0.44792050023E+03  0.00000000000E+00 0.  1.
         11    1    1    2    0    0  0.26796148919E+01  0.15505340740E+02 -0.68319479290E+02  0.70108110643E+02  0.00000000000E+00 0. -1.
        -15    1    1    2    0    0 -0.73221531834E+02 -0.47826778772E+02 -0.39659074278E+03  0.40612334146E+03  0.17770000000E+01 0. -1.
         15    1    1    2    0    0  0.63516614130E+02  0.37732836207E+02  0.17077511769E+02  0.75848047674E+02  0.17770000000E+01 0.  1.
</event>
<event>
 6    1  0.1599106E-003  0.5006969E+03  0.7546771E-02  0.9398252E-01
        -11   -1    0    0    0    0  0.00000000000E+00  0.00000000000E+00  0.50000000000E+03  0.50000000000E+03  0.00000000000E+00 0.  1.
         11   -1    0    0    0    0 -0.00000000000E+00 -0.00000000000E+00 -0.50000000000E+03  0.50000000000E+03  0.00000000000E+00 0.  1.
        -11    1    1    2    0    0  0.83185893428E+01  0.88183822392E+00  0.37419091979E+03  0.37428441194E+03  0.00000000000E+00 0.  1.
         11    1    1    2    0    0 -0.76909988440E+01  0.65711873674E+01 -0.49920065150E+03  0.49930313680E+03  0.00000000000E+00 0.  1.
        -15    1    1    2    0    0 -0.47299944060E+01  0.38598119831E+01  0.33533660879E+02  0.34131146137E+02  0.17770000000E+01 0. -1.
         15    1    1    2    0    0  0.41024039073E+01 -0.11312837574E+02  0.91476070824E+02  0.92281305118E+02  0.17770000000E+01 0.  1.
</event>
<event>
 6    1  0.2595953E-003  0.5013454E+03  0.7546771E-02  0.9396804E-01
        -11   -1    0    0    0    0  0.00000000000E+00  0.00000000000E+00  0.50000000000E+03  0.50000000000E+03  0.00000000000E+00 0.  1.
         11   -1    0    0    0    0 -0.00000000000E+00 -0.00000000000E+00 -0.50000000000E+03  0.50000000000E+03  0.00000000000E+00 0. -1.
        -11    1    1    2    0    0 -0.96316717957E+01 -0.39368037185E+01  0.49854606005E+03  0.49865463150E+03  0.00000000000E+00 0.  1.
         11    1    1    2    0    0  0.29048085377E+00 -0.99695357575E+00 -0.75813853114E+02  0.75820964249E+02  0.00000000000E+00 0. -1.
        -15    1    1    2    0    0  0.32944953117E+01  0.55798970270E+01 -0.41677157131E+03  0.41682573017E+03  0.17770000000E+01 0. -1.
         15    1    1    2    0    0  0.60466956302E+01 -0.64613973279E+00 -0.59606356273E+01  0.86986740760E+01  0.17770000000E+01 0.  1.
</event>
<event>
 6    1  0.1599106E-003  0.5075015E+03  0.7546771E-02  0.9383179E-01
        -11   -1    0    0    0    0  0.00000000000E+00  0.00000000000E+00  0.50000000000E+03  0.50000000000E+03  0.00000000000E+00 0.  1.
         11   -1    0    0    0    0 -0.00000000000E+00 -0.00000000000E+00 -0.50000000000E+03  0.50000000000E+03  0.00000000000E+00 0.  1.
        -11    1    1    2    0    0 -0.82225758746E+01 -0.10003648469E+01  0.49242883300E+03  0.49249849447E+03  0.00000000000E+00 0.  1.
         11    1    1    2    0    0  0.45021363882E+01 -0.14092345465E+02 -0.43399547739E+03  0.43424755363E+03  0.00000000000E+00 0.  1.
        -15    1    1    2    0    0  0.11292704835E+02  0.23482715262E+01  0.12447223437E+01  0.11736550787E+02  0.17770000000E+01 0.  1.
         15    1    1    2    0    0 -0.75722653487E+01  0.12744438786E+02 -0.59678077955E+02  0.61517401114E+02  0.17770000000E+01 0. -1.
</event>
<event>
 6    1  0.1599106E-003  0.5037202E+03  0.7546771E-02  0.9391524E-01
        -11   -1    0    0    0    0  0.00000000000E+00  0.00000000000E+00  0.50000000000E+03  0.50000000000E+03  0.00000000000E+00 0.  1.
         11   -1    0    0    0    0 -0.00000000000E+00 -0.00000000000E+00 -0.50000000000E+03  0.50000000000E+03  0.00000000000E+00 0.  1.
        -11    1    1    2    0    0 -0.69478693101E+01  0.14086794901E+01  0.44156155519E+03  0.44161846008E+03  0.00000000000E+00 0.  1.
         11    1    1    2    0    0 -0.86187539819E+01 -0.11771518060E+02 -0.49606530536E+03  0.49627979884E+03  0.00000000000E+00 0.  1.
        -15    1    1    2    0    0  0.12230519607E+02  0.17336051975E+02  0.33983378416E+02  0.40101771102E+02  0.17770000000E+01 0.  1.
         15    1    1    2    0    0  0.33361036852E+01 -0.69732134051E+01  0.20520371757E+02  0.21999969978E+02  0.17770000000E+01 0. -1.
</event>
<event>
 6    1  0.1599106E-003  0.5104890E+03  0.7546771E-02  0.9376641E-01
        -11   -1    0    0    0    0  0.00000000000E+00  0.00000000000E+00  0.50000000000E+03  0.50000000000E+03  0.00000000000E+00 0. -1.
         11   -1    0    0    0    0 -0.00000000000E+00 -0.00000000000E+00 -0.50000000000E+03  0.50000000000E+03  0.00000000000E+00 0. -1.
        -11    1    1    2    0    0 -0.14371358632E+02 -0.12181621167E+01  0.48929845857E+03  0.48951098193E+03  0.00000000000E+00 0. -1.
         11    1    1    2    0    0  0.16187875296E+02 -0.15888246627E+01 -0.38412613351E+03  0.38447036052E+03  0.00000000000E+00 0. -1.
        -15    1    1    2    0    0  0.19200370404E+00  0.24918354192E+02 -0.10010615593E+03  0.10317636079E+03  0.17770000000E+01 0. -1.
         15    1    1    2    0    0 -0.20085203682E+01 -0.22111367413E+02 -0.50661691272E+01  0.22842296766E+02  0.17770000000E+01 0.  1.
</event>
<event>
 6    1  0.1599106E-003  0.5497584E+03  0.7546771E-02  0.9294876E-01
        -11   -1    0    0    0    0  0.00000000000E+00  0.00000000000E+00  0.50000000000E+03  0.50000000000E+03  0.00000000000E+00 0.  1.
         11   -1    0    0    0    0 -0.00000000000E+00 -0.00000000000E+00 -0.50000000000E+03  0.50000000000E+03  0.00000000000E+00 0.  1.
        -11    1    1    2    0    0  0.31341806653E+02  0.39884101038E+01  0.44913174262E+03  0.45024164455E+03  0.00000000000E+00 0.  1.
         11    1    1    2    0    0 -0.19069725009E+02 -0.24298078770E+02 -0.37956058190E+03  0.38081529167E+03  0.00000000000E+00 0.  1.
        -15    1    1    2    0    0  0.55460656363E+02 -0.23920188378E+02 -0.63723600225E+02  0.87817508339E+02  0.17770000000E+01 0.  1.
         15    1    1    2    0    0 -0.67732738007E+02  0.44229857044E+02 -0.58475604999E+01  0.81125555436E+02  0.17770000000E+01 0. -1.
</event>
<event>
 6    1  0.1599106E-003  0.5297649E+03  0.7546771E-02  0.9335566E-01
        -11   -1    0    0    0    0  0.00000000000E+00  0.00000000000E+00  0.50000000000E+03  0.50000000000E+03  0.00000000000E+00 0. -1.
         11   -1    0    0    0    0 -0.00000000000E+00 -0.00000000000E+00 -0.50000000000E+03  0.50000000000E+03  0.00000000000E+00 0. -1.
        -11    1    1    2    0    0  0.19082098679E+02  0.20086478915E+01  0.45618877839E+03  0.45659211851E+03  0.00000000000E+00 0. -1.
         11    1    1    2    0    0 -0.12476610982E+01 -0.66031484188E+01 -0.47018704412E+03  0.47023506322E+03  0.00000000000E+00 0. -1.
        -15    1    1    2    0    0 -0.55563823577E+01  0.34233171214E+01  0.41990740470E+02  0.42532017343E+02  0.17770000000E+01 0. -1.
         15    1    1    2    0    0 -0.12278055223E+02  0.11711834059E+01 -0.27992474740E+02  0.30640800931E+02  0.17770000000E+01 0.  1.
</event>
<event>
 6    1  0.1599106E-003  0.5036822E+03  0.7546771E-02  0.9391608E-01
        -11   -1    0    0    0    0  0.00000000000E+00  0.00000000000E+00  0.50000000000E+03  0.50000000000E+03  0.00000000000E+00 0.  1.
         11   -1    0    0    0    0 -0.00000000000E+00 -0.00000000000E+00 -0.50000000000E+03  0.50000000000E+03  0.00000000000E+00 0.  1.
        -11    1    1    2    0    0  0.73911784326E+00  0.99527744082E+00  0.20178756753E+01  0.23682682727E+01  0.00000000000E+00 0.  1.
         11    1    1    2    0    0 -0.84336412370E+01  0.11328711844E+02 -0.49473945879E+03  0.49494100467E+03  0.00000000000E+00 0.  1.
        -15    1    1    2    0    0  0.43494922146E+01 -0.30389834531E+02  0.44511724945E+02  0.54100938180E+02  0.17770000000E+01 0. -1.
         15    1    1    2    0    0  0.33450311791E+01  0.18065845246E+02  0.44820985817E+03  0.44858978888E+03  0.17770000000E+01 0.  1.
</event>
<event>
 6    1  0.1599106E-003  0.5139304E+03  0.7546771E-02  0.9369168E-01
        -11   -1    0    0    0    0  0.00000000000E+00  0.00000000000E+00  0.50000000000E+03  0.50000000000E+03  0.00000000000E+00 0.  1.
         11   -1    0    0    0    0 -0.00000000000E+00 -0.00000000000E+00 -0.50000000000E+03  0.50000000000E+03  0.00000000000E+00 0. -1.
        -11    1    1    2    0    0  0.74509719106E+01  0.40087635368E+00  0.48601235996E+03  0.48606963669E+03  0.00000000000E+00 0.  1.
         11    1    1    2    0    0 -0.37557957479E+01 -0.13389290922E+02 -0.46026055295E+03  0.46047058073E+03  0.00000000000E+00 0. -1.
        -15    1    1    2    0    0 -0.74591482385E+01 -0.11308926922E+02  0.45464483776E+01  0.14399952862E+02  0.17770000000E+01 0. -1.
         15    1    1    2    0    0  0.37639720758E+01  0.24297341490E+02 -0.30298255385E+02  0.39059829719E+02  0.17770000000E+01 0.  1.
</event>
<event>
 6    1  0.1599106E-003  0.5041856E+03  0.7546771E-02  0.9390493E-01
        -11   -1    0    0    0    0  0.00000000000E+00  0.00000000000E+00  0.50000000000E+03  0.50000000000E+03  0.00000000000E+00 0. -1.
         11   -1    0    0    0    0 -0.00000000000E+00 -0.00000000000E+00 -0.50000000000E+03  0.50000000000E+03  0.00000000000E+00 0. -1.
        -11    1    1    2    0    0  0.11162747746E+00  0.66862384506E+01  0.40435297704E+03  0.40440826931E+03  0.00000000000E+00 0. -1.
         11    1    1    2    0    0  0.97127862554E+01 -0.92452709494E+01 -0.49563306997E+03  0.49581443434E+03  0.00000000000E+00 0. -1.
        -15    1    1    2    0    0 -0.18477878002E+02  0.10725275152E+02  0.27483562607E+02  0.34856383133E+02  0.17770000000E+01 0.  1.
         15    1    1    2    0    0  0.86534642687E+01 -0.81662426531E+01  0.63796530321E+02  0.64920913217E+02  0.17770000000E+01 0. -1.
</event>
<event>
 6    1  0.1599106E-003  0.5025709E+03  0.7546771E-02  0.9394076E-01
        -11   -1    0    0    0    0  0.00000000000E+00  0.00000000000E+00  0.50000000000E+03  0.50000000000E+03  0.00000000000E+00 0. -1.
         11   -1    0    0    0    0 -0.00000000000E+00 -0.00000000000E+00 -0.50000000000E+03  0.50000000000E+03  0.00000000000E+00 0.  1.
        -11    1    1    2    0    0  0.61095355626E+00 -0.77176475334E+01  0.37135961735E+03  0.37144030577E+03  0.00000000000E+00 0. -1.
         11    1    1    2    0    0  0.62232764794E+01 -0.46092372024E+01 -0.49736885116E+03  0.49742913901E+03  0.00000000000E+00 0.  1.
        -15    1    1    2    0    0 -0.14797349309E-01  0.21959330879E+02  0.10158063132E+03  0.10394226676E+03  0.17770000000E+01 0. -1.
         15    1    1    2    0    0 -0.68194326864E+01 -0.96324461437E+01  0.24428602490E+02  0.27188288462E+02  0.17770000000E+01 0.  1.
</event>
<event>
 6    1  0.1599106E-003  0.5027932E+03  0.7546771E-02  0.9393581E-01
        -11   -1    0    0    0    0  0.00000000000E+00  0.00000000000E+00  0.50000000000E+03  0.50000000000E+03  0.00000000000E+00 0. -1.
         11   -1    0    0    0    0 -0.00000000000E+00 -0.00000000000E+00 -0.50000000000E+03  0.50000000000E+03  0.00000000000E+00 0.  1.
        -11    1    1    2    0    0 -0.77727122418E+01 -0.38275351419E+01  0.46622662875E+03  0.46630712458E+03  0.00000000000E+00 0. -1.
         11    1    1    2    0    0  0.28478769749E+01  0.70185804126E+01 -0.49714906494E+03  0.49720676147E+03  0.00000000000E+00 0.  1.
        -15    1    1    2    0    0 -0.38398973661E+01 -0.48632259136E+01  0.29835065157E+01  0.71031555099E+01  0.17770000000E+01 0.  1.
         15    1    1    2    0    0  0.87647326331E+01  0.16721806429E+01  0.27938929680E+02  0.29382958443E+02  0.17770000000E+01 0.  1.
</event>
<event>
 6    1  0.3396628E-003  0.5168685E+03  0.7546771E-02  0.9362837E-01
        -11   -1    0    0    0    0  0.00000000000E+00  0.00000000000E+00  0.50000000000E+03  0.50000000000E+03  0.00000000000E+00 0. -1.
         11   -1    0    0    0    0 -0.00000000000E+00 -0.00000000000E+00 -0.50000000000E+03  0.50000000000E+03  0.00000000000E+00 0.  1.
        -11    1    1    2    0    0 -0.42701821101E+01 -0.45828962584E+01  0.41820984663E+03  0.41825675513E+03  0.00000000000E+00 0. -1.
         11    1    1    2    0    0 -0.23715597351E+02  0.54876808914E+01 -0.48251787083E+03  0.48313149335E+03  0.00000000000E+00 0.  1.
        -15    1    1    2    0    0  0.40784842302E+01  0.11065989644E+01  0.72916499506E+02  0.73060469641E+02  0.17770000000E+01 0. -1.
         15    1    1    2    0    0  0.23907295231E+02 -0.20113835975E+01 -0.86084753077E+01  0.25551281873E+02  0.17770000000E+01 0.  1.
</event>
<event>
 6    1  0.1599106E-003  0.5021025E+03  0.7546771E-02  0.9395117E-01
        -11   -1    0    0    0    0  0.00000000000E+00  0.00000000000E+00  0.50000000000E+03  0.50000000000E+03  0.00000000000E+00 0. -1.
         11   -1    0    0    0    0 -0.00000000000E+00 -0.00000000000E+00 -0.50000000000E+03  0.50000000000E+03  0.00000000000E+00 0.  1.
        -11    1    1    2    0    0  0.58051228037E+01 -0.60846359171E+01  0.49782644697E+03  0.49789747293E+03  0.00000000000E+00 0. -1.
         11    1    1    2    0    0  0.51254320813E+01  0.86101447351E+01 -0.33656400638E+03  0.33671313463E+03  0.00000000000E+00 0.  1.
        -15    1    1    2    0    0 -0.12044594416E+02  0.78468231790E+01 -0.26400742937E+02  0.30113150703E+02  0.17770000000E+01 0.  1.
         15    1    1    2    0    0  0.11140395309E+01 -0.10372331997E+02 -0.13486169765E+03  0.13527624174E+03  0.17770000000E+01 0.  1.
</event>
<event>
 6    1  0.1599106E-003  0.5031930E+03  0.7546771E-02  0.9392693E-01
        -11   -1    0    0    0    0  0.00000000000E+00  0.00000000000E+00  0.50000000000E+03  0.50000000000E+03  0.00000000000E+00 0.  1.
         11   -1    0    0    0    0 -0.00000000000E+00 -0.00000000000E+00 -0.50000000000E+03  0.50000000000E+03  0.00000000000E+00 0.  1.
        -11    1    1    2    0    0  0.48296492566E+01 -0.44180875018E+01  0.48514579866E+03  0.48518995349E+03  0.00000000000E+00 0.  1.
         11    1    1    2    0    0 -0.71146010993E+01  0.46091534112E-01 -0.49675603390E+03  0.49680698152E+03  0.00000000000E+00 0.  1.
        -15    1    1    2    0    0 -0.25251974942E+01  0.70462411349E+01  0.83919843931E+01  0.11384606606E+02  0.17770000000E+01 0. -1.
         15    1    1    2    0    0  0.48101493370E+01 -0.26742451672E+01  0.32182508500E+01  0.66184583848E+01  0.17770000000E+01 0.  1.
</event>
<event>
 6    1  0.1599106E-003  0.5008633E+03  0.7546771E-02  0.9397880E-01
        -11   -1    0    0    0    0  0.00000000000E+00  0.00000000000E+00  0.50000000000E+03  0.50000000000E+03  0.00000000000E+00 0. -1.
         11   -1    0    0    0    0 -0.00000000000E+00 -0.00000000000E+00 -0.50000000000E+03  0.50000000000E+03  0.00000000000E+00 0.  1.
        -11    1    1    2    0    0  0.10459081374E+01 -0.13083951761E+02  0.49896411511E+03  0.49913672664E+03  0.00000000000E+00 0. -1.
         11    1    1    2    0    0 -0.51077646151E+01 -0.33970412130E+01 -0.40231214875E+03  0.40235891215E+03  0.00000000000E+00 0.  1.
        -15    1    1    2    0    0  0.32650980802E+01  0.77143719835E+01 -0.28365076781E+02  0.29629507427E+02  0.17770000000E+01 0. -1.
         15    1    1    2    0    0  0.79675839752E+00  0.87666209905E+01 -0.68286889572E+02  0.68874853785E+02  0.17770000000E+01 0.  1.
</event>
<event>
 6    1  0.1599106E-003  0.5235855E+03  0.7546771E-02  0.9348529E-01
        -11   -1    0    0    0    0  0.00000000000E+00  0.00000000000E+00  0.50000000000E+03  0.50000000000E+03  0.00000000000E+00 0. -1.
         11   -1    0    0    0    0 -0.00000000000E+00 -0.00000000000E+00 -0.50000000000E+03  0.50000000000E+03  0.00000000000E+00 0. -1.
        -11    1    1    2    0    0 -0.55279782954E+02 -0.20175940328E+02  0.47276619953E+03  0.47641452790E+03  0.00000000000E+00 0. -1.
         11    1    1    2    0    0  0.35210811927E+02 -0.37975279436E+02 -0.41697058145E+03  0.42017423638E+03  0.00000000000E+00 0. -1.
        -15    1    1    2    0    0 -0.11611099152E+02  0.28765937757E+02 -0.51240451474E+02  0.59925273423E+02  0.17770000000E+01 0. -1.
         15    1    1    2    0    0  0.31680070178E+02  0.29385282008E+02 -0.45551666108E+01  0.43485962298E+02  0.17770000000E+01 0.  1.
</event>
<event>
 6    1  0.1951785E-003  0.5155145E+03  0.7546771E-02  0.9365749E-01
        -11   -1    0    0    0    0  0.00000000000E+00  0.00000000000E+00  0.50000000000E+03  0.50000000000E+03  0.00000000000E+00 0. -1.
         11   -1    0    0    0    0 -0.00000000000E+00 -0.00000000000E+00 -0.50000000000E+03  0.50000000000E+03  0.00000000000E+00 0.  1.
        -11    1    1    2    0    0 -0.44568380847E+01  0.89942003288E+01  0.48438149825E+03  0.48448549503E+03  0.00000000000E+00 0. -1.
         11    1    1    2    0    0 -0.79110516390E+01  0.21106303992E+01 -0.45977908685E+03  0.45985198510E+03  0.00000000000E+00 0.  1.
        -15    1    1    2    0    0  0.78454540014E+00 -0.51897148765E+00 -0.36082562665E+02  0.36138537607E+02  0.17770000000E+01 0. -1.
         15    1    1    2    0    0  0.11583344324E+02 -0.10585859240E+02  0.11480151261E+02  0.19523982267E+02  0.17770000000E+01 0.  1.
</event>
<event>
 6    1  0.1599106E-003  0.4964414E+03  0.7546771E-02  0.9407808E-01
        -11   -1    0    0    0    0  0.00000000000E+00  0.00000000000E+00  0.50000000000E+03  0.50000000000E+03  0.00000000000E+00 0. -1.
         11   -1    0    0    0    0 -0.00000000000E+00 -0.00000000000E+00 -0.50000000000E+03  0.50000000000E+03  0.00000000000E+00 0. -1.
        -11    1    1    2    0    0  0.28310391549E+01  0.34585939701E+01  0.75019894108E+01  0.87324967831E+01  0.00000000000E+00 0. -1.
         11    1    1    2    0    0 -0.68442201476E+01  0.27427714972E+01 -0.49849650036E+03  0.49855102750E+03  0.00000000000E+00 0. -1.
        -15    1    1    2    0    0  0.20699843572E+02  0.41794279988E+01  0.28030143503E+03  0.28110141115E+03  0.17770000000E+01 0. -1.
         15    1    1    2    0    0 -0.16686662579E+02 -0.10380793466E+02  0.21069307593E+03  0.21161506457E+03  0.17770000000E+01 0.  1.
</event>
<event>
 6    1  0.1599106E-003  0.5044106E+03  0.7546771E-02  0.9389994E-01
        -11   -1    0    0    0    0  0.00000000000E+00  0.00000000000E+00  0.50000000000E+03  0.50000000000E+03  0.00000000000E+00 0. -1.
         11   -1    0    0    0    0 -0.00000000000E+00 -0.00000000000E+00 -0.50000000000E+03  0.50000000000E+03  0.00000000000E+00 0. -1.
        -11    1    1    2    0    0 -0.91933747944E+01 -0.15241680667E+01  0.38119705530E+03  0.38131094424E+03  0.00000000000E+00 0. -1.
         11    1    1    2    0    0  0.10078481639E+02  0.29009792297E+02 -0.49463696596E+03  0.49558941871E+03  0.00000000000E+00 0. -1.
        -15    1    1    2    0    0 -0.19417599467E+02 -0.18630187420E+02  0.58427060255E+02  0.64350649968E+02  0.17770000000E+01 0.  1.
         15    1    1    2    0    0  0.18532492622E+02 -0.88554368097E+01  0.55012850412E+02  0.58748987083E+02  0.17770000000E+01 0. -1.
</event>
<event>
 6    1  0.1599106E-003  0.5005678E+03  0.7546771E-02  0.9398540E-01
        -11   -1    0    0    0    0  0.00000000000E+00  0.00000000000E+00  0.50000000000E+03  0.50000000000E+03  0.00000000000E+00 0.  1.
         11   -1    0    0    0    0 -0.00000000000E+00 -0.00000000000E+00 -0.50000000000E+03  0.50000000000E+03  0.00000000000E+00 0.  1.
        -11    1    1    2    0    0 -0.74956060533E+01 -0.86775374091E+01  0.49930056199E+03  0.49943221258E+03  0.00000000000E+00 0.  1.
         11    1    1    2    0    0  0.66762162443E+01  0.83477196625E+01 -0.41297119654E+03  0.41310950783E+03  0.00000000000E+00 0.  1.
        -15    1    1    2    0    0  0.35269791937E+01  0.30432060754E+01 -0.11810882386E+02  0.12820115334E+02  0.17770000000E+01 0. -1.
         15    1    1    2    0    0 -0.27075893846E+01 -0.27133883288E+01 -0.74518483058E+02  0.74638164251E+02  0.17770000000E+01 0.  1.
</event>
<event>
 6    1  0.1599106E-003  0.5079575E+03  0.7546771E-02  0.9382178E-01
        -11   -1    0    0    0    0  0.00000000000E+00  0.00000000000E+00  0.50000000000E+03  0.50000000000E+03  0.00000000000E+00 0.  1.
         11   -1    0    0    0    0 -0.00000000000E+00 -0.00000000000E+00 -0.50000000000E+03  0.50000000000E+03  0.00000000000E+00 0. -1.
        -11    1    1    2    0    0 -0.74678318629E+01  0.14303466622E+01  0.48082593502E+03  0.48088605115E+03  0.00000000000E+00 0.  1.
         11    1    1    2    0    0 -0.51257929282E+01  0.10676621760E+02 -0.49189997797E+03  0.49204253102E+03  0.00000000000E+00 0. -1.
        -15    1    1    2    0    0  0.62428799067E+01 -0.15842036912E+02  0.78892788311E+01  0.18850520749E+02  0.17770000000E+01 0. -1.
         15    1    1    2    0    0  0.63507448844E+01  0.37350684893E+01  0.31847641254E+01  0.82208970764E+01  0.17770000000E+01 0.  1.
</event>
<event>
 6    1  0.1599106E-003  0.5294255E+03  0.7546771E-02  0.9336273E-01
        -11   -1    0    0    0    0  0.00000000000E+00  0.00000000000E+00  0.50000000000E+03  0.50000000000E+03  0.00000000000E+00 0. -1.
         11   -1    0    0    0    0 -0.00000000000E+00 -0.00000000000E+00 -0.50000000000E+03  0.50000000000E+03  0.00000000000E+00 0.  1.
        -11    1    1    2    0    0 -0.17725995097E+02 -0.20712663504E+02  0.33237307884E+03  0.33348926350E+03  0.00000000000E+00 0. -1.
         11    1    1    2    0    0 -0.20858065723E+02  0.23557693833E+02 -0.46952139709E+03  0.47057450651E+03  0.00000000000E+00 0.  1.
        -15    1    1    2    0    0 -0.39343871207E+02  0.30624553018E+02  0.26435542742E+02  0.56460597749E+02  0.17770000000E+01 0.  1.
         15    1    1    2    0    0  0.77927932028E+02 -0.33469583347E+02  0.11071277552E+03  0.13947563225E+03  0.17770000000E+01 0. -1.
</event>
<event>
 6    1  0.1599106E-003  0.5215682E+03  0.7546771E-02  0.9352802E-01
        -11   -1    0    0    0    0  0.00000000000E+00  0.00000000000E+00  0.50000000000E+03  0.50000000000E+03  0.00000000000E+00 0.  1.
         11   -1    0    0    0    0 -0.00000000000E+00 -0.00000000000E+00 -0.50000000000E+03  0.50000000000E+03  0.00000000000E+00 0.  1.
        -11    1    1    2    0    0  0.10603869198E+02 -0.77418479266E+00  0.47831365432E+03  0.47843180634E+03  0.00000000000E+00 0.  1.
         11    1    1    2    0    0  0.23942374766E+02  0.18979493525E+02 -0.44911342979E+03  0.45015145373E+03  0.00000000000E+00 0.  1.
        -15    1    1    2    0    0 -0.28437019454E+02 -0.36175792113E+02 -0.19224083586E+02  0.49900652593E+02  0.17770000000E+01 0.  1.
         15    1    1    2    0    0 -0.61092245107E+01  0.17970483380E+02 -0.99761409480E+01  0.21516087336E+02  0.17770000000E+01 0. -1.
</event>
<event>
 6    1  0.1599106E-003  0.5394115E+03  0.7546771E-02  0.9315700E-01
        -11   -1    0    0    0    0  0.00000000000E+00  0.00000000000E+00  0.50000000000E+03  0.50000000000E+03  0.00000000000E+00 0. -1.
         11   -1    0    0    0    0 -0.00000000000E+00 -0.00000000000E+00 -0.50000000000E+03  0.50000000000E+03  0.00000000000E+00 0.  1.
        -11    1    1    2    0    0 -0.21708615522E+01 -0.22381380301E+02  0.46003929868E+03  0.46058853129E+03  0.00000000000E+00 0. -1.
         11    1    1    2    0    0 -0.93996814541E+01  0.94059020827E+01 -0.20395271665E+03  0.20438575203E+03  0.00000000000E+00 0.  1.
        -15    1    1    2    0    0 -0.26665552012E+01  0.29734096897E+02  0.33323817569E+02  0.44775680691E+02  0.17770000000E+01 0. -1.
         15    1    1    2    0    0  0.14237098208E+02 -0.16758618679E+02 -0.28941039960E+03  0.29025003599E+03  0.17770000000E+01 0.  1.
</event>
<event>
 6    1  0.1599106E-003  0.4689238E+03  0.7546771E-02  0.9472163E-01
        -11   -1    0    0    0    0  0.00000000000E+00  0.00000000000E+00  0.50000000000E+03  0.50000000000E+03  0.00000000000E+00 0.  1.
         11   -1    0    0    0    0 -0.00000000000E+00 -0.00000000000E+00 -0.50000000000E+03  0.50000000000E+03  0.00000000000E+00 0.  1.
        -11    1    1    2    0    0  0.79818692996E+01 -0.12839440434E+01  0.47419514918E+03  0.47426405963E+03  0.00000000000E+00 0.  1.
         11    1    1    2    0    0 -0.19822153616E+02 -0.12679777004E+02 -0.46322901701E+03  0.46382627860E+03  0.00000000000E+00 0.  1.
        -15    1    1    2    0    0  0.44667174875E+00  0.46960417844E+01 -0.34088722797E+02  0.34459411995E+02  0.17770000000E+01 0. -1.
         15    1    1    2    0    0  0.11393612567E+02  0.92676792629E+01  0.23122590632E+02  0.27450249776E+02  0.17770000000E+01 0.  1.
</event>
<event>
 6    1  0.1599106E-003  0.4589439E+03  0.7546771E-02  0.9496673E-01
        -11   -1    0    0    0    0  0.00000000000E+00  0.00000000000E+00  0.50000000000E+03  0.50000000000E+03  0.00000000000E+00 0.  1.
         11   -1    0    0    0    0 -0.00000000000E+00 -0.00000000000E+00 -0.50000000000E+03  0.50000000000E+03  0.00000000000E+00 0. -1.
        -11    1    1    2    0    0  0.65155656578E+01 -0.20851759754E+01  0.11071849428E+03  0.11092964225E+03  0.00000000000E+00 0.  1.
         11    1    1    2    0    0 -0.90084723491E+01  0.37684875150E+01 -0.47956973359E+03  0.47966913957E+03  0.00000000000E+00 0. -1.
        -15    1    1    2    0    0 -0.46065736535E+02  0.74214643280E+02  0.19022720201E+03  0.20933086603E+03  0.17770000000E+01 0. -1.
         15    1    1    2    0    0  0.48558643226E+02 -0.75897954819E+02  0.17862403731E+03  0.20007035216E+03  0.17770000000E+01 0.  1.
</event>
<event>
 6    1  0.1599106E-003  0.5009756E+03  0.7546771E-02  0.9397629E-01
        -11   -1    0    0    0    0  0.00000000000E+00  0.00000000000E+00  0.50000000000E+03  0.50000000000E+03  0.00000000000E+00 0. -1.
         11   -1    0    0    0    0 -0.00000000000E+00 -0.00000000000E+00 -0.50000000000E+03  0.50000000000E+03  0.00000000000E+00 0. -1.
        -11    1    1    2    0    0  0.32877106096E+01 -0.76668336468E+01  0.36528946373E+03  0.36538470369E+03  0.00000000000E+00 0. -1.
         11    1    1    2    0    0  0.80453691971E+01  0.12773500589E+02 -0.49879603126E+03  0.49902441933E+03  0.00000000000E+00 0. -1.
        -15    1    1    2    0    0  0.14050805530E+01  0.50139884191E+01  0.61606582728E+02  0.61851783286E+02  0.17770000000E+01 0. -1.
         15    1    1    2    0    0 -0.12738160360E+02 -0.10120655362E+02  0.71899984808E+02  0.73739093693E+02  0.17770000000E+01 0.  1.
</event>
<event>
 6    1  0.1599106E-003  0.5012904E+03  0.7546771E-02  0.9396927E-01
        -11   -1    0    0    0    0  0.00000000000E+00  0.00000000000E+00  0.50000000000E+03  0.50000000000E+03  0.00000000000E+00 0.  1.
         11   -1    0    0    0    0 -0.00000000000E+00 -0.00000000000E+00 -0.50000000000E+03  0.50000000000E+03  0.00000000000E+00 0.  1.
        -11    1    1    2    0    0  0.97125552176E+01  0.79831668307E+01  0.49855105554E+03  0.49870955441E+03  0.00000000000E+00 0.  1.
         11    1    1    2    0    0  0.39237344982E+01  0.31396706145E+01 -0.22749348466E+03  0.22754898107E+03  0.00000000000E+00 0.  1.
        -15    1    1    2    0    0 -0.17364876718E+02 -0.17260741123E+02 -0.11908524840E+03  0.12158916992E+03  0.17770000000E+01 0. -1.
         15    1    1    2    0    0  0.37285870022E+01  0.61379036773E+01 -0.15197232248E+03  0.15215229460E+03  0.17770000000E+01 0.  1.
</event>
<event>
 6    1  0.1599106E-003  0.5006863E+03  0.7546771E-02  0.9398275E-01
        -11   -1    0    0    0    0  0.00000000000E+00  0.00000000000E+00  0.50000000000E+03  0.50000000000E+03  0.00000000000E+00 0. -1.
         11   -1    0    0    0    0 -0.00000000000E+00 -0.00000000000E+00 -0.50000000000E+03  0.50000000000E+03  0.00000000000E+00 0. -1.
        -11    1    1    2    0    0 -0.79669061643E+01  0.29459466040E+02  0.49838024178E+03  0.49931372615E+03  0.00000000000E+00 0. -1.
         11    1    1    2    0    0 -0.33976038696E+00 -0.90805402575E+00 -0.59322949003E+02  0.59330871203E+02  0.00000000000E+00 0. -1.
        -15    1    1    2    0    0 -0.42743588774E+01 -0.31384926333E+02 -0.33097872833E+03  0.33249565423E+03  0.17770000000E+01 0. -1.
         15    1    1    2    0    0  0.12581025429E+02  0.28335143183E+01 -0.10807856445E+03  0.10885974842E+03  0.17770000000E+01 0.  1.
</event>
<event>
 6    1  0.1599106E-003  0.5031844E+03  0.7546771E-02  0.9392712E-01
        -11   -1    0    0    0    0  0.00000000000E+00  0.00000000000E+00  0.50000000000E+03  0.50000000000E+03  0.00000000000E+00 0. -1.
         11   -1    0    0    0    0 -0.00000000000E+00 -0.00000000000E+00 -0.50000000000E+03  0.50000000000E+03  0.00000000000E+00 0. -1.
        -11    1    1    2    0    0 -0.59027401923E+01 -0.52492326119E+00  0.38464837577E+03  0.38469402240E+03  0.00000000000E+00 0. -1.
         11    1    1    2    0    0  0.81343736389E+01  0.37186502144E+01 -0.49673504789E+03  0.49681556357E+03  0.00000000000E+00 0. -1.
        -15    1    1    2    0    0  0.68565182732E+01 -0.12837914165E+02  0.97916551130E+02  0.99008245097E+02  0.17770000000E+01 0. -1.
         15    1    1    2    0    0 -0.90881517198E+01  0.96441872115E+01  0.14170120996E+02  0.19482168943E+02  0.17770000000E+01 0.  1.
</event>
<event>
 6    1  0.1599106E-003  0.5002974E+03  0.7546771E-02  0.9399144E-01
        -11   -1    0    0    0    0  0.00000000000E+00  0.00000000000E+00  0.50000000000E+03  0.50000000000E+03  0.00000000000E+00 0. -1.
         11   -1    0    0    0    0 -0.00000000000E+00 -0.00000000000E+00 -0.50000000000E+03  0.50000000000E+03  0.00000000000E+00 0. -1.
        -11    1    1    2    0    0  0.40028297448E+01  0.34866454896E+01  0.34577462478E+03  0.34581537052E+03  0.00000000000E+00 0. -1.
         11    1    1    2    0    0 -0.30429524105E+01 -0.63492371602E+01 -0.49965295429E+03  0.49970255863E+03  0.00000000000E+00 0. -1.
        -15    1    1    2    0    0  0.15724048438E+01  0.35664161803E+01  0.15889780756E+02  0.16457054501E+02  0.17770000000E+01 0. -1.
         15    1    1    2    0    0 -0.25322821781E+01 -0.70382450973E+00  0.13798854875E+03  0.13802501635E+03  0.17770000000E+01 0. -1.
</event>
<event>
 6    1  0.1599106E-003  0.5044168E+03  0.7546771E-02  0.9389981E-01
        -11   -1    0    0    0    0  0.00000000000E+00  0.00000000000E+00  0.50000000000E+03  0.50000000000E+03  0.00000000000E+00 0.  1.
         11   -1    0    0    0    0 -0.00000000000E+00 -0.00000000000E+00 -0.50000000000E+03  0.50000000000E+03  0.00000000000E+00 0.  1.
        -11    1    1    2    0    0 -0.70489677500E+01 -0.42858213825E+01  0.49551451750E+03  0.49558318501E+03  0.00000000000E+00 0.  1.
         11    1    1    2    0    0 -0.10599951199E+02  0.10260188651E+02 -0.45358452014E+03  0.45382435737E+03  0.00000000000E+00 0.  1.
        -15    1    1    2    0    0  0.64713725717E+01 -0.43798522479E+01 -0.97539638695E+00  0.80728492979E+01  0.17770000000E+01 0. -1.
         15    1    1    2    0    0  0.11177546378E+02 -0.15945150203E+01 -0.40954600978E+02  0.42519608317E+02  0.17770000000E+01 0.  1.
</event>
<event>
 6    1  0.1599106E-003  0.5047340E+03  0.7546771E-02  0.9389279E-01
        -11   -1    0    0    0    0  0.00000000000E+00  0.00000000000E+00  0.50000000000E+03  0.50000000000E+03  0.00000000000E+00 0. -1.
         11   -1    0    0    0    0 -0.00000000000E+00 -0.00000000000E+00 -0.50000000000E+03  0.50000000000E+03  0.00000000000E+00 0. -1.
        -11    1    1    2    0    0  0.68648815220E+01 -0.52966490727E+01  0.49519004647E+03  0.49526595200E+03  0.00000000000E+00 0. -1.
         11    1    1    2    0    0  0.30630295755E+01 -0.14376039019E+01 -0.59442381848E+02  0.59538606089E+02  0.00000000000E+00 0. -1.
        -15    1    1    2    0    0 -0.12943171296E+02 -0.19473114757E+02 -0.27703621509E+02  0.36295678190E+02  0.17770000000E+01 0.  1.
         15    1    1    2    0    0  0.30152601990E+01  0.26207367732E+02 -0.40804404312E+03  0.40889976372E+03  0.17770000000E+01 0. -1.
</event>
<event>
 6    1  0.1599106E-003  0.5205411E+03  0.7546771E-02  0.9354985E-01
        -11   -1    0    0    0    0  0.00000000000E+00  0.00000000000E+00  0.50000000000E+03  0.50000000000E+03  0.00000000000E+00 0. -1.
         11   -1    0    0    0    0 -0.00000000000E+00 -0.00000000000E+00 -0.50000000000E+03  0.50000000000E+03  0.00000000000E+00 0.  1.
        -11    1    1    2    0    0 -0.77094371347E+01 -0.32480886413E+01  0.45566808764E+03  0.45574487555E+03  0.00000000000E+00 0. -1.
         11    1    1    2    0    0  0.25150689336E+01 -0.71204339129E+01 -0.47939944526E+03  0.47945891823E+03  0.00000000000E+00 0.  1.
        -15    1    1    2    0    0  0.11297738426E+02  0.17358764274E+02  0.40514508395E+02  0.45536235134E+02  0.17770000000E+01 0.  1.
         15    1    1    2    0    0 -0.61033702247E+01 -0.69902417199E+01 -0.16783150768E+02  0.19259971083E+02  0.17770000000E+01 0. -1.
</event>
<event>
 6    1  0.1599106E-003  0.4897072E+03  0.7546771E-02  0.9423140E-01
        -11   -1    0    0    0    0  0.00000000000E+00  0.00000000000E+00  0.50000000000E+03  0.50000000000E+03  0.00000000000E+00 0.  1.
         11   -1    0    0    0    0 -0.00000000000E+00 -0.00000000000E+00 -0.50000000000E+03  0.50000000000E+03  0.00000000000E+00 0. -1.
        -11    1    1    2    0    0  0.24126087193E+02  0.25722663645E+02  0.49092478640E+03  0.49218987130E+03  0.00000000000E+00 0.  1.
         11    1    1    2    0    0 -0.64974130557E+00 -0.48176725142E+00 -0.34963320412E+02  0.34972675587E+02  0.00000000000E+00 0. -1.
        -15    1    1    2    0    0 -0.13607231488E+02 -0.32983534231E+02 -0.29894813067E+02  0.46582484438E+02  0.17770000000E+01 0.  1.
         15    1    1    2    0    0 -0.98691143995E+01  0.77426378371E+01 -0.42606665292E+03  0.42625496867E+03  0.17770000000E+01 0. -1.
</event>
<event>
 6    1  0.1599106E-003  0.5059102E+03  0.7546771E-02  0.9386681E-01
        -11   -1    0    0    0    0  0.00000000000E+00  0.00000000000E+00  0.50000000000E+03  0.50000000000E+03  0.00000000000E+00 0.  1.
         11   -1    0    0    0    0 -0.00000000000E+00 -0.00000000000E+00 -0.50000000000E+03  0.50000000000E+03  0.00000000000E+00 0.  1.
        -11    1    1    2    0    0  0.10174747953E+02 -0.85334697632E+01  0.49391132964E+03  0.49408981688E+03  0.00000000000E+00 0.  1.
         11    1    1    2    0    0 -0.20930264638E+01  0.11337301181E+02 -0.48127864582E+03  0.48141671147E+03  0.00000000000E+00 0.  1.
        -15    1    1    2    0    0 -0.69526315043E+01  0.58281714032E+00  0.34072360521E+01  0.79652838724E+01  0.17770000000E+01 0. -1.
         15    1    1    2    0    0 -0.11290899848E+01 -0.33866485584E+01 -0.16039919875E+02  0.16528187778E+02  0.17770000000E+01 0.  1.
</event>
<event>
 6    1  0.1599106E-003  0.5004197E+03  0.7546771E-02  0.9398871E-01
        -11   -1    0    0    0    0  0.00000000000E+00  0.00000000000E+00  0.50000000000E+03  0.50000000000E+03  0.00000000000E+00 0. -1.
         11   -1    0    0    0    0 -0.00000000000E+00 -0.00000000000E+00 -0.50000000000E+03  0.50000000000E+03  0.00000000000E+00 0. -1.
        -11    1    1    2    0    0 -0.67208757833E+01  0.65561081462E+00  0.49953469212E+03  0.49958033251E+03  0.00000000000E+00 0. -1.
         11    1    1    2    0    0  0.26533394867E+01  0.31537926211E+01 -0.25633267623E+03  0.25636580802E+03  0.00000000000E+00 0. -1.
        -15    1    1    2    0    0  0.46576145126E+01  0.73538429007E+00 -0.15494433748E+02  0.16293230777E+02  0.17770000000E+01 0.  1.
         15    1    1    2    0    0 -0.59007821599E+00 -0.45447877258E+01 -0.22770758214E+03  0.22776062869E+03  0.17770000000E+01 0. -1.
</event>
<event>
 6    1  0.1599106E-003  0.5038458E+03  0.7546771E-02  0.9391245E-01
        -11   -1    0    0    0    0  0.00000000000E+00  0.00000000000E+00  0.50000000000E+03  0.50000000000E+03  0.00000000000E+00 0.  1.
         11   -1    0    0    0    0 -0.00000000000E+00 -0.00000000000E+00 -0.50000000000E+03  0.50000000000E+03  0.00000000000E+00 0.  1.
        -11    1    1    2    0    0  0.16745834903E+02  0.72258334409E+01  0.42926137206E+03  0.42964864855E+03  0.00000000000E+00 0.  1.
         11    1    1    2    0    0 -0.62962497150E+01 -0.38142761358E+01 -0.49609960176E+03  0.49615421627E+03  0.00000000000E+00 0.  1.
        -15    1    1    2    0    0 -0.17798253106E+02 -0.50847927738E+01  0.62736638484E+02  0.65434520465E+02  0.17770000000E+01 0.  1.
         15    1    1    2    0    0  0.73486679181E+01  0.16732354686E+01  0.41015912106E+01  0.87626147104E+01  0.17770000000E+01 0. -1.
</event>
<event>
 6    1  0.1599106E-003  0.4806450E+03  0.7546771E-02  0.9444191E-01
        -11   -1    0    0    0    0  0.00000000000E+00  0.00000000000E+00  0.50000000000E+03  0.50000000000E+03  0.00000000000E+00 0.  1.
         11   -1    0    0    0    0 -0.00000000000E+00 -0.00000000000E+00 -0.50000000000E+03  0.50000000000E+03  0.00000000000E+00 0. -1.
        -11    1    1    2    0    0 -0.66578051691E+01  0.33054843589E+01  0.48354719095E+03  0.48360432016E+03  0.00000000000E+00 0.  1.
         11    1    1    2    0    0 -0.29249757424E+01  0.68300361356E+01 -0.47774657088E+03  0.47780434371E+03  0.00000000000E+00 0. -1.
        -15    1    1    2    0    0  0.95478112218E+01  0.23239447441E+00  0.13487165868E+02  0.16621554635E+02  0.17770000000E+01 0.  1.
         15    1    1    2    0    0  0.34969689627E-01 -0.10367914969E+02 -0.19287785936E+02  0.21969781497E+02  0.17770000000E+01 0. -1.
</event>
<event>
 6    1  0.1599106E-003  0.5048241E+03  0.7546771E-02  0.9389080E-01
        -11   -1    0    0    0    0  0.00000000000E+00  0.00000000000E+00  0.50000000000E+03  0.50000000000E+03  0.00000000000E+00 0. -1.
         11   -1    0    0    0    0 -0.00000000000E+00 -0.00000000000E+00 -0.50000000000E+03  0.50000000000E+03  0.00000000000E+00 0.  1.
        -11    1    1    2    0    0 -0.16708050153E+02 -0.51122585859E+01  0.49486755467E+03  0.49517591903E+03  0.00000000000E+00 0. -1.
         11    1    1    2    0    0 -0.58681324715E+01 -0.41491262556E+01 -0.23867395043E+03  0.23878212840E+03  0.00000000000E+00 0.  1.
        -15    1    1    2    0    0 -0.13710082680E+02 -0.18914345260E+02 -0.12093025427E+03  0.12317874390E+03  0.17770000000E+01 0.  1.
         15    1    1    2    0    0  0.36286265305E+02  0.28175730102E+02 -0.13526334997E+03  0.14286320866E+03  0.17770000000E+01 0. -1.
</event>
<event>
 6    1  0.1599106E-003  0.5007419E+03  0.7546771E-02  0.9398151E-01
        -11   -1    0    0    0    0  0.00000000000E+00  0.00000000000E+00  0.50000000000E+03  0.50000000000E+03  0.00000000000E+00 0. -1.
         11   -1    0    0    0    0 -0.00000000000E+00 -0.00000000000E+00 -0.50000000000E+03  0.50000000000E+03  0.00000000000E+00 0. -1.
        -11    1    1    2    0    0 -0.54580057614E+01 -0.57938934688E+01  0.49919463563E+03  0.49925809284E+03  0.00000000000E+00 0. -1.
         11    1    1    2    0    0 -0.60643403050E+01 -0.44211559653E+01 -0.32616942054E+03  0.32625574897E+03  0.00000000000E+00 0. -1.
        -15    1    1    2    0    0  0.85788560088E+01  0.49483768600E+01 -0.15620042287E+03  0.15652416120E+03  0.17770000000E+01 0.  1.
         15    1    1    2    0    0  0.29434900577E+01  0.52666725741E+01 -0.16824792218E+02  0.17961996991E+02  0.17770000000E+01 0. -1.
</event>
<event>
 6    1  0.1599106E-003  0.5044295E+03  0.7546771E-02  0.9389953E-01
        -11   -1    0    0    0    0  0.00000000000E+00  0.00000000000E+00  0.50000000000E+03  0.50000000000E+03  0.00000000000E+00 0.  1.
         11   -1    0    0    0    0 -0.00000000000E+00 -0.00000000000E+00 -0.50000000000E+03  0.50000000000E+03  0.00000000000E+00 0. -1.
        -11    1    1    2    0    0  0.12402774107E+01  0.12780797680E+02  0.48214076938E+03  0.48231173382E+03  0.00000000000E+00 0.  1.
         11    1    1    2    0    0  0.32350816664E+01 -0.94271717819E+01 -0.49547030451E+03  0.49557053985E+03  0.00000000000E+00 0. -1.
        -15    1    1    2    0    0 -0.13060606497E+01  0.66333392831E+01  0.59464534341E+01  0.91774191311E+01  0.17770000000E+01 0.  1.
         15    1    1    2    0    0 -0.31692984274E+01 -0.99869651816E+01  0.73830816924E+01  0.12940307196E+02  0.17770000000E+01 0. -1.
</event>
<event>
 6    1  0.1599106E-003  0.5109826E+03  0.7546771E-02  0.9375565E-01
        -11   -1    0    0    0    0  0.00000000000E+00  0.00000000000E+00  0.50000000000E+03  0.50000000000E+03  0.00000000000E+00 0. -1.
         11   -1    0    0    0    0 -0.00000000000E+00 -0.00000000000E+00 -0.50000000000E+03  0.50000000000E+03  0.00000000000E+00 0.  1.
        -11    1    1    2    0    0 -0.57015343235E+01  0.30854537728E+01  0.46636691758E+03  0.46641197383E+03  0.00000000000E+00 0. -1.
         11    1    1    2    0    0 -0.15892129032E+01  0.13750897367E+02 -0.48882143647E+03  0.48901739185E+03  0.00000000000E+00 0.  1.
        -15    1    1    2    0    0  0.20299656520E+02 -0.74583264212E+01  0.87354121363E+01  0.23391619055E+02  0.17770000000E+01 0. -1.
         15    1    1    2    0    0 -0.13008909294E+02 -0.93780247183E+01  0.13719106759E+02  0.21179015272E+02  0.17770000000E+01 0.  1.
</event>
<event>
 6    1  0.1599106E-003  0.5051127E+03  0.7546771E-02  0.9388442E-01
        -11   -1    0    0    0    0  0.00000000000E+00  0.00000000000E+00  0.50000000000E+03  0.50000000000E+03  0.00000000000E+00 0.  1.
         11   -1    0    0    0    0 -0.00000000000E+00 -0.00000000000E+00 -0.50000000000E+03  0.50000000000E+03  0.00000000000E+00 0. -1.
        -11    1    1    2    0    0  0.37521845935E+01  0.56752341124E+01  0.49484058216E+03  0.49488734973E+03  0.00000000000E+00 0.  1.
         11    1    1    2    0    0  0.68515022413E+01 -0.60285444381E+01 -0.18485096150E+03  0.18507610435E+03  0.00000000000E+00 0. -1.
        -15    1    1    2    0    0 -0.62974408244E+01  0.10278709174E+02 -0.30876362486E+03  0.30900395368E+03  0.17770000000E+01 0. -1.
         15    1    1    2    0    0 -0.43062460104E+01 -0.99253988484E+01 -0.12259957977E+01  0.11032592247E+02  0.17770000000E+01 0.  1.
</event>
<event>
 6    1  0.1599106E-003  0.5067243E+03  0.7546771E-02  0.9384888E-01
        -11   -1    0    0    0    0  0.00000000000E+00  0.00000000000E+00  0.50000000000E+03  0.50000000000E+03  0.00000000000E+00 0. -1.
         11   -1    0    0    0    0 -0.00000000000E+00 -0.00000000000E+00 -0.50000000000E+03  0.50000000000E+03  0.00000000000E+00 0.  1.
        -11    1    1    2    0    0  0.49518280301E+01  0.54363757891E+01  0.49322088693E+03  0.49327570190E+03  0.00000000000E+00 0. -1.
         11    1    1    2    0    0 -0.31262853729E+01 -0.10242430993E+02 -0.44935357554E+03  0.44948116412E+03  0.00000000000E+00 0.  1.
        -15    1    1    2    0    0 -0.13664347019E+02 -0.27463259971E+01 -0.40252476805E+02  0.42634215178E+02  0.17770000000E+01 0.  1.
         15    1    1    2    0    0  0.11838804362E+02  0.75523812014E+01 -0.36148345843E+01  0.14608918803E+02  0.17770000000E+01 0. -1.
</event>
<event>
 6    1  0.1599106E-003  0.5003209E+03  0.7546771E-02  0.9399092E-01
        -11   -1    0    0    0    0  0.00000000000E+00  0.00000000000E+00  0.50000000000E+03  0.50000000000E+03  0.00000000000E+00 0. -1.
         11   -1    0    0    0    0 -0.00000000000E+00 -0.00000000000E+00 -0.50000000000E+03  0.50000000000E+03  0.00000000000E+00 0. -1.
        -11    1    1    2    0    0 -0.13225987058E+01 -0.66841611070E+01  0.49963266751E+03  0.49967912676E+03  0.00000000000E+00 0. -1.
         11    1    1    2    0    0 -0.34684479143E+01  0.89515757703E+00 -0.12874988959E+03  0.12879971082E+03  0.00000000000E+00 0. -1.
        -15    1    1    2    0    0 -0.31488005287E+01  0.34051638038E+01 -0.22779900421E+02  0.23315052594E+02  0.17770000000E+01 0.  1.
         15    1    1    2    0    0  0.79398471488E+01  0.23838397262E+01 -0.34810287750E+03  0.34820610982E+03  0.17770000000E+01 0. -1.
</event>
<event>
 6    1  0.1599106E-003  0.5067594E+03  0.7546771E-02  0.9384811E-01
        -11   -1    0    0    0    0  0.00000000000E+00  0.00000000000E+00  0.50000000000E+03  0.50000000000E+03  0.00000000000E+00 0. -1.
         11   -1    0    0    0    0 -0.00000000000E+00 -0.00000000000E+00 -0.50000000000E+03  0.50000000000E+03  0.00000000000E+00 0.  1.
        -11    1    1    2    0    0  0.56381525878E+01  0.89832968344E+01  0.46286831727E+03  0.46298981362E+03  0.00000000000E+00 0. -1.
         11    1    1    2    0    0 -0.54102919964E+01  0.14977853284E+02 -0.49298346630E+03  0.49324061613E+03  0.00000000000E+00 0.  1.
        -15    1    1    2    0    0  0.38255476364E+00 -0.21407390720E+02  0.10523982343E+02  0.23923516860E+02  0.17770000000E+01 0.  1.
         15    1    1    2    0    0 -0.61041535508E+00 -0.25537593993E+01  0.19591166691E+02  0.19846053394E+02  0.17770000000E+01 0. -1.
</event>
<event>
 6    1  0.1599106E-003  0.5221557E+03  0.7546771E-02  0.9351555E-01
        -11   -1    0    0    0    0  0.00000000000E+00  0.00000000000E+00  0.50000000000E+03  0.50000000000E+03  0.00000000000E+00 0.  1.
         11   -1    0    0    0    0 -0.00000000000E+00 -0.00000000000E+00 -0.50000000000E+03  0.50000000000E+03  0.00000000000E+00 0. -1.
        -11    1    1    2    0    0  0.59732187742E+01  0.15731309805E+02  0.47754789867E+03  0.47784427272E+03  0.00000000000E+00 0.  1.
         11    1    1    2    0    0  0.82375679364E+01 -0.11707205281E+02 -0.31202483776E+03  0.31235303033E+03  0.00000000000E+00 0. -1.
        -15    1    1    2    0    0 -0.90254134788E+01  0.18676172682E+02 -0.18073652735E+03  0.18193160133E+03  0.17770000000E+01 0. -1.
         15    1    1    2    0    0 -0.51853732318E+01 -0.22700277205E+02  0.15213466442E+02  0.27871095618E+02  0.17770000000E+01 0.  1.
</event>
<event>
 6    1  0.1599106E-003  0.4544815E+03  0.7546771E-02  0.9507849E-01
        -11   -1    0    0    0    0  0.00000000000E+00  0.00000000000E+00  0.50000000000E+03  0.50000000000E+03  0.00000000000E+00 0. -1.
         11   -1    0    0    0    0 -0.00000000000E+00 -0.00000000000E+00 -0.50000000000E+03  0.50000000000E+03  0.00000000000E+00 0.  1.
        -11    1    1    2    0    0  0.62601578924E+01  0.89759772371E+00  0.45840035868E+03  0.45844398142E+03  0.00000000000E+00 0. -1.
         11    1    1    2    0    0  0.28427291317E+02  0.13146548982E+02 -0.45023752764E+03  0.45132557421E+03  0.00000000000E+00 0.  1.
        -15    1    1    2    0    0  0.15347588820E+02 -0.11907822667E+02  0.23815433052E+02  0.30784367846E+02  0.17770000000E+01 0.  1.
         15    1    1    2    0    0 -0.50035038030E+02 -0.21363240380E+01 -0.31978264093E+02  0.59446076527E+02  0.17770000000E+01 0. -1.
</event>
<event>
 6    1  0.1599106E-003  0.5383537E+03  0.7546771E-02  0.9317857E-01
        -11   -1    0    0    0    0  0.00000000000E+00  0.00000000000E+00  0.50000000000E+03  0.50000000000E+03  0.00000000000E+00 0.  1.
         11   -1    0    0    0    0 -0.00000000000E+00 -0.00000000000E+00 -0.50000000000E+03  0.50000000000E+03  0.00000000000E+00 0. -1.
        -11    1    1    2    0    0 -0.42331188996E+01  0.19768229293E+02  0.39971265306E+03  0.40022357152E+03  0.00000000000E+00 0.  1.
         11    1    1    2    0    0 -0.65299356282E+01 -0.17680311829E+00 -0.46160009644E+03  0.46164631522E+03  0.00000000000E+00 0. -1.
        -15    1    1    2    0    0  0.49229065350E+02  0.22198761464E+02  0.60737119397E+02  0.81292319978E+02  0.17770000000E+01 0. -1.
         15    1    1    2    0    0 -0.38466010822E+02 -0.41790187639E+02  0.11503239897E+01  0.56837793287E+02  0.17770000000E+01 0.  1.
</event>
<event>
 6    1  0.1599106E-003  0.5015590E+03  0.7546771E-02  0.9396328E-01
        -11   -1    0    0    0    0  0.00000000000E+00  0.00000000000E+00  0.50000000000E+03  0.50000000000E+03  0.00000000000E+00 0. -1.
         11   -1    0    0    0    0 -0.00000000000E+00 -0.00000000000E+00 -0.50000000000E+03  0.50000000000E+03  0.00000000000E+00 0.  1.
        -11    1    1    2    0    0  0.46539854881E+02 -0.17878688619E+02  0.49594136305E+03  0.49844101073E+03  0.00000000000E+00 0. -1.
         11    1    1    2    0    0  0.28790385460E+01 -0.28855960676E+01 -0.10752151719E+03  0.10759875551E+03  0.00000000000E+00 0.  1.
        -15    1    1    2    0    0  0.49604177726E+00 -0.21238472977E+01 -0.11709048392E+03  0.11712427562E+03  0.17770000000E+01 0.  1.
         15    1    1    2    0    0 -0.49914935205E+02  0.22888131984E+02 -0.27132936193E+03  0.27683595814E+03  0.17770000000E+01 0. -1.
</event>
<event>
 6    1  0.1599106E-003  0.4808604E+03  0.7546771E-02  0.9443685E-01
        -11   -1    0    0    0    0  0.00000000000E+00  0.00000000000E+00  0.50000000000E+03  0.50000000000E+03  0.00000000000E+00 0. -1.
         11   -1    0    0    0    0 -0.00000000000E+00 -0.00000000000E+00 -0.50000000000E+03  0.50000000000E+03  0.00000000000E+00 0. -1.
        -11    1    1    2    0    0 -0.85914367234E+01 -0.43092796916E+01  0.47567940847E+03  0.47577650458E+03  0.00000000000E+00 0. -1.
         11    1    1    2    0    0 -0.11951626944E+02 -0.65421228870E+01 -0.48609020693E+03  0.48628112243E+03  0.00000000000E+00 0. -1.
        -15    1    1    2    0    0 -0.94396083189E+00 -0.59130453454E+01  0.85222298794E+01  0.10566044597E+02  0.17770000000E+01 0.  1.
         15    1    1    2    0    0  0.21487024500E+02  0.16764447924E+02  0.18885685808E+01  0.27376328394E+02  0.17770000000E+01 0. -1.
</event>
<event>
 6    1  0.1599106E-003  0.5013462E+03  0.7546771E-02  0.9396803E-01
        -11   -1    0    0    0    0  0.00000000000E+00  0.00000000000E+00  0.50000000000E+03  0.50000000000E+03  0.00000000000E+00 0.  1.
         11   -1    0    0    0    0 -0.00000000000E+00 -0.00000000000E+00 -0.50000000000E+03  0.50000000000E+03  0.00000000000E+00 0. -1.
        -11    1    1    2    0    0  0.11820288797E+02  0.32308751746E+01  0.49850326228E+03  0.49865384816E+03  0.00000000000E+00 0.  1.
         11    1    1    2    0    0 -0.94124337087E+01  0.73864450902E+01 -0.39795643914E+03  0.39813625925E+03  0.00000000000E+00 0. -1.
        -15    1    1    2    0    0  0.34085656771E+01 -0.13609263568E+02 -0.86081134323E+02  0.87235026166E+02  0.17770000000E+01 0. -1.
         15    1    1    2    0    0 -0.58164207653E+01  0.29919433036E+01 -0.14465688819E+02  0.15974866424E+02  0.17770000000E+01 0.  1.
</event>
<event>
 6    1  0.1599106E-003  0.5047026E+03  0.7546771E-02  0.9389348E-01
        -11   -1    0    0    0    0  0.00000000000E+00  0.00000000000E+00  0.50000000000E+03  0.50000000000E+03  0.00000000000E+00 0.  1.
         11   -1    0    0    0    0 -0.00000000000E+00 -0.00000000000E+00 -0.50000000000E+03  0.50000000000E+03  0.00000000000E+00 0. -1.
        -11    1    1    2    0    0  0.16142740140E+01  0.68995654434E+01  0.49524667542E+03  0.49529736461E+03  0.00000000000E+00 0.  1.
         11    1    1    2    0    0  0.53397957312E+01  0.90387537234E+01 -0.47276079893E+03  0.47287734719E+03  0.00000000000E+00 0. -1.
        -15    1    1    2    0    0  0.14418006478E+01 -0.13091699955E+01  0.10306585759E+01  0.28306715255E+01  0.17770000000E+01 0.  1.
         15    1    1    2    0    0 -0.83958703930E+01 -0.14629149171E+02 -0.23516535067E+02  0.28994616667E+02  0.17770000000E+01 0. -1.
</event>
<event>
 6    1  0.1599106E-003  0.4479565E+03  0.7546771E-02  0.9524438E-01
        -11   -1    0    0    0    0  0.00000000000E+00  0.00000000000E+00  0.50000000000E+03  0.50000000000E+03  0.00000000000E+00 0. -1.
         11   -1    0    0    0    0 -0.00000000000E+00 -0.00000000000E+00 -0.50000000000E+03  0.50000000000E+03  0.00000000000E+00 0.  1.
        -11    1    1    2    0    0 -0.24485259853E+02  0.33731950130E+02  0.43233288870E+03  0.43433754047E+03  0.00000000000E+00 0. -1.
         11    1    1    2    0    0  0.43426026227E+02  0.22921299568E+02 -0.46143072160E+03  0.46403611558E+03  0.00000000000E+00 0.  1.
        -15    1    1    2    0    0 -0.10150920546E+02 -0.79892911727E+00 -0.22688796050E+02  0.24932281702E+02  0.17770000000E+01 0. -1.
         15    1    1    2    0    0 -0.87898458284E+01 -0.55854320580E+02  0.51786628949E+02  0.76694062248E+02  0.17770000000E+01 0.  1.
</event>
<event>
 6    1  0.1599106E-003  0.5148760E+03  0.7546771E-02  0.9367125E-01
        -11   -1    0    0    0    0  0.00000000000E+00  0.00000000000E+00  0.50000000000E+03  0.50000000000E+03  0.00000000000E+00 0. -1.
         11   -1    0    0    0    0 -0.00000000000E+00 -0.00000000000E+00 -0.50000000000E+03  0.50000000000E+03  0.00000000000E+00 0.  1.
        -11    1    1    2    0    0  0.31571050466E+02  0.46984118479E+01  0.48407283334E+03  0.48512401948E+03  0.00000000000E+00 0. -1.
         11    1    1    2    0    0  0.38547881637E+01  0.60851446047E+01 -0.38238384435E+03  0.38245168688E+03  0.00000000000E+00 0.  1.
        -15    1    1    2    0    0 -0.23222829438E+01 -0.24793459995E+02 -0.44018621305E+00  0.24969183997E+02  0.17770000000E+01 0. -1.
         15    1    1    2    0    0 -0.33103555686E+02  0.14009903542E+02 -0.10124880277E+03  0.10745510964E+03  0.17770000000E+01 0.  1.
</event>
<event>
 6    1  0.1599106E-003  0.5011590E+03  0.7546771E-02  0.9397220E-01
        -11   -1    0    0    0    0  0.00000000000E+00  0.00000000000E+00  0.50000000000E+03  0.50000000000E+03  0.00000000000E+00 0.  1.
         11   -1    0    0    0    0 -0.00000000000E+00 -0.00000000000E+00 -0.50000000000E+03  0.50000000000E+03  0.00000000000E+00 0. -1.
        -11    1    1    2    0    0  0.74549854870E+01 -0.67428758005E+00  0.44550909296E+03  0.44557197330E+03  0.00000000000E+00 0.  1.
         11    1    1    2    0    0 -0.41970013409E+01 -0.11256573542E+02 -0.49869627078E+03  0.49884095236E+03  0.00000000000E+00 0. -1.
        -15    1    1    2    0    0 -0.38991768562E+01  0.34738453837E+01  0.35105072738E+02  0.35535827594E+02  0.17770000000E+01 0.  1.
         15    1    1    2    0    0  0.64119271005E+00  0.84570157385E+01  0.18082105073E+02  0.20051246749E+02  0.17770000000E+01 0. -1.
</event>
<event>
 6    1  0.1599106E-003  0.5050484E+03  0.7546771E-02  0.9388584E-01
        -11   -1    0    0    0    0  0.00000000000E+00  0.00000000000E+00  0.50000000000E+03  0.50000000000E+03  0.00000000000E+00 0. -1.
         11   -1    0    0    0    0 -0.00000000000E+00 -0.00000000000E+00 -0.50000000000E+03  0.50000000000E+03  0.00000000000E+00 0.  1.
        -11    1    1    2    0    0 -0.80067267225E+01  0.23854739561E+01  0.49488106212E+03  0.49495157724E+03  0.00000000000E+00 0. -1.
         11    1    1    2    0    0 -0.14167917740E+02 -0.83430576208E+01 -0.41905033094E+03  0.41937276541E+03  0.00000000000E+00 0.  1.
        -15    1    1    2    0    0  0.18783917264E+02  0.17569844094E+02 -0.38019420185E+02  0.45936575944E+02  0.17770000000E+01 0. -1.
         15    1    1    2    0    0  0.33907271992E+01 -0.11612260430E+02 -0.37811310998E+02  0.39739081414E+02  0.17770000000E+01 0.  1.
</event>
<event>
 6    1  0.1599106E-003  0.5002200E+03  0.7546771E-02  0.9399318E-01
        -11   -1    0    0    0    0  0.00000000000E+00  0.00000000000E+00  0.50000000000E+03  0.50000000000E+03  0.00000000000E+00 0.  1.
         11   -1    0    0    0    0 -0.00000000000E+00 -0.00000000000E+00 -0.50000000000E+03  0.50000000000E+03  0.00000000000E+00 0. -1.
        -11    1    1    2    0    0  0.60053300349E+01  0.71666034997E+01  0.49969251196E+03  0.49977998230E+03  0.00000000000E+00 0.  1.
         11    1    1    2    0    0  0.28301498957E+01 -0.24679694706E+01 -0.26536913405E+03  0.26539570066E+03  0.00000000000E+00 0. -1.
        -15    1    1    2    0    0 -0.70271130264E+01 -0.40923841392E+01 -0.71929893086E+02  0.72409910742E+02  0.17770000000E+01 0. -1.
         15    1    1    2    0    0 -0.18083669043E+01 -0.60624988990E+00 -0.16239348482E+03  0.16241440629E+03  0.17770000000E+01 0.  1.
</event>
<event>
 6    1  0.1599106E-003  0.5054152E+03  0.7546771E-02  0.9387774E-01
        -11   -1    0    0    0    0  0.00000000000E+00  0.00000000000E+00  0.50000000000E+03  0.50000000000E+03  0.00000000000E+00 0.  1.
         11   -1    0    0    0    0 -0.00000000000E+00 -0.00000000000E+00 -0.50000000000E+03  0.50000000000E+03  0.00000000000E+00 0. -1.
        -11    1    1    2    0    0  0.92813357359E+01 -0.39382874685E+01  0.49448203613E+03  0.49458481310E+03  0.00000000000E+00 0.  1.
         11    1    1    2    0    0  0.48890913259E+01 -0.56853013517E+01 -0.47703212657E+03  0.47709105592E+03  0.00000000000E+00 0. -1.
        -15    1    1    2    0    0 -0.63915995844E+01 -0.25050319915E+01 -0.25899432162E+01  0.75493884116E+01  0.17770000000E+01 0.  1.
         15    1    1    2    0    0 -0.77788274774E+01  0.12128620812E+02 -0.14859966345E+02  0.20774742562E+02  0.17770000000E+01 0. -1.
</event>
<event>
 6    1  0.1599106E-003  0.5050099E+03  0.7546771E-02  0.9388669E-01
        -11   -1    0    0    0    0  0.00000000000E+00  0.00000000000E+00  0.50000000000E+03  0.50000000000E+03  0.00000000000E+00 0. -1.
         11   -1    0    0    0    0 -0.00000000000E+00 -0.00000000000E+00 -0.50000000000E+03  0.50000000000E+03  0.00000000000E+00 0. -1.
        -11    1    1    2    0    0 -0.16961980200E+01 -0.67759237318E+01  0.49494079770E+03  0.49499008420E+03  0.00000000000E+00 0. -1.
         11    1    1    2    0    0  0.57034630181E+01 -0.58972304655E+01 -0.41684911293E+03  0.41692983795E+03  0.00000000000E+00 0. -1.
        -15    1    1    2    0    0 -0.79331505254E+01  0.11951115321E+02 -0.81353434093E+02  0.82627495438E+02  0.17770000000E+01 0. -1.
         15    1    1    2    0    0  0.39258855273E+01  0.72203887641E+00  0.32617493297E+01  0.54525824159E+01  0.17770000000E+01 0.  1.
</event>
<event>
 6    1  0.1599106E-003  0.5015879E+03  0.7546771E-02  0.9396264E-01
        -11   -1    0    0    0    0  0.00000000000E+00  0.00000000000E+00  0.50000000000E+03  0.50000000000E+03  0.00000000000E+00 0. -1.
         11   -1    0    0    0    0 -0.00000000000E+00 -0.00000000000E+00 -0.50000000000E+03  0.50000000000E+03  0.00000000000E+00 0.  1.
        -11    1    1    2    0    0  0.82205115068E+01  0.41839855976E+01  0.49832676338E+03  0.49841212430E+03  0.00000000000E+00 0. -1.
         11    1    1    2    0    0 -0.80308210261E+01  0.35806143745E+01 -0.43815656603E+03  0.43824478461E+03  0.00000000000E+00 0.  1.
        -15    1    1    2    0    0 -0.34489449896E+01 -0.25135372778E+01 -0.54715788439E+02  0.54910730506E+02  0.17770000000E+01 0.  1.
         15    1    1    2    0    0  0.32592545088E+01 -0.52510626942E+01 -0.54544089154E+01  0.84323605822E+01  0.17770000000E+01 0. -1.
</event>
<event>
 6    1  0.1599106E-003  0.5006996E+03  0.7546771E-02  0.9398246E-01
        -11   -1    0    0    0    0  0.00000000000E+00  0.00000000000E+00  0.50000000000E+03  0.50000000000E+03  0.00000000000E+00 0. -1.
         11   -1    0    0    0    0 -0.00000000000E+00 -0.00000000000E+00 -0.50000000000E+03  0.50000000000E+03  0.00000000000E+00 0.  1.
        -11    1    1    2    0    0 -0.48908405791E+01  0.69403778655E+01  0.22914162543E+03  0.22929887411E+03  0.00000000000E+00 0. -1.
         11    1    1    2    0    0  0.21096977492E+01  0.11921281984E+02 -0.49915355792E+03  0.49930035267E+03  0.00000000000E+00 0.  1.
        -15    1    1    2    0    0 -0.44842571710E+01 -0.19268751362E+02  0.18727842558E+03  0.18832886067E+03  0.17770000000E+01 0. -1.
         15    1    1    2    0    0  0.72654000009E+01  0.40709151294E+00  0.82733506908E+02  0.83071912552E+02  0.17770000000E+01 0.  1.
</event>
<event>
 6    1  0.1599106E-003  0.5066464E+03  0.7546771E-02  0.9385060E-01
        -11   -1    0    0    0    0  0.00000000000E+00  0.00000000000E+00  0.50000000000E+03  0.50000000000E+03  0.00000000000E+00 0. -1.
         11   -1    0    0    0    0 -0.00000000000E+00 -0.00000000000E+00 -0.50000000000E+03  0.50000000000E+03  0.00000000000E+00 0.  1.
        -11    1    1    2    0    0 -0.17869284131E+01 -0.10664511393E+02  0.49323511014E+03  0.49335362448E+03  0.00000000000E+00 0. -1.
         11    1    1    2    0    0 -0.62779623186E+01  0.40375592032E+01 -0.19882325829E+03  0.19896332007E+03  0.00000000000E+00 0.  1.
        -15    1    1    2    0    0  0.19344313896E+02 -0.21026907968E+02 -0.29570275905E+02  0.41156922685E+02  0.17770000000E+01 0. -1.
         15    1    1    2    0    0 -0.11279423164E+02  0.27653860158E+02 -0.26484157594E+03  0.26652613276E+03  0.17770000000E+01 0.  1.
</event>
<event>
 6    1  0.1599106E-003  0.5182442E+03  0.7546771E-02  0.9359887E-01
        -11   -1    0    0    0    0  0.00000000000E+00  0.00000000000E+00  0.50000000000E+03  0.50000000000E+03  0.00000000000E+00 0. -1.
         11   -1    0    0    0    0 -0.00000000000E+00 -0.00000000000E+00 -0.50000000000E+03  0.50000000000E+03  0.00000000000E+00 0.  1.
        -11    1    1    2    0    0  0.36994719965E+01  0.37964651065E+02  0.42261588972E+03  0.42433382032E+03  0.00000000000E+00 0. -1.
         11    1    1    2    0    0 -0.18570570561E+02  0.10364539146E+02 -0.48128614186E+03  0.48175578887E+03  0.00000000000E+00 0.  1.
        -15    1    1    2    0    0 -0.16240454302E+01 -0.50666358008E+02  0.58127587329E+02  0.77147206657E+02  0.17770000000E+01 0. -1.
         15    1    1    2    0    0  0.16495143994E+02  0.23371677977E+01  0.54266481426E+00  0.16763184149E+02  0.17770000000E+01 0.  1.
</event>
<event>
 6    1  0.1599106E-003  0.5175768E+03  0.7546771E-02  0.9361317E-01
        -11   -1    0    0    0    0  0.00000000000E+00  0.00000000000E+00  0.50000000000E+03  0.50000000000E+03  0.00000000000E+00 0.  1.
         11   -1    0    0    0    0 -0.00000000000E+00 -0.00000000000E+00 -0.50000000000E+03  0.50000000000E+03  0.00000000000E+00 0. -1.
        -11    1    1    2    0    0 -0.13217338385E+02  0.36925922131E+01  0.47021605528E+03  0.47041627513E+03  0.00000000000E+00 0.  1.
         11    1    1    2    0    0  0.48360833051E+01 -0.47669472807E+01 -0.48237536965E+03  0.48242316355E+03  0.00000000000E+00 0. -1.
        -15    1    1    2    0    0  0.11807283520E+02 -0.13805836307E+00  0.28196630184E+02  0.30620886450E+02  0.17770000000E+01 0.  1.
         15    1    1    2    0    0 -0.34260284394E+01  0.12124134307E+01 -0.16037315809E+02  0.16539674862E+02  0.17770000000E+01 0.  1.
</event>
<event>
 6    1  0.1599106E-003  0.5009908E+03  0.7546771E-02  0.9397596E-01
        -11   -1    0    0    0    0  0.00000000000E+00  0.00000000000E+00  0.50000000000E+03  0.50000000000E+03  0.00000000000E+00 0.  1.
         11   -1    0    0    0    0 -0.00000000000E+00 -0.00000000000E+00 -0.50000000000E+03  0.50000000000E+03  0.00000000000E+00 0. -1.
        -11    1    1    2    0    0 -0.13204523625E+02 -0.24368213215E+02  0.49823894445E+03  0.49900923340E+03  0.00000000000E+00 0.  1.
         11    1    1    2    0    0 -0.28072475398E+01 -0.34048910001E+01 -0.44840489786E+02  0.45057113153E+02  0.00000000000E+00 0. -1.
        -15    1    1    2    0    0 -0.11747932848E+01  0.43097594088E+01 -0.64918389209E+01  0.80781103606E+01  0.17770000000E+01 0.  1.
         15    1    1    2    0    0  0.17186564450E+02  0.23463344806E+02 -0.44690661574E+03  0.44785554308E+03  0.17770000000E+01 0. -1.
</event>
<event>
 6    1  0.1599106E-003  0.5288810E+03  0.7546771E-02  0.9337408E-01
        -11   -1    0    0    0    0  0.00000000000E+00  0.00000000000E+00  0.50000000000E+03  0.50000000000E+03  0.00000000000E+00 0. -1.
         11   -1    0    0    0    0 -0.00000000000E+00 -0.00000000000E+00 -0.50000000000E+03  0.50000000000E+03  0.00000000000E+00 0.  1.
        -11    1    1    2    0    0  0.64122621464E+01 -0.21097801200E+01  0.47107064389E+03  0.47111900812E+03  0.00000000000E+00 0. -1.
         11    1    1    2    0    0 -0.24688191953E+01 -0.19780418043E+02 -0.45573459337E+03  0.45617034055E+03  0.00000000000E+00 0.  1.
        -15    1    1    2    0    0  0.73080682491E+01 -0.84111138318E+01 -0.33668216410E+02  0.35508607726E+02  0.17770000000E+01 0. -1.
         15    1    1    2    0    0 -0.11251511200E+02  0.30301311995E+02  0.18332165890E+02  0.37202043601E+02  0.17770000000E+01 0.  1.
</event>
<event>
 6    1  0.1599106E-003  0.5025414E+03  0.7546771E-02  0.9394141E-01
        -11   -1    0    0    0    0  0.00000000000E+00  0.00000000000E+00  0.50000000000E+03  0.50000000000E+03  0.00000000000E+00 0. -1.
         11   -1    0    0    0    0 -0.00000000000E+00 -0.00000000000E+00 -0.50000000000E+03  0.50000000000E+03  0.00000000000E+00 0.  1.
        -11    1    1    2    0    0 -0.46178025056E+01 -0.16317118594E+01  0.32018380120E+03  0.32022125653E+03  0.00000000000E+00 0. -1.
         11    1    1    2    0    0  0.27535837472E+01 -0.66233288279E+01 -0.49740686333E+03  0.49745857957E+03  0.00000000000E+00 0.  1.
        -15    1    1    2    0    0  0.55832451188E+00  0.11651815892E+02  0.11268019986E+02  0.16315714610E+02  0.17770000000E+01 0. -1.
         15    1    1    2    0    0  0.13058942465E+01 -0.33967752043E+01  0.16595504214E+03  0.16600444929E+03  0.17770000000E+01 0. -1.
</event>
<event>
 6    1  0.1599106E-003  0.4653770E+03  0.7546771E-02  0.9480798E-01
        -11   -1    0    0    0    0  0.00000000000E+00  0.00000000000E+00  0.50000000000E+03  0.50000000000E+03  0.00000000000E+00 0.  1.
         11   -1    0    0    0    0 -0.00000000000E+00 -0.00000000000E+00 -0.50000000000E+03  0.50000000000E+03  0.00000000000E+00 0. -1.
        -11    1    1    2    0    0  0.43434234379E+01 -0.22888529900E+02  0.45980444955E+03  0.46039426794E+03  0.00000000000E+00 0.  1.
         11    1    1    2    0    0  0.25336268367E+02  0.24671093484E+01 -0.47042912536E+03  0.47111736872E+03  0.00000000000E+00 0. -1.
        -15    1    1    2    0    0 -0.37137923029E+02 -0.89849571713E+00 -0.92784321120E+01  0.38331183819E+02  0.17770000000E+01 0. -1.
         15    1    1    2    0    0  0.74582312238E+01  0.21319916268E+02  0.19903107920E+02  0.30157179519E+02  0.17770000000E+01 0.  1.
</event>
<event>
 6    1  0.1599106E-003  0.4780985E+03  0.7546771E-02  0.9450195E-01
        -11   -1    0    0    0    0  0.00000000000E+00  0.00000000000E+00  0.50000000000E+03  0.50000000000E+03  0.00000000000E+00 0. -1.
         11   -1    0    0    0    0 -0.00000000000E+00 -0.00000000000E+00 -0.50000000000E+03  0.50000000000E+03  0.00000000000E+00 0. -1.
        -11    1    1    2    0    0  0.86182681845E+01 -0.59446146682E+00  0.47358162191E+03  0.47366040635E+03  0.00000000000E+00 0. -1.
         11    1    1    2    0    0  0.68824862883E+01  0.81435954932E+01 -0.48261698372E+03  0.48273475091E+03  0.00000000000E+00 0. -1.
        -15    1    1    2    0    0  0.11761745939E+02 -0.80583732944E+01  0.75710865124E+01  0.16240539636E+02  0.17770000000E+01 0. -1.
         15    1    1    2    0    0 -0.27262500412E+02  0.50923926799E+00  0.14642752948E+01  0.27364303106E+02  0.17770000000E+01 0.  1.
</event>
<event>
 6    1  0.1599106E-003  0.5002300E+03  0.7546771E-02  0.9399295E-01
        -11   -1    0    0    0    0  0.00000000000E+00  0.00000000000E+00  0.50000000000E+03  0.50000000000E+03  0.00000000000E+00 0.  1.
         11   -1    0    0    0    0 -0.00000000000E+00 -0.00000000000E+00 -0.50000000000E+03  0.50000000000E+03  0.00000000000E+00 0.  1.
        -11    1    1    2    0    0  0.15147073220E+01  0.20650857109E+01  0.10307565069E+03  0.10310746182E+03  0.00000000000E+00 0.  1.
         11    1    1    2    0    0 -0.64098968897E+00  0.69691268698E+01 -0.49972095830E+03  0.49976996284E+03  0.00000000000E+00 0.  1.
        -15    1    1    2    0    0  0.43988290267E+01  0.22763216712E+01  0.20258436537E+03  0.20265269344E+03  0.17770000000E+01 0.  1.
         15    1    1    2    0    0 -0.52725466598E+01 -0.11310534252E+02  0.19406094224E+03  0.19446988190E+03  0.17770000000E+01 0. -1.
</event>
<event>
 6    1  0.1869573E-003  0.5000972E+03  0.7546771E-02  0.9399592E-01
        -11   -1    0    0    0    0  0.00000000000E+00  0.00000000000E+00  0.50000000000E+03  0.50000000000E+03  0.00000000000E+00 0. -1.
         11   -1    0    0    0    0 -0.00000000000E+00 -0.00000000000E+00 -0.50000000000E+03  0.50000000000E+03  0.00000000000E+00 0. -1.
        -11    1    1    2    0    0  0.68784662711E+01 -0.55318909831E+01  0.49982485957E+03  0.49990279591E+03  0.00000000000E+00 0. -1.
         11    1    1    2    0    0  0.19240421636E+00  0.68088343905E+00 -0.21744215476E+02  0.21755724035E+02  0.00000000000E+00 0. -1.
        -15    1    1    2    0    0 -0.45585126134E+01 -0.33102099159E+01 -0.11086400200E+03  0.11102126912E+03  0.17770000000E+01 0.  1.
         15    1    1    2    0    0 -0.25123578741E+01  0.81612174600E+01 -0.36721664209E+03  0.36732021094E+03  0.17770000000E+01 0. -1.
</event>
<event>
 6    1  0.1733775E-003  0.5036818E+03  0.7546771E-02  0.9391609E-01
        -11   -1    0    0    0    0  0.00000000000E+00  0.00000000000E+00  0.50000000000E+03  0.50000000000E+03  0.00000000000E+00 0.  1.
         11   -1    0    0    0    0 -0.00000000000E+00 -0.00000000000E+00 -0.50000000000E+03  0.50000000000E+03  0.00000000000E+00 0. -1.
        -11    1    1    2    0    0  0.16560231532E+01  0.50424102724E+01  0.33638501698E+03  0.33642688353E+03  0.00000000000E+00 0.  1.
         11    1    1    2    0    0  0.19951878149E+01 -0.82227950979E+01 -0.49624603909E+03  0.49631817058E+03  0.00000000000E+00 0. -1.
        -15    1    1    2    0    0 -0.84864789660E+00 -0.40501289369E+01  0.15920893105E+03  0.15927261285E+03  0.17770000000E+01 0.  1.
         15    1    1    2    0    0 -0.28025630715E+01  0.72305137624E+01  0.65209105047E+00  0.79823330409E+01  0.17770000000E+01 0.  1.
</event>
<event>
 6    1  0.1599106E-003  0.5041966E+03  0.7546771E-02  0.9390468E-01
        -11   -1    0    0    0    0  0.00000000000E+00  0.00000000000E+00  0.50000000000E+03  0.50000000000E+03  0.00000000000E+00 0. -1.
         11   -1    0    0    0    0 -0.00000000000E+00 -0.00000000000E+00 -0.50000000000E+03  0.50000000000E+03  0.00000000000E+00 0.  1.
        -11    1    1    2    0    0  0.73655287773E+01  0.11658857198E+01  0.49061453935E+03  0.49067121021E+03  0.00000000000E+00 0. -1.
         11    1    1    2    0    0 -0.39662346789E+01 -0.61079072750E+01 -0.49574990617E+03  0.49580339553E+03  0.00000000000E+00 0.  1.
        -15    1    1    2    0    0  0.48776520126E+00  0.72048166031E+01  0.18022830627E+01  0.76520095670E+01  0.17770000000E+01 0. -1.
         15    1    1    2    0    0 -0.38870592997E+01 -0.22627950479E+01  0.33330837601E+01  0.58733846954E+01  0.17770000000E+01 0.  1.
</event>
<event>
 6    1  0.1599106E-003  0.5006293E+03  0.7546771E-02  0.9398403E-01
        -11   -1    0    0    0    0  0.00000000000E+00  0.00000000000E+00  0.50000000000E+03  0.50000000000E+03  0.00000000000E+00 0.  1.
         11   -1    0    0    0    0 -0.00000000000E+00 -0.00000000000E+00 -0.50000000000E+03  0.50000000000E+03  0.00000000000E+00 0.  1.
        -11    1    1    2    0    0  0.16896924080E+01  0.90440082532E+01  0.49928589148E+03  0.49937065450E+03  0.00000000000E+00 0.  1.
         11    1    1    2    0    0  0.52457849684E+01  0.69561893618E-01 -0.34091560876E+03  0.34095597281E+03  0.00000000000E+00 0.  1.
        -15    1    1    2    0    0 -0.36837283846E+01 -0.10872652632E+02 -0.14890571632E+03  0.14935814176E+03  0.17770000000E+01 0. -1.
         15    1    1    2    0    0 -0.32517489919E+01  0.17590824848E+01 -0.94645664011E+01  0.10315230916E+02  0.17770000000E+01 0.  1.
</event>
<event>
 6    1  0.1599106E-003  0.5001220E+03  0.7546771E-02  0.9399537E-01
        -11   -1    0    0    0    0  0.00000000000E+00  0.00000000000E+00  0.50000000000E+03  0.50000000000E+03  0.00000000000E+00 0. -1.
         11   -1    0    0    0    0 -0.00000000000E+00 -0.00000000000E+00 -0.50000000000E+03  0.50000000000E+03  0.00000000000E+00 0.  1.
        -11    1    1    2    0    0 -0.75436984234E+00  0.11097016262E+01  0.87093227531E+02  0.87103563609E+02  0.00000000000E+00 0. -1.
         11    1    1    2    0    0  0.48829399583E+01  0.16086603822E+02 -0.49959527443E+03  0.49987804528E+03  0.00000000000E+00 0.  1.
        -15    1    1    2    0    0 -0.88770624231E+00 -0.38091038859E+01  0.20845375453E+03  0.20849801630E+03  0.17770000000E+01 0. -1.
         15    1    1    2    0    0 -0.32408638736E+01 -0.13387201562E+02  0.20404829236E+03  0.20452037480E+03  0.17770000000E+01 0. -1.
</event>
<event>
 6    1  0.1599106E-003  0.5241005E+03  0.7546771E-02  0.9347441E-01
        -11   -1    0    0    0    0  0.00000000000E+00  0.00000000000E+00  0.50000000000E+03  0.50000000000E+03  0.00000000000E+00 0.  1.
         11   -1    0    0    0    0 -0.00000000000E+00 -0.00000000000E+00 -0.50000000000E+03  0.50000000000E+03  0.00000000000E+00 0.  1.
        -11    1    1    2    0    0  0.86935208544E+01  0.36401014039E+01  0.88826837489E+02  0.89325442632E+02  0.00000000000E+00 0.  1.
         11    1    1    2    0    0 -0.54848847473E+01  0.75960431837E+01 -0.47580728901E+03  0.47589952733E+03  0.00000000000E+00 0.  1.
        -15    1    1    2    0    0 -0.25620686545E+02  0.30791305366E+02 -0.45507873908E+01  0.40353332701E+02  0.17770000000E+01 0. -1.
         15    1    1    2    0    0  0.22412050438E+02 -0.42027449953E+02  0.39153123892E+03  0.39442169734E+03  0.17770000000E+01 0.  1.
</event>
<event>
 6    1  0.1599106E-003  0.5036562E+03  0.7546771E-02  0.9391666E-01
        -11   -1    0    0    0    0  0.00000000000E+00  0.00000000000E+00  0.50000000000E+03  0.50000000000E+03  0.00000000000E+00 0.  1.
         11   -1    0    0    0    0 -0.00000000000E+00 -0.00000000000E+00 -0.50000000000E+03  0.50000000000E+03  0.00000000000E+00 0. -1.
        -11    1    1    2    0    0 -0.37589980935E+01  0.62788612080E+01  0.49628983609E+03  0.49634378768E+03  0.00000000000E+00 0.  1.
         11    1    1    2    0    0 -0.92991482607E+01  0.65191318539E+01 -0.46689006251E+03  0.46702816158E+03  0.00000000000E+00 0. -1.
        -15    1    1    2    0    0  0.98214312019E+00 -0.52891610005E+00  0.42963855172E+00  0.21416525476E+01  0.17770000000E+01 0. -1.
         15    1    1    2    0    0  0.12076003234E+02 -0.12269076962E+02 -0.29829412128E+02  0.34486398195E+02  0.17770000000E+01 0.  1.
</event>
<event>
 6    1  0.1599106E-003  0.5052096E+03  0.7546771E-02  0.9388228E-01
        -11   -1    0    0    0    0  0.00000000000E+00  0.00000000000E+00  0.50000000000E+03  0.50000000000E+03  0.00000000000E+00 0. -1.
         11   -1    0    0    0    0 -0.00000000000E+00 -0.00000000000E+00 -0.50000000000E+03  0.50000000000E+03  0.00000000000E+00 0.  1.
        -11    1    1    2    0    0 -0.15959305650E+02  0.33924208286E+02  0.49336798971E+03  0.49479038452E+03  0.00000000000E+00 0. -1.
         11    1    1    2    0    0  0.53925332789E+01  0.15587046369E+01 -0.32101279502E+03  0.32106186871E+03  0.00000000000E+00 0.  1.
        -15    1    1    2    0    0  0.23150458850E+01  0.11218434619E+02 -0.11082450864E+02  0.16037180516E+02  0.17770000000E+01 0. -1.
         15    1    1    2    0    0  0.82517264859E+01 -0.46701347542E+02 -0.16127274383E+03  0.16811056625E+03  0.17770000000E+01 0.  1.
</event>
<event>
 6    1  0.1599106E-003  0.5035394E+03  0.7546771E-02  0.9391925E-01
        -11   -1    0    0    0    0  0.00000000000E+00  0.00000000000E+00  0.50000000000E+03  0.50000000000E+03  0.00000000000E+00 0. -1.
         11   -1    0    0    0    0 -0.00000000000E+00 -0.00000000000E+00 -0.50000000000E+03  0.50000000000E+03  0.00000000000E+00 0.  1.
        -11    1    1    2    0    0 -0.66330981013E+01  0.13312936824E+02  0.45921214954E+03  0.45945296883E+03  0.00000000000E+00 0. -1.
         11    1    1    2    0    0  0.39772045241E+01  0.69915831311E+01 -0.49639538468E+03  0.49646055062E+03  0.00000000000E+00 0.  1.
        -15    1    1    2    0    0  0.16664333449E+01 -0.18041538435E+02  0.36751319657E+02  0.41013306801E+02  0.17770000000E+01 0. -1.
         15    1    1    2    0    0  0.98946023228E+00 -0.22629815197E+01  0.43191548692E+00  0.30731737500E+01  0.17770000000E+01 0.  1.
</event>
<event>
 6    1  0.1599106E-003  0.5069603E+03  0.7546771E-02  0.9384369E-01
        -11   -1    0    0    0    0  0.00000000000E+00  0.00000000000E+00  0.50000000000E+03  0.50000000000E+03  0.00000000000E+00 0.  1.
         11   -1    0    0    0    0 -0.00000000000E+00 -0.00000000000E+00 -0.50000000000E+03  0.50000000000E+03  0.00000000000E+00 0. -1.
        -11    1    1    2    0    0  0.62605205157E+01 -0.54874915002E+01  0.47265015815E+03  0.47272346957E+03  0.00000000000E+00 0.  1.
         11    1    1    2    0    0  0.90796610998E+01 -0.92823364687E+00 -0.49295517163E+03  0.49303965672E+03  0.00000000000E+00 0. -1.
        -15    1    1    2    0    0 -0.73798406722E+01 -0.20040621440E+01  0.21074277984E+02  0.22489135932E+02  0.17770000000E+01 0. -1.
         15    1    1    2    0    0 -0.79603409433E+01  0.84197872911E+01 -0.76926450477E+00  0.11747737775E+02  0.17770000000E+01 0.  1.
</event>
<event>
 6    1  0.1599106E-003  0.5004946E+03  0.7546771E-02  0.9398704E-01
        -11   -1    0    0    0    0  0.00000000000E+00  0.00000000000E+00  0.50000000000E+03  0.50000000000E+03  0.00000000000E+00 0. -1.
         11   -1    0    0    0    0 -0.00000000000E+00 -0.00000000000E+00 -0.50000000000E+03  0.50000000000E+03  0.00000000000E+00 0. -1.
        -11    1    1    2    0    0  0.44595042975E+01 -0.17848209878E+01  0.11248669072E+03  0.11258920176E+03  0.00000000000E+00 0. -1.
         11    1    1    2    0    0  0.72162606932E+01  0.61372530869E+01 -0.49941551512E+03  0.49950535236E+03  0.00000000000E+00 0. -1.
        -15    1    1    2    0    0 -0.91310264223E+01  0.16059717555E+01  0.36090395013E+03  0.36102738641E+03  0.17770000000E+01 0. -1.
         15    1    1    2    0    0 -0.25447385684E+01 -0.59584038545E+01  0.26024874269E+02  0.26878059465E+02  0.17770000000E+01 0.  1.
</event>
<event>
 6    1  0.1599106E-003  0.4863878E+03  0.7546771E-02  0.9430794E-01
        -11   -1    0    0    0    0  0.00000000000E+00  0.00000000000E+00  0.50000000000E+03  0.50000000000E+03  0.00000000000E+00 0. -1.
         11   -1    0    0    0    0 -0.00000000000E+00 -0.00000000000E+00 -0.50000000000E+03  0.50000000000E+03  0.00000000000E+00 0. -1.
        -11    1    1    2    0    0  0.87393816123E+01 -0.10263571441E+02  0.48002828181E+03  0.48021752261E+03  0.00000000000E+00 0. -1.
         11    1    1    2    0    0 -0.81239250954E+01 -0.10961442278E+02 -0.49268314401E+03  0.49287202372E+03  0.00000000000E+00 0. -1.
        -15    1    1    2    0    0  0.15379085332E-01  0.61025355470E+01  0.93675743512E+01  0.11320351357E+02  0.17770000000E+01 0.  1.
         15    1    1    2    0    0 -0.63083560224E+00  0.15122478172E+02  0.32872878526E+01  0.15590102310E+02  0.17770000000E+01 0. -1.
</event>
<event>
 6    1  0.1599106E-003  0.5177489E+03  0.7546771E-02  0.9360948E-01
        -11   -1    0    0    0    0  0.00000000000E+00  0.00000000000E+00  0.50000000000E+03  0.50000000000E+03  0.00000000000E+00 0.  1.
         11   -1    0    0    0    0 -0.00000000000E+00 -0.00000000000E+00 -0.50000000000E+03  0.50000000000E+03  0.00000000000E+00 0. -1.
        -11    1    1    2    0    0  0.39540069793E+02 -0.10442678892E+02  0.48051392365E+03  0.48225107308E+03  0.00000000000E+00 0.  1.
         11    1    1    2    0    0 -0.22269041524E+01  0.57682667578E+01 -0.44360910309E+03  0.44365219299E+03  0.00000000000E+00 0. -1.
        -15    1    1    2    0    0 -0.35796499697E+02  0.57671866468E+01  0.79349694995E+00  0.36310290535E+02  0.17770000000E+01 0.  1.
         15    1    1    2    0    0 -0.15166659440E+01 -0.10927745130E+01 -0.37698317518E+02  0.37786443394E+02  0.17770000000E+01 0. -1.
</event>
<event>
 6    1  0.1599106E-003  0.5082723E+03  0.7546771E-02  0.9381488E-01
        -11   -1    0    0    0    0  0.00000000000E+00  0.00000000000E+00  0.50000000000E+03  0.50000000000E+03  0.00000000000E+00 0. -1.
         11   -1    0    0    0    0 -0.00000000000E+00 -0.00000000000E+00 -0.50000000000E+03  0.50000000000E+03  0.00000000000E+00 0. -1.
        -11    1    1    2    0    0  0.77026746961E+01  0.66711678267E+01  0.49162214165E+03  0.49172773548E+03  0.00000000000E+00 0. -1.
         11    1    1    2    0    0  0.39257745491E+01 -0.21407147508E+02 -0.46592951986E+03  0.46643755761E+03  0.00000000000E+00 0. -1.
        -15    1    1    2    0    0 -0.87613194080E+01  0.18302671965E+02 -0.29340982796E+02  0.35718335897E+02  0.17770000000E+01 0.  1.
         15    1    1    2    0    0 -0.28671298371E+01 -0.35666922838E+01  0.36483610102E+01  0.61163710164E+01  0.17770000000E+01 0. -1.
</event>
<event>
 6    1  0.1599106E-003  0.5067978E+03  0.7546771E-02  0.9384726E-01
        -11   -1    0    0    0    0  0.00000000000E+00  0.00000000000E+00  0.50000000000E+03  0.50000000000E+03  0.00000000000E+00 0.  1.
         11   -1    0    0    0    0 -0.00000000000E+00 -0.00000000000E+00 -0.50000000000E+03  0.50000000000E+03  0.00000000000E+00 0.  1.
        -11    1    1    2    0    0 -0.41007584189E+01 -0.80110926517E+01  0.40024274772E+03  0.40034391581E+03  0.00000000000E+00 0.  1.
         11    1    1    2    0    0 -0.62913177328E+01  0.71954169317E+01 -0.49310955992E+03  0.49320218247E+03  0.00000000000E+00 0.  1.
        -15    1    1    2    0    0  0.59636361498E+01  0.74992868304E+01  0.96841413232E+02  0.97330474698E+02  0.17770000000E+01 0. -1.
         15    1    1    2    0    0  0.44284400020E+01 -0.66836111103E+01 -0.39746010263E+01  0.91234270229E+01  0.17770000000E+01 0.  1.
</event>
<event>
 6    1  0.1599106E-003  0.5076587E+03  0.7546771E-02  0.9382834E-01
        -11   -1    0    0    0    0  0.00000000000E+00  0.00000000000E+00  0.50000000000E+03  0.50000000000E+03  0.00000000000E+00 0. -1.
         11   -1    0    0    0    0 -0.00000000000E+00 -0.00000000000E+00 -0.50000000000E+03  0.50000000000E+03  0.00000000000E+00 0. -1.
        -11    1    1    2    0    0 -0.26261486782E+02  0.22743702311E+02  0.49111400535E+03  0.49234125151E+03  0.00000000000E+00 0. -1.
         11    1    1    2    0    0  0.56897574864E+01  0.10108917358E+02 -0.33068555266E+03  0.33088895160E+03  0.00000000000E+00 0. -1.
        -15    1    1    2    0    0  0.30623825195E+02 -0.14193915736E+02 -0.31843017385E+02  0.46437284575E+02  0.17770000000E+01 0. -1.
         15    1    1    2    0    0 -0.10052095900E+02 -0.18658703933E+02 -0.12858543531E+03  0.13033251232E+03  0.17770000000E+01 0.  1.
</event>
<event>
 6    1  0.2465742E-003  0.4711125E+03  0.7546771E-02  0.9466874E-01
        -11   -1    0    0    0    0  0.00000000000E+00  0.00000000000E+00  0.50000000000E+03  0.50000000000E+03  0.00000000000E+00 0.  1.
         11   -1    0    0    0    0 -0.00000000000E+00 -0.00000000000E+00 -0.50000000000E+03  0.50000000000E+03  0.00000000000E+00 0. -1.
        -11    1    1    2    0    0  0.66757325877E+01  0.11606865461E+01  0.47014897231E+03  0.47019779749E+03  0.00000000000E+00 0.  1.
         11    1    1    2    0    0 -0.24507790485E+01  0.25776993679E+02 -0.47171291849E+03  0.47242304896E+03  0.00000000000E+00 0. -1.
        -15    1    1    2    0    0 -0.28304103781E+01 -0.27970809061E+02 -0.20712356718E+02  0.34964794183E+02  0.17770000000E+01 0. -1.
         15    1    1    2    0    0 -0.13945431611E+01  0.10331288364E+01  0.22276302901E+02  0.22414359365E+02  0.17770000000E+01 0.  1.
</event>
<event>
 6    1  0.1599106E-003  0.5022990E+03  0.7546771E-02  0.9394680E-01
        -11   -1    0    0    0    0  0.00000000000E+00  0.00000000000E+00  0.50000000000E+03  0.50000000000E+03  0.00000000000E+00 0. -1.
         11   -1    0    0    0    0 -0.00000000000E+00 -0.00000000000E+00 -0.50000000000E+03  0.50000000000E+03  0.00000000000E+00 0. -1.
        -11    1    1    2    0    0  0.49004896881E+01  0.37919124266E+01  0.44837429427E+03  0.44841710623E+03  0.00000000000E+00 0. -1.
         11    1    1    2    0    0 -0.40232025746E+01 -0.11230153276E+02 -0.49755802714E+03  0.49770100750E+03  0.00000000000E+00 0. -1.
        -15    1    1    2    0    0  0.23335789925E+01  0.10012453206E+02  0.10030402367E+02  0.14472785176E+02  0.17770000000E+01 0.  1.
         15    1    1    2    0    0 -0.32108661059E+01 -0.25742123566E+01  0.39153330500E+02  0.39409101089E+02  0.17770000000E+01 0. -1.
</event>
<event>
 6    1  0.1599106E-003  0.5051716E+03  0.7546771E-02  0.9388312E-01
        -11   -1    0    0    0    0  0.00000000000E+00  0.00000000000E+00  0.50000000000E+03  0.50000000000E+03  0.00000000000E+00 0.  1.
         11   -1    0    0    0    0 -0.00000000000E+00 -0.00000000000E+00 -0.50000000000E+03  0.50000000000E+03  0.00000000000E+00 0. -1.
        -11    1    1    2    0    0  0.25561884903E+01  0.53273756690E+01  0.34469380002E+03  0.34474444274E+03  0.00000000000E+00 0.  1.
         11    1    1    2    0    0  0.15877048643E+02  0.56637295450E+01 -0.49454114934E+03  0.49482836104E+03  0.00000000000E+00 0. -1.
        -15    1    1    2    0    0 -0.15461297235E+02 -0.86295889242E+01  0.97968091086E+01  0.20313953699E+02  0.17770000000E+01 0.  1.
         15    1    1    2    0    0 -0.29719398986E+01 -0.23615162898E+01  0.14005054021E+03  0.14011324251E+03  0.17770000000E+01 0. -1.
</event>
<event>
 6    1  0.1599106E-003  0.3167538E+03  0.7546771E-02  0.9940445E-01
        -11   -1    0    0    0    0  0.00000000000E+00  0.00000000000E+00  0.50000000000E+03  0.50000000000E+03  0.00000000000E+00 0. -1.
         11   -1    0    0    0    0 -0.00000000000E+00 -0.00000000000E+00 -0.50000000000E+03  0.50000000000E+03  0.00000000000E+00 0.  1.
        -11    1    1    2    0    0  0.10421309830E+02  0.10697871977E+02  0.12897250979E+03  0.12983434232E+03  0.00000000000E+00 0. -1.
         11    1    1    2    0    0  0.12681695059E+02 -0.29604674797E+00 -0.27477345050E+03  0.27506610502E+03  0.00000000000E+00 0.  1.
        -15    1    1    2    0    0 -0.51236152246E+00  0.56113914394E+02  0.36274224036E+03  0.36706147248E+03  0.17770000000E+01 0. -1.
         15    1    1    2    0    0 -0.22590643367E+02 -0.66515739623E+02 -0.21694129966E+03  0.22803808018E+03  0.17770000000E+01 0.  1.
</event>
<event>
 6    1  0.1599106E-003  0.5066443E+03  0.7546771E-02  0.9385064E-01
        -11   -1    0    0    0    0  0.00000000000E+00  0.00000000000E+00  0.50000000000E+03  0.50000000000E+03  0.00000000000E+00 0. -1.
         11   -1    0    0    0    0 -0.00000000000E+00 -0.00000000000E+00 -0.50000000000E+03  0.50000000000E+03  0.00000000000E+00 0. -1.
        -11    1    1    2    0    0  0.81408142157E+01 -0.86836268604E+00  0.45652344006E+03  0.45659684431E+03  0.00000000000E+00 0. -1.
         11    1    1    2    0    0 -0.56165328014E+01  0.36215686005E+01 -0.49331038813E+03  0.49335565289E+03  0.00000000000E+00 0. -1.
        -15    1    1    2    0    0  0.75763216753E+01 -0.74180974067E+01 -0.82651354573E+00  0.10782841597E+02  0.17770000000E+01 0.  1.
         15    1    1    2    0    0 -0.10100603090E+02  0.46648914922E+01  0.37613461620E+02  0.39264661204E+02  0.17770000000E+01 0. -1.
</event>
<event>
 6    1  0.1599106E-003  0.5042669E+03  0.7546771E-02  0.9390312E-01
        -11   -1    0    0    0    0  0.00000000000E+00  0.00000000000E+00  0.50000000000E+03  0.50000000000E+03  0.00000000000E+00 0. -1.
         11   -1    0    0    0    0 -0.00000000000E+00 -0.00000000000E+00 -0.50000000000E+03  0.50000000000E+03  0.00000000000E+00 0. -1.
        -11    1    1    2    0    0 -0.30496118648E+01  0.19064542833E+02  0.49535695606E+03  0.49573306410E+03  0.00000000000E+00 0. -1.
         11    1    1    2    0    0  0.28238105113E+01 -0.45010707654E+01 -0.35527901006E+03  0.35531874216E+03  0.00000000000E+00 0. -1.
        -15    1    1    2    0    0 -0.60840203429E+01  0.73883552332E+00  0.13678751813E+01  0.65261009014E+01  0.17770000000E+01 0.  1.
         15    1    1    2    0    0  0.63098216964E+01 -0.15302307591E+02 -0.14144582118E+03  0.14242209283E+03  0.17770000000E+01 0. -1.
</event>
<event>
 6    1  0.1599106E-003  0.5044077E+03  0.7546771E-02  0.9390001E-01
        -11   -1    0    0    0    0  0.00000000000E+00  0.00000000000E+00  0.50000000000E+03  0.50000000000E+03  0.00000000000E+00 0. -1.
         11   -1    0    0    0    0 -0.00000000000E+00 -0.00000000000E+00 -0.50000000000E+03  0.50000000000E+03  0.00000000000E+00 0. -1.
        -11    1    1    2    0    0 -0.98050882410E+01  0.12259178578E+01  0.47609821570E+03  0.47620074929E+03  0.00000000000E+00 0. -1.
         11    1    1    2    0    0  0.15912245284E+02 -0.10533305029E+02 -0.49522479739E+03  0.49559232240E+03  0.00000000000E+00 0. -1.
        -15    1    1    2    0    0 -0.89363818737E+01  0.11572775569E+02  0.88919310483E+01  0.17205005729E+02  0.17770000000E+01 0. -1.
         15    1    1    2    0    0  0.28292248304E+01 -0.22653883975E+01  0.10234650646E+02  0.11001922585E+02  0.17770000000E+01 0.  1.
</event>
<event>
 6    1  0.1599106E-003  0.5036349E+03  0.7546771E-02  0.9391713E-01
        -11   -1    0    0    0    0  0.00000000000E+00  0.00000000000E+00  0.50000000000E+03  0.50000000000E+03  0.00000000000E+00 0.  1.
         11   -1    0    0    0    0 -0.00000000000E+00 -0.00000000000E+00 -0.50000000000E+03  0.50000000000E+03  0.00000000000E+00 0.  1.
        -11    1    1    2    0    0  0.10003786017E+02 -0.40704493092E+01  0.29991902635E+03  0.30011342299E+03  0.00000000000E+00 0.  1.
         11    1    1    2    0    0  0.10622913972E+02 -0.11901658206E+02 -0.49610864495E+03  0.49636507065E+03  0.00000000000E+00 0.  1.
        -15    1    1    2    0    0 -0.76826214518E+01  0.23417545042E+02  0.42987689047E+02  0.49583295844E+02  0.17770000000E+01 0. -1.
         15    1    1    2    0    0 -0.12944078537E+02 -0.74454375268E+01  0.15320192955E+03  0.15393821052E+03  0.17770000000E+01 0.  1.
</event>
<event>
 6    1  0.1599106E-003  0.5063797E+03  0.7546771E-02  0.9385647E-01
        -11   -1    0    0    0    0  0.00000000000E+00  0.00000000000E+00  0.50000000000E+03  0.50000000000E+03  0.00000000000E+00 0.  1.
         11   -1    0    0    0    0 -0.00000000000E+00 -0.00000000000E+00 -0.50000000000E+03  0.50000000000E+03  0.00000000000E+00 0.  1.
        -11    1    1    2    0    0  0.98415425347E+01 -0.29880971928E+01  0.36890446136E+03  0.36904781032E+03  0.00000000000E+00 0.  1.
         11    1    1    2    0    0  0.85399574660E+01  0.28669832491E+01 -0.49353806635E+03  0.49362027248E+03  0.00000000000E+00 0.  1.
        -15    1    1    2    0    0 -0.43314481174E+01 -0.34419363716E-01 -0.50446809010E+01  0.68825258357E+01  0.17770000000E+01 0. -1.
         15    1    1    2    0    0 -0.14050051883E+02  0.15553330741E+00  0.12967828589E+03  0.13044939137E+03  0.17770000000E+01 0.  1.
</event>
<event>
 6    1  0.1599106E-003  0.5178278E+03  0.7546771E-02  0.9360779E-01
        -11   -1    0    0    0    0  0.00000000000E+00  0.00000000000E+00  0.50000000000E+03  0.50000000000E+03  0.00000000000E+00 0.  1.
         11   -1    0    0    0    0 -0.00000000000E+00 -0.00000000000E+00 -0.50000000000E+03  0.50000000000E+03  0.00000000000E+00 0. -1.
        -11    1    1    2    0    0 -0.62310051759E+01  0.53052364774E+01  0.48210270752E+03  0.48217215967E+03  0.00000000000E+00 0.  1.
         11    1    1    2    0    0  0.15448740756E+02 -0.84442004667E+01 -0.46476127456E+03  0.46509462526E+03  0.00000000000E+00 0. -1.
        -15    1    1    2    0    0  0.37065185834E+01 -0.10660253740E+02  0.12769280713E+02  0.17134513379E+02  0.17770000000E+01 0.  1.
         15    1    1    2    0    0 -0.12924254164E+02  0.13799217729E+02 -0.30110713669E+02  0.35598701694E+02  0.17770000000E+01 0. -1.
</event>
<event>
 6    1  0.1599106E-003  0.5010676E+03  0.7546771E-02  0.9397424E-01
        -11   -1    0    0    0    0  0.00000000000E+00  0.00000000000E+00  0.50000000000E+03  0.50000000000E+03  0.00000000000E+00 0.  1.
         11   -1    0    0    0    0 -0.00000000000E+00 -0.00000000000E+00 -0.50000000000E+03  0.50000000000E+03  0.00000000000E+00 0. -1.
        -11    1    1    2    0    0  0.92387502347E+01  0.61487062990E+01  0.49880893085E+03  0.49893237076E+03  0.00000000000E+00 0.  1.
         11    1    1    2    0    0  0.30243253336E+01 -0.49286184874E+01 -0.38642985938E+03  0.38647312202E+03  0.00000000000E+00 0. -1.
        -15    1    1    2    0    0  0.11143951168E+01  0.16889236922E+01 -0.69411254800E+02  0.69463475018E+02  0.17770000000E+01 0. -1.
         15    1    1    2    0    0 -0.13377470685E+02 -0.29090115038E+01 -0.42967816664E+02  0.45131032203E+02  0.17770000000E+01 0. -1.
</event>
<event>
 6    1  0.1599106E-003  0.5108188E+03  0.7546771E-02  0.9375922E-01
        -11   -1    0    0    0    0  0.00000000000E+00  0.00000000000E+00  0.50000000000E+03  0.50000000000E+03  0.00000000000E+00 0. -1.
         11   -1    0    0    0    0 -0.00000000000E+00 -0.00000000000E+00 -0.50000000000E+03  0.50000000000E+03  0.00000000000E+00 0.  1.
        -11    1    1    2    0    0  0.16265364094E+01 -0.12203388003E+02  0.48902625620E+03  0.48918120114E+03  0.00000000000E+00 0. -1.
         11    1    1    2    0    0 -0.29743686797E+01 -0.57783053960E+01 -0.46471524225E+03  0.46476068257E+03  0.00000000000E+00 0.  1.
        -15    1    1    2    0    0  0.11406237594E+02  0.16871415895E+02 -0.86646732537E+00  0.20461070963E+02  0.17770000000E+01 0.  1.
         15    1    1    2    0    0 -0.10058405323E+02  0.11102775047E+01 -0.23444546621E+02  0.25597045319E+02  0.17770000000E+01 0. -1.
</event>
<event>
 6    1  0.1599106E-003  0.5013713E+03  0.7546771E-02  0.9396747E-01
        -11   -1    0    0    0    0  0.00000000000E+00  0.00000000000E+00  0.50000000000E+03  0.50000000000E+03  0.00000000000E+00 0. -1.
         11   -1    0    0    0    0 -0.00000000000E+00 -0.00000000000E+00 -0.50000000000E+03  0.50000000000E+03  0.00000000000E+00 0. -1.
        -11    1    1    2    0    0 -0.66445475764E+01  0.20759435853E+01  0.49858014082E+03  0.49862873601E+03  0.00000000000E+00 0. -1.
         11    1    1    2    0    0  0.19610341782E+01 -0.63477206168E+01 -0.46792306969E+03  0.46797023234E+03  0.00000000000E+00 0. -1.
        -15    1    1    2    0    0  0.57271576052E+01  0.34423774916E+01 -0.30386417716E+02  0.31163157858E+02  0.17770000000E+01 0.  1.
         15    1    1    2    0    0 -0.10436442070E+01  0.82939953995E+00 -0.27065341941E+00  0.22378737902E+01  0.17770000000E+01 0.  1.
</event>
<event>
 6    1  0.1599106E-003  0.5044984E+03  0.7546771E-02  0.9389800E-01
        -11   -1    0    0    0    0  0.00000000000E+00  0.00000000000E+00  0.50000000000E+03  0.50000000000E+03  0.00000000000E+00 0. -1.
         11   -1    0    0    0    0 -0.00000000000E+00 -0.00000000000E+00 -0.50000000000E+03  0.50000000000E+03  0.00000000000E+00 0. -1.
        -11    1    1    2    0    0 -0.11209516829E+02  0.10607464692E+01  0.45989928909E+03  0.46003710128E+03  0.00000000000E+00 0. -1.
         11    1    1    2    0    0  0.80429662502E+01 -0.68132490237E+00 -0.49543583123E+03  0.49550158060E+03  0.00000000000E+00 0. -1.
        -15    1    1    2    0    0 -0.77040741496E+01  0.60674685649E+01  0.45625904344E+01  0.10960925771E+02  0.17770000000E+01 0.  1.
         15    1    1    2    0    0  0.10870624728E+02 -0.64468901318E+01  0.30973951705E+02  0.33500392349E+02  0.17770000000E+01 0. -1.
</event>
<event>
 6    1  0.1599106E-003  0.5005899E+03  0.7546771E-02  0.9398491E-01
        -11   -1    0    0    0    0  0.00000000000E+00  0.00000000000E+00  0.50000000000E+03  0.50000000000E+03  0.00000000000E+00 0. -1.
         11   -1    0    0    0    0 -0.00000000000E+00 -0.00000000000E+00 -0.50000000000E+03  0.50000000000E+03  0.00000000000E+00 0.  1.
        -11    1    1    2    0    0 -0.88828016810E+01 -0.41010903366E+01  0.43817423150E+03  0.43828344739E+03  0.00000000000E+00 0. -1.
         11    1    1    2    0    0  0.27022542537E+01  0.11998690372E+02 -0.49925859294E+03  0.49941006535E+03  0.00000000000E+00 0.  1.
        -15    1    1    2    0    0  0.83757993686E+00  0.20781356745E+00  0.17902446456E+02  0.18011108926E+02  0.17770000000E+01 0. -1.
         15    1    1    2    0    0  0.53429674905E+01 -0.81054136029E+01  0.43181914979E+02  0.44295378332E+02  0.17770000000E+01 0.  1.
</event>
<event>
 6    1  0.1599106E-003  0.5097572E+03  0.7546771E-02  0.9378238E-01
        -11   -1    0    0    0    0  0.00000000000E+00  0.00000000000E+00  0.50000000000E+03  0.50000000000E+03  0.00000000000E+00 0.  1.
         11   -1    0    0    0    0 -0.00000000000E+00 -0.00000000000E+00 -0.50000000000E+03  0.50000000000E+03  0.00000000000E+00 0. -1.
        -11    1    1    2    0    0  0.80715186708E+01  0.78111018823E+00  0.49017570746E+03  0.49024278039E+03  0.00000000000E+00 0.  1.
         11    1    1    2    0    0  0.68321789993E+01  0.17813353889E+02 -0.46016965253E+03  0.46056498277E+03  0.00000000000E+00 0. -1.
        -15    1    1    2    0    0 -0.12097692894E+02 -0.25285773740E+02 -0.30795608444E+02  0.41680352151E+02  0.17770000000E+01 0.  1.
         15    1    1    2    0    0 -0.28060047762E+01  0.66913096633E+01  0.78955351250E+00  0.75118846879E+01  0.17770000000E+01 0. -1.
</event>
<event>
 6    1  0.1599106E-003  0.5087943E+03  0.7546771E-02  0.9380344E-01
        -11   -1    0    0    0    0  0.00000000000E+00  0.00000000000E+00  0.50000000000E+03  0.50000000000E+03  0.00000000000E+00 0. -1.
         11   -1    0    0    0    0 -0.00000000000E+00 -0.00000000000E+00 -0.50000000000E+03  0.50000000000E+03  0.00000000000E+00 0. -1.
        -11    1    1    2    0    0  0.12329682375E+01  0.68429702877E+01  0.49115646232E+03  0.49120567681E+03  0.00000000000E+00 0. -1.
         11    1    1    2    0    0 -0.13241804389E+02 -0.16020725120E+02 -0.48027174341E+03  0.48072128779E+03  0.00000000000E+00 0. -1.
        -15    1    1    2    0    0  0.38764570865E+00  0.76241551177E+00 -0.13273521370E+02  0.13419226698E+02  0.17770000000E+01 0.  1.
         15    1    1    2    0    0  0.11621190443E+02  0.84153393202E+01  0.23888024629E+01  0.14653808699E+02  0.17770000000E+01 0. -1.
</event>
<event>
 6    1  0.1599106E-003  0.5065238E+03  0.7546771E-02  0.9385329E-01
        -11   -1    0    0    0    0  0.00000000000E+00  0.00000000000E+00  0.50000000000E+03  0.50000000000E+03  0.00000000000E+00 0.  1.
         11   -1    0    0    0    0 -0.00000000000E+00 -0.00000000000E+00 -0.50000000000E+03  0.50000000000E+03  0.00000000000E+00 0.  1.
        -11    1    1    2    0    0  0.66226649623E+01  0.46979976397E+01  0.49340940026E+03  0.49347620727E+03  0.00000000000E+00 0.  1.
         11    1    1    2    0    0 -0.81674184682E+01 -0.11426183362E+01 -0.44603600933E+03  0.44611224363E+03  0.00000000000E+00 0.  1.
        -15    1    1    2    0    0 -0.17134968420E+02 -0.59269785681E+01 -0.19097739583E+02  0.26393514428E+02  0.17770000000E+01 0. -1.
         15    1    1    2    0    0  0.18679721926E+02  0.23715992646E+01 -0.28275651355E+02  0.34018034670E+02  0.17770000000E+01 0.  1.
</event>
<event>
 6    1  0.1599106E-003  0.5019747E+03  0.7546771E-02  0.9395402E-01
        -11   -1    0    0    0    0  0.00000000000E+00  0.00000000000E+00  0.50000000000E+03  0.50000000000E+03  0.00000000000E+00 0.  1.
         11   -1    0    0    0    0 -0.00000000000E+00 -0.00000000000E+00 -0.50000000000E+03  0.50000000000E+03  0.00000000000E+00 0.  1.
        -11    1    1    2    0    0  0.47562003454E+01  0.90615614381E+01  0.49792010731E+03  0.49802526703E+03  0.00000000000E+00 0.  1.
         11    1    1    2    0    0 -0.14998774675E+01  0.48652556643E+01 -0.35309278563E+03  0.35312948844E+03  0.00000000000E+00 0.  1.
        -15    1    1    2    0    0  0.64427343214E+01  0.24154536822E+01 -0.98281158534E+02  0.98537744513E+02  0.17770000000E+01 0. -1.
         15    1    1    2    0    0 -0.96990571993E+01 -0.16342270785E+02 -0.46546163145E+02  0.50307500012E+02  0.17770000000E+01 0.  1.
</event>
<event>
 6    1  0.1599106E-003  0.5029005E+03  0.7546771E-02  0.9393343E-01
        -11   -1    0    0    0    0  0.00000000000E+00  0.00000000000E+00  0.50000000000E+03  0.50000000000E+03  0.00000000000E+00 0. -1.
         11   -1    0    0    0    0 -0.00000000000E+00 -0.00000000000E+00 -0.50000000000E+03  0.50000000000E+03  0.00000000000E+00 0. -1.
        -11    1    1    2    0    0  0.56797484377E+01  0.68135924557E+00  0.40567730465E+03  0.40571763494E+03  0.00000000000E+00 0. -1.
         11    1    1    2    0    0  0.10697797157E+02 -0.19563287170E+01 -0.49698057304E+03  0.49709954744E+03  0.00000000000E+00 0. -1.
        -15    1    1    2    0    0 -0.62542269481E+01 -0.95283509226E-01  0.84569550991E+02  0.84819167158E+02  0.17770000000E+01 0.  1.
         15    1    1    2    0    0 -0.10123318647E+02  0.13702529806E+01  0.67337174022E+01  0.12363650461E+02  0.17770000000E+01 0.  1.
</event>
<event>
 6    1  0.1599106E-003  0.5174395E+03  0.7546771E-02  0.9361611E-01
        -11   -1    0    0    0    0  0.00000000000E+00  0.00000000000E+00  0.50000000000E+03  0.50000000000E+03  0.00000000000E+00 0. -1.
         11   -1    0    0    0    0 -0.00000000000E+00 -0.00000000000E+00 -0.50000000000E+03  0.50000000000E+03  0.00000000000E+00 0.  1.
        -11    1    1    2    0    0  0.81825198645E+01  0.26804291791E+01  0.41393606971E+03  0.41402561290E+03  0.00000000000E+00 0. -1.
         11    1    1    2    0    0  0.41033831269E+01  0.16653459415E+02 -0.48225555391E+03  0.48256045709E+03  0.00000000000E+00 0.  1.
        -15    1    1    2    0    0 -0.12183257639E+02 -0.40907110640E+02  0.14024522480E+02  0.44962967289E+02  0.17770000000E+01 0. -1.
         15    1    1    2    0    0 -0.10264535224E+00  0.21573222046E+02  0.54294961727E+02  0.58450962725E+02  0.17770000000E+01 0.  1.
</event>
<event>
 6    1  0.1599106E-003  0.4585102E+03  0.7546771E-02  0.9497754E-01
        -11   -1    0    0    0    0  0.00000000000E+00  0.00000000000E+00  0.50000000000E+03  0.50000000000E+03  0.00000000000E+00 0.  1.
         11   -1    0    0    0    0 -0.00000000000E+00 -0.00000000000E+00 -0.50000000000E+03  0.50000000000E+03  0.00000000000E+00 0.  1.
        -11    1    1    2    0    0  0.20188349744E+02 -0.16705431397E+02  0.46130699158E+03  0.46205062643E+03  0.00000000000E+00 0.  1.
         11    1    1    2    0    0  0.54742240909E+02  0.18280908881E+02 -0.45440279245E+03  0.45805327458E+03  0.00000000000E+00 0.  1.
        -15    1    1    2    0    0 -0.18213076558E+01 -0.34374772021E+01 -0.51850828265E+01  0.67213260604E+01  0.17770000000E+01 0. -1.
         15    1    1    2    0    0 -0.73109282997E+02  0.18619997175E+01 -0.17191162994E+01  0.73174772929E+02  0.17770000000E+01 0.  1.
</event>
<event>
 6    1  0.1599106E-003  0.5067551E+03  0.7546771E-02  0.9384820E-01
        -11   -1    0    0    0    0  0.00000000000E+00  0.00000000000E+00  0.50000000000E+03  0.50000000000E+03  0.00000000000E+00 0. -1.
         11   -1    0    0    0    0 -0.00000000000E+00 -0.00000000000E+00 -0.50000000000E+03  0.50000000000E+03  0.00000000000E+00 0. -1.
        -11    1    1    2    0    0  0.30054632844E+01  0.10931197561E+02  0.49311459921E+03  0.49324490047E+03  0.00000000000E+00 0. -1.
         11    1    1    2    0    0 -0.78895366743E+01  0.22939274380E+01 -0.43409251781E+03  0.43417026719E+03  0.00000000000E+00 0. -1.
        -15    1    1    2    0    0  0.70294495894E+01  0.12209818678E+01 -0.57302650275E+02  0.57772445126E+02  0.17770000000E+01 0. -1.
         15    1    1    2    0    0 -0.21453761995E+01 -0.14446106866E+02 -0.17194311199E+01  0.14812387215E+02  0.17770000000E+01 0.  1.
</event>
<event>
 6    1  0.1599106E-003  0.5068255E+03  0.7546771E-02  0.9384665E-01
        -11   -1    0    0    0    0  0.00000000000E+00  0.00000000000E+00  0.50000000000E+03  0.50000000000E+03  0.00000000000E+00 0.  1.
         11   -1    0    0    0    0 -0.00000000000E+00 -0.00000000000E+00 -0.50000000000E+03  0.50000000000E+03  0.00000000000E+00 0. -1.
        -11    1    1    2    0    0 -0.59644870597E+01 -0.59334660975E+01  0.49310270096E+03  0.49317446692E+03  0.00000000000E+00 0.  1.
         11    1    1    2    0    0 -0.13248986871E+02 -0.57500515518E+01 -0.44934051655E+03  0.44957257318E+03  0.00000000000E+00 0. -1.
        -15    1    1    2    0    0  0.87546982349E+01  0.55929020276E+01 -0.43769158621E+02  0.45020242888E+02  0.17770000000E+01 0. -1.
         15    1    1    2    0    0  0.10458775695E+02  0.60906156217E+01  0.69742067670E-02  0.12232717006E+02  0.17770000000E+01 0.  1.
</event>
<event>
 6    1  0.1599106E-003  0.5015964E+03  0.7546771E-02  0.9396245E-01
        -11   -1    0    0    0    0  0.00000000000E+00  0.00000000000E+00  0.50000000000E+03  0.50000000000E+03  0.00000000000E+00 0. -1.
         11   -1    0    0    0    0 -0.00000000000E+00 -0.00000000000E+00 -0.50000000000E+03  0.50000000000E+03  0.00000000000E+00 0. -1.
        -11    1    1    2    0    0  0.77639613717E+01  0.98400938966E+00  0.46353801124E+03  0.46360407164E+03  0.00000000000E+00 0. -1.
         11    1    1    2    0    0 -0.93835079805E+01  0.66607051596E+00 -0.49831479370E+03  0.49840357894E+03  0.00000000000E+00 0. -1.
        -15    1    1    2    0    0 -0.78868395880E+00 -0.34782801069E+00 -0.89727235757E+00  0.21692932940E+01  0.17770000000E+01 0. -1.
         15    1    1    2    0    0  0.24082305676E+01 -0.13022518949E+01  0.35674054820E+02  0.35823056134E+02  0.17770000000E+01 0. -1.
</event>
<event>
 6    1  0.1599106E-003  0.5171881E+03  0.7546771E-02  0.9362151E-01
        -11   -1    0    0    0    0  0.00000000000E+00  0.00000000000E+00  0.50000000000E+03  0.50000000000E+03  0.00000000000E+00 0. -1.
         11   -1    0    0    0    0 -0.00000000000E+00 -0.00000000000E+00 -0.50000000000E+03  0.50000000000E+03  0.00000000000E+00 0. -1.
        -11    1    1    2    0    0  0.47276020980E+01  0.47452124567E+01  0.48276541045E+03  0.48281187723E+03  0.00000000000E+00 0. -1.
         11    1    1    2    0    0 -0.85101835958E+01  0.13185641407E+01 -0.47810743712E+03  0.47818498854E+03  0.00000000000E+00 0. -1.
        -15    1    1    2    0    0 -0.91747727979E+01  0.25562990625E+00 -0.17353581540E+02  0.19711578420E+02  0.17770000000E+01 0. -1.
         15    1    1    2    0    0  0.12957354296E+02 -0.63194065037E+01  0.12695608208E+02  0.19291555813E+02  0.17770000000E+01 0.  1.
</event>
<event>
 6    1  0.1599106E-003  0.5003960E+03  0.7546771E-02  0.9398924E-01
        -11   -1    0    0    0    0  0.00000000000E+00  0.00000000000E+00  0.50000000000E+03  0.50000000000E+03  0.00000000000E+00 0.  1.
         11   -1    0    0    0    0 -0.00000000000E+00 -0.00000000000E+00 -0.50000000000E+03  0.50000000000E+03  0.00000000000E+00 0.  1.
        -11    1    1    2    0    0 -0.61104064077E+01  0.71039980917E+00  0.26675134552E+03  0.26682226682E+03  0.00000000000E+00 0.  1.
         11    1    1    2    0    0  0.98161425260E+01 -0.27130772028E+01 -0.49950017226E+03  0.49960398270E+03  0.00000000000E+00 0.  1.
        -15    1    1    2    0    0 -0.93461812713E+01  0.39281866767E+01  0.75070254115E+02  0.75772571138E+02  0.17770000000E+01 0. -1.
         15    1    1    2    0    0  0.56404451529E+01 -0.19255092831E+01  0.15767857262E+03  0.15780117934E+03  0.17770000000E+01 0.  1.
</event>
<event>
 6    1  0.1599106E-003  0.5012970E+03  0.7546771E-02  0.9396912E-01
        -11   -1    0    0    0    0  0.00000000000E+00  0.00000000000E+00  0.50000000000E+03  0.50000000000E+03  0.00000000000E+00 0. -1.
         11   -1    0    0    0    0 -0.00000000000E+00 -0.00000000000E+00 -0.50000000000E+03  0.50000000000E+03  0.00000000000E+00 0.  1.
        -11    1    1    2    0    0  0.15257755501E+01  0.66753142827E+01  0.18634920136E+03  0.18647496523E+03  0.00000000000E+00 0. -1.
         11    1    1    2    0    0 -0.23056011813E+01 -0.65676929123E+01 -0.49865442453E+03  0.49870300329E+03  0.00000000000E+00 0.  1.
        -15    1    1    2    0    0  0.12963028694E+02  0.10336693771E+02  0.24656688845E+03  0.24713007822E+03  0.17770000000E+01 0. -1.
         15    1    1    2    0    0 -0.12183203062E+02 -0.10444315141E+02  0.65738334717E+02  0.67691953259E+02  0.17770000000E+01 0.  1.
</event>
<event>
 6    1  0.1599106E-003  0.5005697E+03  0.7546771E-02  0.9398536E-01
        -11   -1    0    0    0    0  0.00000000000E+00  0.00000000000E+00  0.50000000000E+03  0.50000000000E+03  0.00000000000E+00 0. -1.
         11   -1    0    0    0    0 -0.00000000000E+00 -0.00000000000E+00 -0.50000000000E+03  0.50000000000E+03  0.00000000000E+00 0. -1.
        -11    1    1    2    0    0  0.87186302015E+01  0.50630158704E+01  0.49932850951E+03  0.49943028448E+03  0.00000000000E+00 0. -1.
         11    1    1    2    0    0 -0.10774133003E+02 -0.61048286074E+01 -0.19284007838E+03  0.19323728083E+03  0.00000000000E+00 0. -1.
        -15    1    1    2    0    0 -0.40485941347E+01 -0.86477907816E+01 -0.87463789647E+02  0.88001406968E+02  0.17770000000E+01 0. -1.
         15    1    1    2    0    0  0.61040969361E+01  0.96896035185E+01 -0.21902464148E+03  0.21933102772E+03  0.17770000000E+01 0.  1.
</event>
<event>
 6    1  0.1599106E-003  0.5215198E+03  0.7546771E-02  0.9352904E-01
        -11   -1    0    0    0    0  0.00000000000E+00  0.00000000000E+00  0.50000000000E+03  0.50000000000E+03  0.00000000000E+00 0. -1.
         11   -1    0    0    0    0 -0.00000000000E+00 -0.00000000000E+00 -0.50000000000E+03  0.50000000000E+03  0.00000000000E+00 0.  1.
        -11    1    1    2    0    0 -0.36700684154E+01 -0.64240346478E+01  0.47842298868E+03  0.47848019156E+03  0.00000000000E+00 0. -1.
         11    1    1    2    0    0 -0.10989470978E+02 -0.69132902156E+01 -0.43746667677E+03  0.43765929139E+03  0.00000000000E+00 0.  1.
        -15    1    1    2    0    0  0.10834031936E+02  0.19195477167E+02  0.15461628196E+02  0.26982628989E+02  0.17770000000E+01 0. -1.
         15    1    1    2    0    0  0.38255074572E+01 -0.58581523039E+01 -0.56417940100E+02  0.56877888057E+02  0.17770000000E+01 0.  1.
</event>
<event>
 6    1  0.1599106E-003  0.5195495E+03  0.7546771E-02  0.9357098E-01
        -11   -1    0    0    0    0  0.00000000000E+00  0.00000000000E+00  0.50000000000E+03  0.50000000000E+03  0.00000000000E+00 0.  1.
         11   -1    0    0    0    0 -0.00000000000E+00 -0.00000000000E+00 -0.50000000000E+03  0.50000000000E+03  0.00000000000E+00 0.  1.
        -11    1    1    2    0    0  0.19809136028E+02 -0.11517257717E+02  0.47990381440E+03  0.48045053873E+03  0.00000000000E+00 0.  1.
         11    1    1    2    0    0 -0.80670696983E+01 -0.34504542532E+02 -0.35417810189E+03  0.35594630062E+03  0.00000000000E+00 0.  1.
        -15    1    1    2    0    0 -0.14957064638E+02 -0.47112137033E+00  0.11314485483E+02  0.18844390376E+02  0.17770000000E+01 0. -1.
         15    1    1    2    0    0  0.32149983084E+01  0.46492921619E+02 -0.13704019799E+03  0.14475877027E+03  0.17770000000E+01 0.  1.
</event>
<event>
 6    1  0.1599106E-003  0.5029950E+03  0.7546771E-02  0.9393133E-01
        -11   -1    0    0    0    0  0.00000000000E+00  0.00000000000E+00  0.50000000000E+03  0.50000000000E+03  0.00000000000E+00 0. -1.
         11   -1    0    0    0    0 -0.00000000000E+00 -0.00000000000E+00 -0.50000000000E+03  0.50000000000E+03  0.00000000000E+00 0.  1.
        -11    1    1    2    0    0  0.78642831162E+00 -0.65529854961E+01  0.37286956808E+03  0.37292797547E+03  0.00000000000E+00 0. -1.
         11    1    1    2    0    0  0.16772275559E+01  0.83720392057E+01 -0.49693169726E+03  0.49700504613E+03  0.00000000000E+00 0.  1.
        -15    1    1    2    0    0 -0.21325687085E+01 -0.60099085393E+01  0.12519057888E+03  0.12536548815E+03  0.17770000000E+01 0. -1.
         15    1    1    2    0    0 -0.33108715902E+00  0.41908548297E+01 -0.11284496935E+01  0.47014902554E+01  0.17770000000E+01 0.  1.
</event>
<event>
 6    1  0.1599106E-003  0.5128406E+03  0.7546771E-02  0.9371528E-01
        -11   -1    0    0    0    0  0.00000000000E+00  0.00000000000E+00  0.50000000000E+03  0.50000000000E+03  0.00000000000E+00 0. -1.
         11   -1    0    0    0    0 -0.00000000000E+00 -0.00000000000E+00 -0.50000000000E+03  0.50000000000E+03  0.00000000000E+00 0. -1.
        -11    1    1    2    0    0 -0.92435811081E+01 -0.39898219533E+01  0.48000839808E+03  0.48011397053E+03  0.00000000000E+00 0. -1.
         11    1    1    2    0    0  0.13411016968E+02  0.36023213764E+01 -0.48696142355E+03  0.48715937856E+03  0.00000000000E+00 0. -1.
        -15    1    1    2    0    0 -0.75069976776E+01 -0.13870511446E+02 -0.11196139114E+01  0.15910919716E+02  0.17770000000E+01 0. -1.
         15    1    1    2    0    0  0.33395618177E+01  0.14258012023E+02  0.80726393777E+01  0.16815731191E+02  0.17770000000E+01 0.  1.
</event>
<event>
 6    1  0.1599106E-003  0.5007050E+03  0.7546771E-02  0.9398234E-01
        -11   -1    0    0    0    0  0.00000000000E+00  0.00000000000E+00  0.50000000000E+03  0.50000000000E+03  0.00000000000E+00 0.  1.
         11   -1    0    0    0    0 -0.00000000000E+00 -0.00000000000E+00 -0.50000000000E+03  0.50000000000E+03  0.00000000000E+00 0.  1.
        -11    1    1    2    0    0  0.90687839890E+00  0.10461535516E+02  0.41925372370E+03  0.41938520597E+03  0.00000000000E+00 0.  1.
         11    1    1    2    0    0 -0.72146231417E+00 -0.70818609077E+01 -0.49924423240E+03  0.49929497980E+03  0.00000000000E+00 0.  1.
        -15    1    1    2    0    0  0.15139946030E+01  0.47247331881E+01  0.18070035191E+02  0.18822836772E+02  0.17770000000E+01 0. -1.
         15    1    1    2    0    0 -0.16994106877E+01 -0.81044077968E+01  0.61920473514E+02  0.62496977460E+02  0.17770000000E+01 0.  1.
</event>
<event>
 6    1  0.1599106E-003  0.5012487E+03  0.7546771E-02  0.9397020E-01
        -11   -1    0    0    0    0  0.00000000000E+00  0.00000000000E+00  0.50000000000E+03  0.50000000000E+03  0.00000000000E+00 0.  1.
         11   -1    0    0    0    0 -0.00000000000E+00 -0.00000000000E+00 -0.50000000000E+03  0.50000000000E+03  0.00000000000E+00 0. -1.
        -11    1    1    2    0    0 -0.38733308044E+01  0.66547269957E+01  0.42689739143E+03  0.42696682646E+03  0.00000000000E+00 0.  1.
         11    1    1    2    0    0  0.26808101565E+01 -0.11378218304E+02 -0.49861424777E+03  0.49875125933E+03  0.00000000000E+00 0. -1.
        -15    1    1    2    0    0  0.54457371610E-01  0.13240183655E+01  0.69817741364E+02  0.69852922118E+02  0.17770000000E+01 0. -1.
         15    1    1    2    0    0  0.11380632763E+01  0.33994729431E+01  0.18991149757E+01  0.44289920978E+01  0.17770000000E+01 0.  1.
</event>
<event>
 6    1  0.1599106E-003  0.5140813E+03  0.7546771E-02  0.9368842E-01
        -11   -1    0    0    0    0  0.00000000000E+00  0.00000000000E+00  0.50000000000E+03  0.50000000000E+03  0.00000000000E+00 0. -1.
         11   -1    0    0    0    0 -0.00000000000E+00 -0.00000000000E+00 -0.50000000000E+03  0.50000000000E+03  0.00000000000E+00 0.  1.
        -11    1    1    2    0    0 -0.66769574630E+01 -0.30008053581E+01  0.31797274806E+03  0.31805699977E+03  0.00000000000E+00 0. -1.
         11    1    1    2    0    0  0.46221667065E+01 -0.15617308301E+02 -0.48564571778E+03  0.48591874623E+03  0.00000000000E+00 0.  1.
        -15    1    1    2    0    0 -0.30667921796E+02  0.44065458354E+02  0.59465426091E+02  0.80134765716E+02  0.17770000000E+01 0. -1.
         15    1    1    2    0    0  0.32722712552E+02 -0.25447344695E+02  0.10820754362E+03  0.11588948828E+03  0.17770000000E+01 0.  1.
</event>
<event>
 6    1  0.1599106E-003  0.5027653E+03  0.7546771E-02  0.9393643E-01
        -11   -1    0    0    0    0  0.00000000000E+00  0.00000000000E+00  0.50000000000E+03  0.50000000000E+03  0.00000000000E+00 0.  1.
         11   -1    0    0    0    0 -0.00000000000E+00 -0.00000000000E+00 -0.50000000000E+03  0.50000000000E+03  0.00000000000E+00 0. -1.
        -11    1    1    2    0    0  0.89471186545E+01  0.29476420625E+01  0.42288450090E+03  0.42298940959E+03  0.00000000000E+00 0.  1.
         11    1    1    2    0    0  0.79459133803E+01  0.12015623663E+02 -0.49702601104E+03  0.49723472164E+03  0.00000000000E+00 0. -1.
        -15    1    1    2    0    0  0.27365017732E+01 -0.58565153624E+01  0.27849491251E+02  0.28645053780E+02  0.17770000000E+01 0.  1.
         15    1    1    2    0    0 -0.19629533808E+02 -0.91067503627E+01  0.46292018887E+02  0.51130814988E+02  0.17770000000E+01 0. -1.
</event>
<event>
 6    1  0.1599106E-003  0.5007859E+03  0.7546771E-02  0.9398053E-01
        -11   -1    0    0    0    0  0.00000000000E+00  0.00000000000E+00  0.50000000000E+03  0.50000000000E+03  0.00000000000E+00 0. -1.
         11   -1    0    0    0    0 -0.00000000000E+00 -0.00000000000E+00 -0.50000000000E+03  0.50000000000E+03  0.00000000000E+00 0.  1.
        -11    1    1    2    0    0  0.28386550324E+01 -0.14891035495E+01  0.65288491479E+02  0.65367136325E+02  0.00000000000E+00 0. -1.
         11    1    1    2    0    0  0.55151478914E+01 -0.10647168047E+02 -0.49907012363E+03  0.49921414978E+03  0.00000000000E+00 0.  1.
        -15    1    1    2    0    0 -0.47982900939E+01 -0.79339158639E+01  0.29360989470E+03  0.29376163570E+03  0.17770000000E+01 0. -1.
         15    1    1    2    0    0 -0.35555128299E+01  0.20070187461E+02  0.14017173745E+03  0.14165707820E+03  0.17770000000E+01 0.  1.
</event>
<event>
 6    1  0.1599106E-003  0.5117387E+03  0.7546771E-02  0.9373920E-01
        -11   -1    0    0    0    0  0.00000000000E+00  0.00000000000E+00  0.50000000000E+03  0.50000000000E+03  0.00000000000E+00 0.  1.
         11   -1    0    0    0    0 -0.00000000000E+00 -0.00000000000E+00 -0.50000000000E+03  0.50000000000E+03  0.00000000000E+00 0. -1.
        -11    1    1    2    0    0 -0.73512281621E+01  0.88467554726E+00  0.43856442821E+03  0.43862692678E+03  0.00000000000E+00 0.  1.
         11    1    1    2    0    0  0.59505418364E+01  0.85274668379E+01 -0.48815056627E+03  0.48826130503E+03  0.00000000000E+00 0. -1.
        -15    1    1    2    0    0  0.13618343716E+02  0.82399380476E+01  0.49012431896E+02  0.51562894352E+02  0.17770000000E+01 0. -1.
         15    1    1    2    0    0 -0.12217657390E+02 -0.17652080433E+02  0.57370616882E+00  0.21548873833E+02  0.17770000000E+01 0.  1.
</event>
<event>
 6    1  0.1599106E-003  0.5002846E+03  0.7546771E-02  0.9399173E-01
        -11   -1    0    0    0    0  0.00000000000E+00  0.00000000000E+00  0.50000000000E+03  0.50000000000E+03  0.00000000000E+00 0. -1.
         11   -1    0    0    0    0 -0.00000000000E+00 -0.00000000000E+00 -0.50000000000E+03  0.50000000000E+03  0.00000000000E+00 0. -1.
        -11    1    1    2    0    0 -0.51906451668E+01 -0.17596285370E+01  0.33843694016E+03  0.33848131640E+03  0.00000000000E+00 0. -1.
         11    1    1    2    0    0  0.12131585096E+02  0.87662386790E+00 -0.49956730142E+03  0.49971535145E+03  0.00000000000E+00 0. -1.
        -15    1    1    2    0    0  0.27710811293E+01  0.22363215910E+01  0.73595793777E+02  0.73703314821E+02  0.17770000000E+01 0.  1.
         15    1    1    2    0    0 -0.97120210585E+01 -0.13533169219E+01  0.87534567483E+02  0.88100017328E+02  0.17770000000E+01 0. -1.
</event>
<event>
 6    1  0.1599106E-003  0.5049090E+03  0.7546771E-02  0.9388892E-01
        -11   -1    0    0    0    0  0.00000000000E+00  0.00000000000E+00  0.50000000000E+03  0.50000000000E+03  0.00000000000E+00 0.  1.
         11   -1    0    0    0    0 -0.00000000000E+00 -0.00000000000E+00 -0.50000000000E+03  0.50000000000E+03  0.00000000000E+00 0.  1.
        -11    1    1    2    0    0 -0.10916768159E+01  0.63724013798E+01  0.45580837564E+03  0.45585422512E+03  0.00000000000E+00 0.  1.
         11    1    1    2    0    0  0.98444863056E+01 -0.12194356125E+02 -0.49484285295E+03  0.49509096674E+03  0.00000000000E+00 0.  1.
        -15    1    1    2    0    0 -0.55466880301E+01 -0.33655573497E+01  0.38569915923E+02  0.39152124689E+02  0.17770000000E+01 0.  1.
         15    1    1    2    0    0 -0.32061214596E+01  0.91875120954E+01  0.46456138746E+00  0.99026834545E+01  0.17770000000E+01 0. -1.
</event>
<event>
 6    1  0.1599106E-003  0.5010269E+03  0.7546771E-02  0.9397515E-01
        -11   -1    0    0    0    0  0.00000000000E+00  0.00000000000E+00  0.50000000000E+03  0.50000000000E+03  0.00000000000E+00 0.  1.
         11   -1    0    0    0    0 -0.00000000000E+00 -0.00000000000E+00 -0.50000000000E+03  0.50000000000E+03  0.00000000000E+00 0.  1.
        -11    1    1    2    0    0  0.60687485091E+01  0.53166284759E+01  0.49890789686E+03  0.49897313133E+03  0.00000000000E+00 0.  1.
         11    1    1    2    0    0 -0.65746283516E+01 -0.37008068429E+01 -0.44176101622E+03  0.44182543743E+03  0.00000000000E+00 0.  1.
        -15    1    1    2    0    0  0.58633581824E+01  0.37554900224E+01 -0.34825702904E+02  0.35559386753E+02  0.17770000000E+01 0. -1.
         15    1    1    2    0    0 -0.53574783399E+01 -0.53713116553E+01 -0.22321177728E+02  0.23642044481E+02  0.17770000000E+01 0. -1.
</event>
<event>
 6    1  0.1599106E-003  0.5013527E+03  0.7546771E-02  0.9396788E-01
        -11   -1    0    0    0    0  0.00000000000E+00  0.00000000000E+00  0.50000000000E+03  0.50000000000E+03  0.00000000000E+00 0.  1.
         11   -1    0    0    0    0 -0.00000000000E+00 -0.00000000000E+00 -0.50000000000E+03  0.50000000000E+03  0.00000000000E+00 0. -1.
        -11    1    1    2    0    0  0.15627245052E+02  0.54868501922E+00  0.19424510055E+03  0.19487347416E+03  0.00000000000E+00 0.  1.
         11    1    1    2    0    0 -0.45434857826E+01  0.22403202346E+02 -0.49812305976E+03  0.49864729961E+03  0.00000000000E+00 0. -1.
        -15    1    1    2    0    0 -0.35642843931E+00 -0.27629203152E+02  0.22969552781E+03  0.23135836517E+03  0.17770000000E+01 0.  1.
         15    1    1    2    0    0 -0.10727330830E+02  0.46773157870E+01  0.74182431404E+02  0.75120861069E+02  0.17770000000E+01 0. -1.
</event>
<event>
 6    1  0.1599106E-003  0.5009165E+03  0.7546771E-02  0.9397761E-01
        -11   -1    0    0    0    0  0.00000000000E+00  0.00000000000E+00  0.50000000000E+03  0.50000000000E+03  0.00000000000E+00 0. -1.
         11   -1    0    0    0    0 -0.00000000000E+00 -0.00000000000E+00 -0.50000000000E+03  0.50000000000E+03  0.00000000000E+00 0. -1.
        -11    1    1    2    0    0  0.92717519594E+00 -0.93477641327E+01  0.49899506241E+03  0.49908347264E+03  0.00000000000E+00 0. -1.
         11    1    1    2    0    0  0.60707926494E+01 -0.15284184523E+01 -0.40683470540E+03  0.40688286779E+03  0.00000000000E+00 0. -1.
        -15    1    1    2    0    0 -0.38166039001E+01  0.48892560292E+01 -0.77667737106E+02  0.77935270616E+02  0.17770000000E+01 0.  1.
         15    1    1    2    0    0 -0.31813639452E+01  0.59869265558E+01 -0.14492619907E+02  0.16098388953E+02  0.17770000000E+01 0. -1.
</event>
<event>
 6    1  0.1599106E-003  0.5089406E+03  0.7546771E-02  0.9380024E-01
        -11   -1    0    0    0    0  0.00000000000E+00  0.00000000000E+00  0.50000000000E+03  0.50000000000E+03  0.00000000000E+00 0. -1.
         11   -1    0    0    0    0 -0.00000000000E+00 -0.00000000000E+00 -0.50000000000E+03  0.50000000000E+03  0.00000000000E+00 0.  1.
        -11    1    1    2    0    0  0.91398437646E+01  0.52234503540E+01  0.45613461891E+03  0.45625608133E+03  0.00000000000E+00 0. -1.
         11    1    1    2    0    0  0.66153531029E+01 -0.11571202580E+02 -0.49087848137E+03  0.49105940485E+03  0.00000000000E+00 0.  1.
        -15    1    1    2    0    0 -0.14518995656E+02  0.58714992315E+01  0.42125296494E+02  0.44977484054E+02  0.17770000000E+01 0. -1.
         15    1    1    2    0    0 -0.12362012111E+01  0.47625299445E+00 -0.73814340373E+01  0.77070297649E+01  0.17770000000E+01 0.  1.
</event>
<event>
 6    1  0.1599106E-003  0.5014043E+03  0.7546771E-02  0.9396673E-01
        -11   -1    0    0    0    0  0.00000000000E+00  0.00000000000E+00  0.50000000000E+03  0.50000000000E+03  0.00000000000E+00 0. -1.
         11   -1    0    0    0    0 -0.00000000000E+00 -0.00000000000E+00 -0.50000000000E+03  0.50000000000E+03  0.00000000000E+00 0. -1.
        -11    1    1    2    0    0 -0.76770189935E+01 -0.10748366323E+02  0.49842071161E+03  0.49859569769E+03  0.00000000000E+00 0. -1.
         11    1    1    2    0    0 -0.42231600646E+01  0.34131003038E+01 -0.37355310931E+03  0.37359257194E+03  0.00000000000E+00 0. -1.
        -15    1    1    2    0    0  0.88681898143E+01  0.21457711437E+01 -0.11854573250E+03  0.11890961923E+03  0.17770000000E+01 0. -1.
         15    1    1    2    0    0  0.30319892437E+01  0.51894948757E+01 -0.63218698027E+01  0.89021111339E+01  0.17770000000E+01 0.  1.
</event>
<event>
 6    1  0.1599106E-003  0.5001432E+03  0.7546771E-02  0.9399489E-01
        -11   -1    0    0    0    0  0.00000000000E+00  0.00000000000E+00  0.50000000000E+03  0.50000000000E+03  0.00000000000E+00 0. -1.
         11   -1    0    0    0    0 -0.00000000000E+00 -0.00000000000E+00 -0.50000000000E+03  0.50000000000E+03  0.00000000000E+00 0. -1.
        -11    1    1    2    0    0  0.26283082208E+01  0.10035377617E+01  0.12820461210E+03  0.12823547737E+03  0.00000000000E+00 0. -1.
         11    1    1    2    0    0 -0.12263565558E+02  0.91153124450E+01 -0.49962319656E+03  0.49985680199E+03  0.00000000000E+00 0. -1.
        -15    1    1    2    0    0 -0.17150121861E+01  0.28618653410E-01  0.19544898416E+02  0.19700326619E+02  0.17770000000E+01 0.  1.
         15    1    1    2    0    0  0.11350269524E+02 -0.10147468860E+02  0.35187368604E+03  0.35220739402E+03  0.17770000000E+01 0. -1.
</event>
<event>
 6    1  0.1599106E-003  0.5069950E+03  0.7546771E-02  0.9384293E-01
        -11   -1    0    0    0    0  0.00000000000E+00  0.00000000000E+00  0.50000000000E+03  0.50000000000E+03  0.00000000000E+00 0. -1.
         11   -1    0    0    0    0 -0.00000000000E+00 -0.00000000000E+00 -0.50000000000E+03  0.50000000000E+03  0.00000000000E+00 0. -1.
        -11    1    1    2    0    0 -0.37870951133E+01 -0.90560736307E+01  0.48576649830E+03  0.48586566603E+03  0.00000000000E+00 0. -1.
         11    1    1    2    0    0  0.85276671718E+01  0.65119022395E+01 -0.49288825573E+03  0.49300502900E+03  0.00000000000E+00 0. -1.
        -15    1    1    2    0    0  0.21824497664E+01 -0.64317212680E+00  0.11707906944E+02  0.12058589113E+02  0.17770000000E+01 0. -1.
         15    1    1    2    0    0 -0.69230218249E+01  0.31873435180E+01 -0.45861495063E+01  0.90707158585E+01  0.17770000000E+01 0.  1.
</event>
<event>
 6    1  0.1599106E-003  0.5020404E+03  0.7546771E-02  0.9395256E-01
        -11   -1    0    0    0    0  0.00000000000E+00  0.00000000000E+00  0.50000000000E+03  0.50000000000E+03  0.00000000000E+00 0. -1.
         11   -1    0    0    0    0 -0.00000000000E+00 -0.00000000000E+00 -0.50000000000E+03  0.50000000000E+03  0.00000000000E+00 0. -1.
        -11    1    1    2    0    0  0.13453187047E+02  0.73922721205E+01  0.49772291442E+03  0.49795957011E+03  0.00000000000E+00 0. -1.
         11    1    1    2    0    0  0.89975604386E+01  0.60217200235E+01 -0.38346556763E+03  0.38361837647E+03  0.00000000000E+00 0. -1.
        -15    1    1    2    0    0  0.17804902808E+01 -0.37492115745E+01 -0.10679243618E+02  0.11594425657E+02  0.17770000000E+01 0. -1.
         15    1    1    2    0    0 -0.24231237766E+02 -0.96647805695E+01 -0.10357810317E+03  0.10682762776E+03  0.17770000000E+01 0.  1.
</event>
<event>
 6    1  0.1599106E-003  0.5011933E+03  0.7546771E-02  0.9397143E-01
        -11   -1    0    0    0    0  0.00000000000E+00  0.00000000000E+00  0.50000000000E+03  0.50000000000E+03  0.00000000000E+00 0. -1.
         11   -1    0    0    0    0 -0.00000000000E+00 -0.00000000000E+00 -0.50000000000E+03  0.50000000000E+03  0.00000000000E+00 0. -1.
        -11    1    1    2    0    0  0.31717403337E+00 -0.42316202771E+02  0.49700836964E+03  0.49880665704E+03  0.00000000000E+00 0. -1.
         11    1    1    2    0    0 -0.44519636994E+01  0.44253082000E+01 -0.99172627531E+02  0.99371089281E+02  0.00000000000E+00 0. -1.
        -15    1    1    2    0    0  0.99685826426E+01 -0.44001771924E+01 -0.14333410973E+03  0.14375868301E+03  0.17770000000E+01 0.  1.
         15    1    1    2    0    0 -0.58337929766E+01  0.42291071764E+02 -0.25450163238E+03  0.25806357067E+03  0.17770000000E+01 0. -1.
</event>
<event>
 6    1  0.1599106E-003  0.5216322E+03  0.7546771E-02  0.9352666E-01
        -11   -1    0    0    0    0  0.00000000000E+00  0.00000000000E+00  0.50000000000E+03  0.50000000000E+03  0.00000000000E+00 0. -1.
         11   -1    0    0    0    0 -0.00000000000E+00 -0.00000000000E+00 -0.50000000000E+03  0.50000000000E+03  0.00000000000E+00 0. -1.
        -11    1    1    2    0    0  0.40999380630E+01  0.66006461518E+01  0.47830464800E+03  0.47836776054E+03  0.00000000000E+00 0. -1.
         11    1    1    2    0    0 -0.21161699216E+02 -0.18519611849E+02 -0.45808800622E+03  0.45895034043E+03  0.00000000000E+00 0. -1.
        -15    1    1    2    0    0 -0.16447089127E+02  0.84863065854E+01  0.64537900484E+01  0.19680784415E+02  0.17770000000E+01 0. -1.
         15    1    1    2    0    0  0.33508850280E+02  0.34326591113E+01 -0.26670431826E+02  0.43001114619E+02  0.17770000000E+01 0.  1.
</event>
<event>
 6    1  0.1599106E-003  0.5043513E+03  0.7546771E-02  0.9390126E-01
        -11   -1    0    0    0    0  0.00000000000E+00  0.00000000000E+00  0.50000000000E+03  0.50000000000E+03  0.00000000000E+00 0.  1.
         11   -1    0    0    0    0 -0.00000000000E+00 -0.00000000000E+00 -0.50000000000E+03  0.50000000000E+03  0.00000000000E+00 0.  1.
        -11    1    1    2    0    0  0.25088115582E+01 -0.67153699594E+01  0.35567314324E+03  0.35574537966E+03  0.00000000000E+00 0.  1.
         11    1    1    2    0    0 -0.61001929948E+01 -0.39016181655E+01 -0.49559583169E+03  0.49564872982E+03  0.00000000000E+00 0.  1.
        -15    1    1    2    0    0 -0.20777125910E+01  0.21398773291E+02  0.13247074927E+03  0.13421580209E+03  0.17770000000E+01 0.  1.
         15    1    1    2    0    0  0.56690940275E+01 -0.10781785166E+02  0.74519391811E+01  0.14390088430E+02  0.17770000000E+01 0. -1.
</event>
<event>
 6    1  0.1599106E-003  0.4813166E+03  0.7546771E-02  0.9442614E-01
        -11   -1    0    0    0    0  0.00000000000E+00  0.00000000000E+00  0.50000000000E+03  0.50000000000E+03  0.00000000000E+00 0.  1.
         11   -1    0    0    0    0 -0.00000000000E+00 -0.00000000000E+00 -0.50000000000E+03  0.50000000000E+03  0.00000000000E+00 0. -1.
        -11    1    1    2    0    0 -0.28994083167E+01  0.80335552853E+01  0.48053999601E+03  0.48061588857E+03  0.00000000000E+00 0.  1.
         11    1    1    2    0    0 -0.62578850987E+00  0.16708650593E+02 -0.48205304291E+03  0.48234293484E+03  0.00000000000E+00 0. -1.
        -15    1    1    2    0    0  0.37870419114E+01 -0.19705648050E+02 -0.11342070400E+02  0.23118272891E+02  0.17770000000E+01 0.  1.
         15    1    1    2    0    0 -0.26184508483E+00 -0.50365578289E+01  0.12855117296E+02  0.13922903695E+02  0.17770000000E+01 0. -1.
</event>
<event>
 6    1  0.1599106E-003  0.5083840E+03  0.7546771E-02  0.9381243E-01
        -11   -1    0    0    0    0  0.00000000000E+00  0.00000000000E+00  0.50000000000E+03  0.50000000000E+03  0.00000000000E+00 0. -1.
         11   -1    0    0    0    0 -0.00000000000E+00 -0.00000000000E+00 -0.50000000000E+03  0.50000000000E+03  0.00000000000E+00 0.  1.
        -11    1    1    2    0    0 -0.57514821733E+01 -0.11077310059E+02  0.47904831922E+03  0.47921089146E+03  0.00000000000E+00 0. -1.
         11    1    1    2    0    0 -0.99854200388E+01  0.35185154469E+01 -0.49150197248E+03  0.49161598582E+03  0.00000000000E+00 0.  1.
        -15    1    1    2    0    0 -0.29111080853E+01  0.32431673796E+01  0.82463993447E+01  0.94949205415E+01  0.17770000000E+01 0.  1.
         15    1    1    2    0    0  0.18648010297E+02  0.43156272324E+01  0.42072539077E+01  0.19678202177E+02  0.17770000000E+01 0. -1.
</event>
<event>
 6    1  0.1599106E-003  0.4707297E+03  0.7546771E-02  0.9467797E-01
        -11   -1    0    0    0    0  0.00000000000E+00  0.00000000000E+00  0.50000000000E+03  0.50000000000E+03  0.00000000000E+00 0. -1.
         11   -1    0    0    0    0 -0.00000000000E+00 -0.00000000000E+00 -0.50000000000E+03  0.50000000000E+03  0.00000000000E+00 0. -1.
        -11    1    1    2    0    0 -0.12339119443E+02  0.21810152599E+02  0.45979277647E+03  0.46047511759E+03  0.00000000000E+00 0. -1.
         11    1    1    2    0    0  0.15910016766E+02  0.13128793907E+02 -0.48144623497E+03  0.48188792373E+03  0.00000000000E+00 0. -1.
        -15    1    1    2    0    0  0.22858566078E+00 -0.39331868092E+02  0.47290270846E+01  0.39655636739E+02  0.17770000000E+01 0.  1.
         15    1    1    2    0    0 -0.37994829831E+01  0.43929215855E+01  0.16924431422E+02  0.17981321946E+02  0.17770000000E+01 0. -1.
</event>
<event>
 6    1  0.1599106E-003  0.5824675E+03  0.7546771E-02  0.9232112E-01
        -11   -1    0    0    0    0  0.00000000000E+00  0.00000000000E+00  0.50000000000E+03  0.50000000000E+03  0.00000000000E+00 0. -1.
         11   -1    0    0    0    0 -0.00000000000E+00 -0.00000000000E+00 -0.50000000000E+03  0.50000000000E+03  0.00000000000E+00 0. -1.
        -11    1    1    2    0    0 -0.94581623121E+00  0.17955285768E+02  0.41714518435E+03  0.41753250375E+03  0.00000000000E+00 0. -1.
         11    1    1    2    0    0  0.19436568046E+02 -0.41847581738E+01 -0.27491048354E+03  0.27562849334E+03  0.00000000000E+00 0. -1.
        -15    1    1    2    0    0 -0.44292310969E+02 -0.10636633382E+02 -0.22007918145E+03  0.22475086344E+03  0.17770000000E+01 0. -1.
         15    1    1    2    0    0  0.25801559155E+02 -0.31338942119E+01  0.77844480639E+02  0.82088139476E+02  0.17770000000E+01 0.  1.
</event>
<event>
 6    1  0.1599106E-003  0.5003518E+03  0.7546771E-02  0.9399023E-01
        -11   -1    0    0    0    0  0.00000000000E+00  0.00000000000E+00  0.50000000000E+03  0.50000000000E+03  0.00000000000E+00 0. -1.
         11   -1    0    0    0    0 -0.00000000000E+00 -0.00000000000E+00 -0.50000000000E+03  0.50000000000E+03  0.00000000000E+00 0.  1.
        -11    1    1    2    0    0 -0.62727816336E+01  0.39331131595E+01  0.41653591231E+03  0.41660170837E+03  0.00000000000E+00 0. -1.
         11    1    1    2    0    0  0.34399238692E+01 -0.76931337121E+01 -0.49957711553E+03  0.49964818797E+03  0.00000000000E+00 0.  1.
        -15    1    1    2    0    0  0.51823394134E+00  0.40658613236E+00  0.68913242714E+02  0.68939296697E+02  0.17770000000E+01 0.  1.
         15    1    1    2    0    0  0.23146238230E+01  0.33534344202E+01  0.14127960506E+02  0.14810806964E+02  0.17770000000E+01 0. -1.
</event>
<event>
 6    1  0.1599106E-003  0.5039052E+03  0.7546771E-02  0.9391114E-01
        -11   -1    0    0    0    0  0.00000000000E+00  0.00000000000E+00  0.50000000000E+03  0.50000000000E+03  0.00000000000E+00 0.  1.
         11   -1    0    0    0    0 -0.00000000000E+00 -0.00000000000E+00 -0.50000000000E+03  0.50000000000E+03  0.00000000000E+00 0. -1.
        -11    1    1    2    0    0 -0.16574055663E+02 -0.12542839891E+02  0.49565921814E+03  0.49609483235E+03  0.00000000000E+00 0.  1.
         11    1    1    2    0    0 -0.83290853145E+01  0.67759233281E+01 -0.38493551306E+03  0.38508523214E+03  0.00000000000E+00 0. -1.
        -15    1    1    2    0    0  0.71467003967E+00 -0.70965858142E+01 -0.65530336921E+02  0.65941300180E+02  0.17770000000E+01 0.  1.
         15    1    1    2    0    0  0.24188470938E+02  0.12863502377E+02 -0.45193368163E+02  0.52878635333E+02  0.17770000000E+01 0. -1.
</event>
<event>
 6    1  0.1599106E-003  0.5013922E+03  0.7546771E-02  0.9396700E-01
        -11   -1    0    0    0    0  0.00000000000E+00  0.00000000000E+00  0.50000000000E+03  0.50000000000E+03  0.00000000000E+00 0. -1.
         11   -1    0    0    0    0 -0.00000000000E+00 -0.00000000000E+00 -0.50000000000E+03  0.50000000000E+03  0.00000000000E+00 0. -1.
        -11    1    1    2    0    0 -0.29099453520E+01 -0.77543205094E+01  0.49853900621E+03  0.49860779976E+03  0.00000000000E+00 0. -1.
         11    1    1    2    0    0 -0.41476191584E+01  0.43239027390E+01 -0.43139607658E+03  0.43143768237E+03  0.00000000000E+00 0. -1.
        -15    1    1    2    0    0  0.92055198735E+00  0.38548124829E+01 -0.25328655801E+01  0.50279351912E+01  0.17770000000E+01 0.  1.
         15    1    1    2    0    0  0.61370125230E+01 -0.42439471254E+00 -0.64610064050E+02  0.64926582685E+02  0.17770000000E+01 0. -1.
</event>
<event>
 6    1  0.1599106E-003  0.5104194E+03  0.7546771E-02  0.9376793E-01
        -11   -1    0    0    0    0  0.00000000000E+00  0.00000000000E+00  0.50000000000E+03  0.50000000000E+03  0.00000000000E+00 0.  1.
         11   -1    0    0    0    0 -0.00000000000E+00 -0.00000000000E+00 -0.50000000000E+03  0.50000000000E+03  0.00000000000E+00 0.  1.
        -11    1    1    2    0    0 -0.60000407542E+01  0.11004183715E+02  0.48942010739E+03  0.48958056953E+03  0.00000000000E+00 0.  1.
         11    1    1    2    0    0  0.15007780777E+02 -0.18132107933E+02 -0.48046888216E+03  0.48104506395E+03  0.00000000000E+00 0.  1.
        -15    1    1    2    0    0  0.30769540456E+01 -0.59552761453E+01  0.33044059270E+01  0.76817828462E+01  0.17770000000E+01 0.  1.
         15    1    1    2    0    0 -0.12084694068E+02  0.13083200363E+02 -0.12255631156E+02  0.21692583675E+02  0.17770000000E+01 0. -1.
</event>
<event>
 6    1  0.1599106E-003  0.5053407E+03  0.7546771E-02  0.9387938E-01
        -11   -1    0    0    0    0  0.00000000000E+00  0.00000000000E+00  0.50000000000E+03  0.50000000000E+03  0.00000000000E+00 0.  1.
         11   -1    0    0    0    0 -0.00000000000E+00 -0.00000000000E+00 -0.50000000000E+03  0.50000000000E+03  0.00000000000E+00 0.  1.
        -11    1    1    2    0    0 -0.17525589348E+02 -0.65024271696E+00  0.28059552737E+03  0.28114305803E+03  0.00000000000E+00 0.  1.
         11    1    1    2    0    0  0.71394028865E+01  0.10816975932E+02 -0.49448951323E+03  0.49465933402E+03  0.00000000000E+00 0.  1.
        -15    1    1    2    0    0  0.13531112012E+02 -0.19108390993E+01  0.43367634985E+01  0.14446713986E+02  0.17770000000E+01 0. -1.
         15    1    1    2    0    0 -0.31449255511E+01 -0.82558941159E+01  0.20955722236E+03  0.20975089396E+03  0.17770000000E+01 0.  1.
</event>
<event>
 6    1  0.1599106E-003  0.5198743E+03  0.7546771E-02  0.9356405E-01
        -11   -1    0    0    0    0  0.00000000000E+00  0.00000000000E+00  0.50000000000E+03  0.50000000000E+03  0.00000000000E+00 0. -1.
         11   -1    0    0    0    0 -0.00000000000E+00 -0.00000000000E+00 -0.50000000000E+03  0.50000000000E+03  0.00000000000E+00 0.  1.
        -11    1    1    2    0    0  0.69001711446E+01 -0.74272498617E+01  0.47341282326E+03  0.47352135922E+03  0.00000000000E+00 0. -1.
         11    1    1    2    0    0 -0.67229280696E+01  0.92811883300E+01 -0.47998886683E+03  0.48012566116E+03  0.00000000000E+00 0.  1.
        -15    1    1    2    0    0  0.13604547808E+01 -0.20541249171E+02 -0.83851635615E+01  0.22299382316E+02  0.17770000000E+01 0.  1.
         15    1    1    2    0    0 -0.15376978558E+01  0.18687310703E+02  0.14961207128E+02  0.24053597313E+02  0.17770000000E+01 0. -1.
</event>
<event>
 6    1  0.1599106E-003  0.4887538E+03  0.7546771E-02  0.9425331E-01
        -11   -1    0    0    0    0  0.00000000000E+00  0.00000000000E+00  0.50000000000E+03  0.50000000000E+03  0.00000000000E+00 0. -1.
         11   -1    0    0    0    0 -0.00000000000E+00 -0.00000000000E+00 -0.50000000000E+03  0.50000000000E+03  0.00000000000E+00 0.  1.
        -11    1    1    2    0    0  0.84576219688E+01 -0.15129837832E+01  0.49137058207E+03  0.49144569325E+03  0.00000000000E+00 0. -1.
         11    1    1    2    0    0  0.72170114105E+01 -0.31386188679E+01 -0.48614898161E+03  0.48621267826E+03  0.00000000000E+00 0.  1.
        -15    1    1    2    0    0  0.16096853879E+01  0.35661051761E+01 -0.69033770153E+00  0.43522969013E+01  0.17770000000E+01 0.  1.
         15    1    1    2    0    0 -0.17284318767E+02  0.10854974749E+01 -0.45312627590E+01  0.17989331594E+02  0.17770000000E+01 0. -1.
</event>
<event>
 6    1  0.1599106E-003  0.5013503E+03  0.7546771E-02  0.9396793E-01
        -11   -1    0    0    0    0  0.00000000000E+00  0.00000000000E+00  0.50000000000E+03  0.50000000000E+03  0.00000000000E+00 0.  1.
         11   -1    0    0    0    0 -0.00000000000E+00 -0.00000000000E+00 -0.50000000000E+03  0.50000000000E+03  0.00000000000E+00 0.  1.
        -11    1    1    2    0    0  0.28904732842E+01  0.69598939003E+01  0.49859271734E+03  0.49864966935E+03  0.00000000000E+00 0.  1.
         11    1    1    2    0    0  0.59716359831E+01  0.72007057261E+01 -0.76279188751E+02  0.76850668415E+02  0.00000000000E+00 0.  1.
        -15    1    1    2    0    0 -0.11282171153E+02 -0.12346896770E+02 -0.41991181150E+03  0.42024852220E+03  0.17770000000E+01 0.  1.
         15    1    1    2    0    0  0.24200618853E+01 -0.18137028560E+01 -0.24017170946E+01  0.42511400331E+01  0.17770000000E+01 0. -1.
</event>
<event>
 6    1  0.1599106E-003  0.5063025E+03  0.7546771E-02  0.9385817E-01
        -11   -1    0    0    0    0  0.00000000000E+00  0.00000000000E+00  0.50000000000E+03  0.50000000000E+03  0.00000000000E+00 0.  1.
         11   -1    0    0    0    0 -0.00000000000E+00 -0.00000000000E+00 -0.50000000000E+03  0.50000000000E+03  0.00000000000E+00 0.  1.
        -11    1    1    2    0    0 -0.68757009881E+01  0.62855494323E+01  0.43560084989E+03  0.43570045194E+03  0.00000000000E+00 0.  1.
         11    1    1    2    0    0 -0.34847448031E+01  0.11967102312E+02 -0.49354010838E+03  0.49369747170E+03  0.00000000000E+00 0.  1.
        -15    1    1    2    0    0  0.52480552064E+01 -0.39841393662E+01  0.54542844911E+02  0.54968128128E+02  0.17770000000E+01 0. -1.
         15    1    1    2    0    0  0.51123905848E+01 -0.14268512378E+02  0.33964135802E+01  0.15633948228E+02  0.17770000000E+01 0.  1.
</event>
<event>
 6    1  0.1599106E-003  0.5107659E+03  0.7546771E-02  0.9376037E-01
        -11   -1    0    0    0    0  0.00000000000E+00  0.00000000000E+00  0.50000000000E+03  0.50000000000E+03  0.00000000000E+00 0.  1.
         11   -1    0    0    0    0 -0.00000000000E+00 -0.00000000000E+00 -0.50000000000E+03  0.50000000000E+03  0.00000000000E+00 0. -1.
        -11    1    1    2    0    0  0.86360995112E+01  0.15210503985E+02  0.36997158428E+03  0.37038481991E+03  0.00000000000E+00 0.  1.
         11    1    1    2    0    0  0.84277614944E+01 -0.24925151118E+01 -0.48915511612E+03  0.48923406200E+03  0.00000000000E+00 0. -1.
        -15    1    1    2    0    0 -0.97242793109E+01 -0.78248134875E+01  0.12750382011E+03  0.12812560706E+03  0.17770000000E+01 0.  1.
         15    1    1    2    0    0 -0.73395816947E+01 -0.48931753862E+01 -0.83202882683E+01  0.12255511033E+02  0.17770000000E+01 0. -1.
</event>
<event>
 6    1  0.1599106E-003  0.5005590E+03  0.7546771E-02  0.9398560E-01
        -11   -1    0    0    0    0  0.00000000000E+00  0.00000000000E+00  0.50000000000E+03  0.50000000000E+03  0.00000000000E+00 0. -1.
         11   -1    0    0    0    0 -0.00000000000E+00 -0.00000000000E+00 -0.50000000000E+03  0.50000000000E+03  0.00000000000E+00 0.  1.
        -11    1    1    2    0    0  0.82042912998E+01  0.45883615998E+01  0.49935248321E+03  0.49944095341E+03  0.00000000000E+00 0. -1.
         11    1    1    2    0    0  0.59632797072E+01  0.15578372050E+01 -0.21296760171E+03  0.21305676929E+03  0.00000000000E+00 0.  1.
        -15    1    1    2    0    0 -0.17601035573E+02 -0.55893479906E+01 -0.16246591583E+03  0.16352176858E+03  0.17770000000E+01 0. -1.
         15    1    1    2    0    0  0.34334645663E+01 -0.55685081421E+00 -0.12391896567E+03  0.12398050873E+03  0.17770000000E+01 0.  1.
</event>
<event>
 6    1  0.1599106E-003  0.4742653E+03  0.7546771E-02  0.9459309E-01
        -11   -1    0    0    0    0  0.00000000000E+00  0.00000000000E+00  0.50000000000E+03  0.50000000000E+03  0.00000000000E+00 0. -1.
         11   -1    0    0    0    0 -0.00000000000E+00 -0.00000000000E+00 -0.50000000000E+03  0.50000000000E+03  0.00000000000E+00 0.  1.
        -11    1    1    2    0    0 -0.16570194439E+02  0.60444306684E+01  0.48301914329E+03  0.48334107965E+03  0.00000000000E+00 0. -1.
         11    1    1    2    0    0  0.36964339619E+01  0.24787340329E+02 -0.46526921246E+03  0.46594368321E+03  0.00000000000E+00 0.  1.
        -15    1    1    2    0    0  0.71527263849E-01 -0.90400926792E+01 -0.23056431683E+02  0.24829119250E+02  0.17770000000E+01 0.  1.
         15    1    1    2    0    0  0.12802233213E+02 -0.21791678318E+02  0.53065008502E+01  0.25886117890E+02  0.17770000000E+01 0. -1.
</event>
<event>
 6    1  0.1599106E-003  0.5022960E+03  0.7546771E-02  0.9394687E-01
        -11   -1    0    0    0    0  0.00000000000E+00  0.00000000000E+00  0.50000000000E+03  0.50000000000E+03  0.00000000000E+00 0.  1.
         11   -1    0    0    0    0 -0.00000000000E+00 -0.00000000000E+00 -0.50000000000E+03  0.50000000000E+03  0.00000000000E+00 0.  1.
        -11    1    1    2    0    0  0.18718668509E+02  0.48808360996E+01  0.49732791965E+03  0.49770399915E+03  0.00000000000E+00 0.  1.
         11    1    1    2    0    0 -0.99986097235E+01  0.39842737569E+00 -0.39401660108E+03  0.39414364496E+03  0.00000000000E+00 0.  1.
        -15    1    1    2    0    0 -0.18267550170E+02 -0.90654715267E+01 -0.53963426979E+02  0.57715642104E+02  0.17770000000E+01 0. -1.
         15    1    1    2    0    0  0.95474913852E+01  0.37862080513E+01 -0.49347891592E+02  0.50436713778E+02  0.17770000000E+01 0.  1.
</event>
<event>
 6    1  0.1599106E-003  0.5029039E+03  0.7546771E-02  0.9393335E-01
        -11   -1    0    0    0    0  0.00000000000E+00  0.00000000000E+00  0.50000000000E+03  0.50000000000E+03  0.00000000000E+00 0. -1.
         11   -1    0    0    0    0 -0.00000000000E+00 -0.00000000000E+00 -0.50000000000E+03  0.50000000000E+03  0.00000000000E+00 0. -1.
        -11    1    1    2    0    0  0.58060151322E+01  0.73546432664E+01  0.49700781211E+03  0.49709613345E+03  0.00000000000E+00 0. -1.
         11    1    1    2    0    0  0.99669379548E+01  0.20128081398E+01 -0.37324696313E+03  0.37338543990E+03  0.00000000000E+00 0. -1.
        -15    1    1    2    0    0 -0.25558633432E+02 -0.80078677924E+01 -0.10326036609E+03  0.10669222382E+03  0.17770000000E+01 0. -1.
         15    1    1    2    0    0  0.97856803447E+01 -0.13595836138E+01 -0.20500482900E+02  0.22826202828E+02  0.17770000000E+01 0.  1.
</event>
<event>
 6    1  0.1599106E-003  0.5005380E+03  0.7546771E-02  0.9398607E-01
        -11   -1    0    0    0    0  0.00000000000E+00  0.00000000000E+00  0.50000000000E+03  0.50000000000E+03  0.00000000000E+00 0. -1.
         11   -1    0    0    0    0 -0.00000000000E+00 -0.00000000000E+00 -0.50000000000E+03  0.50000000000E+03  0.00000000000E+00 0.  1.
        -11    1    1    2    0    0  0.91487033993E+01 -0.69451570420E-01  0.35969617251E+03  0.35981250689E+03  0.00000000000E+00 0. -1.
         11    1    1    2    0    0  0.84518126238E+00 -0.69522804412E+01 -0.49941286448E+03  0.49946196827E+03  0.00000000000E+00 0.  1.
        -15    1    1    2    0    0 -0.71663435938E+01  0.95925555502E+01  0.86605006914E+02  0.87446889905E+02  0.17770000000E+01 0.  1.
         15    1    1    2    0    0 -0.28275410678E+01 -0.25708235386E+01  0.53111685058E+02  0.53278634938E+02  0.17770000000E+01 0. -1.
</event>
<event>
 6    1  0.1599106E-003  0.5003813E+03  0.7546771E-02  0.9398957E-01
        -11   -1    0    0    0    0  0.00000000000E+00  0.00000000000E+00  0.50000000000E+03  0.50000000000E+03  0.00000000000E+00 0.  1.
         11   -1    0    0    0    0 -0.00000000000E+00 -0.00000000000E+00 -0.50000000000E+03  0.50000000000E+03  0.00000000000E+00 0. -1.
        -11    1    1    2    0    0  0.13507935768E+02 -0.32086533231E+02  0.49718809795E+03  0.49840547216E+03  0.00000000000E+00 0.  1.
         11    1    1    2    0    0  0.39731038024E+00  0.13648045263E+01 -0.55221464020E+00  0.15249550623E+01  0.00000000000E+00 0. -1.
        -15    1    1    2    0    0  0.21054609882E+01  0.22361710137E+02 -0.82067786844E+02  0.85104397141E+02  0.17770000000E+01 0.  1.
         15    1    1    2    0    0 -0.16010707136E+02  0.83600185669E+01 -0.41456809646E+03  0.41496517563E+03  0.17770000000E+01 0. -1.
</event>
<event>
 6    1  0.1599106E-003  0.5024986E+03  0.7546771E-02  0.9394236E-01
        -11   -1    0    0    0    0  0.00000000000E+00  0.00000000000E+00  0.50000000000E+03  0.50000000000E+03  0.00000000000E+00 0. -1.
         11   -1    0    0    0    0 -0.00000000000E+00 -0.00000000000E+00 -0.50000000000E+03  0.50000000000E+03  0.00000000000E+00 0. -1.
        -11    1    1    2    0    0  0.22410636377E+01 -0.76003300663E+01  0.49743827517E+03  0.49750138189E+03  0.00000000000E+00 0. -1.
         11    1    1    2    0    0 -0.42614569793E+01 -0.10893580239E+02 -0.43586451650E+03  0.43602145229E+03  0.00000000000E+00 0. -1.
        -15    1    1    2    0    0 -0.12132703970E+01  0.20092710936E+02 -0.43544490745E+02  0.48004889970E+02  0.17770000000E+01 0. -1.
         15    1    1    2    0    0  0.32336637386E+01 -0.15988006301E+01 -0.18029267916E+02  0.18472275854E+02  0.17770000000E+01 0. -1.
</event>
<event>
 6    1  0.1599106E-003  0.5068760E+03  0.7546771E-02  0.9384554E-01
        -11   -1    0    0    0    0  0.00000000000E+00  0.00000000000E+00  0.50000000000E+03  0.50000000000E+03  0.00000000000E+00 0.  1.
         11   -1    0    0    0    0 -0.00000000000E+00 -0.00000000000E+00 -0.50000000000E+03  0.50000000000E+03  0.00000000000E+00 0. -1.
        -11    1    1    2    0    0  0.11327062460E+02 -0.15282473205E+02  0.40014148292E+03  0.40059338821E+03  0.00000000000E+00 0.  1.
         11    1    1    2    0    0 -0.18215299140E+02  0.93490689064E+00 -0.49278657188E+03  0.49312399719E+03  0.00000000000E+00 0. -1.
        -15    1    1    2    0    0 -0.14407815789E+02  0.17814149333E+02  0.19948124345E+02  0.30430485802E+02  0.17770000000E+01 0.  1.
         15    1    1    2    0    0  0.21296052469E+02 -0.34665830181E+01  0.72696964622E+02  0.75852128796E+02  0.17770000000E+01 0. -1.
</event>
<event>
 6    1  0.1599106E-003  0.5031859E+03  0.7546771E-02  0.9392709E-01
        -11   -1    0    0    0    0  0.00000000000E+00  0.00000000000E+00  0.50000000000E+03  0.50000000000E+03  0.00000000000E+00 0.  1.
         11   -1    0    0    0    0 -0.00000000000E+00 -0.00000000000E+00 -0.50000000000E+03  0.50000000000E+03  0.00000000000E+00 0.  1.
        -11    1    1    2    0    0  0.13130426298E+02 -0.43047409636E+02  0.49477140383E+03  0.49681407953E+03  0.00000000000E+00 0.  1.
         11    1    1    2    0    0  0.12996183448E+02 -0.31970572722E+01 -0.47170872324E+02  0.49032776336E+02  0.00000000000E+00 0.  1.
        -15    1    1    2    0    0 -0.22862871869E+01  0.17970575633E+02 -0.31289894382E+02  0.36199225366E+02  0.17770000000E+01 0. -1.
         15    1    1    2    0    0 -0.23840322559E+02  0.28273891275E+02 -0.41631063712E+03  0.41795391877E+03  0.17770000000E+01 0.  1.
</event>
<event>
 6    1  0.1599106E-003  0.5043682E+03  0.7546771E-02  0.9390088E-01
        -11   -1    0    0    0    0  0.00000000000E+00  0.00000000000E+00  0.50000000000E+03  0.50000000000E+03  0.00000000000E+00 0. -1.
         11   -1    0    0    0    0 -0.00000000000E+00 -0.00000000000E+00 -0.50000000000E+03  0.50000000000E+03  0.00000000000E+00 0.  1.
        -11    1    1    2    0    0 -0.22280892816E+01  0.75321592755E+01  0.36867119903E+03  0.36875486545E+03  0.00000000000E+00 0. -1.
         11    1    1    2    0    0 -0.14811085490E+02  0.12248380958E+02 -0.49525900971E+03  0.49563179658E+03  0.00000000000E+00 0.  1.
        -15    1    1    2    0    0  0.15973843884E+02 -0.29746705133E+02  0.11640189908E+03  0.12121299433E+03  0.17770000000E+01 0. -1.
         15    1    1    2    0    0  0.10653308873E+01  0.99661648992E+01  0.10185911598E+02  0.14400343634E+02  0.17770000000E+01 0.  1.
</event>
<event>
 6    1  0.1599106E-003  0.5023119E+03  0.7546771E-02  0.9394651E-01
        -11   -1    0    0    0    0  0.00000000000E+00  0.00000000000E+00  0.50000000000E+03  0.50000000000E+03  0.00000000000E+00 0.  1.
         11   -1    0    0    0    0 -0.00000000000E+00 -0.00000000000E+00 -0.50000000000E+03  0.50000000000E+03  0.00000000000E+00 0. -1.
        -11    1    1    2    0    0 -0.82230197971E+01 -0.44074231902E+01  0.49760064675E+03  0.49768810221E+03  0.00000000000E+00 0.  1.
         11    1    1    2    0    0 -0.56435354105E+01 -0.34543741160E+01 -0.32376851914E+03  0.32383612550E+03  0.00000000000E+00 0. -1.
        -15    1    1    2    0    0  0.51174077291E+01  0.93484220852E+01 -0.11093342341E+02  0.15485503887E+02  0.17770000000E+01 0. -1.
         15    1    1    2    0    0  0.87491474786E+01 -0.14866247790E+01 -0.16273878527E+03  0.16299026841E+03  0.17770000000E+01 0. -1.
</event>
<event>
 6    1  0.1599106E-003  0.5003996E+03  0.7546771E-02  0.9398916E-01
        -11   -1    0    0    0    0  0.00000000000E+00  0.00000000000E+00  0.50000000000E+03  0.50000000000E+03  0.00000000000E+00 0. -1.
         11   -1    0    0    0    0 -0.00000000000E+00 -0.00000000000E+00 -0.50000000000E+03  0.50000000000E+03  0.00000000000E+00 0.  1.
        -11    1    1    2    0    0  0.98650834502E+01  0.13375346139E+01  0.49950120857E+03  0.49960040656E+03  0.00000000000E+00 0. -1.
         11    1    1    2    0    0 -0.14840462062E+01 -0.48008160591E+01 -0.24931044574E+03  0.24936108073E+03  0.00000000000E+00 0.  1.
        -15    1    1    2    0    0 -0.29209834194E+01  0.71203127314E+01 -0.21765051276E+03  0.21779378878E+03  0.17770000000E+01 0. -1.
         15    1    1    2    0    0 -0.54600538247E+01 -0.36570312862E+01 -0.32540250072E+02  0.33244723933E+02  0.17770000000E+01 0.  1.
</event>
<event>
 6    1  0.1599106E-003  0.5151336E+03  0.7546771E-02  0.9366570E-01
        -11   -1    0    0    0    0  0.00000000000E+00  0.00000000000E+00  0.50000000000E+03  0.50000000000E+03  0.00000000000E+00 0.  1.
         11   -1    0    0    0    0 -0.00000000000E+00 -0.00000000000E+00 -0.50000000000E+03  0.50000000000E+03  0.00000000000E+00 0. -1.
        -11    1    1    2    0    0 -0.53673264247E+01  0.22868877357E+02  0.48429706816E+03  0.48486641869E+03  0.00000000000E+00 0.  1.
         11    1    1    2    0    0 -0.74274592260E+01  0.69077651843E+00 -0.44426689430E+03  0.44432951477E+03  0.00000000000E+00 0. -1.
        -15    1    1    2    0    0 -0.36109913103E+01 -0.65008854167E+01  0.11649771724E+02  0.13934693383E+02  0.17770000000E+01 0.  1.
         15    1    1    2    0    0  0.16405776961E+02 -0.17058768459E+02 -0.51679945586E+02  0.56869373161E+02  0.17770000000E+01 0. -1.
</event>
<event>
 6    1  0.1599106E-003  0.4755189E+03  0.7546771E-02  0.9456318E-01
        -11   -1    0    0    0    0  0.00000000000E+00  0.00000000000E+00  0.50000000000E+03  0.50000000000E+03  0.00000000000E+00 0. -1.
         11   -1    0    0    0    0 -0.00000000000E+00 -0.00000000000E+00 -0.50000000000E+03  0.50000000000E+03  0.00000000000E+00 0.  1.
        -11    1    1    2    0    0 -0.13000883670E+02 -0.31501608894E+02  0.47997498754E+03  0.48118329460E+03  0.00000000000E+00 0. -1.
         11    1    1    2    0    0  0.13999755506E+02  0.69502782881E+00 -0.47019523922E+03  0.47040412329E+03  0.00000000000E+00 0.  1.
        -15    1    1    2    0    0  0.15632165527E+02  0.23518986854E+02 -0.10428712306E+02  0.30156642901E+02  0.17770000000E+01 0.  1.
         15    1    1    2    0    0 -0.16631037363E+02  0.72875942110E+01  0.64896398787E+00  0.18255939209E+02  0.17770000000E+01 0. -1.
</event>
<event>
 6    1  0.1599106E-003  0.5820216E+03  0.7546771E-02  0.9232938E-01
        -11   -1    0    0    0    0  0.00000000000E+00  0.00000000000E+00  0.50000000000E+03  0.50000000000E+03  0.00000000000E+00 0. -1.
         11   -1    0    0    0    0 -0.00000000000E+00 -0.00000000000E+00 -0.50000000000E+03  0.50000000000E+03  0.00000000000E+00 0. -1.
        -11    1    1    2    0    0  0.16356232169E+02  0.13114629577E+02  0.29400545821E+03  0.29475197929E+03  0.00000000000E+00 0. -1.
         11    1    1    2    0    0 -0.45789175163E+02 -0.19114566201E+02 -0.41502282464E+03  0.41797842071E+03  0.00000000000E+00 0. -1.
        -15    1    1    2    0    0 -0.14158605451E+02 -0.72727428583E+02  0.16952864990E+03  0.18502125781E+03  0.17770000000E+01 0.  1.
         15    1    1    2    0    0  0.43591548445E+02  0.78727365207E+02 -0.48511283464E+02  0.10224834219E+03  0.17770000000E+01 0. -1.
</event>
<event>
 6    1  0.1599106E-003  0.5315675E+03  0.7546771E-02  0.9331820E-01
        -11   -1    0    0    0    0  0.00000000000E+00  0.00000000000E+00  0.50000000000E+03  0.50000000000E+03  0.00000000000E+00 0.  1.
         11   -1    0    0    0    0 -0.00000000000E+00 -0.00000000000E+00 -0.50000000000E+03  0.50000000000E+03  0.00000000000E+00 0.  1.
        -11    1    1    2    0    0 -0.20719299154E+02 -0.20669409679E+02  0.31379937551E+03  0.31516116818E+03  0.00000000000E+00 0.  1.
         11    1    1    2    0    0  0.56977662380E+01 -0.56705300386E+01 -0.46836354365E+03  0.46843252285E+03  0.00000000000E+00 0.  1.
        -15    1    1    2    0    0  0.21229768945E+02  0.18360782935E+02  0.18353157458E+03  0.18567395627E+03  0.17770000000E+01 0.  1.
         15    1    1    2    0    0 -0.62082360287E+01  0.79791567828E+01 -0.28967406444E+02  0.30732352703E+02  0.17770000000E+01 0.  1.
</event>
<event>
 6    1  0.1599106E-003  0.5003874E+03  0.7546771E-02  0.9398943E-01
        -11   -1    0    0    0    0  0.00000000000E+00  0.00000000000E+00  0.50000000000E+03  0.50000000000E+03  0.00000000000E+00 0.  1.
         11   -1    0    0    0    0 -0.00000000000E+00 -0.00000000000E+00 -0.50000000000E+03  0.50000000000E+03  0.00000000000E+00 0. -1.
        -11    1    1    2    0    0 -0.29805531303E+01  0.37745557721E+01  0.24513889127E+03  0.24518606604E+03  0.00000000000E+00 0.  1.
         11    1    1    2    0    0 -0.81695702600E+01  0.67615452359E+01 -0.49950000924E+03  0.49961256950E+03  0.00000000000E+00 0. -1.
        -15    1    1    2    0    0  0.12500795045E+02 -0.10029887325E+02  0.24613887042E+03  0.24666651532E+03  0.17770000000E+01 0.  1.
         15    1    1    2    0    0 -0.13506716548E+01 -0.50621368289E+00  0.82222475438E+01  0.85348491424E+01  0.17770000000E+01 0.  1.
</event>
<event>
 6    1  0.1599106E-003  0.5111934E+03  0.7546771E-02  0.9375106E-01
        -11   -1    0    0    0    0  0.00000000000E+00  0.00000000000E+00  0.50000000000E+03  0.50000000000E+03  0.00000000000E+00 0. -1.
         11   -1    0    0    0    0 -0.00000000000E+00 -0.00000000000E+00 -0.50000000000E+03  0.50000000000E+03  0.00000000000E+00 0.  1.
        -11    1    1    2    0    0 -0.81682534475E+01 -0.15245429412E+01  0.39431994596E+03  0.39440748520E+03  0.00000000000E+00 0. -1.
         11    1    1    2    0    0 -0.11826679517E+02 -0.39894575029E+01 -0.48864725308E+03  0.48880663259E+03  0.00000000000E+00 0.  1.
        -15    1    1    2    0    0 -0.47376032734E+01 -0.27025554764E+02  0.44581885746E+02  0.52378695676E+02  0.17770000000E+01 0. -1.
         15    1    1    2    0    0  0.24732536238E+02  0.32539555208E+02  0.49745421367E+02  0.64407186539E+02  0.17770000000E+01 0.  1.
</event>
<event>
 6    1  0.1599106E-003  0.5001749E+03  0.7546771E-02  0.9399418E-01
        -11   -1    0    0    0    0  0.00000000000E+00  0.00000000000E+00  0.50000000000E+03  0.50000000000E+03  0.00000000000E+00 0.  1.
         11   -1    0    0    0    0 -0.00000000000E+00 -0.00000000000E+00 -0.50000000000E+03  0.50000000000E+03  0.00000000000E+00 0.  1.
        -11    1    1    2    0    0 -0.80989728766E+01  0.26153034964E+01  0.49975263577E+03  0.49982509954E+03  0.00000000000E+00 0.  1.
         11    1    1    2    0    0 -0.17058076536E+01 -0.25111681341E+01 -0.17900970934E+03  0.17903544840E+03  0.00000000000E+00 0.  1.
        -15    1    1    2    0    0 -0.21792971606E+00 -0.17938019550E+01 -0.14298807136E+02  0.14521667718E+02  0.17770000000E+01 0.  1.
         15    1    1    2    0    0  0.10022710246E+02  0.16896665927E+01 -0.30644411929E+03  0.30661778434E+03  0.17770000000E+01 0.  1.
</event>
<event>
 6    1  0.1599106E-003  0.5049461E+03  0.7546771E-02  0.9388810E-01
        -11   -1    0    0    0    0  0.00000000000E+00  0.00000000000E+00  0.50000000000E+03  0.50000000000E+03  0.00000000000E+00 0.  1.
         11   -1    0    0    0    0 -0.00000000000E+00 -0.00000000000E+00 -0.50000000000E+03  0.50000000000E+03  0.00000000000E+00 0. -1.
        -11    1    1    2    0    0  0.30081597238E+01  0.51647255128E+01  0.40335004001E+03  0.40339432097E+03  0.00000000000E+00 0.  1.
         11    1    1    2    0    0  0.12398495020E+02  0.13512863872E+02 -0.49471415063E+03  0.49505394757E+03  0.00000000000E+00 0. -1.
        -15    1    1    2    0    0 -0.78344916689E+01 -0.28260050623E+02  0.78053984315E+02  0.83400191351E+02  0.17770000000E+01 0. -1.
         15    1    1    2    0    0 -0.75721630749E+01  0.95824612377E+01  0.13310126312E+02  0.18151540113E+02  0.17770000000E+01 0.  1.
</event>
<event>
 6    1  0.1599106E-003  0.5001015E+03  0.7546771E-02  0.9399583E-01
        -11   -1    0    0    0    0  0.00000000000E+00  0.00000000000E+00  0.50000000000E+03  0.50000000000E+03  0.00000000000E+00 0.  1.
         11   -1    0    0    0    0 -0.00000000000E+00 -0.00000000000E+00 -0.50000000000E+03  0.50000000000E+03  0.00000000000E+00 0.  1.
        -11    1    1    2    0    0  0.29558013717E+00 -0.57079865803E+00  0.21740102503E+02  0.21749603113E+02  0.00000000000E+00 0.  1.
         11    1    1    2    0    0  0.11466282487E+02 -0.40211582400E+01 -0.49975081907E+03  0.49989851621E+03  0.00000000000E+00 0.  1.
        -15    1    1    2    0    0 -0.94572594215E+01  0.77230505870E+01  0.42115137204E+03  0.42133207944E+03  0.17770000000E+01 0.  1.
         15    1    1    2    0    0 -0.23046032028E+01 -0.31310936890E+01  0.56859344531E+02  0.57019801237E+02  0.17770000000E+01 0. -1.
</event>
<event>
 6    1  0.1599106E-003  0.5004586E+03  0.7546771E-02  0.9398784E-01
        -11   -1    0    0    0    0  0.00000000000E+00  0.00000000000E+00  0.50000000000E+03  0.50000000000E+03  0.00000000000E+00 0. -1.
         11   -1    0    0    0    0 -0.00000000000E+00 -0.00000000000E+00 -0.50000000000E+03  0.50000000000E+03  0.00000000000E+00 0.  1.
        -11    1    1    2    0    0  0.47083016134E+00 -0.34206731882E+01  0.20539313613E+03  0.20542215814E+03  0.00000000000E+00 0. -1.
         11    1    1    2    0    0 -0.11895275182E+02 -0.33455332632E+01 -0.49938855143E+03  0.49954140515E+03  0.00000000000E+00 0.  1.
        -15    1    1    2    0    0  0.14852912305E+02  0.58938408260E+01  0.12962019990E+03  0.13061355334E+03  0.17770000000E+01 0. -1.
         15    1    1    2    0    0 -0.34284672844E+01  0.87236562534E+00  0.16437521540E+03  0.16442288337E+03  0.17770000000E+01 0.  1.
</event>
<event>
 6    1  0.1599106E-003  0.5025631E+03  0.7546771E-02  0.9394093E-01
        -11   -1    0    0    0    0  0.00000000000E+00  0.00000000000E+00  0.50000000000E+03  0.50000000000E+03  0.00000000000E+00 0. -1.
         11   -1    0    0    0    0 -0.00000000000E+00 -0.00000000000E+00 -0.50000000000E+03  0.50000000000E+03  0.00000000000E+00 0.  1.
        -11    1    1    2    0    0  0.28596024456E+02  0.17562750048E+02  0.21789259726E+03  0.22046171265E+03  0.00000000000E+00 0. -1.
         11    1    1    2    0    0 -0.45319689105E+02 -0.78123529758E+02 -0.48916902103E+03  0.49743692189E+03  0.00000000000E+00 0.  1.
        -15    1    1    2    0    0  0.10640797050E+02  0.49993262826E+02  0.26126833087E+03  0.26622706725E+03  0.17770000000E+01 0.  1.
         15    1    1    2    0    0  0.60828675993E+01  0.10567516883E+02  0.10008092896E+02  0.15874298212E+02  0.17770000000E+01 0. -1.
</event>
<event>
 6    1  0.1599106E-003  0.5003803E+03  0.7546771E-02  0.9398959E-01
        -11   -1    0    0    0    0  0.00000000000E+00  0.00000000000E+00  0.50000000000E+03  0.50000000000E+03  0.00000000000E+00 0. -1.
         11   -1    0    0    0    0 -0.00000000000E+00 -0.00000000000E+00 -0.50000000000E+03  0.50000000000E+03  0.00000000000E+00 0. -1.
        -11    1    1    2    0    0 -0.48452394897E+01  0.37925340382E+01  0.40842011215E+03  0.40846645844E+03  0.00000000000E+00 0. -1.
         11    1    1    2    0    0  0.29607241745E+01 -0.71839013500E+01 -0.49955927767E+03  0.49961970161E+03  0.00000000000E+00 0. -1.
        -15    1    1    2    0    0  0.14627042210E+01  0.48922629348E+01  0.86835553361E+02  0.87003705649E+02  0.17770000000E+01 0.  1.
         15    1    1    2    0    0  0.42181109420E+00 -0.15008956230E+01  0.43036121570E+01  0.49101343025E+01  0.17770000000E+01 0.  1.
</event>
<event>
 6    1  0.1599106E-003  0.5024017E+03  0.7546771E-02  0.9394452E-01
        -11   -1    0    0    0    0  0.00000000000E+00  0.00000000000E+00  0.50000000000E+03  0.50000000000E+03  0.00000000000E+00 0.  1.
         11   -1    0    0    0    0 -0.00000000000E+00 -0.00000000000E+00 -0.50000000000E+03  0.50000000000E+03  0.00000000000E+00 0.  1.
        -11    1    1    2    0    0 -0.49508080406E+01  0.16258795967E+02  0.49730796929E+03  0.49759830714E+03  0.00000000000E+00 0.  1.
         11    1    1    2    0    0 -0.47784106540E+01  0.10368863531E+01 -0.20637238108E+03  0.20643029820E+03  0.00000000000E+00 0.  1.
        -15    1    1    2    0    0 -0.69880256978E+01 -0.18870860456E+02 -0.25952510269E+03  0.26031015833E+03  0.17770000000E+01 0.  1.
         15    1    1    2    0    0  0.16717244392E+02  0.15751781360E+01 -0.31410485523E+02  0.35661236322E+02  0.17770000000E+01 0. -1.
</event>
<event>
 6    1  0.1599106E-003  0.5034911E+03  0.7546771E-02  0.9392032E-01
        -11   -1    0    0    0    0  0.00000000000E+00  0.00000000000E+00  0.50000000000E+03  0.50000000000E+03  0.00000000000E+00 0. -1.
         11   -1    0    0    0    0 -0.00000000000E+00 -0.00000000000E+00 -0.50000000000E+03  0.50000000000E+03  0.00000000000E+00 0.  1.
        -11    1    1    2    0    0  0.88173029558E+01 -0.56821238846E+01  0.49639813023E+03  0.49650894761E+03  0.00000000000E+00 0. -1.
         11    1    1    2    0    0 -0.75529961096E+01 -0.12435907705E+01 -0.31249502710E+03  0.31258876536E+03  0.00000000000E+00 0.  1.
        -15    1    1    2    0    0  0.22106546878E+02 -0.73503066273E+01 -0.96709371965E+02  0.99491641746E+02  0.17770000000E+01 0.  1.
         15    1    1    2    0    0 -0.23370853724E+02  0.14276021282E+02 -0.87193731166E+02  0.91410645284E+02  0.17770000000E+01 0. -1.
</event>
<event>
 6    1  0.1599106E-003  0.5060717E+03  0.7546771E-02  0.9386325E-01
        -11   -1    0    0    0    0  0.00000000000E+00  0.00000000000E+00  0.50000000000E+03  0.50000000000E+03  0.00000000000E+00 0.  1.
         11   -1    0    0    0    0 -0.00000000000E+00 -0.00000000000E+00 -0.50000000000E+03  0.50000000000E+03  0.00000000000E+00 0.  1.
        -11    1    1    2    0    0 -0.22725292573E+01  0.25129722712E+02  0.29794104534E+03  0.29900758160E+03  0.00000000000E+00 0.  1.
         11    1    1    2    0    0 -0.12922217613E+02 -0.18925808486E+02 -0.49339638964E+03  0.49392830172E+03  0.00000000000E+00 0.  1.
        -15    1    1    2    0    0  0.34559711391E+02  0.16178909163E+02  0.97380163030E+02  0.10460489775E+03  0.17770000000E+01 0.  1.
         15    1    1    2    0    0 -0.19364964521E+02 -0.22382823389E+02  0.98075181266E+02  0.10245921893E+03  0.17770000000E+01 0. -1.
</event>
<event>
 6    1  0.1599106E-003  0.5019018E+03  0.7546771E-02  0.9395564E-01
        -11   -1    0    0    0    0  0.00000000000E+00  0.00000000000E+00  0.50000000000E+03  0.50000000000E+03  0.00000000000E+00 0.  1.
         11   -1    0    0    0    0 -0.00000000000E+00 -0.00000000000E+00 -0.50000000000E+03  0.50000000000E+03  0.00000000000E+00 0.  1.
        -11    1    1    2    0    0 -0.34321345469E+01  0.58316439319E+01  0.45585020446E+03  0.45590042392E+03  0.00000000000E+00 0.  1.
         11    1    1    2    0    0  0.32444115622E+01 -0.74546716302E+01 -0.49803183018E+03  0.49809818531E+03  0.00000000000E+00 0.  1.
        -15    1    1    2    0    0  0.12093942930E+01 -0.10023708503E+01  0.42580756426E+02  0.42646757540E+02  0.17770000000E+01 0.  1.
         15    1    1    2    0    0 -0.10216713084E+01  0.26253985486E+01 -0.39913070561E+00  0.33546332321E+01  0.17770000000E+01 0. -1.
</event>
<event>
 6    1  0.1599106E-003  0.5051712E+03  0.7546771E-02  0.9388312E-01
        -11   -1    0    0    0    0  0.00000000000E+00  0.00000000000E+00  0.50000000000E+03  0.50000000000E+03  0.00000000000E+00 0. -1.
         11   -1    0    0    0    0 -0.00000000000E+00 -0.00000000000E+00 -0.50000000000E+03  0.50000000000E+03  0.00000000000E+00 0.  1.
        -11    1    1    2    0    0  0.55872610502E+01 -0.41501527571E+01  0.49477981799E+03  0.49482876790E+03  0.00000000000E+00 0. -1.
         11    1    1    2    0    0 -0.12420610324E+02 -0.25635502195E+01 -0.44292602030E+03  0.44310755220E+03  0.00000000000E+00 0.  1.
        -15    1    1    2    0    0 -0.22637378179E+01  0.69021433619E+01  0.17367592457E+01  0.76771188329E+01  0.17770000000E+01 0.  1.
         15    1    1    2    0    0  0.90970870920E+01 -0.18844038534E+00 -0.53590556933E+02  0.54386561067E+02  0.17770000000E+01 0.  1.
</event>
<event>
 6    1  0.1599106E-003  0.5015598E+03  0.7546771E-02  0.9396326E-01
        -11   -1    0    0    0    0  0.00000000000E+00  0.00000000000E+00  0.50000000000E+03  0.50000000000E+03  0.00000000000E+00 0.  1.
         11   -1    0    0    0    0 -0.00000000000E+00 -0.00000000000E+00 -0.50000000000E+03  0.50000000000E+03  0.00000000000E+00 0.  1.
        -11    1    1    2    0    0 -0.67794888487E+01  0.27632981203E+01  0.47549499462E+03  0.47555135074E+03  0.00000000000E+00 0.  1.
         11    1    1    2    0    0  0.59190553974E+01 -0.72292517966E+01 -0.49835263360E+03  0.49844021177E+03  0.00000000000E+00 0.  1.
        -15    1    1    2    0    0  0.18436240278E+00 -0.32928517268E+01  0.37617083346E+01  0.53089585217E+01  0.17770000000E+01 0.  1.
         15    1    1    2    0    0  0.67607104845E+00  0.77588054031E+01  0.19095930643E+02  0.20699478966E+02  0.17770000000E+01 0.  1.
</event>
<event>
 6    1  0.1599106E-003  0.5065731E+03  0.7546771E-02  0.9385221E-01
        -11   -1    0    0    0    0  0.00000000000E+00  0.00000000000E+00  0.50000000000E+03  0.50000000000E+03  0.00000000000E+00 0.  1.
         11   -1    0    0    0    0 -0.00000000000E+00 -0.00000000000E+00 -0.50000000000E+03  0.50000000000E+03  0.00000000000E+00 0.  1.
        -11    1    1    2    0    0  0.19453378027E+01  0.78967013027E+01  0.40537203616E+03  0.40545361008E+03  0.00000000000E+00 0.  1.
         11    1    1    2    0    0  0.80790129980E+01 -0.10713272455E+02 -0.49324440737E+03  0.49342688421E+03  0.00000000000E+00 0.  1.
        -15    1    1    2    0    0 -0.55828826390E-01  0.75318595541E+01 -0.39026889906E+01  0.86672219054E+01  0.17770000000E+01 0. -1.
         15    1    1    2    0    0 -0.99685219743E+01 -0.47152884018E+01  0.91775060208E+02  0.92452283802E+02  0.17770000000E+01 0.  1.
</event>
<event>
 6    1  0.1599106E-003  0.5035006E+03  0.7546771E-02  0.9392011E-01
        -11   -1    0    0    0    0  0.00000000000E+00  0.00000000000E+00  0.50000000000E+03  0.50000000000E+03  0.00000000000E+00 0.  1.
         11   -1    0    0    0    0 -0.00000000000E+00 -0.00000000000E+00 -0.50000000000E+03  0.50000000000E+03  0.00000000000E+00 0. -1.
        -11    1    1    2    0    0 -0.28120353025E+01 -0.60963399787E+01  0.49645396017E+03  0.49649935295E+03  0.00000000000E+00 0.  1.
         11    1    1    2    0    0  0.19206181872E+01  0.10761434018E+02 -0.46226284923E+03  0.46239208364E+03  0.00000000000E+00 0. -1.
        -15    1    1    2    0    0 -0.35330006131E+01 -0.72482470542E+01 -0.20424833859E+01  0.85058007308E+01  0.17770000000E+01 0. -1.
         15    1    1    2    0    0  0.44244177284E+01  0.25831530152E+01 -0.32148627554E+02  0.32602762680E+02  0.17770000000E+01 0.  1.
</event>
<event>
 6    1  0.1599106E-003  0.5019624E+03  0.7546771E-02  0.9395429E-01
        -11   -1    0    0    0    0  0.00000000000E+00  0.00000000000E+00  0.50000000000E+03  0.50000000000E+03  0.00000000000E+00 0.  1.
         11   -1    0    0    0    0 -0.00000000000E+00 -0.00000000000E+00 -0.50000000000E+03  0.50000000000E+03  0.00000000000E+00 0. -1.
        -11    1    1    2    0    0 -0.22395974460E+01 -0.33095774588E+01  0.37455643602E+02  0.37668213886E+02  0.00000000000E+00 0.  1.
         11    1    1    2    0    0 -0.14481910203E+02  0.54776036250E+00 -0.49782667821E+03  0.49803757619E+03  0.00000000000E+00 0. -1.
        -15    1    1    2    0    0  0.50458048973E+01  0.51875686302E+01  0.44347457926E+03  0.44353718129E+03  0.17770000000E+01 0.  1.
         15    1    1    2    0    0  0.11675702752E+02 -0.24257515338E+01  0.16896455348E+02  0.20757028631E+02  0.17770000000E+01 0. -1.
</event>
<event>
 6    1  0.1599106E-003  0.5134497E+03  0.7546771E-02  0.9370208E-01
        -11   -1    0    0    0    0  0.00000000000E+00  0.00000000000E+00  0.50000000000E+03  0.50000000000E+03  0.00000000000E+00 0.  1.
         11   -1    0    0    0    0 -0.00000000000E+00 -0.00000000000E+00 -0.50000000000E+03  0.50000000000E+03  0.00000000000E+00 0. -1.
        -11    1    1    2    0    0 -0.23906440343E+02  0.13622619893E+02  0.37530269855E+03  0.37630999083E+03  0.00000000000E+00 0.  1.
         11    1    1    2    0    0  0.26297960502E+02 -0.27829535296E+02 -0.48504137265E+03  0.48655030463E+03  0.00000000000E+00 0. -1.
        -15    1    1    2    0    0  0.17065343094E+02 -0.24283594628E+02  0.78252538270E+02  0.83711029009E+02  0.17770000000E+01 0.  1.
         15    1    1    2    0    0 -0.19456863253E+02  0.38490510032E+02  0.31486135828E+02  0.53428675527E+02  0.17770000000E+01 0. -1.
</event>
<event>
 6    1  0.1599106E-003  0.5083776E+03  0.7546771E-02  0.9381257E-01
        -11   -1    0    0    0    0  0.00000000000E+00  0.00000000000E+00  0.50000000000E+03  0.50000000000E+03  0.00000000000E+00 0.  1.
         11   -1    0    0    0    0 -0.00000000000E+00 -0.00000000000E+00 -0.50000000000E+03  0.50000000000E+03  0.00000000000E+00 0.  1.
        -11    1    1    2    0    0 -0.10690462176E+02  0.11695751995E+02  0.45534188986E+03  0.45561750763E+03  0.00000000000E+00 0.  1.
         11    1    1    2    0    0  0.11096987694E+01  0.13028490145E+02 -0.49144853195E+03  0.49162244918E+03  0.00000000000E+00 0.  1.
        -15    1    1    2    0    0  0.53299653365E+01 -0.18197269730E+02  0.39675660459E+02  0.44009827516E+02  0.17770000000E+01 0.  1.
         15    1    1    2    0    0  0.42507980705E+01 -0.65269724103E+01 -0.35690183733E+01  0.87502156676E+01  0.17770000000E+01 0. -1.
</event>
<event>
 6    1  0.1599106E-003  0.5080535E+03  0.7546771E-02  0.9381968E-01
        -11   -1    0    0    0    0  0.00000000000E+00  0.00000000000E+00  0.50000000000E+03  0.50000000000E+03  0.00000000000E+00 0.  1.
         11   -1    0    0    0    0 -0.00000000000E+00 -0.00000000000E+00 -0.50000000000E+03  0.50000000000E+03  0.00000000000E+00 0.  1.
        -11    1    1    2    0    0  0.14613139290E+02 -0.23930812239E+01  0.49172361013E+03  0.49194652091E+03  0.00000000000E+00 0.  1.
         11    1    1    2    0    0 -0.27667826996E+02  0.51623911096E+01 -0.43667484817E+03  0.43758094332E+03  0.00000000000E+00 0.  1.
        -15    1    1    2    0    0 -0.55539277780E+01 -0.10996061446E+02 -0.76063971405E+00  0.12469794821E+02  0.17770000000E+01 0. -1.
         15    1    1    2    0    0  0.18608615484E+02  0.82267515605E+01 -0.54288122245E+02  0.58002740947E+02  0.17770000000E+01 0.  1.
</event>
<event>
 6    1  0.1599106E-003  0.5050132E+03  0.7546771E-02  0.9388662E-01
        -11   -1    0    0    0    0  0.00000000000E+00  0.00000000000E+00  0.50000000000E+03  0.50000000000E+03  0.00000000000E+00 0. -1.
         11   -1    0    0    0    0 -0.00000000000E+00 -0.00000000000E+00 -0.50000000000E+03  0.50000000000E+03  0.00000000000E+00 0.  1.
        -11    1    1    2    0    0  0.64213500022E+01 -0.51396546644E+01  0.48061007223E+03  0.48068044616E+03  0.00000000000E+00 0. -1.
         11    1    1    2    0    0 -0.61363754698E+01  0.37020664906E+01 -0.49493488666E+03  0.49498676996E+03  0.00000000000E+00 0.  1.
        -15    1    1    2    0    0 -0.29359383768E+01  0.65605047686E+01  0.16364733311E+02  0.17961686511E+02  0.17770000000E+01 0.  1.
         15    1    1    2    0    0  0.26509638443E+01 -0.51229165949E+01 -0.20399188837E+01  0.63710973775E+01  0.17770000000E+01 0. -1.
</event>
<event>
 6    1  0.1599106E-003  0.5012592E+03  0.7546771E-02  0.9396997E-01
        -11   -1    0    0    0    0  0.00000000000E+00  0.00000000000E+00  0.50000000000E+03  0.50000000000E+03  0.00000000000E+00 0.  1.
         11   -1    0    0    0    0 -0.00000000000E+00 -0.00000000000E+00 -0.50000000000E+03  0.50000000000E+03  0.00000000000E+00 0.  1.
        -11    1    1    2    0    0 -0.10977726854E+02  0.23809483149E+01  0.49861426494E+03  0.49874077897E+03  0.00000000000E+00 0.  1.
         11    1    1    2    0    0 -0.95624674008E+01  0.59950076780E+01 -0.20801663182E+03  0.20832258642E+03  0.00000000000E+00 0.  1.
        -15    1    1    2    0    0  0.73961609302E+01  0.30191121835E+01 -0.17936080909E+02  0.19714942613E+02  0.17770000000E+01 0. -1.
         15    1    1    2    0    0  0.13144033324E+02 -0.11395068176E+02 -0.27266155221E+03  0.27322169199E+03  0.17770000000E+01 0.  1.
</event>
<event>
 6    1  0.2349146E-003  0.5002917E+03  0.7546771E-02  0.9399157E-01
        -11   -1    0    0    0    0  0.00000000000E+00  0.00000000000E+00  0.50000000000E+03  0.50000000000E+03  0.00000000000E+00 0.  1.
         11   -1    0    0    0    0 -0.00000000000E+00 -0.00000000000E+00 -0.50000000000E+03  0.50000000000E+03  0.00000000000E+00 0. -1.
        -11    1    1    2    0    0 -0.68984523234E+01 -0.79580094703E+00  0.49966002720E+03  0.49970827962E+03  0.00000000000E+00 0.  1.
         11    1    1    2    0    0 -0.62132253842E-01 -0.63516811163E+01 -0.24555067534E+03  0.24563281921E+03  0.00000000000E+00 0. -1.
        -15    1    1    2    0    0  0.45321436328E+01  0.61334714465E+00 -0.27426389319E+02  0.27861821202E+02  0.17770000000E+01 0.  1.
         15    1    1    2    0    0  0.24284409444E+01  0.65341349187E+01 -0.22668296254E+03  0.22679707997E+03  0.17770000000E+01 0. -1.
</event>
<event>
 6    1  0.1599106E-003  0.5000770E+03  0.7546771E-02  0.9399637E-01
        -11   -1    0    0    0    0  0.00000000000E+00  0.00000000000E+00  0.50000000000E+03  0.50000000000E+03  0.00000000000E+00 0. -1.
         11   -1    0    0    0    0 -0.00000000000E+00 -0.00000000000E+00 -0.50000000000E+03  0.50000000000E+03  0.00000000000E+00 0. -1.
        -11    1    1    2    0    0  0.40992971921E+01 -0.64756152005E+01  0.49986423763E+03  0.49992298796E+03  0.00000000000E+00 0. -1.
         11    1    1    2    0    0  0.14720370470E+01  0.37620599314E+01 -0.22120639600E+03  0.22124328152E+03  0.00000000000E+00 0. -1.
        -15    1    1    2    0    0 -0.21105914805E+01  0.46605645714E+01 -0.13122306023E+03  0.13133478109E+03  0.17770000000E+01 0. -1.
         15    1    1    2    0    0 -0.34607427586E+01 -0.19470093023E+01 -0.14743478141E+03  0.14749894943E+03  0.17770000000E+01 0.  1.
</event>
<event>
 6    1  0.1599106E-003  0.5008012E+03  0.7546771E-02  0.9398019E-01
        -11   -1    0    0    0    0  0.00000000000E+00  0.00000000000E+00  0.50000000000E+03  0.50000000000E+03  0.00000000000E+00 0.  1.
         11   -1    0    0    0    0 -0.00000000000E+00 -0.00000000000E+00 -0.50000000000E+03  0.50000000000E+03  0.00000000000E+00 0. -1.
        -11    1    1    2    0    0 -0.63216756256E+01  0.47489567861E+01  0.23289565647E+03  0.23302983281E+03  0.00000000000E+00 0.  1.
         11    1    1    2    0    0 -0.57526865881E+01  0.45471914400E+01 -0.49914498773E+03  0.49919884728E+03  0.00000000000E+00 0. -1.
        -15    1    1    2    0    0 -0.35312894663E+00 -0.51261997366E+01  0.11956141528E+02  0.13134293777E+02  0.17770000000E+01 0. -1.
         15    1    1    2    0    0  0.12427491160E+02 -0.41699484895E+01  0.25429318973E+03  0.25463702613E+03  0.17770000000E+01 0.  1.
</event>
<event>
 6    1  0.1599106E-003  0.5146716E+03  0.7546771E-02  0.9367566E-01
        -11   -1    0    0    0    0  0.00000000000E+00  0.00000000000E+00  0.50000000000E+03  0.50000000000E+03  0.00000000000E+00 0.  1.
         11   -1    0    0    0    0 -0.00000000000E+00 -0.00000000000E+00 -0.50000000000E+03  0.50000000000E+03  0.00000000000E+00 0.  1.
        -11    1    1    2    0    0  0.10126875143E+02 -0.13045619748E+02  0.33097043749E+03  0.33138221481E+03  0.00000000000E+00 0.  1.
         11    1    1    2    0    0  0.67991345348E+01  0.58669714012E+00 -0.48528044913E+03  0.48532843184E+03  0.00000000000E+00 0.  1.
        -15    1    1    2    0    0  0.43615804762E+00 -0.33157234461E+02  0.16501041361E+02  0.37081457980E+02  0.17770000000E+01 0.  1.
         15    1    1    2    0    0 -0.17362167725E+02  0.45616157070E+02  0.13780897027E+03  0.14620789538E+03  0.17770000000E+01 0. -1.
</event>
<event>
 6    1  0.1599106E-003  0.4879638E+03  0.7546771E-02  0.9427152E-01
        -11   -1    0    0    0    0  0.00000000000E+00  0.00000000000E+00  0.50000000000E+03  0.50000000000E+03  0.00000000000E+00 0.  1.
         11   -1    0    0    0    0 -0.00000000000E+00 -0.00000000000E+00 -0.50000000000E+03  0.50000000000E+03  0.00000000000E+00 0. -1.
        -11    1    1    2    0    0 -0.70629091094E+01  0.57975565093E+01  0.48510805388E+03  0.48519410579E+03  0.00000000000E+00 0.  1.
         11    1    1    2    0    0 -0.79709287042E+00  0.10540190284E+02 -0.49080460154E+03  0.49091841263E+03  0.00000000000E+00 0. -1.
        -15    1    1    2    0    0  0.25866349443E+01 -0.15802205276E+02  0.29452264839E+00  0.16113498829E+02  0.17770000000E+01 0.  1.
         15    1    1    2    0    0  0.52733670355E+01 -0.53554151703E+00  0.54020250091E+01  0.77739827506E+01  0.17770000000E+01 0. -1.
</event>
<event>
 6    1  0.1599106E-003  0.5326603E+03  0.7546771E-02  0.9329556E-01
        -11   -1    0    0    0    0  0.00000000000E+00  0.00000000000E+00  0.50000000000E+03  0.50000000000E+03  0.00000000000E+00 0.  1.
         11   -1    0    0    0    0 -0.00000000000E+00 -0.00000000000E+00 -0.50000000000E+03  0.50000000000E+03  0.00000000000E+00 0. -1.
        -11    1    1    2    0    0 -0.42870883250E+00 -0.61526347571E+01  0.44998377916E+03  0.45002604392E+03  0.00000000000E+00 0.  1.
         11    1    1    2    0    0  0.21037819438E+02  0.11236259367E+02 -0.46673066135E+03  0.46733965551E+03  0.00000000000E+00 0. -1.
        -15    1    1    2    0    0 -0.12826049674E+02 -0.19619145876E+02 -0.27029906810E+02  0.35821669787E+02  0.17770000000E+01 0. -1.
         15    1    1    2    0    0 -0.77830609312E+01  0.14535521266E+02  0.43776789002E+02  0.46812630777E+02  0.17770000000E+01 0.  1.
</event>
<event>
 6    1  0.1599106E-003  0.4925352E+03  0.7546771E-02  0.9416669E-01
        -11   -1    0    0    0    0  0.00000000000E+00  0.00000000000E+00  0.50000000000E+03  0.50000000000E+03  0.00000000000E+00 0. -1.
         11   -1    0    0    0    0 -0.00000000000E+00 -0.00000000000E+00 -0.50000000000E+03  0.50000000000E+03  0.00000000000E+00 0.  1.
        -11    1    1    2    0    0 -0.10195486360E+02  0.49332600386E+01  0.49397226935E+03  0.49410210269E+03  0.00000000000E+00 0. -1.
         11    1    1    2    0    0  0.10674255910E+01  0.18326542961E+01 -0.25890548809E+02  0.25977269617E+02  0.00000000000E+00 0.  1.
        -15    1    1    2    0    0  0.33106392796E+02 -0.57173372992E+01 -0.44597286845E+03  0.44724006787E+03  0.17770000000E+01 0.  1.
         15    1    1    2    0    0 -0.23978332028E+02 -0.10485770356E+01 -0.22108852088E+02  0.32680559822E+02  0.17770000000E+01 0. -1.
</event>
<event>
 6    1  0.1599106E-003  0.5035122E+03  0.7546771E-02  0.9391985E-01
        -11   -1    0    0    0    0  0.00000000000E+00  0.00000000000E+00  0.50000000000E+03  0.50000000000E+03  0.00000000000E+00 0.  1.
         11   -1    0    0    0    0 -0.00000000000E+00 -0.00000000000E+00 -0.50000000000E+03  0.50000000000E+03  0.00000000000E+00 0.  1.
        -11    1    1    2    0    0 -0.33969913893E+01  0.56333914999E+01  0.47176348869E+03  0.47180935123E+03  0.00000000000E+00 0.  1.
         11    1    1    2    0    0  0.54094080024E+01 -0.70105657366E+01 -0.49640877989E+03  0.49648775058E+03  0.00000000000E+00 0.  1.
        -15    1    1    2    0    0 -0.12849801702E+00  0.10110476464E+02  0.92720652209E+01  0.13833552275E+02  0.17770000000E+01 0.  1.
         15    1    1    2    0    0 -0.18839185960E+01 -0.87333022277E+01  0.15373225983E+02  0.17869345909E+02  0.17770000000E+01 0. -1.
</event>
<event>
 6    1  0.1599106E-003  0.5027915E+03  0.7546771E-02  0.9393585E-01
        -11   -1    0    0    0    0  0.00000000000E+00  0.00000000000E+00  0.50000000000E+03  0.50000000000E+03  0.00000000000E+00 0.  1.
         11   -1    0    0    0    0 -0.00000000000E+00 -0.00000000000E+00 -0.50000000000E+03  0.50000000000E+03  0.00000000000E+00 0. -1.
        -11    1    1    2    0    0  0.37926039511E+01 -0.92432538330E+01  0.49152865536E+03  0.49163018685E+03  0.00000000000E+00 0.  1.
         11    1    1    2    0    0 -0.53692259652E+01  0.40542382821E+01 -0.49716301787E+03  0.49720853953E+03  0.00000000000E+00 0. -1.
        -15    1    1    2    0    0 -0.11035603331E+01  0.25067460988E+01  0.61292497487E+01  0.69445700295E+01  0.17770000000E+01 0.  1.
         15    1    1    2    0    0  0.26801823471E+01  0.26822694521E+01 -0.49488723189E+00  0.42167035940E+01  0.17770000000E+01 0. -1.
</event>
<event>
 6    1  0.1599106E-003  0.5136187E+03  0.7546771E-02  0.9369842E-01
        -11   -1    0    0    0    0  0.00000000000E+00  0.00000000000E+00  0.50000000000E+03  0.50000000000E+03  0.00000000000E+00 0.  1.
         11   -1    0    0    0    0 -0.00000000000E+00 -0.00000000000E+00 -0.50000000000E+03  0.50000000000E+03  0.00000000000E+00 0.  1.
        -11    1    1    2    0    0 -0.50318311603E+00  0.81303515651E+01  0.48631312615E+03  0.48638134471E+03  0.00000000000E+00 0.  1.
         11    1    1    2    0    0  0.95166947162E+01  0.90709339972E+01 -0.33737388918E+03  0.33762996079E+03  0.00000000000E+00 0.  1.
        -15    1    1    2    0    0 -0.78873079239E+01 -0.24568904726E+02 -0.16025170007E+03  0.16232561662E+03  0.17770000000E+01 0.  1.
         15    1    1    2    0    0 -0.11262036763E+01  0.73676191635E+01  0.11312463100E+02  0.13663077884E+02  0.17770000000E+01 0. -1.
</event>
<event>
 6    1  0.1599106E-003  0.5083952E+03  0.7546771E-02  0.9381218E-01
        -11   -1    0    0    0    0  0.00000000000E+00  0.00000000000E+00  0.50000000000E+03  0.50000000000E+03  0.00000000000E+00 0. -1.
         11   -1    0    0    0    0 -0.00000000000E+00 -0.00000000000E+00 -0.50000000000E+03  0.50000000000E+03  0.00000000000E+00 0. -1.
        -11    1    1    2    0    0 -0.10795081801E+02  0.76328727074E+01  0.48089205222E+03  0.48107375778E+03  0.00000000000E+00 0. -1.
         11    1    1    2    0    0  0.68790604604E+01  0.26776629104E+01 -0.49154935577E+03  0.49160478080E+03  0.00000000000E+00 0. -1.
        -15    1    1    2    0    0  0.84534082212E+01 -0.13076161203E+01  0.14043143820E+02  0.16538971789E+02  0.17770000000E+01 0. -1.
         15    1    1    2    0    0 -0.45373868801E+01 -0.90029194975E+01 -0.33858402776E+01  0.10782489627E+02  0.17770000000E+01 0.  1.
</event>
<event>
 6    1  0.1599106E-003  0.5180865E+03  0.7546771E-02  0.9360225E-01
        -11   -1    0    0    0    0  0.00000000000E+00  0.00000000000E+00  0.50000000000E+03  0.50000000000E+03  0.00000000000E+00 0.  1.
         11   -1    0    0    0    0 -0.00000000000E+00 -0.00000000000E+00 -0.50000000000E+03  0.50000000000E+03  0.00000000000E+00 0.  1.
        -11    1    1    2    0    0  0.15839521950E+00  0.61007893848E+01  0.42763735028E+03  0.42768089515E+03  0.00000000000E+00 0.  1.
         11    1    1    2    0    0  0.24972647571E+02  0.19395618958E+02 -0.48087499167E+03  0.48191345776E+03  0.00000000000E+00 0.  1.
        -15    1    1    2    0    0 -0.27913486798E+02  0.14283275670E+02  0.13837702344E+02  0.34319301336E+02  0.17770000000E+01 0. -1.
         15    1    1    2    0    0  0.27824440070E+01 -0.39779684012E+02  0.39399939043E+02  0.56086345757E+02  0.17770000000E+01 0.  1.
</event>
<event>
 6    1  0.1599106E-003  0.5157866E+03  0.7546771E-02  0.9365163E-01
        -11   -1    0    0    0    0  0.00000000000E+00  0.00000000000E+00  0.50000000000E+03  0.50000000000E+03  0.00000000000E+00 0.  1.
         11   -1    0    0    0    0 -0.00000000000E+00 -0.00000000000E+00 -0.50000000000E+03  0.50000000000E+03  0.00000000000E+00 0. -1.
        -11    1    1    2    0    0  0.65778638074E+01  0.16926503082E+02  0.48387274947E+03  0.48421339560E+03  0.00000000000E+00 0.  1.
         11    1    1    2    0    0  0.86510138170E+01 -0.27993732166E+01 -0.45723266109E+03  0.45732306185E+03  0.00000000000E+00 0. -1.
        -15    1    1    2    0    0 -0.73277533183E+01 -0.17020556850E+01 -0.38627614171E+02  0.39393441939E+02  0.17770000000E+01 0. -1.
         15    1    1    2    0    0 -0.79011243062E+01 -0.12425074181E+02  0.11987525798E+02  0.19070100614E+02  0.17770000000E+01 0.  1.
</event>
<event>
 6    1  0.1599106E-003  0.5102138E+03  0.7546771E-02  0.9377241E-01
        -11   -1    0    0    0    0  0.00000000000E+00  0.00000000000E+00  0.50000000000E+03  0.50000000000E+03  0.00000000000E+00 0.  1.
         11   -1    0    0    0    0 -0.00000000000E+00 -0.00000000000E+00 -0.50000000000E+03  0.50000000000E+03  0.00000000000E+00 0. -1.
        -11    1    1    2    0    0 -0.22499987278E+02 -0.54587845180E+01  0.47631909998E+03  0.47688146615E+03  0.00000000000E+00 0.  1.
         11    1    1    2    0    0  0.17877786162E+02 -0.92384835789E+01 -0.48937261912E+03  0.48978620353E+03  0.00000000000E+00 0. -1.
        -15    1    1    2    0    0 -0.92676794998E+01 -0.33083218410E-01  0.51266096431E+00  0.94504776638E+01  0.17770000000E+01 0. -1.
         15    1    1    2    0    0  0.13889880615E+02  0.14730351315E+02  0.12540858179E+02  0.23881852656E+02  0.17770000000E+01 0.  1.
</event>
<event>
 6    1  0.1599106E-003  0.5102729E+03  0.7546771E-02  0.9377112E-01
        -11   -1    0    0    0    0  0.00000000000E+00  0.00000000000E+00  0.50000000000E+03  0.50000000000E+03  0.00000000000E+00 0. -1.
         11   -1    0    0    0    0 -0.00000000000E+00 -0.00000000000E+00 -0.50000000000E+03  0.50000000000E+03  0.00000000000E+00 0. -1.
        -11    1    1    2    0    0 -0.16794229257E+02 -0.20414220005E+02  0.43114481850E+03  0.43195444324E+03  0.00000000000E+00 0. -1.
         11    1    1    2    0    0 -0.43020551873E+01  0.14136366394E+02 -0.48950409444E+03  0.48972706991E+03  0.00000000000E+00 0. -1.
        -15    1    1    2    0    0 -0.95945743770E+00 -0.70825684970E+01 -0.56531825968E+01  0.92843706067E+01  0.17770000000E+01 0.  1.
         15    1    1    2    0    0  0.22055741882E+02  0.13360422108E+02  0.64012458531E+02  0.69034116240E+02  0.17770000000E+01 0. -1.
</event>
<event>
 6    1  0.1599106E-003  0.5018797E+03  0.7546771E-02  0.9395614E-01
        -11   -1    0    0    0    0  0.00000000000E+00  0.00000000000E+00  0.50000000000E+03  0.50000000000E+03  0.00000000000E+00 0. -1.
         11   -1    0    0    0    0 -0.00000000000E+00 -0.00000000000E+00 -0.50000000000E+03  0.50000000000E+03  0.00000000000E+00 0.  1.
        -11    1    1    2    0    0  0.10071872853E+01 -0.29949510887E+01  0.15560662001E+03  0.15563869811E+03  0.00000000000E+00 0. -1.
         11    1    1    2    0    0  0.12343387821E+02 -0.46934513872E+01 -0.49794524962E+03  0.49812032616E+03  0.00000000000E+00 0.  1.
        -15    1    1    2    0    0 -0.15432241226E+02  0.10642734168E+02  0.43812465230E+02  0.47687647231E+02  0.17770000000E+01 0.  1.
         15    1    1    2    0    0  0.20816661202E+01 -0.29543316919E+01  0.29852616439E+03  0.29855332851E+03  0.17770000000E+01 0. -1.
</event>
<event>
 6    1  0.1599106E-003  0.5000939E+03  0.7546771E-02  0.9399600E-01
        -11   -1    0    0    0    0  0.00000000000E+00  0.00000000000E+00  0.50000000000E+03  0.50000000000E+03  0.00000000000E+00 0.  1.
         11   -1    0    0    0    0 -0.00000000000E+00 -0.00000000000E+00 -0.50000000000E+03  0.50000000000E+03  0.00000000000E+00 0.  1.
        -11    1    1    2    0    0 -0.11297575575E+01  0.48580383928E+01  0.19422615165E+03  0.19429018214E+03  0.00000000000E+00 0.  1.
         11    1    1    2    0    0 -0.56669734415E+01 -0.38121601886E+01 -0.49985940452E+03  0.49990606262E+03  0.00000000000E+00 0.  1.
        -15    1    1    2    0    0  0.12221965164E+01 -0.54584985714E+00  0.22523080567E+02  0.22632688828E+02  0.17770000000E+01 0.  1.
         15    1    1    2    0    0  0.55745344826E+01 -0.50002834710E+00  0.28311017230E+03  0.28317106641E+03  0.17770000000E+01 0.  1.
</event>
<event>
 6    1  0.1599106E-003  0.5089096E+03  0.7546771E-02  0.9380091E-01
        -11   -1    0    0    0    0  0.00000000000E+00  0.00000000000E+00  0.50000000000E+03  0.50000000000E+03  0.00000000000E+00 0. -1.
         11   -1    0    0    0    0 -0.00000000000E+00 -0.00000000000E+00 -0.50000000000E+03  0.50000000000E+03  0.00000000000E+00 0. -1.
        -11    1    1    2    0    0  0.19565160147E+01  0.10029821647E+02  0.48757664999E+03  0.48768372425E+03  0.00000000000E+00 0. -1.
         11    1    1    2    0    0  0.20147778425E+01 -0.87248408087E+01 -0.49100871836E+03  0.49109036203E+03  0.00000000000E+00 0. -1.
        -15    1    1    2    0    0 -0.15256868373E+01  0.65258934480E+01 -0.55874843004E+01  0.89046457216E+01  0.17770000000E+01 0.  1.
         15    1    1    2    0    0 -0.24456070199E+01 -0.78308742863E+01  0.90195526658E+01  0.12321267998E+02  0.17770000000E+01 0. -1.
</event>
<event>
 6    1  0.1599106E-003  0.5080039E+03  0.7546771E-02  0.9382076E-01
        -11   -1    0    0    0    0  0.00000000000E+00  0.00000000000E+00  0.50000000000E+03  0.50000000000E+03  0.00000000000E+00 0.  1.
         11   -1    0    0    0    0 -0.00000000000E+00 -0.00000000000E+00 -0.50000000000E+03  0.50000000000E+03  0.00000000000E+00 0. -1.
        -11    1    1    2    0    0 -0.33666575664E+01 -0.61617674991E+01  0.49194597708E+03  0.49199608344E+03  0.00000000000E+00 0.  1.
         11    1    1    2    0    0 -0.46903860363E+00 -0.83048997340E+01 -0.48197530754E+03  0.48204708114E+03  0.00000000000E+00 0. -1.
        -15    1    1    2    0    0 -0.68677098798E+01  0.18624187675E+01 -0.29977238509E+01  0.79232644753E+01  0.17770000000E+01 0. -1.
         15    1    1    2    0    0  0.10703406050E+02  0.12604248466E+02 -0.69729456903E+01  0.18033570946E+02  0.17770000000E+01 0.  1.
</event>
<event>
 6    1  0.1599106E-003  0.5007812E+03  0.7546771E-02  0.9398063E-01
        -11   -1    0    0    0    0  0.00000000000E+00  0.00000000000E+00  0.50000000000E+03  0.50000000000E+03  0.00000000000E+00 0.  1.
         11   -1    0    0    0    0 -0.00000000000E+00 -0.00000000000E+00 -0.50000000000E+03  0.50000000000E+03  0.00000000000E+00 0. -1.
        -11    1    1    2    0    0  0.56671152651E+01  0.17933057885E+02  0.49886439516E+03  0.49921878522E+03  0.00000000000E+00 0.  1.
         11    1    1    2    0    0 -0.95964165227E+00 -0.30692956017E+01 -0.13545243351E+03  0.13549060201E+03  0.00000000000E+00 0. -1.
        -15    1    1    2    0    0  0.75198410300E+01 -0.41105278980E+01 -0.25096660418E+02  0.26579024472E+02  0.17770000000E+01 0.  1.
         15    1    1    2    0    0 -0.12227314643E+02 -0.10753234385E+02 -0.33831530123E+03  0.33871158830E+03  0.17770000000E+01 0. -1.
</event>
<event>
 6    1  0.1599106E-003  0.5006557E+03  0.7546771E-02  0.9398344E-01
        -11   -1    0    0    0    0  0.00000000000E+00  0.00000000000E+00  0.50000000000E+03  0.50000000000E+03  0.00000000000E+00 0. -1.
         11   -1    0    0    0    0 -0.00000000000E+00 -0.00000000000E+00 -0.50000000000E+03  0.50000000000E+03  0.00000000000E+00 0. -1.
        -11    1    1    2    0    0 -0.12716445813E+02 -0.15847310555E+02  0.49893070332E+03  0.49934426197E+03  0.00000000000E+00 0. -1.
         11    1    1    2    0    0  0.24111836122E+01 -0.21300387640E+01 -0.26872953883E+02  0.27064857693E+02  0.00000000000E+00 0. -1.
        -15    1    1    2    0    0  0.18983426666E+02  0.25832059516E+01 -0.30076571520E+03  0.30138051797E+03  0.17770000000E+01 0. -1.
         15    1    1    2    0    0 -0.86781644646E+01  0.15394143367E+02 -0.17129203423E+03  0.17221036238E+03  0.17770000000E+01 0.  1.
</event>
<event>
 6    1  0.1599106E-003  0.5031094E+03  0.7546771E-02  0.9392879E-01
        -11   -1    0    0    0    0  0.00000000000E+00  0.00000000000E+00  0.50000000000E+03  0.50000000000E+03  0.00000000000E+00 0. -1.
         11   -1    0    0    0    0 -0.00000000000E+00 -0.00000000000E+00 -0.50000000000E+03  0.50000000000E+03  0.00000000000E+00 0.  1.
        -11    1    1    2    0    0 -0.82517340160E+00  0.20809883809E+01  0.64117698863E+02  0.64156766840E+02  0.00000000000E+00 0. -1.
         11    1    1    2    0    0 -0.56289861915E+02 -0.21022396098E+02 -0.49324410917E+03  0.49689057238E+03  0.00000000000E+00 0.  1.
        -15    1    1    2    0    0  0.68492387857E+01  0.23770881086E+02  0.28777029525E+03  0.28883709495E+03  0.17770000000E+01 0.  1.
         15    1    1    2    0    0  0.50265796531E+02 -0.48294733690E+01  0.14135611505E+03  0.15011556583E+03  0.17770000000E+01 0. -1.
</event>
<event>
 6    1  0.1599106E-003  0.5019322E+03  0.7546771E-02  0.9395497E-01
        -11   -1    0    0    0    0  0.00000000000E+00  0.00000000000E+00  0.50000000000E+03  0.50000000000E+03  0.00000000000E+00 0. -1.
         11   -1    0    0    0    0 -0.00000000000E+00 -0.00000000000E+00 -0.50000000000E+03  0.50000000000E+03  0.00000000000E+00 0. -1.
        -11    1    1    2    0    0  0.54048096551E+01 -0.81994367036E+01  0.49797096601E+03  0.49806779230E+03  0.00000000000E+00 0. -1.
         11    1    1    2    0    0 -0.79275944620E+01  0.86200343137E+01 -0.46965893352E+03  0.46980492290E+03  0.00000000000E+00 0. -1.
        -15    1    1    2    0    0 -0.57189819869E+01  0.69381089788E+00 -0.16541326461E+02  0.17605718918E+02  0.17770000000E+01 0.  1.
         15    1    1    2    0    0  0.82417667938E+01 -0.11144085079E+01 -0.11770706029E+02  0.14521565881E+02  0.17770000000E+01 0. -1.
</event>
<event>
 6    1  0.1599106E-003  0.5004237E+03  0.7546771E-02  0.9398862E-01
        -11   -1    0    0    0    0  0.00000000000E+00  0.00000000000E+00  0.50000000000E+03  0.50000000000E+03  0.00000000000E+00 0.  1.
         11   -1    0    0    0    0 -0.00000000000E+00 -0.00000000000E+00 -0.50000000000E+03  0.50000000000E+03  0.00000000000E+00 0.  1.
        -11    1    1    2    0    0  0.43917421786E+00  0.16568727288E+01  0.11899568168E+03  0.11900802645E+03  0.00000000000E+00 0.  1.
         11    1    1    2    0    0 -0.11791427411E+02  0.73386651630E+01 -0.49938324275E+03  0.49957633742E+03  0.00000000000E+00 0.  1.
        -15    1    1    2    0    0 -0.58884907518E+01  0.25263897866E+01  0.64068841919E+02  0.64412973868E+02  0.17770000000E+01 0. -1.
         15    1    1    2    0    0  0.17240743945E+02 -0.11521927678E+02  0.31631871915E+03  0.31700266227E+03  0.17770000000E+01 0.  1.
</event>
<event>
 6    1  0.1599106E-003  0.5007129E+03  0.7546771E-02  0.9398216E-01
        -11   -1    0    0    0    0  0.00000000000E+00  0.00000000000E+00  0.50000000000E+03  0.50000000000E+03  0.00000000000E+00 0.  1.
         11   -1    0    0    0    0 -0.00000000000E+00 -0.00000000000E+00 -0.50000000000E+03  0.50000000000E+03  0.00000000000E+00 0. -1.
        -11    1    1    2    0    0  0.19571334873E+01 -0.63864272976E+01  0.18976985594E+03  0.18988737465E+03  0.00000000000E+00 0.  1.
         11    1    1    2    0    0 -0.23666918457E+02 -0.21183251733E+02 -0.49827577778E+03  0.49928709567E+03  0.00000000000E+00 0. -1.
        -15    1    1    2    0    0  0.16340174353E+02  0.27441350717E+02  0.24766176613E+03  0.24971891631E+03  0.17770000000E+01 0.  1.
         15    1    1    2    0    0  0.53696106170E+01  0.12832831397E+00  0.60844155701E+02  0.61106613376E+02  0.17770000000E+01 0. -1.
</event>
<event>
 6    1  0.1599106E-003  0.5054541E+03  0.7546771E-02  0.9387688E-01
        -11   -1    0    0    0    0  0.00000000000E+00  0.00000000000E+00  0.50000000000E+03  0.50000000000E+03  0.00000000000E+00 0.  1.
         11   -1    0    0    0    0 -0.00000000000E+00 -0.00000000000E+00 -0.50000000000E+03  0.50000000000E+03  0.00000000000E+00 0. -1.
        -11    1    1    2    0    0  0.11923451796E+01 -0.12097819305E+02  0.45197499202E+03  0.45213844376E+03  0.00000000000E+00 0.  1.
         11    1    1    2    0    0  0.16256741185E+02 -0.30811024206E+01 -0.49426898483E+03  0.49454585651E+03  0.00000000000E+00 0. -1.
        -15    1    1    2    0    0  0.22626742878E+01  0.39434922065E+01  0.22900456889E+02  0.23414941393E+02  0.17770000000E+01 0. -1.
         15    1    1    2    0    0 -0.19711760653E+02  0.11235429519E+02  0.19393535922E+02  0.29900758336E+02  0.17770000000E+01 0.  1.
</event>
<event>
 6    1  0.1599106E-003  0.4863818E+03  0.7546771E-02  0.9430808E-01
        -11   -1    0    0    0    0  0.00000000000E+00  0.00000000000E+00  0.50000000000E+03  0.50000000000E+03  0.00000000000E+00 0.  1.
         11   -1    0    0    0    0 -0.00000000000E+00 -0.00000000000E+00 -0.50000000000E+03  0.50000000000E+03  0.00000000000E+00 0.  1.
        -11    1    1    2    0    0 -0.11040504968E+02  0.65898805999E+01  0.49024498961E+03  0.49041356946E+03  0.00000000000E+00 0.  1.
         11    1    1    2    0    0 -0.11195264063E+01  0.66683281116E+01 -0.48249988531E+03  0.48254726117E+03  0.00000000000E+00 0.  1.
        -15    1    1    2    0    0  0.25650161051E+01 -0.62665663959E+01 -0.12338403715E+02  0.14186017667E+02  0.17770000000E+01 0. -1.
         15    1    1    2    0    0  0.95950152692E+01 -0.69916423155E+01  0.45932994143E+01  0.12853151707E+02  0.17770000000E+01 0. -1.
</event>
<event>
 6    1  0.1599106E-003  0.5003254E+03  0.7546771E-02  0.9399082E-01
        -11   -1    0    0    0    0  0.00000000000E+00  0.00000000000E+00  0.50000000000E+03  0.50000000000E+03  0.00000000000E+00 0.  1.
         11   -1    0    0    0    0 -0.00000000000E+00 -0.00000000000E+00 -0.50000000000E+03  0.50000000000E+03  0.00000000000E+00 0.  1.
        -11    1    1    2    0    0  0.54300490802E+00  0.17166734676E+01  0.97743912854E+02  0.97760494690E+02  0.00000000000E+00 0.  1.
         11    1    1    2    0    0  0.11076517097E+02 -0.27991162648E+01 -0.49954397056E+03  0.49967459691E+03  0.00000000000E+00 0.  1.
        -15    1    1    2    0    0 -0.32913424382E+01 -0.69801856333E+01  0.55058726797E+02  0.55625327433E+02  0.17770000000E+01 0. -1.
         15    1    1    2    0    0 -0.83281795669E+01  0.80626284305E+01  0.34674133090E+03  0.34693958096E+03  0.17770000000E+01 0.  1.
</event>
<event>
 6    1  0.1599106E-003  0.5007290E+03  0.7546771E-02  0.9398180E-01
        -11   -1    0    0    0    0  0.00000000000E+00  0.00000000000E+00  0.50000000000E+03  0.50000000000E+03  0.00000000000E+00 0.  1.
         11   -1    0    0    0    0 -0.00000000000E+00 -0.00000000000E+00 -0.50000000000E+03  0.50000000000E+03  0.00000000000E+00 0. -1.
        -11    1    1    2    0    0 -0.35511761647E+01 -0.73439042544E+01  0.35694992972E+03  0.35704312920E+03  0.00000000000E+00 0.  1.
         11    1    1    2    0    0 -0.12039510367E+01  0.82313409631E+01 -0.49920173635E+03  0.49927104667E+03  0.00000000000E+00 0. -1.
        -15    1    1    2    0    0  0.50782769291E+01  0.51423505968E+01  0.12655980287E+03  0.12677844492E+03  0.17770000000E+01 0. -1.
         15    1    1    2    0    0 -0.32314972772E+00 -0.60297873055E+01  0.15692003763E+02  0.16907379212E+02  0.17770000000E+01 0.  1.
</event>
<event>
 6    1  0.1599106E-003  0.5013339E+03  0.7546771E-02  0.9396830E-01
        -11   -1    0    0    0    0  0.00000000000E+00  0.00000000000E+00  0.50000000000E+03  0.50000000000E+03  0.00000000000E+00 0.  1.
         11   -1    0    0    0    0 -0.00000000000E+00 -0.00000000000E+00 -0.50000000000E+03  0.50000000000E+03  0.00000000000E+00 0.  1.
        -11    1    1    2    0    0  0.54615483603E+01 -0.44767620539E+01  0.39672897455E+03  0.39679182093E+03  0.00000000000E+00 0.  1.
         11    1    1    2    0    0 -0.83144472838E+01 -0.34740624733E+01 -0.49858471896E+03  0.49866614194E+03  0.00000000000E+00 0.  1.
        -15    1    1    2    0    0  0.35052632058E+01  0.15383736907E+01  0.94529007827E+02  0.94623171123E+02  0.17770000000E+01 0.  1.
         15    1    1    2    0    0 -0.65236428230E+00  0.64124508365E+01  0.73267365813E+01  0.99188660047E+01  0.17770000000E+01 0. -1.
</event>
<event>
 6    1  0.1599106E-003  0.5105296E+03  0.7546771E-02  0.9376552E-01
        -11   -1    0    0    0    0  0.00000000000E+00  0.00000000000E+00  0.50000000000E+03  0.50000000000E+03  0.00000000000E+00 0.  1.
         11   -1    0    0    0    0 -0.00000000000E+00 -0.00000000000E+00 -0.50000000000E+03  0.50000000000E+03  0.00000000000E+00 0.  1.
        -11    1    1    2    0    0  0.59066281360E+01 -0.33219327597E+01  0.45572769250E+03  0.45577807451E+03  0.00000000000E+00 0.  1.
         11    1    1    2    0    0  0.33247279483E+01 -0.70273356403E+01 -0.48940863962E+03  0.48947038092E+03  0.00000000000E+00 0.  1.
        -15    1    1    2    0    0 -0.12421607464E+02  0.18588679691E+01 -0.59828732896E+01  0.14025128303E+02  0.17770000000E+01 0.  1.
         15    1    1    2    0    0  0.31902513798E+01  0.84904004309E+01  0.39663820413E+02  0.40726416269E+02  0.17770000000E+01 0. -1.
</event>
<event>
 6    1  0.1599106E-003  0.5057244E+03  0.7546771E-02  0.9387091E-01
        -11   -1    0    0    0    0  0.00000000000E+00  0.00000000000E+00  0.50000000000E+03  0.50000000000E+03  0.00000000000E+00 0. -1.
         11   -1    0    0    0    0 -0.00000000000E+00 -0.00000000000E+00 -0.50000000000E+03  0.50000000000E+03  0.00000000000E+00 0. -1.
        -11    1    1    2    0    0 -0.48828675734E+02  0.73276335107E+01  0.49180320306E+03  0.49427555505E+03  0.00000000000E+00 0. -1.
         11    1    1    2    0    0  0.66179609466E+01 -0.62981471254E+01 -0.28798898235E+03  0.28813385434E+03  0.00000000000E+00 0. -1.
        -15    1    1    2    0    0 -0.17076809571E+01 -0.48001333560E+01 -0.13947572206E+03  0.13958005670E+03  0.17770000000E+01 0. -1.
         15    1    1    2    0    0  0.43918395744E+02  0.37706469708E+01 -0.64338498643E+02  0.78010533903E+02  0.17770000000E+01 0.  1.
</event>
<event>
 6    1  0.1599106E-003  0.5028227E+03  0.7546771E-02  0.9393516E-01
        -11   -1    0    0    0    0  0.00000000000E+00  0.00000000000E+00  0.50000000000E+03  0.50000000000E+03  0.00000000000E+00 0.  1.
         11   -1    0    0    0    0 -0.00000000000E+00 -0.00000000000E+00 -0.50000000000E+03  0.50000000000E+03  0.00000000000E+00 0. -1.
        -11    1    1    2    0    0  0.20822472828E+01  0.32904993644E+01  0.73435545716E+02  0.73538714392E+02  0.00000000000E+00 0.  1.
         11    1    1    2    0    0 -0.16504641493E+02 -0.35164536685E+02 -0.49565749788E+03  0.49717733560E+03  0.00000000000E+00 0. -1.
        -15    1    1    2    0    0 -0.12305838501E+01 -0.16978914292E+02  0.21943159791E+03  0.22009811848E+03  0.17770000000E+01 0. -1.
         15    1    1    2    0    0  0.15652978060E+02  0.48852951613E+02  0.20279035426E+03  0.20918583153E+03  0.17770000000E+01 0.  1.
</event>
<event>
 6    1  0.1599106E-003  0.5009298E+03  0.7546771E-02  0.9397732E-01
        -11   -1    0    0    0    0  0.00000000000E+00  0.00000000000E+00  0.50000000000E+03  0.50000000000E+03  0.00000000000E+00 0. -1.
         11   -1    0    0    0    0 -0.00000000000E+00 -0.00000000000E+00 -0.50000000000E+03  0.50000000000E+03  0.00000000000E+00 0.  1.
        -11    1    1    2    0    0  0.10897819602E+02  0.16939871661E+01  0.34667631179E+03  0.34685169341E+03  0.00000000000E+00 0. -1.
         11    1    1    2    0    0 -0.37650980331E+01 -0.71799832342E+01 -0.49900438666E+03  0.49907024158E+03  0.00000000000E+00 0.  1.
        -15    1    1    2    0    0 -0.55524781735E+01  0.69664720568E+01  0.23133625561E+02  0.24853251445E+02  0.17770000000E+01 0.  1.
         15    1    1    2    0    0 -0.15802433953E+01 -0.14804759887E+01  0.12919444931E+03  0.12922481356E+03  0.17770000000E+01 0. -1.
</event>
<event>
 6    1  0.1599106E-003  0.5032909E+03  0.7546771E-02  0.9392476E-01
        -11   -1    0    0    0    0  0.00000000000E+00  0.00000000000E+00  0.50000000000E+03  0.50000000000E+03  0.00000000000E+00 0.  1.
         11   -1    0    0    0    0 -0.00000000000E+00 -0.00000000000E+00 -0.50000000000E+03  0.50000000000E+03  0.00000000000E+00 0. -1.
        -11    1    1    2    0    0  0.33239470473E+01  0.10298246214E+02  0.41620565016E+03  0.41634630504E+03  0.00000000000E+00 0.  1.
         11    1    1    2    0    0 -0.87519392090E+01  0.67041645159E+01 -0.49658678650E+03  0.49670914909E+03  0.00000000000E+00 0. -1.
        -15    1    1    2    0    0  0.95229934125E+01 -0.14677616684E+01  0.76268795905E+01  0.12416470881E+02  0.17770000000E+01 0. -1.
         15    1    1    2    0    0 -0.40950012509E+01 -0.15534649062E+02  0.72754256751E+02  0.74528074986E+02  0.17770000000E+01 0.  1.
</event>
<event>
 6    1  0.1599106E-003  0.5038677E+03  0.7546771E-02  0.9391197E-01
        -11   -1    0    0    0    0  0.00000000000E+00  0.00000000000E+00  0.50000000000E+03  0.50000000000E+03  0.00000000000E+00 0. -1.
         11   -1    0    0    0    0 -0.00000000000E+00 -0.00000000000E+00 -0.50000000000E+03  0.50000000000E+03  0.00000000000E+00 0.  1.
        -11    1    1    2    0    0 -0.69614592969E+01  0.72867509141E-03  0.49608344893E+03  0.49613229104E+03  0.00000000000E+00 0. -1.
         11    1    1    2    0    0  0.22756740429E+01  0.28529011268E+01 -0.21961633514E+03  0.21964665351E+03  0.00000000000E+00 0.  1.
        -15    1    1    2    0    0 -0.18410744248E+02  0.23519108832E+02 -0.15102056587E+03  0.15395607500E+03  0.17770000000E+01 0.  1.
         15    1    1    2    0    0  0.23096529502E+02 -0.26372738634E+02 -0.12544654791E+03  0.13026498045E+03  0.17770000000E+01 0. -1.
</event>
<event>
 6    1  0.1599106E-003  0.5035355E+03  0.7546771E-02  0.9391933E-01
        -11   -1    0    0    0    0  0.00000000000E+00  0.00000000000E+00  0.50000000000E+03  0.50000000000E+03  0.00000000000E+00 0. -1.
         11   -1    0    0    0    0 -0.00000000000E+00 -0.00000000000E+00 -0.50000000000E+03  0.50000000000E+03  0.00000000000E+00 0. -1.
        -11    1    1    2    0    0 -0.85922336348E+01  0.17877437609E+01  0.41893942472E+03  0.41903134022E+03  0.00000000000E+00 0. -1.
         11    1    1    2    0    0 -0.16003181160E+02 -0.18537830032E+01 -0.49620303163E+03  0.49646448707E+03  0.00000000000E+00 0. -1.
        -15    1    1    2    0    0  0.13416230115E+02 -0.11878123326E+01  0.69271106556E+02  0.70590722203E+02  0.17770000000E+01 0.  1.
         15    1    1    2    0    0  0.11179184680E+02  0.12538515749E+01  0.79925003605E+01  0.13913450502E+02  0.17770000000E+01 0. -1.
</event>
<event>
 6    1  0.1599106E-003  0.5107914E+03  0.7546771E-02  0.9375982E-01
        -11   -1    0    0    0    0  0.00000000000E+00  0.00000000000E+00  0.50000000000E+03  0.50000000000E+03  0.00000000000E+00 0.  1.
         11   -1    0    0    0    0 -0.00000000000E+00 -0.00000000000E+00 -0.50000000000E+03  0.50000000000E+03  0.00000000000E+00 0. -1.
        -11    1    1    2    0    0  0.26540545092E+02  0.28555981715E+02  0.48765278465E+03  0.48920862932E+03  0.00000000000E+00 0.  1.
         11    1    1    2    0    0  0.59570048394E+01  0.71307494368E+01 -0.36888618475E+03  0.36900318534E+03  0.00000000000E+00 0. -1.
        -15    1    1    2    0    0 -0.18882756230E+02  0.56060926696E+01 -0.83400559208E+02  0.85713463138E+02  0.17770000000E+01 0.  1.
         15    1    1    2    0    0 -0.13614793701E+02 -0.41292823821E+02 -0.35366040689E+02  0.56074722199E+02  0.17770000000E+01 0. -1.
</event>
<event>
 6    1  0.1599106E-003  0.5106063E+03  0.7546771E-02  0.9376385E-01
        -11   -1    0    0    0    0  0.00000000000E+00  0.00000000000E+00  0.50000000000E+03  0.50000000000E+03  0.00000000000E+00 0. -1.
         11   -1    0    0    0    0 -0.00000000000E+00 -0.00000000000E+00 -0.50000000000E+03  0.50000000000E+03  0.00000000000E+00 0.  1.
        -11    1    1    2    0    0  0.97634509654E+00  0.19621011116E+02  0.47596057362E+03  0.47636583102E+03  0.00000000000E+00 0. -1.
         11    1    1    2    0    0  0.68806195469E+01 -0.24848086460E-01 -0.48934527843E+03  0.48939365041E+03  0.00000000000E+00 0.  1.
        -15    1    1    2    0    0 -0.12742554742E+02 -0.98003687254E+01 -0.85016312553E+00  0.16195691860E+02  0.17770000000E+01 0.  1.
         15    1    1    2    0    0  0.48855900982E+01 -0.97957943042E+01  0.14234867938E+02  0.18044826706E+02  0.17770000000E+01 0. -1.
</event>
<event>
 6    1  0.1599106E-003  0.5017922E+03  0.7546771E-02  0.9395809E-01
        -11   -1    0    0    0    0  0.00000000000E+00  0.00000000000E+00  0.50000000000E+03  0.50000000000E+03  0.00000000000E+00 0.  1.
         11   -1    0    0    0    0 -0.00000000000E+00 -0.00000000000E+00 -0.50000000000E+03  0.50000000000E+03  0.00000000000E+00 0.  1.
        -11    1    1    2    0    0 -0.34721770884E+01 -0.31059636302E+01  0.14987601767E+03  0.14994840345E+03  0.00000000000E+00 0.  1.
         11    1    1    2    0    0  0.39736614475E+01 -0.72699647165E+01 -0.49813894065E+03  0.49820783471E+03  0.00000000000E+00 0.  1.
        -15    1    1    2    0    0  0.37808696989E+01  0.23651809181E+02  0.31240753139E+03  0.31332942162E+03  0.17770000000E+01 0.  1.
         15    1    1    2    0    0 -0.42823540579E+01 -0.13275880834E+02  0.35855391586E+02  0.38514340225E+02  0.17770000000E+01 0. -1.
</event>
<event>
 6    1  0.1599106E-003  0.5131870E+03  0.7546771E-02  0.9370777E-01
        -11   -1    0    0    0    0  0.00000000000E+00  0.00000000000E+00  0.50000000000E+03  0.50000000000E+03  0.00000000000E+00 0. -1.
         11   -1    0    0    0    0 -0.00000000000E+00 -0.00000000000E+00 -0.50000000000E+03  0.50000000000E+03  0.00000000000E+00 0. -1.
        -11    1    1    2    0    0 -0.65588894862E+01  0.24225196779E+02  0.43903184991E+03  0.43974861504E+03  0.00000000000E+00 0. -1.
         11    1    1    2    0    0  0.28016929676E+02  0.10926063962E+02 -0.48588331373E+03  0.48681302549E+03  0.00000000000E+00 0. -1.
        -15    1    1    2    0    0 -0.87784729290E+01 -0.21045813324E+02  0.49188071129E+02  0.54245846992E+02  0.17770000000E+01 0.  1.
         15    1    1    2    0    0 -0.12679567261E+02 -0.14105447416E+02 -0.23366073110E+01  0.19192512484E+02  0.17770000000E+01 0. -1.
</event>
<event>
 6    1  0.1599106E-003  0.5174416E+03  0.7546771E-02  0.9361607E-01
        -11   -1    0    0    0    0  0.00000000000E+00  0.00000000000E+00  0.50000000000E+03  0.50000000000E+03  0.00000000000E+00 0. -1.
         11   -1    0    0    0    0 -0.00000000000E+00 -0.00000000000E+00 -0.50000000000E+03  0.50000000000E+03  0.00000000000E+00 0.  1.
        -11    1    1    2    0    0 -0.46949486137E+01  0.79261365474E+01  0.48247046891E+03  0.48255841051E+03  0.00000000000E+00 0. -1.
         11    1    1    2    0    0  0.61736506384E+01  0.18164582148E+01 -0.46227124140E+03  0.46231603272E+03  0.00000000000E+00 0.  1.
        -15    1    1    2    0    0  0.28933154772E+01  0.47215408345E+01 -0.34054553688E+02  0.34547569787E+02  0.17770000000E+01 0.  1.
         15    1    1    2    0    0 -0.43720175019E+01 -0.14464135597E+02  0.13855326184E+02  0.20577986982E+02  0.17770000000E+01 0. -1.
</event>
<event>
 6    1  0.1599106E-003  0.5020322E+03  0.7546771E-02  0.9395274E-01
        -11   -1    0    0    0    0  0.00000000000E+00  0.00000000000E+00  0.50000000000E+03  0.50000000000E+03  0.00000000000E+00 0.  1.
         11   -1    0    0    0    0 -0.00000000000E+00 -0.00000000000E+00 -0.50000000000E+03  0.50000000000E+03  0.00000000000E+00 0. -1.
        -11    1    1    2    0    0  0.29567829049E+01  0.17836790426E+01  0.23310929006E+03  0.23313486481E+03  0.00000000000E+00 0.  1.
         11    1    1    2    0    0 -0.79542545281E+01 -0.33794627872E+01 -0.49789275102E+03  0.49796775242E+03  0.00000000000E+00 0. -1.
        -15    1    1    2    0    0  0.93217507392E+01  0.17816692305E+01  0.94144413922E+01  0.13485503988E+02  0.17770000000E+01 0. -1.
         15    1    1    2    0    0 -0.43242791160E+01 -0.18588548592E+00  0.25536901956E+03  0.25541187878E+03  0.17770000000E+01 0.  1.
</event>
<event>
 6    1  0.1599106E-003  0.5020833E+03  0.7546771E-02  0.9395160E-01
        -11   -1    0    0    0    0  0.00000000000E+00  0.00000000000E+00  0.50000000000E+03  0.50000000000E+03  0.00000000000E+00 0.  1.
         11   -1    0    0    0    0 -0.00000000000E+00 -0.00000000000E+00 -0.50000000000E+03  0.50000000000E+03  0.00000000000E+00 0.  1.
        -11    1    1    2    0    0  0.82508454084E+00  0.74277457927E+01  0.49786063365E+03  0.49791672266E+03  0.00000000000E+00 0.  1.
         11    1    1    2    0    0 -0.37340175642E+01  0.66760896982E+01 -0.13207374070E+03  0.13229507188E+03  0.00000000000E+00 0.  1.
        -15    1    1    2    0    0  0.17945363374E+02 -0.20456913392E+02 -0.31974843823E+03  0.32090924395E+03  0.17770000000E+01 0.  1.
         15    1    1    2    0    0 -0.15036430351E+02  0.63530779016E+01 -0.46038454714E+02  0.48878961507E+02  0.17770000000E+01 0. -1.
</event>
<event>
 6    1  0.1599106E-003  0.5093882E+03  0.7546771E-02  0.9379044E-01
        -11   -1    0    0    0    0  0.00000000000E+00  0.00000000000E+00  0.50000000000E+03  0.50000000000E+03  0.00000000000E+00 0. -1.
         11   -1    0    0    0    0 -0.00000000000E+00 -0.00000000000E+00 -0.50000000000E+03  0.50000000000E+03  0.00000000000E+00 0. -1.
        -11    1    1    2    0    0  0.53060670511E+01  0.10487520331E+02  0.41849242133E+03  0.41865743650E+03  0.00000000000E+00 0. -1.
         11    1    1    2    0    0 -0.14503039240E+02  0.24950917884E+02 -0.48976222933E+03  0.49061178922E+03  0.00000000000E+00 0. -1.
        -15    1    1    2    0    0  0.47348386971E+01 -0.34506591604E+02  0.22034295709E+02  0.41252775397E+02  0.17770000000E+01 0. -1.
         15    1    1    2    0    0  0.44621334919E+01 -0.93184661160E+00  0.49235512291E+02  0.49477998878E+02  0.17770000000E+01 0.  1.
</event>
<event>
 6    1  0.1599106E-003  0.5183970E+03  0.7546771E-02  0.9359561E-01
        -11   -1    0    0    0    0  0.00000000000E+00  0.00000000000E+00  0.50000000000E+03  0.50000000000E+03  0.00000000000E+00 0. -1.
         11   -1    0    0    0    0 -0.00000000000E+00 -0.00000000000E+00 -0.50000000000E+03  0.50000000000E+03  0.00000000000E+00 0.  1.
        -11    1    1    2    0    0 -0.79396209868E+01 -0.92404973865E+01  0.19003386128E+03  0.19042398170E+03  0.00000000000E+00 0. -1.
         11    1    1    2    0    0  0.41764415709E+01  0.71895433518E+01 -0.48153125488E+03  0.48160303324E+03  0.00000000000E+00 0.  1.
        -15    1    1    2    0    0  0.18309988765E+02 -0.24654242531E+02 -0.39015622276E+01  0.31007535861E+02  0.17770000000E+01 0.  1.
         15    1    1    2    0    0 -0.14546809349E+02  0.26705196566E+02  0.29539895583E+03  0.29696544920E+03  0.17770000000E+01 0. -1.
</event>
<event>
 6    1  0.1599106E-003  0.5041515E+03  0.7546771E-02  0.9390568E-01
        -11   -1    0    0    0    0  0.00000000000E+00  0.00000000000E+00  0.50000000000E+03  0.50000000000E+03  0.00000000000E+00 0. -1.
         11   -1    0    0    0    0 -0.00000000000E+00 -0.00000000000E+00 -0.50000000000E+03  0.50000000000E+03  0.00000000000E+00 0.  1.
        -11    1    1    2    0    0 -0.18335736252E+02  0.20797327119E+02  0.49507273332E+03  0.49584850440E+03  0.00000000000E+00 0. -1.
         11    1    1    2    0    0  0.41996048452E+01  0.18404234714E+02 -0.25326531438E+03  0.25396785624E+03  0.00000000000E+00 0.  1.
        -15    1    1    2    0    0  0.31039219203E+02 -0.33875718498E+02 -0.18621514340E+03  0.19180780692E+03  0.17770000000E+01 0.  1.
         15    1    1    2    0    0 -0.16903087796E+02 -0.53258433355E+01 -0.55592275539E+02  0.58375832438E+02  0.17770000000E+01 0. -1.
</event>
<event>
 6    1  0.1599106E-003  0.4808964E+03  0.7546771E-02  0.9443600E-01
        -11   -1    0    0    0    0  0.00000000000E+00  0.00000000000E+00  0.50000000000E+03  0.50000000000E+03  0.00000000000E+00 0. -1.
         11   -1    0    0    0    0 -0.00000000000E+00 -0.00000000000E+00 -0.50000000000E+03  0.50000000000E+03  0.00000000000E+00 0.  1.
        -11    1    1    2    0    0  0.76717786615E+01  0.44859564765E+01  0.48422291332E+03  0.48430445979E+03  0.00000000000E+00 0. -1.
         11    1    1    2    0    0 -0.22099621205E+01  0.60998630082E+01 -0.47754121778E+03  0.47758528761E+03  0.00000000000E+00 0.  1.
        -15    1    1    2    0    0 -0.11552149920E+02 -0.43532865641E+01  0.12070006417E+02  0.17356441328E+02  0.17770000000E+01 0. -1.
         15    1    1    2    0    0  0.60903333785E+01 -0.62325329207E+01 -0.18751701955E+02  0.20753811276E+02  0.17770000000E+01 0. -1.
</event>
<event>
 6    1  0.1599106E-003  0.4896211E+03  0.7546771E-02  0.9423337E-01
        -11   -1    0    0    0    0  0.00000000000E+00  0.00000000000E+00  0.50000000000E+03  0.50000000000E+03  0.00000000000E+00 0. -1.
         11   -1    0    0    0    0 -0.00000000000E+00 -0.00000000000E+00 -0.50000000000E+03  0.50000000000E+03  0.00000000000E+00 0.  1.
        -11    1    1    2    0    0 -0.88222045193E+01 -0.55429193502E+00  0.49033619008E+03  0.49041586214E+03  0.00000000000E+00 0. -1.
         11    1    1    2    0    0 -0.55182748919E+01 -0.37075596068E+01 -0.48889655452E+03  0.48894175356E+03  0.00000000000E+00 0.  1.
        -15    1    1    2    0    0  0.11553892189E+02  0.78476775181E+01  0.25905607561E+01  0.14315977130E+02  0.17770000000E+01 0.  1.
         15    1    1    2    0    0  0.27865872219E+01 -0.35858259763E+01 -0.40301963231E+01  0.63264071700E+01  0.17770000000E+01 0. -1.
</event>
<event>
 6    1  0.1599106E-003  0.5123214E+03  0.7546771E-02  0.9372654E-01
        -11   -1    0    0    0    0  0.00000000000E+00  0.00000000000E+00  0.50000000000E+03  0.50000000000E+03  0.00000000000E+00 0. -1.
         11   -1    0    0    0    0 -0.00000000000E+00 -0.00000000000E+00 -0.50000000000E+03  0.50000000000E+03  0.00000000000E+00 0.  1.
        -11    1    1    2    0    0  0.43013088479E+01  0.54627069383E+01  0.46552817689E+03  0.46558009612E+03  0.00000000000E+00 0. -1.
         11    1    1    2    0    0 -0.22391917565E+02 -0.29103231029E+00 -0.48716414702E+03  0.48767857121E+03  0.00000000000E+00 0.  1.
        -15    1    1    2    0    0  0.22892289784E+02  0.14696034218E+01 -0.55911355472E+00  0.23014929996E+02  0.17770000000E+01 0.  1.
         15    1    1    2    0    0 -0.48016810671E+01 -0.66412780498E+01  0.22195083689E+02  0.23726402681E+02  0.17770000000E+01 0. -1.
</event>
<event>
 6    1  0.1599106E-003  0.5115126E+03  0.7546771E-02  0.9374412E-01
        -11   -1    0    0    0    0  0.00000000000E+00  0.00000000000E+00  0.50000000000E+03  0.50000000000E+03  0.00000000000E+00 0. -1.
         11   -1    0    0    0    0 -0.00000000000E+00 -0.00000000000E+00 -0.50000000000E+03  0.50000000000E+03  0.00000000000E+00 0.  1.
        -11    1    1    2    0    0  0.71340800778E+01  0.17207970138E+02  0.48813205866E+03  0.48848737550E+03  0.00000000000E+00 0. -1.
         11    1    1    2    0    0  0.64683045726E+01 -0.70983716517E+00 -0.46669711620E+03  0.46674247836E+03  0.00000000000E+00 0.  1.
        -15    1    1    2    0    0 -0.79746766409E+01 -0.25021993327E+02 -0.74399679389E+01  0.27353363039E+02  0.17770000000E+01 0.  1.
         15    1    1    2    0    0 -0.56277080095E+01  0.85238603544E+01 -0.13994974519E+02  0.17416783101E+02  0.17770000000E+01 0. -1.
</event>
<event>
 6    1  0.1599106E-003  0.5085337E+03  0.7546771E-02  0.9380915E-01
        -11   -1    0    0    0    0  0.00000000000E+00  0.00000000000E+00  0.50000000000E+03  0.50000000000E+03  0.00000000000E+00 0. -1.
         11   -1    0    0    0    0 -0.00000000000E+00 -0.00000000000E+00 -0.50000000000E+03  0.50000000000E+03  0.00000000000E+00 0.  1.
        -11    1    1    2    0    0  0.14515217982E+02  0.11908493145E+02  0.42794767301E+03  0.42835932883E+03  0.00000000000E+00 0. -1.
         11    1    1    2    0    0  0.14513380515E+02 -0.48891213842E+01 -0.49122767160E+03  0.49146634378E+03  0.00000000000E+00 0.  1.
        -15    1    1    2    0    0  0.70209727188E+00  0.13131339889E+02  0.17117836543E+02  0.21658787703E+02  0.17770000000E+01 0.  1.
         15    1    1    2    0    0 -0.29730695769E+02 -0.20150711650E+02  0.46162162045E+02  0.58515539685E+02  0.17770000000E+01 0. -1.
</event>
<event>
 6    1  0.1599106E-003  0.5274391E+03  0.7546771E-02  0.9340423E-01
        -11   -1    0    0    0    0  0.00000000000E+00  0.00000000000E+00  0.50000000000E+03  0.50000000000E+03  0.00000000000E+00 0.  1.
         11   -1    0    0    0    0 -0.00000000000E+00 -0.00000000000E+00 -0.50000000000E+03  0.50000000000E+03  0.00000000000E+00 0. -1.
        -11    1    1    2    0    0  0.27978598872E+02 -0.10710135119E+02  0.44555350144E+03  0.44655954994E+03  0.00000000000E+00 0.  1.
         11    1    1    2    0    0 -0.18913365965E+02  0.12111276561E+02 -0.47202691389E+03  0.47256090175E+03  0.00000000000E+00 0. -1.
        -15    1    1    2    0    0  0.21505015759E+02 -0.28352977530E+02  0.12184545042E+02  0.37656047383E+02  0.17770000000E+01 0.  1.
         15    1    1    2    0    0 -0.30570248666E+02  0.26951836087E+02  0.14288867400E+02  0.43223500929E+02  0.17770000000E+01 0. -1.
</event>
<event>
 6    1  0.1599106E-003  0.5086513E+03  0.7546771E-02  0.9380657E-01
        -11   -1    0    0    0    0  0.00000000000E+00  0.00000000000E+00  0.50000000000E+03  0.50000000000E+03  0.00000000000E+00 0.  1.
         11   -1    0    0    0    0 -0.00000000000E+00 -0.00000000000E+00 -0.50000000000E+03  0.50000000000E+03  0.00000000000E+00 0. -1.
        -11    1    1    2    0    0 -0.76283876446E+01 -0.86117366143E+01  0.47804077999E+03  0.47817919406E+03  0.00000000000E+00 0.  1.
         11    1    1    2    0    0  0.16303164236E+01  0.71612368281E+01 -0.49129379076E+03  0.49134868483E+03  0.00000000000E+00 0. -1.
        -15    1    1    2    0    0  0.10805968048E+02  0.46169125045E+01 -0.37267172948E+01  0.12455158663E+02  0.17770000000E+01 0.  1.
         15    1    1    2    0    0 -0.48078968266E+01 -0.31664127183E+01  0.16979728070E+02  0.18016962444E+02  0.17770000000E+01 0. -1.
</event>
<event>
 6    1  0.1599106E-003  0.5034973E+03  0.7546771E-02  0.9392018E-01
        -11   -1    0    0    0    0  0.00000000000E+00  0.00000000000E+00  0.50000000000E+03  0.50000000000E+03  0.00000000000E+00 0. -1.
         11   -1    0    0    0    0 -0.00000000000E+00 -0.00000000000E+00 -0.50000000000E+03  0.50000000000E+03  0.00000000000E+00 0. -1.
        -11    1    1    2    0    0  0.73367276316E+01  0.31231208800E+01  0.42977453307E+03  0.42984849741E+03  0.00000000000E+00 0. -1.
         11    1    1    2    0    0 -0.70311850209E+01 -0.28933387365E+01 -0.49644447078E+03  0.49650269037E+03  0.00000000000E+00 0. -1.
        -15    1    1    2    0    0 -0.62545449055E+01 -0.27541012012E+01  0.66572374919E+02  0.66945823146E+02  0.17770000000E+01 0.  1.
         15    1    1    2    0    0  0.59490022948E+01  0.25243190577E+01  0.97562796829E-01  0.67029890727E+01  0.17770000000E+01 0. -1.
</event>
<event>
 6    1  0.1599106E-003  0.5019569E+03  0.7546771E-02  0.9395442E-01
        -11   -1    0    0    0    0  0.00000000000E+00  0.00000000000E+00  0.50000000000E+03  0.50000000000E+03  0.00000000000E+00 0.  1.
         11   -1    0    0    0    0 -0.00000000000E+00 -0.00000000000E+00 -0.50000000000E+03  0.50000000000E+03  0.00000000000E+00 0. -1.
        -11    1    1    2    0    0 -0.32645428174E+01 -0.61244795006E+01  0.49799477961E+03  0.49804313770E+03  0.00000000000E+00 0.  1.
         11    1    1    2    0    0  0.62782154539E+01 -0.79635446160E+00 -0.40418388614E+03  0.40423342760E+03  0.00000000000E+00 0. -1.
        -15    1    1    2    0    0 -0.55468640269E+01 -0.19039120855E+01 -0.83801709025E+02  0.84025452967E+02  0.17770000000E+01 0.  1.
         15    1    1    2    0    0  0.25331913903E+01  0.88247460477E+01 -0.10009184442E+02  0.13697981735E+02  0.17770000000E+01 0. -1.
</event>
<event>
 6    1  0.1599106E-003  0.5035283E+03  0.7546771E-02  0.9391949E-01
        -11   -1    0    0    0    0  0.00000000000E+00  0.00000000000E+00  0.50000000000E+03  0.50000000000E+03  0.00000000000E+00 0. -1.
         11   -1    0    0    0    0 -0.00000000000E+00 -0.00000000000E+00 -0.50000000000E+03  0.50000000000E+03  0.00000000000E+00 0.  1.
        -11    1    1    2    0    0  0.11639358216E+02 -0.97447089693E+01  0.49623961050E+03  0.49647173640E+03  0.00000000000E+00 0. -1.
         11    1    1    2    0    0 -0.84568945267E+01  0.11968866491E+02 -0.47654394280E+03  0.47676923375E+03  0.00000000000E+00 0.  1.
        -15    1    1    2    0    0 -0.70507175042E+01  0.51252126155E+01 -0.63113530441E+01  0.10907397853E+02  0.17770000000E+01 0. -1.
         15    1    1    2    0    0  0.38682538145E+01 -0.73493701376E+01 -0.13384314658E+02  0.15851631994E+02  0.17770000000E+01 0.  1.
</event>
<event>
 6    1  0.1599106E-003  0.5085421E+03  0.7546771E-02  0.9380896E-01
        -11   -1    0    0    0    0  0.00000000000E+00  0.00000000000E+00  0.50000000000E+03  0.50000000000E+03  0.00000000000E+00 0.  1.
         11   -1    0    0    0    0 -0.00000000000E+00 -0.00000000000E+00 -0.50000000000E+03  0.50000000000E+03  0.00000000000E+00 0.  1.
        -11    1    1    2    0    0  0.83497138050E+01 -0.48904834056E+01  0.47977681019E+03  0.47987438163E+03  0.00000000000E+00 0.  1.
         11    1    1    2    0    0 -0.92640391520E+01  0.76298347037E+00 -0.49136999207E+03  0.49145790631E+03  0.00000000000E+00 0.  1.
        -15    1    1    2    0    0 -0.49031778527E+01  0.11554736917E+02  0.13880863487E+02  0.18798648845E+02  0.17770000000E+01 0. -1.
         15    1    1    2    0    0  0.58175031996E+01 -0.74272369816E+01 -0.22876816007E+01  0.98690632162E+01  0.17770000000E+01 0.  1.
</event>
<event>
 6    1  0.1599106E-003  0.5097979E+03  0.7546771E-02  0.9378149E-01
        -11   -1    0    0    0    0  0.00000000000E+00  0.00000000000E+00  0.50000000000E+03  0.50000000000E+03  0.00000000000E+00 0.  1.
         11   -1    0    0    0    0 -0.00000000000E+00 -0.00000000000E+00 -0.50000000000E+03  0.50000000000E+03  0.00000000000E+00 0.  1.
        -11    1    1    2    0    0  0.33232553032E+01  0.19104889408E+02  0.36810240984E+03  0.36861283883E+03  0.00000000000E+00 0.  1.
         11    1    1    2    0    0  0.20870373918E+02  0.19572783828E+02 -0.48936632657E+03  0.49020206850E+03  0.00000000000E+00 0.  1.
        -15    1    1    2    0    0 -0.17792584816E+02  0.84734689760E+01  0.62461607297E+02  0.65520881146E+02  0.17770000000E+01 0.  1.
         15    1    1    2    0    0 -0.64010444047E+01 -0.47151142212E+02  0.58802309440E+02  0.75664211527E+02  0.17770000000E+01 0. -1.
</event>
<event>
 6    1  0.1599106E-003  0.5095345E+03  0.7546771E-02  0.9378725E-01
        -11   -1    0    0    0    0  0.00000000000E+00  0.00000000000E+00  0.50000000000E+03  0.50000000000E+03  0.00000000000E+00 0. -1.
         11   -1    0    0    0    0 -0.00000000000E+00 -0.00000000000E+00 -0.50000000000E+03  0.50000000000E+03  0.00000000000E+00 0. -1.
        -11    1    1    2    0    0 -0.45607886604E+01  0.30919307684E+01  0.38313264678E+03  0.38317226655E+03  0.00000000000E+00 0. -1.
         11    1    1    2    0    0 -0.11598883375E+02 -0.33445687289E+01 -0.49031693214E+03  0.49046550764E+03  0.00000000000E+00 0. -1.
        -15    1    1    2    0    0  0.73185475638E+01 -0.99229320170E+01  0.11142540247E+03  0.11211959580E+03  0.17770000000E+01 0.  1.
         15    1    1    2    0    0  0.88411244720E+01  0.10175569978E+02 -0.42411171002E+01  0.14242630008E+02  0.17770000000E+01 0. -1.
</event>
<event>
 6    1  0.1599106E-003  0.5029647E+03  0.7546771E-02  0.9393200E-01
        -11   -1    0    0    0    0  0.00000000000E+00  0.00000000000E+00  0.50000000000E+03  0.50000000000E+03  0.00000000000E+00 0.  1.
         11   -1    0    0    0    0 -0.00000000000E+00 -0.00000000000E+00 -0.50000000000E+03  0.50000000000E+03  0.00000000000E+00 0. -1.
        -11    1    1    2    0    0 -0.23047029440E+00 -0.11200807059E+02  0.42336597856E+03  0.42351418276E+03  0.00000000000E+00 0.  1.
         11    1    1    2    0    0  0.46449835714E+01  0.12998385385E+02 -0.49684354632E+03  0.49703525369E+03  0.00000000000E+00 0. -1.
        -15    1    1    2    0    0  0.22197141991E-01 -0.10537722646E+02  0.83400807723E+01  0.13555765104E+02  0.17770000000E+01 0.  1.
         15    1    1    2    0    0 -0.44367104190E+01  0.87401443200E+01  0.65137486987E+02  0.65894798445E+02  0.17770000000E+01 0. -1.
</event>
<event>
 6    1  0.1599106E-003  0.5033286E+03  0.7546771E-02  0.9392392E-01
        -11   -1    0    0    0    0  0.00000000000E+00  0.00000000000E+00  0.50000000000E+03  0.50000000000E+03  0.00000000000E+00 0. -1.
         11   -1    0    0    0    0 -0.00000000000E+00 -0.00000000000E+00 -0.50000000000E+03  0.50000000000E+03  0.00000000000E+00 0.  1.
        -11    1    1    2    0    0 -0.12782933805E+01 -0.86624603788E+01  0.39969600786E+03  0.39979190956E+03  0.00000000000E+00 0. -1.
         11    1    1    2    0    0  0.12565583078E+02  0.98484199774E+01 -0.49641475718E+03  0.49667141694E+03  0.00000000000E+00 0.  1.
        -15    1    1    2    0    0 -0.81479757432E+01 -0.10329624570E+02  0.91402508917E+02  0.92361610087E+02  0.17770000000E+01 0. -1.
         15    1    1    2    0    0 -0.31393139539E+01  0.91436649712E+01  0.53162404043E+01  0.11175063411E+02  0.17770000000E+01 0.  1.
</event>
<event>
 6    1  0.1599106E-003  0.5001410E+03  0.7546771E-02  0.9399494E-01
        -11   -1    0    0    0    0  0.00000000000E+00  0.00000000000E+00  0.50000000000E+03  0.50000000000E+03  0.00000000000E+00 0. -1.
         11   -1    0    0    0    0 -0.00000000000E+00 -0.00000000000E+00 -0.50000000000E+03  0.50000000000E+03  0.00000000000E+00 0.  1.
        -11    1    1    2    0    0  0.89894827470E+00 -0.11020222344E+01  0.49274002325E+02  0.49294521665E+02  0.00000000000E+00 0. -1.
         11    1    1    2    0    0 -0.11233457435E+02 -0.57188266954E+01 -0.49969998794E+03  0.49985895359E+03  0.00000000000E+00 0.  1.
        -15    1    1    2    0    0  0.36681009800E+01 -0.17584987270E+01  0.35766306766E+02  0.36040722957E+02  0.17770000000E+01 0.  1.
         15    1    1    2    0    0  0.66664081802E+01  0.85793476567E+01  0.41465967885E+03  0.41480580178E+03  0.17770000000E+01 0. -1.
</event>
<event>
 6    1  0.1599106E-003  0.5055545E+03  0.7546771E-02  0.9387466E-01
        -11   -1    0    0    0    0  0.00000000000E+00  0.00000000000E+00  0.50000000000E+03  0.50000000000E+03  0.00000000000E+00 0. -1.
         11   -1    0    0    0    0 -0.00000000000E+00 -0.00000000000E+00 -0.50000000000E+03  0.50000000000E+03  0.00000000000E+00 0. -1.
        -11    1    1    2    0    0  0.94606891694E+01  0.34541339245E+01  0.46829997678E+03  0.46840826629E+03  0.00000000000E+00 0. -1.
         11    1    1    2    0    0 -0.53736146634E+01 -0.45703760304E+01 -0.49439520240E+03  0.49444552807E+03  0.00000000000E+00 0. -1.
        -15    1    1    2    0    0 -0.38610099425E+01 -0.62797160485E+01  0.28239672921E+02  0.29240025430E+02  0.17770000000E+01 0.  1.
         15    1    1    2    0    0 -0.22606456350E+00  0.73959581543E+01 -0.21444472999E+01  0.79061802047E+01  0.17770000000E+01 0. -1.
</event>
<event>
 6    1  0.1599106E-003  0.5063233E+03  0.7546771E-02  0.9385771E-01
        -11   -1    0    0    0    0  0.00000000000E+00  0.00000000000E+00  0.50000000000E+03  0.50000000000E+03  0.00000000000E+00 0.  1.
         11   -1    0    0    0    0 -0.00000000000E+00 -0.00000000000E+00 -0.50000000000E+03  0.50000000000E+03  0.00000000000E+00 0. -1.
        -11    1    1    2    0    0 -0.11206414082E+01 -0.74632629897E+01  0.26626942533E+03  0.26637635593E+03  0.00000000000E+00 0.  1.
         11    1    1    2    0    0 -0.20057468839E+02 -0.12501927898E+02 -0.49311064857E+03  0.49367672822E+03  0.00000000000E+00 0. -1.
        -15    1    1    2    0    0  0.23125919516E+02  0.16566221525E+02  0.24572946983E+02  0.37632901848E+02  0.17770000000E+01 0.  1.
         15    1    1    2    0    0 -0.19478092689E+01  0.33989693625E+01  0.20226827625E+03  0.20231401400E+03  0.17770000000E+01 0. -1.
</event>
<event>
 6    1  0.1599106E-003  0.5006176E+03  0.7546771E-02  0.9398429E-01
        -11   -1    0    0    0    0  0.00000000000E+00  0.00000000000E+00  0.50000000000E+03  0.50000000000E+03  0.00000000000E+00 0. -1.
         11   -1    0    0    0    0 -0.00000000000E+00 -0.00000000000E+00 -0.50000000000E+03  0.50000000000E+03  0.00000000000E+00 0.  1.
        -11    1    1    2    0    0  0.10074393949E+02  0.48419449874E+01  0.49925730816E+03  0.49938241618E+03  0.00000000000E+00 0. -1.
         11    1    1    2    0    0  0.52578286078E+01 -0.11673766086E+01 -0.17912882939E+03  0.17920977945E+03  0.00000000000E+00 0.  1.
        -15    1    1    2    0    0  0.18175993813E+01  0.69050814616E+01 -0.12953972702E+03  0.12974853534E+03  0.17770000000E+01 0.  1.
         15    1    1    2    0    0 -0.17149821938E+02 -0.10579649840E+02 -0.19058875174E+03  0.19165926902E+03  0.17770000000E+01 0.  1.
</event>
<event>
 6    1  0.1599106E-003  0.5005609E+03  0.7546771E-02  0.9398555E-01
        -11   -1    0    0    0    0  0.00000000000E+00  0.00000000000E+00  0.50000000000E+03  0.50000000000E+03  0.00000000000E+00 0.  1.
         11   -1    0    0    0    0 -0.00000000000E+00 -0.00000000000E+00 -0.50000000000E+03  0.50000000000E+03  0.00000000000E+00 0. -1.
        -11    1    1    2    0    0 -0.32409006314E+01 -0.12210995369E+02  0.49927926378E+03  0.49943908046E+03  0.00000000000E+00 0.  1.
         11    1    1    2    0    0  0.25271089214E+01  0.60158991772E-01 -0.10790302992E+03  0.10793263531E+03  0.00000000000E+00 0. -1.
        -15    1    1    2    0    0 -0.24074327347E+01  0.82131906015E+01 -0.37961728329E+03  0.37971791074E+03  0.17770000000E+01 0. -1.
         15    1    1    2    0    0  0.31212244447E+01  0.39376457757E+01 -0.11758950570E+02  0.12910373496E+02  0.17770000000E+01 0.  1.
</event>
<event>
 6    1  0.1599106E-003  0.5061292E+03  0.7546771E-02  0.9386199E-01
        -11   -1    0    0    0    0  0.00000000000E+00  0.00000000000E+00  0.50000000000E+03  0.50000000000E+03  0.00000000000E+00 0.  1.
         11   -1    0    0    0    0 -0.00000000000E+00 -0.00000000000E+00 -0.50000000000E+03  0.50000000000E+03  0.00000000000E+00 0. -1.
        -11    1    1    2    0    0  0.25503161832E+01  0.72701892381E+01  0.49381067006E+03  0.49387077017E+03  0.00000000000E+00 0.  1.
         11    1    1    2    0    0  0.49364236063E+01  0.84783528964E+01 -0.45860099736E+03  0.45870592488E+03  0.00000000000E+00 0. -1.
        -15    1    1    2    0    0 -0.48103725848E+01 -0.38379415282E+01 -0.34475235216E+02  0.35065211417E+02  0.17770000000E+01 0. -1.
         15    1    1    2    0    0 -0.26763672047E+01 -0.11910600606E+02 -0.73443748667E+00  0.12358093528E+02  0.17770000000E+01 0.  1.
</event>
<event>
 6    1  0.1599106E-003  0.5003727E+03  0.7546771E-02  0.9398976E-01
        -11   -1    0    0    0    0  0.00000000000E+00  0.00000000000E+00  0.50000000000E+03  0.50000000000E+03  0.00000000000E+00 0. -1.
         11   -1    0    0    0    0 -0.00000000000E+00 -0.00000000000E+00 -0.50000000000E+03  0.50000000000E+03  0.00000000000E+00 0. -1.
        -11    1    1    2    0    0  0.19588832423E+01 -0.64116267861E+01  0.43363836165E+03  0.43369018305E+03  0.00000000000E+00 0. -1.
         11    1    1    2    0    0 -0.20090161775E+01  0.75174881733E+01 -0.49956673087E+03  0.49962732848E+03  0.00000000000E+00 0. -1.
        -15    1    1    2    0    0 -0.10732222425E+01 -0.50885336983E+01  0.36713106307E+02  0.37122161641E+02  0.17770000000E+01 0. -1.
         15    1    1    2    0    0  0.11233551776E+01  0.39826723111E+01  0.29215262914E+02  0.29560326820E+02  0.17770000000E+01 0. -1.
</event>
<event>
 6    1  0.1599106E-003  0.5249201E+03  0.7546771E-02  0.9345713E-01
        -11   -1    0    0    0    0  0.00000000000E+00  0.00000000000E+00  0.50000000000E+03  0.50000000000E+03  0.00000000000E+00 0. -1.
         11   -1    0    0    0    0 -0.00000000000E+00 -0.00000000000E+00 -0.50000000000E+03  0.50000000000E+03  0.00000000000E+00 0. -1.
        -11    1    1    2    0    0  0.15193894532E+02 -0.17459957112E+02  0.47451575595E+03  0.47507989558E+03  0.00000000000E+00 0. -1.
         11    1    1    2    0    0 -0.63462622481E+01 -0.20006437553E+01 -0.35870434083E+03  0.35876605435E+03  0.00000000000E+00 0. -1.
        -15    1    1    2    0    0 -0.65720227063E+01 -0.16680560715E+02 -0.12695255933E+03  0.12822457891E+03  0.17770000000E+01 0.  1.
         15    1    1    2    0    0 -0.22756095780E+01  0.36141161582E+02  0.11141144210E+02  0.37929471164E+02  0.17770000000E+01 0. -1.
</event>
<event>
 6    1  0.1599106E-003  0.5117563E+03  0.7546771E-02  0.9373882E-01
        -11   -1    0    0    0    0  0.00000000000E+00  0.00000000000E+00  0.50000000000E+03  0.50000000000E+03  0.00000000000E+00 0. -1.
         11   -1    0    0    0    0 -0.00000000000E+00 -0.00000000000E+00 -0.50000000000E+03  0.50000000000E+03  0.00000000000E+00 0. -1.
        -11    1    1    2    0    0  0.14226290539E+02 -0.67221201839E+01  0.48799010743E+03  0.48824370880E+03  0.00000000000E+00 0. -1.
         11    1    1    2    0    0 -0.31933364744E+02  0.14134754858E+02 -0.20345406534E+03  0.20642937723E+03  0.00000000000E+00 0. -1.
        -15    1    1    2    0    0 -0.79932714348E+01  0.12640066516E+02  0.34875101416E+01  0.15459111415E+02  0.17770000000E+01 0.  1.
         15    1    1    2    0    0  0.25700345639E+02 -0.20052701190E+02 -0.28802355223E+03  0.28986780255E+03  0.17770000000E+01 0. -1.
</event>
<event>
 6    1  0.1599106E-003  0.5021295E+03  0.7546771E-02  0.9395057E-01
        -11   -1    0    0    0    0  0.00000000000E+00  0.00000000000E+00  0.50000000000E+03  0.50000000000E+03  0.00000000000E+00 0. -1.
         11   -1    0    0    0    0 -0.00000000000E+00 -0.00000000000E+00 -0.50000000000E+03  0.50000000000E+03  0.00000000000E+00 0. -1.
        -11    1    1    2    0    0  0.57918121299E+01 -0.10945809774E+01  0.42432588313E+03  0.42436682044E+03  0.00000000000E+00 0. -1.
         11    1    1    2    0    0 -0.12094305839E+02 -0.95555022630E+01 -0.49763180787E+03  0.49787046112E+03  0.00000000000E+00 0. -1.
        -15    1    1    2    0    0  0.45611794834E+01  0.61333192047E+01  0.50929217691E+01  0.93550811805E+01  0.17770000000E+01 0. -1.
         15    1    1    2    0    0  0.17413142260E+01  0.45167640357E+01  0.68213002963E+02  0.68407637255E+02  0.17770000000E+01 0.  1.
</event>
<event>
 6    1  0.1599106E-003  0.5154322E+03  0.7546771E-02  0.9365926E-01
        -11   -1    0    0    0    0  0.00000000000E+00  0.00000000000E+00  0.50000000000E+03  0.50000000000E+03  0.00000000000E+00 0.  1.
         11   -1    0    0    0    0 -0.00000000000E+00 -0.00000000000E+00 -0.50000000000E+03  0.50000000000E+03  0.00000000000E+00 0.  1.
        -11    1    1    2    0    0  0.12418051021E+02 -0.10056560017E+02  0.48430426799E+03  0.48456781402E+03  0.00000000000E+00 0.  1.
         11    1    1    2    0    0 -0.18385673317E+02  0.68545292597E+01 -0.48013036392E+03  0.48053114770E+03  0.00000000000E+00 0.  1.
        -15    1    1    2    0    0  0.14426701751E+02 -0.93607368284E+01 -0.81916236419E+01  0.19131480452E+02  0.17770000000E+01 0.  1.
         15    1    1    2    0    0 -0.84590794543E+01  0.12562767586E+02  0.40177195715E+01  0.15769557831E+02  0.17770000000E+01 0. -1.
</event>
<event>
 6    1  0.1599106E-003  0.5031324E+03  0.7546771E-02  0.9392828E-01
        -11   -1    0    0    0    0  0.00000000000E+00  0.00000000000E+00  0.50000000000E+03  0.50000000000E+03  0.00000000000E+00 0. -1.
         11   -1    0    0    0    0 -0.00000000000E+00 -0.00000000000E+00 -0.50000000000E+03  0.50000000000E+03  0.00000000000E+00 0. -1.
        -11    1    1    2    0    0  0.38518911933E+00 -0.17366578214E+02  0.39189131262E+03  0.39227611107E+03  0.00000000000E+00 0. -1.
         11    1    1    2    0    0  0.23968194314E+01 -0.73461647506E+01 -0.49680750909E+03  0.49686760004E+03  0.00000000000E+00 0. -1.
        -15    1    1    2    0    0 -0.38093701505E+01 -0.74475332489E-01  0.14570368967E+01  0.44494418793E+01  0.17770000000E+01 0.  1.
         15    1    1    2    0    0  0.10273615998E+01  0.24787218297E+02  0.10345915957E+03  0.10640684701E+03  0.17770000000E+01 0. -1.
</event>
<event>
 6    1  0.1599106E-003  0.5005978E+03  0.7546771E-02  0.9398473E-01
        -11   -1    0    0    0    0  0.00000000000E+00  0.00000000000E+00  0.50000000000E+03  0.50000000000E+03  0.00000000000E+00 0.  1.
         11   -1    0    0    0    0 -0.00000000000E+00 -0.00000000000E+00 -0.50000000000E+03  0.50000000000E+03  0.00000000000E+00 0. -1.
        -11    1    1    2    0    0 -0.77437126420E+01 -0.29766790620E+01  0.49933327620E+03  0.49940218904E+03  0.00000000000E+00 0.  1.
         11    1    1    2    0    0 -0.77400909597E+01  0.25421259086E+01 -0.33696085157E+03  0.33705932252E+03  0.00000000000E+00 0. -1.
        -15    1    1    2    0    0  0.13295322183E+02 -0.15490331109E+01 -0.15220257695E+03  0.15280035096E+03  0.17770000000E+01 0. -1.
         15    1    1    2    0    0  0.21884814190E+01  0.19835862643E+01 -0.10169847681E+02  0.10738137466E+02  0.17770000000E+01 0.  1.
</event>
<event>
 6    1  0.1599106E-003  0.5153388E+03  0.7546771E-02  0.9366127E-01
        -11   -1    0    0    0    0  0.00000000000E+00  0.00000000000E+00  0.50000000000E+03  0.50000000000E+03  0.00000000000E+00 0. -1.
         11   -1    0    0    0    0 -0.00000000000E+00 -0.00000000000E+00 -0.50000000000E+03  0.50000000000E+03  0.00000000000E+00 0.  1.
        -11    1    1    2    0    0  0.55805963860E+02  0.81009842688E+01  0.44046734940E+03  0.44406240264E+03  0.00000000000E+00 0. -1.
         11    1    1    2    0    0 -0.54613226039E+02  0.33283450605E+02 -0.48042284552E+03  0.48466122502E+03  0.00000000000E+00 0.  1.
        -15    1    1    2    0    0  0.17395129546E+02 -0.29322577024E+02  0.13477871872E+02  0.36704424998E+02  0.17770000000E+01 0.  1.
         15    1    1    2    0    0 -0.18587867366E+02 -0.12061857850E+02  0.26477624251E+02  0.34571947342E+02  0.17770000000E+01 0. -1.
</event>
<event>
 6    1  0.1599106E-003  0.5196614E+03  0.7546771E-02  0.9356859E-01
        -11   -1    0    0    0    0  0.00000000000E+00  0.00000000000E+00  0.50000000000E+03  0.50000000000E+03  0.00000000000E+00 0.  1.
         11   -1    0    0    0    0 -0.00000000000E+00 -0.00000000000E+00 -0.50000000000E+03  0.50000000000E+03  0.00000000000E+00 0. -1.
        -11    1    1    2    0    0 -0.31814032192E+01  0.15496488938E+02  0.48007798387E+03  0.48033856090E+03  0.00000000000E+00 0.  1.
         11    1    1    2    0    0 -0.46477531243E+01 -0.45634530623E+01 -0.41788097568E+03  0.41793173671E+03  0.00000000000E+00 0. -1.
        -15    1    1    2    0    0  0.28519974829E+02 -0.28170278068E+01 -0.71893837925E+02  0.77415801168E+02  0.17770000000E+01 0. -1.
         15    1    1    2    0    0 -0.20690818485E+02 -0.81160080692E+01  0.96968297370E+01  0.24313901219E+02  0.17770000000E+01 0.  1.
</event>
<event>
 6    1  0.1599106E-003  0.5103294E+03  0.7546771E-02  0.9376989E-01
        -11   -1    0    0    0    0  0.00000000000E+00  0.00000000000E+00  0.50000000000E+03  0.50000000000E+03  0.00000000000E+00 0. -1.
         11   -1    0    0    0    0 -0.00000000000E+00 -0.00000000000E+00 -0.50000000000E+03  0.50000000000E+03  0.00000000000E+00 0. -1.
        -11    1    1    2    0    0  0.22131338299E+02  0.29629808889E+02  0.29807160090E+03  0.30035712240E+03  0.00000000000E+00 0. -1.
         11    1    1    2    0    0 -0.39043394172E+02  0.23475958822E+02 -0.48754669377E+03  0.48967058915E+03  0.00000000000E+00 0. -1.
        -15    1    1    2    0    0  0.39992751300E+02 -0.10008266772E+02  0.78240257118E+02  0.88454966640E+02  0.17770000000E+01 0. -1.
         15    1    1    2    0    0 -0.23080695427E+02 -0.43097500939E+02  0.11123483575E+03  0.12151732182E+03  0.17770000000E+01 0.  1.
</event>
<event>
 6    1  0.1599106E-003  0.5034923E+03  0.7546771E-02  0.9392029E-01
        -11   -1    0    0    0    0  0.00000000000E+00  0.00000000000E+00  0.50000000000E+03  0.50000000000E+03  0.00000000000E+00 0.  1.
         11   -1    0    0    0    0 -0.00000000000E+00 -0.00000000000E+00 -0.50000000000E+03  0.50000000000E+03  0.00000000000E+00 0. -1.
        -11    1    1    2    0    0  0.42401676500E+01 -0.14550696453E+02  0.49627632925E+03  0.49650770061E+03  0.00000000000E+00 0.  1.
         11    1    1    2    0    0 -0.38879330529E+01  0.99192643059E+01 -0.24364093930E+03  0.24387376884E+03  0.00000000000E+00 0. -1.
        -15    1    1    2    0    0  0.10265689634E+02  0.36609963242E+01 -0.24733192963E+03  0.24757832785E+03  0.17770000000E+01 0. -1.
         15    1    1    2    0    0 -0.10617924231E+02  0.97043582325E+00 -0.53034603277E+01  0.12040202702E+02  0.17770000000E+01 0.  1.
</event>
<event>
 6    1  0.1599106E-003  0.5041289E+03  0.7546771E-02  0.9390618E-01
        -11   -1    0    0    0    0  0.00000000000E+00  0.00000000000E+00  0.50000000000E+03  0.50000000000E+03  0.00000000000E+00 0. -1.
         11   -1    0    0    0    0 -0.00000000000E+00 -0.00000000000E+00 -0.50000000000E+03  0.50000000000E+03  0.00000000000E+00 0. -1.
        -11    1    1    2    0    0 -0.32335532112E+01  0.63129896020E+01  0.49582040044E+03  0.49587113164E+03  0.00000000000E+00 0. -1.
         11    1    1    2    0    0  0.30600055453E+01  0.68939849419E+01 -0.48221143961E+03  0.48227042533E+03  0.00000000000E+00 0. -1.
        -15    1    1    2    0    0  0.20492708576E+01 -0.11079224152E+02 -0.46915978209E+01  0.12333593879E+02  0.17770000000E+01 0. -1.
         15    1    1    2    0    0 -0.18757231917E+01 -0.21277503922E+01 -0.89173630097E+01  0.95248491469E+01  0.17770000000E+01 0.  1.
</event>
<event>
 6    1  0.1599106E-003  0.5045254E+03  0.7546771E-02  0.9389740E-01
        -11   -1    0    0    0    0  0.00000000000E+00  0.00000000000E+00  0.50000000000E+03  0.50000000000E+03  0.00000000000E+00 0.  1.
         11   -1    0    0    0    0 -0.00000000000E+00 -0.00000000000E+00 -0.50000000000E+03  0.50000000000E+03  0.00000000000E+00 0. -1.
        -11    1    1    2    0    0  0.11703770141E+02 -0.11320753095E+02  0.49520692643E+03  0.49547455804E+03  0.00000000000E+00 0.  1.
         11    1    1    2    0    0 -0.56063916760E+01  0.48709460070E+01 -0.19743455329E+03  0.19757419006E+03  0.00000000000E+00 0. -1.
        -15    1    1    2    0    0 -0.45230390227E+01 -0.12839854184E+02 -0.28083795967E+03  0.28117332209E+03  0.17770000000E+01 0. -1.
         15    1    1    2    0    0 -0.15743394425E+01  0.19289661272E+02 -0.16934413471E+02  0.25777929809E+02  0.17770000000E+01 0.  1.
</event>
<event>
 6    1  0.1599106E-003  0.5046704E+03  0.7546771E-02  0.9389420E-01
        -11   -1    0    0    0    0  0.00000000000E+00  0.00000000000E+00  0.50000000000E+03  0.50000000000E+03  0.00000000000E+00 0. -1.
         11   -1    0    0    0    0 -0.00000000000E+00 -0.00000000000E+00 -0.50000000000E+03  0.50000000000E+03  0.00000000000E+00 0.  1.
        -11    1    1    2    0    0 -0.18371149879E+02  0.51419246351E+00  0.49498854568E+03  0.49532961136E+03  0.00000000000E+00 0. -1.
         11    1    1    2    0    0  0.81566733216E+01 -0.60581514051E+01 -0.43680647469E+03  0.43692462605E+03  0.00000000000E+00 0.  1.
        -15    1    1    2    0    0  0.13089310199E+02  0.46804080632E+01 -0.56694799517E+01  0.15117440029E+02  0.17770000000E+01 0.  1.
         15    1    1    2    0    0 -0.28748336408E+01  0.86355087844E+00 -0.52512591041E+02  0.52628322560E+02  0.17770000000E+01 0.  1.
</event>
<event>
 6    1  0.1599106E-003  0.5025667E+03  0.7546771E-02  0.9394085E-01
        -11   -1    0    0    0    0  0.00000000000E+00  0.00000000000E+00  0.50000000000E+03  0.50000000000E+03  0.00000000000E+00 0. -1.
         11   -1    0    0    0    0 -0.00000000000E+00 -0.00000000000E+00 -0.50000000000E+03  0.50000000000E+03  0.00000000000E+00 0. -1.
        -11    1    1    2    0    0 -0.10996539659E+02  0.49125821485E+00  0.49731149382E+03  0.49743329915E+03  0.00000000000E+00 0. -1.
         11    1    1    2    0    0 -0.93182443626E+01 -0.49838549994E+00 -0.45055041287E+03  0.45064703772E+03  0.00000000000E+00 0. -1.
        -15    1    1    2    0    0  0.14576297994E+01  0.21445353809E+01 -0.38837723055E+01  0.49965120787E+01  0.17770000000E+01 0. -1.
         15    1    1    2    0    0  0.18857154222E+02 -0.21374080958E+01 -0.42877308647E+02  0.46923151051E+02  0.17770000000E+01 0.  1.
</event>
<event>
 6    1  0.1599106E-003  0.4702733E+03  0.7546771E-02  0.9468898E-01
        -11   -1    0    0    0    0  0.00000000000E+00  0.00000000000E+00  0.50000000000E+03  0.50000000000E+03  0.00000000000E+00 0.  1.
         11   -1    0    0    0    0 -0.00000000000E+00 -0.00000000000E+00 -0.50000000000E+03  0.50000000000E+03  0.00000000000E+00 0.  1.
        -11    1    1    2    0    0 -0.79034497417E+01  0.18465116674E+02  0.46924751418E+03  0.46967718128E+03  0.00000000000E+00 0.  1.
         11    1    1    2    0    0 -0.31642544475E+01 -0.84536294822E+01 -0.47090282623E+03  0.47098932908E+03  0.00000000000E+00 0.  1.
        -15    1    1    2    0    0  0.31123758542E+02  0.80926119307E+01  0.28691040146E-01  0.32207720593E+02  0.17770000000E+01 0.  1.
         15    1    1    2    0    0 -0.20056054353E+02 -0.18104099122E+02  0.16266210037E+01  0.27125769042E+02  0.17770000000E+01 0. -1.
</event>
<event>
 6    1  0.1599106E-003  0.5103030E+03  0.7546771E-02  0.9377047E-01
        -11   -1    0    0    0    0  0.00000000000E+00  0.00000000000E+00  0.50000000000E+03  0.50000000000E+03  0.00000000000E+00 0.  1.
         11   -1    0    0    0    0 -0.00000000000E+00 -0.00000000000E+00 -0.50000000000E+03  0.50000000000E+03  0.00000000000E+00 0. -1.
        -11    1    1    2    0    0 -0.91482707727E+01  0.53844355457E+01  0.48958190835E+03  0.48969697568E+03  0.00000000000E+00 0.  1.
         11    1    1    2    0    0 -0.62494312786E+01 -0.30904774821E+01 -0.45487473847E+03  0.45492816372E+03  0.00000000000E+00 0. -1.
        -15    1    1    2    0    0 -0.92709688310E+00 -0.13733163620E+02 -0.32377787117E+02  0.35226951603E+02  0.17770000000E+01 0. -1.
         15    1    1    2    0    0  0.16324798934E+02  0.11439205556E+02 -0.23293827657E+01  0.20147909000E+02  0.17770000000E+01 0.  1.
</event>
<event>
 6    1  0.1599106E-003  0.5080430E+03  0.7546771E-02  0.9381991E-01
        -11   -1    0    0    0    0  0.00000000000E+00  0.00000000000E+00  0.50000000000E+03  0.50000000000E+03  0.00000000000E+00 0. -1.
         11   -1    0    0    0    0 -0.00000000000E+00 -0.00000000000E+00 -0.50000000000E+03  0.50000000000E+03  0.00000000000E+00 0. -1.
        -11    1    1    2    0    0 -0.11163367335E+02 -0.53209902982E+01  0.20642765399E+03  0.20679775153E+03  0.00000000000E+00 0. -1.
         11    1    1    2    0    0  0.22990286241E+01  0.70208437179E+01 -0.49190155395E+03  0.49195702714E+03  0.00000000000E+00 0. -1.
        -15    1    1    2    0    0  0.16921320802E+02  0.60644125918E+01  0.27224043541E+01  0.18266839142E+02  0.17770000000E+01 0.  1.
         15    1    1    2    0    0 -0.80569820913E+01 -0.77642660115E+01  0.28275149561E+03  0.28297838218E+03  0.17770000000E+01 0. -1.
</event>
<event>
 6    1  0.1599106E-003  0.5043142E+03  0.7546771E-02  0.9390208E-01
        -11   -1    0    0    0    0  0.00000000000E+00  0.00000000000E+00  0.50000000000E+03  0.50000000000E+03  0.00000000000E+00 0.  1.
         11   -1    0    0    0    0 -0.00000000000E+00 -0.00000000000E+00 -0.50000000000E+03  0.50000000000E+03  0.00000000000E+00 0. -1.
        -11    1    1    2    0    0  0.96283074704E+01  0.49570159935E+01  0.42802522918E+03  0.42816220423E+03  0.00000000000E+00 0.  1.
         11    1    1    2    0    0  0.10100392375E+01 -0.10519203830E+02 -0.49557311881E+03  0.49568577739E+03  0.00000000000E+00 0. -1.
        -15    1    1    2    0    0 -0.10289738339E+02 -0.65788986505E+01  0.66303579968E+01  0.14009996385E+02  0.17770000000E+01 0.  1.
         15    1    1    2    0    0 -0.34860836906E+00  0.12141086487E+02  0.60917531625E+02  0.62142021991E+02  0.17770000000E+01 0. -1.
</event>
<event>
 6    1  0.1599106E-003  0.5014610E+03  0.7546771E-02  0.9396547E-01
        -11   -1    0    0    0    0  0.00000000000E+00  0.00000000000E+00  0.50000000000E+03  0.50000000000E+03  0.00000000000E+00 0. -1.
         11   -1    0    0    0    0 -0.00000000000E+00 -0.00000000000E+00 -0.50000000000E+03  0.50000000000E+03  0.00000000000E+00 0.  1.
        -11    1    1    2    0    0 -0.50779951533E+01 -0.30781216066E+02  0.49756193657E+03  0.49853901555E+03  0.00000000000E+00 0. -1.
         11    1    1    2    0    0 -0.63824078714E+01  0.18152946382E+01 -0.58025924562E+02  0.58404095285E+02  0.00000000000E+00 0.  1.
        -15    1    1    2    0    0  0.42970921057E+01  0.20064818006E+02 -0.61758712428E+02  0.65102674384E+02  0.17770000000E+01 0. -1.
         15    1    1    2    0    0  0.71633109190E+01  0.89011034218E+01 -0.37777729958E+03  0.37795421479E+03  0.17770000000E+01 0.  1.
</event>
<event>
 6    1  0.1599106E-003  0.5067950E+03  0.7546771E-02  0.9384732E-01
        -11   -1    0    0    0    0  0.00000000000E+00  0.00000000000E+00  0.50000000000E+03  0.50000000000E+03  0.00000000000E+00 0.  1.
         11   -1    0    0    0    0 -0.00000000000E+00 -0.00000000000E+00 -0.50000000000E+03  0.50000000000E+03  0.00000000000E+00 0.  1.
        -11    1    1    2    0    0 -0.93703859401E+00 -0.45568931231E+01  0.30909375555E+03  0.30912876450E+03  0.00000000000E+00 0.  1.
         11    1    1    2    0    0  0.33134153292E+02 -0.12276436087E+02 -0.49193759053E+03  0.49320500401E+03  0.00000000000E+00 0.  1.
        -15    1    1    2    0    0 -0.33619994217E+02 -0.19336726561E+02  0.91597190133E+02  0.99485757647E+02  0.17770000000E+01 0.  1.
         15    1    1    2    0    0  0.14228795195E+01  0.36170055771E+02  0.91246644846E+02  0.98180473850E+02  0.17770000000E+01 0. -1.
</event>
<event>
 6    1  0.1599106E-003  0.5016208E+03  0.7546771E-02  0.9396190E-01
        -11   -1    0    0    0    0  0.00000000000E+00  0.00000000000E+00  0.50000000000E+03  0.50000000000E+03  0.00000000000E+00 0. -1.
         11   -1    0    0    0    0 -0.00000000000E+00 -0.00000000000E+00 -0.50000000000E+03  0.50000000000E+03  0.00000000000E+00 0. -1.
        -11    1    1    2    0    0 -0.10988966013E+01  0.20782570235E+02  0.49794450010E+03  0.49837922105E+03  0.00000000000E+00 0. -1.
         11    1    1    2    0    0  0.24881294579E+01 -0.50556160165E+01 -0.28903333375E+03  0.28908825307E+03  0.00000000000E+00 0. -1.
        -15    1    1    2    0    0  0.80218142857E+01 -0.58988012302E+01 -0.18240000700E+03  0.18268022784E+03  0.17770000000E+01 0. -1.
         15    1    1    2    0    0 -0.94110471424E+01 -0.98281529885E+01 -0.26511159347E+02  0.29852298043E+02  0.17770000000E+01 0.  1.
</event>
<event>
 6    1  0.1599106E-003  0.5077709E+03  0.7546771E-02  0.9382588E-01
        -11   -1    0    0    0    0  0.00000000000E+00  0.00000000000E+00  0.50000000000E+03  0.50000000000E+03  0.00000000000E+00 0.  1.
         11   -1    0    0    0    0 -0.00000000000E+00 -0.00000000000E+00 -0.50000000000E+03  0.50000000000E+03  0.00000000000E+00 0.  1.
        -11    1    1    2    0    0  0.67542769315E+01 -0.49273824812E+01  0.47895219420E+03  0.47902515976E+03  0.00000000000E+00 0.  1.
         11    1    1    2    0    0 -0.64853117183E+01 -0.56109910409E+01 -0.49215441409E+03  0.49222912327E+03  0.00000000000E+00 0.  1.
        -15    1    1    2    0    0 -0.24185590513E+01 -0.22060566072E+01 -0.50718415579E+01  0.62926480457E+01  0.17770000000E+01 0.  1.
         15    1    1    2    0    0  0.21495938381E+01  0.12744430129E+02  0.18274061451E+02  0.22453068919E+02  0.17770000000E+01 0. -1.
</event>
<event>
 6    1  0.1599106E-003  0.5164850E+03  0.7546771E-02  0.9363660E-01
        -11   -1    0    0    0    0  0.00000000000E+00  0.00000000000E+00  0.50000000000E+03  0.50000000000E+03  0.00000000000E+00 0.  1.
         11   -1    0    0    0    0 -0.00000000000E+00 -0.00000000000E+00 -0.50000000000E+03  0.50000000000E+03  0.00000000000E+00 0.  1.
        -11    1    1    2    0    0 -0.12287548957E+01  0.74261775370E+01  0.48345636815E+03  0.48351496135E+03  0.00000000000E+00 0.  1.
         11    1    1    2    0    0  0.52543415595E+01  0.41861748392E+01 -0.46570787325E+03  0.46575632618E+03  0.00000000000E+00 0.  1.
        -15    1    1    2    0    0 -0.60599948928E+01 -0.10152181487E+02  0.14239705091E+02  0.18593473509E+02  0.17770000000E+01 0. -1.
         15    1    1    2    0    0  0.20344082289E+01 -0.14601708894E+01 -0.31988199985E+02  0.32135238962E+02  0.17770000000E+01 0.  1.
</event>
<event>
 6    1  0.1599106E-003  0.5140953E+03  0.7546771E-02  0.9368811E-01
        -11   -1    0    0    0    0  0.00000000000E+00  0.00000000000E+00  0.50000000000E+03  0.50000000000E+03  0.00000000000E+00 0.  1.
         11   -1    0    0    0    0 -0.00000000000E+00 -0.00000000000E+00 -0.50000000000E+03  0.50000000000E+03  0.00000000000E+00 0. -1.
        -11    1    1    2    0    0  0.14979342613E+02 -0.15412593334E+02  0.48542917501E+03  0.48590473623E+03  0.00000000000E+00 0.  1.
         11    1    1    2    0    0  0.10395481811E+02 -0.88807407281E+01 -0.45924292122E+03  0.45944639980E+03  0.00000000000E+00 0. -1.
        -15    1    1    2    0    0 -0.26880267102E+01  0.51112477162E+01 -0.24063908256E+02  0.24810879677E+02  0.17770000000E+01 0. -1.
         15    1    1    2    0    0 -0.22686797713E+02  0.19182086346E+02 -0.21223455356E+01  0.29837984292E+02  0.17770000000E+01 0.  1.
</event>
<event>
 6    1  0.1599106E-003  0.5206707E+03  0.7546771E-02  0.9354709E-01
        -11   -1    0    0    0    0  0.00000000000E+00  0.00000000000E+00  0.50000000000E+03  0.50000000000E+03  0.00000000000E+00 0. -1.
         11   -1    0    0    0    0 -0.00000000000E+00 -0.00000000000E+00 -0.50000000000E+03  0.50000000000E+03  0.00000000000E+00 0. -1.
        -11    1    1    2    0    0 -0.50564767432E+01 -0.45057499398E+01  0.47928145534E+03  0.47932930556E+03  0.00000000000E+00 0. -1.
         11    1    1    2    0    0 -0.57753969287E+01 -0.85080780594E+01 -0.37608752607E+03  0.37622808224E+03  0.00000000000E+00 0. -1.
        -15    1    1    2    0    0  0.34480596693E+02 -0.10994682737E+02 -0.38495702405E+00  0.36236728849E+02  0.17770000000E+01 0.  1.
         15    1    1    2    0    0 -0.23648723021E+02  0.24008510736E+02 -0.10280897224E+03  0.10820588335E+03  0.17770000000E+01 0. -1.
</event>
<event>
 6    1  0.1599106E-003  0.5064855E+03  0.7546771E-02  0.9385414E-01
        -11   -1    0    0    0    0  0.00000000000E+00  0.00000000000E+00  0.50000000000E+03  0.50000000000E+03  0.00000000000E+00 0. -1.
         11   -1    0    0    0    0 -0.00000000000E+00 -0.00000000000E+00 -0.50000000000E+03  0.50000000000E+03  0.00000000000E+00 0. -1.
        -11    1    1    2    0    0 -0.48109583108E+01 -0.66193718616E+01  0.47821098496E+03  0.47828099224E+03  0.00000000000E+00 0. -1.
         11    1    1    2    0    0  0.39178840416E+01  0.65290857487E+01 -0.49345571879E+03  0.49351446299E+03  0.00000000000E+00 0. -1.
        -15    1    1    2    0    0 -0.72246340020E+01 -0.25731262758E+01 -0.26410305026E+01  0.83035586594E+01  0.17770000000E+01 0. -1.
         15    1    1    2    0    0  0.81177082712E+01  0.26634123888E+01  0.17885764333E+02  0.19900986104E+02  0.17770000000E+01 0.  1.
</event>
<event>
 6    1  0.1599106E-003  0.5006266E+03  0.7546771E-02  0.9398409E-01
        -11   -1    0    0    0    0  0.00000000000E+00  0.00000000000E+00  0.50000000000E+03  0.50000000000E+03  0.00000000000E+00 0.  1.
         11   -1    0    0    0    0 -0.00000000000E+00 -0.00000000000E+00 -0.50000000000E+03  0.50000000000E+03  0.00000000000E+00 0. -1.
        -11    1    1    2    0    0 -0.77962930437E+01  0.76530267452E+01  0.49925387878E+03  0.49937339384E+03  0.00000000000E+00 0.  1.
         11    1    1    2    0    0  0.11943770641E+02  0.38874810042E+01 -0.25471140734E+03  0.25502091521E+03  0.00000000000E+00 0. -1.
        -15    1    1    2    0    0  0.57553484965E+01 -0.23842601842E+01 -0.33216454549E+02  0.33842271123E+02  0.17770000000E+01 0.  1.
         15    1    1    2    0    0 -0.99028260935E+01 -0.91562475652E+01 -0.21132601689E+03  0.21176341983E+03  0.17770000000E+01 0. -1.
</event>
<event>
 6    1  0.1599106E-003  0.5024501E+03  0.7546771E-02  0.9394344E-01
        -11   -1    0    0    0    0  0.00000000000E+00  0.00000000000E+00  0.50000000000E+03  0.50000000000E+03  0.00000000000E+00 0. -1.
         11   -1    0    0    0    0 -0.00000000000E+00 -0.00000000000E+00 -0.50000000000E+03  0.50000000000E+03  0.00000000000E+00 0.  1.
        -11    1    1    2    0    0  0.83746882087E+00  0.72422249221E+01  0.17947402236E+03  0.17962203617E+03  0.00000000000E+00 0. -1.
         11    1    1    2    0    0  0.82512727354E+01 -0.37067502310E+01 -0.49746764781E+03  0.49754988104E+03  0.00000000000E+00 0.  1.
        -15    1    1    2    0    0  0.99798494071E+01  0.21148491717E+02  0.10749177739E+03  0.11002043461E+03  0.17770000000E+01 0. -1.
         15    1    1    2    0    0 -0.19068590963E+02 -0.24683966408E+02  0.21050184806E+03  0.21280764818E+03  0.17770000000E+01 0.  1.
</event>
<event>
 6    1  0.1599106E-003  0.5040900E+03  0.7546771E-02  0.9390704E-01
        -11   -1    0    0    0    0  0.00000000000E+00  0.00000000000E+00  0.50000000000E+03  0.50000000000E+03  0.00000000000E+00 0.  1.
         11   -1    0    0    0    0 -0.00000000000E+00 -0.00000000000E+00 -0.50000000000E+03  0.50000000000E+03  0.00000000000E+00 0. -1.
        -11    1    1    2    0    0 -0.41598981234E+01  0.68169191258E+01  0.49584573987E+03  0.49591004515E+03  0.00000000000E+00 0.  1.
         11    1    1    2    0    0 -0.79312309219E+01  0.41831061379E+01 -0.46412798798E+03  0.46421459696E+03  0.00000000000E+00 0. -1.
        -15    1    1    2    0    0 -0.69252731527E+00 -0.37776567479E+01  0.65681447186E+00  0.42824547678E+01  0.17770000000E+01 0.  1.
         15    1    1    2    0    0  0.12783656361E+02 -0.72223685158E+01 -0.32374566359E+02  0.35592903125E+02  0.17770000000E+01 0. -1.
</event>
<event>
 6    1  0.1599106E-003  0.5036347E+03  0.7546771E-02  0.9391713E-01
        -11   -1    0    0    0    0  0.00000000000E+00  0.00000000000E+00  0.50000000000E+03  0.50000000000E+03  0.00000000000E+00 0. -1.
         11   -1    0    0    0    0 -0.00000000000E+00 -0.00000000000E+00 -0.50000000000E+03  0.50000000000E+03  0.00000000000E+00 0. -1.
        -11    1    1    2    0    0 -0.36464731959E+01  0.78202266292E+01  0.46956761385E+03  0.46964688511E+03  0.00000000000E+00 0. -1.
         11    1    1    2    0    0  0.10580476731E+02 -0.50522025887E+00 -0.49625229549E+03  0.49636533170E+03  0.00000000000E+00 0. -1.
        -15    1    1    2    0    0  0.64438699336E-01 -0.45182899530E+01  0.25732064775E+02  0.26186179237E+02  0.17770000000E+01 0.  1.
         15    1    1    2    0    0 -0.69984422346E+01 -0.27967164173E+01  0.95261685533E+00  0.78016039571E+01  0.17770000000E+01 0. -1.
</event>
<event>
 6    1  0.1599106E-003  0.5053707E+03  0.7546771E-02  0.9387872E-01
        -11   -1    0    0    0    0  0.00000000000E+00  0.00000000000E+00  0.50000000000E+03  0.50000000000E+03  0.00000000000E+00 0. -1.
         11   -1    0    0    0    0 -0.00000000000E+00 -0.00000000000E+00 -0.50000000000E+03  0.50000000000E+03  0.00000000000E+00 0. -1.
        -11    1    1    2    0    0 -0.40468645463E+01  0.93618026780E+01  0.30787031798E+03  0.30803920717E+03  0.00000000000E+00 0. -1.
         11    1    1    2    0    0 -0.10085858933E+02  0.25239454054E+01 -0.49451998944E+03  0.49462927007E+03  0.00000000000E+00 0. -1.
        -15    1    1    2    0    0  0.51549453549E+01 -0.51666939030E+01  0.18579394522E+03  0.18594573401E+03  0.17770000000E+01 0. -1.
         15    1    1    2    0    0  0.89777781244E+01 -0.67190541804E+01  0.85572624657E+00  0.11385788753E+02  0.17770000000E+01 0.  1.
</event>
<event>
 6    1  0.1599106E-003  0.5175248E+03  0.7546771E-02  0.9361428E-01
        -11   -1    0    0    0    0  0.00000000000E+00  0.00000000000E+00  0.50000000000E+03  0.50000000000E+03  0.00000000000E+00 0. -1.
         11   -1    0    0    0    0 -0.00000000000E+00 -0.00000000000E+00 -0.50000000000E+03  0.50000000000E+03  0.00000000000E+00 0. -1.
        -11    1    1    2    0    0 -0.59058113752E+01  0.69067517141E+01  0.39978651733E+03  0.39988978640E+03  0.00000000000E+00 0. -1.
         11    1    1    2    0    0 -0.43249763597E+01 -0.88784489579E+01 -0.48237410674E+03  0.48247519225E+03  0.00000000000E+00 0. -1.
        -15    1    1    2    0    0  0.38025552376E+02  0.32745678453E+01  0.81174927564E+02  0.89717289427E+02  0.17770000000E+01 0. -1.
         15    1    1    2    0    0 -0.27794764641E+02 -0.13028706015E+01  0.14126618464E+01  0.27917731924E+02  0.17770000000E+01 0.  1.
</event>
<event>
 6    1  0.1599106E-003  0.5023949E+03  0.7546771E-02  0.9394467E-01
        -11   -1    0    0    0    0  0.00000000000E+00  0.00000000000E+00  0.50000000000E+03  0.50000000000E+03  0.00000000000E+00 0.  1.
         11   -1    0    0    0    0 -0.00000000000E+00 -0.00000000000E+00 -0.50000000000E+03  0.50000000000E+03  0.00000000000E+00 0. -1.
        -11    1    1    2    0    0 -0.12452568110E+02 -0.13829580934E+02  0.49725703481E+03  0.49760514711E+03  0.00000000000E+00 0.  1.
         11    1    1    2    0    0  0.82664152825E+01  0.61801654835E+01 -0.38606017546E+03  0.38619811903E+03  0.00000000000E+00 0. -1.
        -15    1    1    2    0    0 -0.16728013507E+01  0.10071028649E+02 -0.10864092283E+03  0.10913400811E+03  0.17770000000E+01 0.  1.
         15    1    1    2    0    0  0.58589541786E+01 -0.24216131983E+01 -0.25559365199E+01  0.70627257517E+01  0.17770000000E+01 0. -1.
</event>
<event>
 6    1  0.1599106E-003  0.5101986E+03  0.7546771E-02  0.9377274E-01
        -11   -1    0    0    0    0  0.00000000000E+00  0.00000000000E+00  0.50000000000E+03  0.50000000000E+03  0.00000000000E+00 0. -1.
         11   -1    0    0    0    0 -0.00000000000E+00 -0.00000000000E+00 -0.50000000000E+03  0.50000000000E+03  0.00000000000E+00 0. -1.
        -11    1    1    2    0    0 -0.12145168669E+02 -0.45551832223E+01  0.47786368913E+03  0.47803970568E+03  0.00000000000E+00 0. -1.
         11    1    1    2    0    0  0.78020312703E+00  0.10784585786E+02 -0.48968200991E+03  0.48980137488E+03  0.00000000000E+00 0. -1.
        -15    1    1    2    0    0  0.16511358233E+02 -0.47341934019E+01 -0.18531096884E+01  0.17367477721E+02  0.17770000000E+01 0. -1.
         15    1    1    2    0    0 -0.51463926909E+01 -0.14952091613E+01  0.13671430461E+02  0.14791441715E+02  0.17770000000E+01 0.  1.
</event>
<event>
 6    1  0.1599106E-003  0.5905570E+03  0.7546771E-02  0.9217260E-01
        -11   -1    0    0    0    0  0.00000000000E+00  0.00000000000E+00  0.50000000000E+03  0.50000000000E+03  0.00000000000E+00 0. -1.
         11   -1    0    0    0    0 -0.00000000000E+00 -0.00000000000E+00 -0.50000000000E+03  0.50000000000E+03  0.00000000000E+00 0.  1.
        -11    1    1    2    0    0 -0.21472441554E+02  0.58483089121E+02  0.40467547113E+03  0.40944300506E+03  0.00000000000E+00 0. -1.
         11    1    1    2    0    0 -0.73256871951E+01  0.27925002554E+01 -0.29413288614E+03  0.29423735055E+03  0.00000000000E+00 0.  1.
        -15    1    1    2    0    0  0.75653287952E+02 -0.54624736964E+02  0.65498512167E+02  0.11401971186E+03  0.17770000000E+01 0. -1.
         15    1    1    2    0    0 -0.46855159203E+02 -0.66508524124E+01 -0.17604109716E+03  0.18229993253E+03  0.17770000000E+01 0.  1.
</event>
<event>
 6    1  0.1599106E-003  0.5023600E+03  0.7546771E-02  0.9394544E-01
        -11   -1    0    0    0    0  0.00000000000E+00  0.00000000000E+00  0.50000000000E+03  0.50000000000E+03  0.00000000000E+00 0. -1.
         11   -1    0    0    0    0 -0.00000000000E+00 -0.00000000000E+00 -0.50000000000E+03  0.50000000000E+03  0.00000000000E+00 0. -1.
        -11    1    1    2    0    0 -0.32364749287E+01  0.11029874324E+02  0.49750723105E+03  0.49764000828E+03  0.00000000000E+00 0. -1.
         11    1    1    2    0    0 -0.52053484660E+01  0.76248830986E+01 -0.45040484317E+03  0.45049945310E+03  0.00000000000E+00 0. -1.
        -15    1    1    2    0    0  0.92599256845E+00 -0.68598095684E+01 -0.11161291586E+02  0.13253173522E+02  0.17770000000E+01 0.  1.
         15    1    1    2    0    0  0.75158308262E+01 -0.11794947855E+02 -0.35941096292E+02  0.38607365095E+02  0.17770000000E+01 0. -1.
</event>
<event>
 6    1  0.1599106E-003  0.5003245E+03  0.7546771E-02  0.9399084E-01
        -11   -1    0    0    0    0  0.00000000000E+00  0.00000000000E+00  0.50000000000E+03  0.50000000000E+03  0.00000000000E+00 0. -1.
         11   -1    0    0    0    0 -0.00000000000E+00 -0.00000000000E+00 -0.50000000000E+03  0.50000000000E+03  0.00000000000E+00 0. -1.
        -11    1    1    2    0    0 -0.34508985930E+01 -0.73772618164E+01  0.39172266408E+03  0.39180732286E+03  0.00000000000E+00 0. -1.
         11    1    1    2    0    0 -0.30751503552E+01  0.59948127440E+01 -0.49963009465E+03  0.49967552053E+03  0.00000000000E+00 0. -1.
        -15    1    1    2    0    0  0.13038599624E+01  0.44603428573E+01  0.57655124590E+02  0.57869385945E+02  0.17770000000E+01 0.  1.
         15    1    1    2    0    0  0.52221889859E+01 -0.30778937849E+01  0.50252305988E+02  0.50647770673E+02  0.17770000000E+01 0. -1.
</event>
<event>
 6    1  0.1599106E-003  0.4927780E+03  0.7546771E-02  0.9416116E-01
        -11   -1    0    0    0    0  0.00000000000E+00  0.00000000000E+00  0.50000000000E+03  0.50000000000E+03  0.00000000000E+00 0. -1.
         11   -1    0    0    0    0 -0.00000000000E+00 -0.00000000000E+00 -0.50000000000E+03  0.50000000000E+03  0.00000000000E+00 0.  1.
        -11    1    1    2    0    0  0.69351622613E+01 -0.41404556662E+01  0.49203225133E+03  0.49209854317E+03  0.00000000000E+00 0. -1.
         11    1    1    2    0    0 -0.79911171800E+01 -0.50722175336E+01 -0.49341121952E+03  0.49350199280E+03  0.00000000000E+00 0.  1.
        -15    1    1    2    0    0  0.51488866467E+01  0.50328732571E+01 -0.16178763302E+01  0.75905269740E+01  0.17770000000E+01 0. -1.
         15    1    1    2    0    0 -0.40929317280E+01  0.41797999427E+01  0.29968445252E+01  0.68089370536E+01  0.17770000000E+01 0.  1.
</event>
<event>
 6    1  0.1599106E-003  0.5011847E+03  0.7546771E-02  0.9397163E-01
        -11   -1    0    0    0    0  0.00000000000E+00  0.00000000000E+00  0.50000000000E+03  0.50000000000E+03  0.00000000000E+00 0.  1.
         11   -1    0    0    0    0 -0.00000000000E+00 -0.00000000000E+00 -0.50000000000E+03  0.50000000000E+03  0.00000000000E+00 0.  1.
        -11    1    1    2    0    0  0.82952433559E+01 -0.11004787954E+02  0.49862494574E+03  0.49881534954E+03  0.00000000000E+00 0.  1.
         11    1    1    2    0    0  0.47799882682E+01  0.93220120389E+01 -0.35188341035E+03  0.35203931979E+03  0.00000000000E+00 0.  1.
        -15    1    1    2    0    0  0.40105697423E+01 -0.19962097890E+01 -0.83326347705E+01  0.96260092664E+01  0.17770000000E+01 0.  1.
         15    1    1    2    0    0 -0.17085801366E+02  0.36789857043E+01 -0.13840890062E+03  0.13951932140E+03  0.17770000000E+01 0.  1.
</event>
<event>
 6    1  0.1599106E-003  0.5237729E+03  0.7546771E-02  0.9348133E-01
        -11   -1    0    0    0    0  0.00000000000E+00  0.00000000000E+00  0.50000000000E+03  0.50000000000E+03  0.00000000000E+00 0. -1.
         11   -1    0    0    0    0 -0.00000000000E+00 -0.00000000000E+00 -0.50000000000E+03  0.50000000000E+03  0.00000000000E+00 0. -1.
        -11    1    1    2    0    0 -0.40561225865E+01  0.14880927387E+02  0.36576503563E+03  0.36609009195E+03  0.00000000000E+00 0. -1.
         11    1    1    2    0    0  0.18044194322E+02  0.10253871873E+02 -0.47577467302E+03  0.47622712473E+03  0.00000000000E+00 0. -1.
        -15    1    1    2    0    0  0.41775779209E+01  0.86087661998E+01  0.11807913759E+03  0.11847954876E+03  0.17770000000E+01 0. -1.
         15    1    1    2    0    0 -0.18165649657E+02 -0.33743565460E+02 -0.80695001989E+01  0.39203234559E+02  0.17770000000E+01 0.  1.
</event>
<event>
 6    1  0.1599106E-003  0.5017849E+03  0.7546771E-02  0.9395825E-01
        -11   -1    0    0    0    0  0.00000000000E+00  0.00000000000E+00  0.50000000000E+03  0.50000000000E+03  0.00000000000E+00 0. -1.
         11   -1    0    0    0    0 -0.00000000000E+00 -0.00000000000E+00 -0.50000000000E+03  0.50000000000E+03  0.00000000000E+00 0.  1.
        -11    1    1    2    0    0 -0.69548585841E+01 -0.75529531608E+01  0.49810926146E+03  0.49821506753E+03  0.00000000000E+00 0. -1.
         11    1    1    2    0    0  0.41018142540E+01  0.31268502376E+01 -0.35289812351E+03  0.35293581237E+03  0.00000000000E+00 0.  1.
        -15    1    1    2    0    0  0.75884333240E+01  0.36219664724E+01 -0.86554763859E+01  0.12197457190E+02  0.17770000000E+01 0. -1.
         15    1    1    2    0    0 -0.47353889939E+01  0.80413645075E+00 -0.13655566156E+03  0.13665166291E+03  0.17770000000E+01 0.  1.
</event>
<event>
 6    1  0.1599106E-003  0.5000559E+03  0.7546771E-02  0.9399685E-01
        -11   -1    0    0    0    0  0.00000000000E+00  0.00000000000E+00  0.50000000000E+03  0.50000000000E+03  0.00000000000E+00 0.  1.
         11   -1    0    0    0    0 -0.00000000000E+00 -0.00000000000E+00 -0.50000000000E+03  0.50000000000E+03  0.00000000000E+00 0.  1.
        -11    1    1    2    0    0 -0.27193614852E+01 -0.14974298562E+01  0.84897299317E+02  0.84954038482E+02  0.00000000000E+00 0.  1.
         11    1    1    2    0    0 -0.59588641713E+00  0.76039501221E+01 -0.49988596454E+03  0.49994414956E+03  0.00000000000E+00 0.  1.
        -15    1    1    2    0    0  0.45883435223E+01 -0.53581897532E+01  0.28630358602E+03  0.28639599193E+03  0.17770000000E+01 0.  1.
         15    1    1    2    0    0 -0.12730956200E+01 -0.74833051268E+00  0.12868507920E+03  0.12870582003E+03  0.17770000000E+01 0.  1.
</event>
<event>
 6    1  0.1599106E-003  0.5025511E+03  0.7546771E-02  0.9394120E-01
        -11   -1    0    0    0    0  0.00000000000E+00  0.00000000000E+00  0.50000000000E+03  0.50000000000E+03  0.00000000000E+00 0.  1.
         11   -1    0    0    0    0 -0.00000000000E+00 -0.00000000000E+00 -0.50000000000E+03  0.50000000000E+03  0.00000000000E+00 0.  1.
        -11    1    1    2    0    0 -0.13320183354E+02 -0.10799773048E+02  0.49715328731E+03  0.49744894559E+03  0.00000000000E+00 0.  1.
         11    1    1    2    0    0 -0.83309577337E+01  0.10047041118E+02 -0.39343716189E+03  0.39365358915E+03  0.00000000000E+00 0.  1.
        -15    1    1    2    0    0  0.23987447446E+02 -0.58920277778E+01 -0.90378927076E+02  0.93710307943E+02  0.17770000000E+01 0. -1.
         15    1    1    2    0    0 -0.23363063584E+01  0.66447597082E+01 -0.13337198343E+02  0.15187157325E+02  0.17770000000E+01 0.  1.
</event>
<event>
 6    1  0.1599106E-003  0.5427152E+03  0.7546771E-02  0.9308997E-01
        -11   -1    0    0    0    0  0.00000000000E+00  0.00000000000E+00  0.50000000000E+03  0.50000000000E+03  0.00000000000E+00 0.  1.
         11   -1    0    0    0    0 -0.00000000000E+00 -0.00000000000E+00 -0.50000000000E+03  0.50000000000E+03  0.00000000000E+00 0.  1.
        -11    1    1    2    0    0  0.94995172785E+01  0.12222116919E+02  0.42709515980E+03  0.42737559184E+03  0.00000000000E+00 0.  1.
         11    1    1    2    0    0  0.14306683244E+02  0.13107007354E+02 -0.45687296456E+03  0.45728479154E+03  0.00000000000E+00 0.  1.
        -15    1    1    2    0    0 -0.10889290212E+01  0.41109576135E+02  0.12282265033E+02  0.42955730465E+02  0.17770000000E+01 0. -1.
         15    1    1    2    0    0 -0.22717271501E+02 -0.66438700408E+02  0.17495539723E+02  0.72383886160E+02  0.17770000000E+01 0.  1.
</event>
<event>
 6    1  0.1599106E-003  0.5006115E+03  0.7546771E-02  0.9398442E-01
        -11   -1    0    0    0    0  0.00000000000E+00  0.00000000000E+00  0.50000000000E+03  0.50000000000E+03  0.00000000000E+00 0.  1.
         11   -1    0    0    0    0 -0.00000000000E+00 -0.00000000000E+00 -0.50000000000E+03  0.50000000000E+03  0.00000000000E+00 0.  1.
        -11    1    1    2    0    0 -0.65138214979E+00  0.73245787366E+01  0.49933435980E+03  0.49938850270E+03  0.00000000000E+00 0.  1.
         11    1    1    2    0    0 -0.85590408278E+01  0.39723075543E+01 -0.35669816622E+03  0.35682295076E+03  0.00000000000E+00 0.  1.
        -15    1    1    2    0    0  0.57866203128E+01 -0.10987044564E+02 -0.75006975387E+02  0.76048696298E+02  0.17770000000E+01 0.  1.
         15    1    1    2    0    0  0.34238026648E+01 -0.30984172647E+00 -0.67629218199E+02  0.67739850234E+02  0.17770000000E+01 0. -1.
</event>
<event>
 6    1  0.1599106E-003  0.5171957E+03  0.7546771E-02  0.9362134E-01
        -11   -1    0    0    0    0  0.00000000000E+00  0.00000000000E+00  0.50000000000E+03  0.50000000000E+03  0.00000000000E+00 0.  1.
         11   -1    0    0    0    0 -0.00000000000E+00 -0.00000000000E+00 -0.50000000000E+03  0.50000000000E+03  0.00000000000E+00 0.  1.
        -11    1    1    2    0    0  0.20214461398E+01  0.71598484753E+01  0.45148936725E+03  0.45155065985E+03  0.00000000000E+00 0.  1.
         11    1    1    2    0    0 -0.73957518297E+01 -0.27040951842E+02 -0.48198969289E+03  0.48280428154E+03  0.00000000000E+00 0.  1.
        -15    1    1    2    0    0 -0.93706915561E+00  0.25015967528E+02 -0.79324533760E+01  0.26320301585E+02  0.17770000000E+01 0. -1.
         15    1    1    2    0    0  0.63113748455E+01 -0.51348641613E+01  0.38432779023E+02  0.39324757022E+02  0.17770000000E+01 0.  1.
</event>
<event>
 6    1  0.1599106E-003  0.5027379E+03  0.7546771E-02  0.9393704E-01
        -11   -1    0    0    0    0  0.00000000000E+00  0.00000000000E+00  0.50000000000E+03  0.50000000000E+03  0.00000000000E+00 0. -1.
         11   -1    0    0    0    0 -0.00000000000E+00 -0.00000000000E+00 -0.50000000000E+03  0.50000000000E+03  0.00000000000E+00 0.  1.
        -11    1    1    2    0    0 -0.36224771780E+01 -0.60703631736E+01  0.49721189103E+03  0.49726214036E+03  0.00000000000E+00 0. -1.
         11    1    1    2    0    0  0.63419781955E+01  0.74662872116E+01 -0.49102621476E+03  0.49112392501E+03  0.00000000000E+00 0.  1.
        -15    1    1    2    0    0 -0.31206856897E+01 -0.38373051848E+01 -0.67097516007E+01  0.85230326644E+01  0.17770000000E+01 0.  1.
         15    1    1    2    0    0  0.40118467219E+00  0.24413811469E+01  0.52407533292E+00  0.30909019719E+01  0.17770000000E+01 0. -1.
</event>
<event>
 6    1  0.1599106E-003  0.5269659E+03  0.7546771E-02  0.9341414E-01
        -11   -1    0    0    0    0  0.00000000000E+00  0.00000000000E+00  0.50000000000E+03  0.50000000000E+03  0.00000000000E+00 0. -1.
         11   -1    0    0    0    0 -0.00000000000E+00 -0.00000000000E+00 -0.50000000000E+03  0.50000000000E+03  0.00000000000E+00 0. -1.
        -11    1    1    2    0    0  0.86105263200E+01 -0.12080033618E+02  0.47280140610E+03  0.47303407698E+03  0.00000000000E+00 0. -1.
         11    1    1    2    0    0 -0.50503495287E+02  0.44776267556E+01 -0.43798306213E+03  0.44090794378E+03  0.00000000000E+00 0. -1.
        -15    1    1    2    0    0  0.55261693370E+02  0.96586716574E+01 -0.89828102385E+01  0.56841827039E+02  0.17770000000E+01 0. -1.
         15    1    1    2    0    0 -0.13368724403E+02 -0.20562647949E+01 -0.25835533728E+02  0.29216152195E+02  0.17770000000E+01 0.  1.
</event>
<event>
 6    1  0.1599106E-003  0.5213447E+03  0.7546771E-02  0.9353276E-01
        -11   -1    0    0    0    0  0.00000000000E+00  0.00000000000E+00  0.50000000000E+03  0.50000000000E+03  0.00000000000E+00 0.  1.
         11   -1    0    0    0    0 -0.00000000000E+00 -0.00000000000E+00 -0.50000000000E+03  0.50000000000E+03  0.00000000000E+00 0.  1.
        -11    1    1    2    0    0  0.13892739504E+02  0.16765759437E+01  0.47845074984E+03  0.47865534484E+03  0.00000000000E+00 0.  1.
         11    1    1    2    0    0  0.69036628167E+01  0.12744317970E+01 -0.43221012258E+03  0.43226713361E+03  0.00000000000E+00 0.  1.
        -15    1    1    2    0    0 -0.57989811016E+01 -0.35969605159E+01 -0.64776627208E+02  0.65159308377E+02  0.17770000000E+01 0. -1.
         15    1    1    2    0    0 -0.14997421219E+02  0.64595277522E+00  0.18535999952E+02  0.23918213174E+02  0.17770000000E+01 0. -1.
</event>
<event>
 6    1  0.1599106E-003  0.5247478E+03  0.7546771E-02  0.9346076E-01
        -11   -1    0    0    0    0  0.00000000000E+00  0.00000000000E+00  0.50000000000E+03  0.50000000000E+03  0.00000000000E+00 0.  1.
         11   -1    0    0    0    0 -0.00000000000E+00 -0.00000000000E+00 -0.50000000000E+03  0.50000000000E+03  0.00000000000E+00 0. -1.
        -11    1    1    2    0    0 -0.51469271486E+01 -0.10441845240E+02  0.35913916527E+03  0.35932779328E+03  0.00000000000E+00 0.  1.
         11    1    1    2    0    0  0.20731121856E+01  0.90647843256E+01 -0.47516119397E+03  0.47525217345E+03  0.00000000000E+00 0. -1.
        -15    1    1    2    0    0  0.13893854881E+02 -0.44928328717E+02  0.84783736816E+01  0.47818766965E+02  0.17770000000E+01 0. -1.
         15    1    1    2    0    0 -0.10820039918E+02  0.46305389632E+02  0.10754365502E+03  0.11760126631E+03  0.17770000000E+01 0.  1.
</event>
<event>
 6    1  0.1599106E-003  0.5042132E+03  0.7546771E-02  0.9390431E-01
        -11   -1    0    0    0    0  0.00000000000E+00  0.00000000000E+00  0.50000000000E+03  0.50000000000E+03  0.00000000000E+00 0.  1.
         11   -1    0    0    0    0 -0.00000000000E+00 -0.00000000000E+00 -0.50000000000E+03  0.50000000000E+03  0.00000000000E+00 0.  1.
        -11    1    1    2    0    0  0.63590792097E+01 -0.66235902592E+01  0.37953890028E+03  0.37964995280E+03  0.00000000000E+00 0.  1.
         11    1    1    2    0    0  0.99720119109E+01  0.40114280824E+02 -0.49406072187E+03  0.49578684275E+03  0.00000000000E+00 0.  1.
        -15    1    1    2    0    0 -0.35546514752E+01 -0.85649130050E+01  0.77665939585E+02  0.78237773374E+02  0.17770000000E+01 0. -1.
         15    1    1    2    0    0 -0.12776439645E+02 -0.24925777559E+02  0.36855882009E+02  0.46325431078E+02  0.17770000000E+01 0.  1.
</event>
<event>
 6    1  0.1599106E-003  0.4882910E+03  0.7546771E-02  0.9426398E-01
        -11   -1    0    0    0    0  0.00000000000E+00  0.00000000000E+00  0.50000000000E+03  0.50000000000E+03  0.00000000000E+00 0. -1.
         11   -1    0    0    0    0 -0.00000000000E+00 -0.00000000000E+00 -0.50000000000E+03  0.50000000000E+03  0.00000000000E+00 0. -1.
        -11    1    1    2    0    0  0.25829727917E+01  0.72464323313E+01  0.48808975061E+03  0.48815037354E+03  0.00000000000E+00 0. -1.
         11    1    1    2    0    0 -0.12942459476E+02 -0.74078855904E+01 -0.48825889558E+03  0.48848657416E+03  0.00000000000E+00 0. -1.
        -15    1    1    2    0    0  0.14472124876E+02 -0.42423818965E+01  0.43748488098E+01  0.15803076716E+02  0.17770000000E+01 0. -1.
         15    1    1    2    0    0 -0.41126381915E+01  0.44038351556E+01 -0.42057038471E+01  0.75599755834E+01  0.17770000000E+01 0.  1.
</event>
<event>
 6    1  0.1599106E-003  0.5012254E+03  0.7546771E-02  0.9397072E-01
        -11   -1    0    0    0    0  0.00000000000E+00  0.00000000000E+00  0.50000000000E+03  0.50000000000E+03  0.00000000000E+00 0. -1.
         11   -1    0    0    0    0 -0.00000000000E+00 -0.00000000000E+00 -0.50000000000E+03  0.50000000000E+03  0.00000000000E+00 0.  1.
        -11    1    1    2    0    0 -0.10820014795E+02  0.24714207867E+01  0.27489531495E+03  0.27511927381E+03  0.00000000000E+00 0. -1.
         11    1    1    2    0    0  0.11741863194E+02  0.70099558588E+00 -0.49863589820E+03  0.49877462016E+03  0.00000000000E+00 0.  1.
        -15    1    1    2    0    0  0.79493049921E+01  0.12267337223E+02  0.10142513849E+03  0.10248851379E+03  0.17770000000E+01 0. -1.
         15    1    1    2    0    0 -0.88711533920E+01 -0.15439753595E+02  0.12231544476E+03  0.12361759224E+03  0.17770000000E+01 0.  1.
</event>
<event>
 6    1  0.1599106E-003  0.5095435E+03  0.7546771E-02  0.9378705E-01
        -11   -1    0    0    0    0  0.00000000000E+00  0.00000000000E+00  0.50000000000E+03  0.50000000000E+03  0.00000000000E+00 0. -1.
         11   -1    0    0    0    0 -0.00000000000E+00 -0.00000000000E+00 -0.50000000000E+03  0.50000000000E+03  0.00000000000E+00 0.  1.
        -11    1    1    2    0    0 -0.30798449019E+02 -0.19584609267E+01  0.43232567122E+03  0.43342573300E+03  0.00000000000E+00 0. -1.
         11    1    1    2    0    0  0.12165805164E+02 -0.96229177040E+00 -0.49030464079E+03  0.49045649511E+03  0.00000000000E+00 0.  1.
        -15    1    1    2    0    0 -0.61943988103E+01 -0.73655202509E-01 -0.51135320455E+01  0.82269034691E+01  0.17770000000E+01 0.  1.
         15    1    1    2    0    0  0.24827042666E+02  0.29944078996E+01  0.63092501609E+02  0.67890868417E+02  0.17770000000E+01 0. -1.
</event>
<event>
 6    1  0.1599106E-003  0.5040450E+03  0.7546771E-02  0.9390804E-01
        -11   -1    0    0    0    0  0.00000000000E+00  0.00000000000E+00  0.50000000000E+03  0.50000000000E+03  0.00000000000E+00 0. -1.
         11   -1    0    0    0    0 -0.00000000000E+00 -0.00000000000E+00 -0.50000000000E+03  0.50000000000E+03  0.00000000000E+00 0. -1.
        -11    1    1    2    0    0 -0.45338887008E+00  0.27189655101E+02  0.18194610528E+03  0.18396703001E+03  0.00000000000E+00 0. -1.
         11    1    1    2    0    0 -0.68889608123E+01 -0.16867213872E+01 -0.49590425905E+03  0.49595497473E+03  0.00000000000E+00 0. -1.
        -15    1    1    2    0    0 -0.47071371558E+01  0.78982553104E+01  0.20999803037E+03  0.21020673173E+03  0.17770000000E+01 0. -1.
         15    1    1    2    0    0  0.12049486838E+02 -0.33401189025E+02  0.10396012341E+03  0.10987126353E+03  0.17770000000E+01 0.  1.
</event>
<event>
 6    1  0.1599106E-003  0.5025554E+03  0.7546771E-02  0.9394110E-01
        -11   -1    0    0    0    0  0.00000000000E+00  0.00000000000E+00  0.50000000000E+03  0.50000000000E+03  0.00000000000E+00 0.  1.
         11   -1    0    0    0    0 -0.00000000000E+00 -0.00000000000E+00 -0.50000000000E+03  0.50000000000E+03  0.00000000000E+00 0. -1.
        -11    1    1    2    0    0 -0.22696632039E+02  0.26418866149E+02  0.49622376680E+03  0.49744459021E+03  0.00000000000E+00 0.  1.
         11    1    1    2    0    0 -0.24570455882E+01  0.49014867396E+01 -0.32933560314E+03  0.32938123982E+03  0.00000000000E+00 0. -1.
        -15    1    1    2    0    0 -0.67236607574E+00 -0.55643827900E+01 -0.58605762634E+02  0.58899979413E+02  0.17770000000E+01 0. -1.
         15    1    1    2    0    0  0.25826043703E+02 -0.25755970099E+02 -0.10828240102E+03  0.11427419056E+03  0.17770000000E+01 0. -1.
</event>
<event>
 6    1  0.1599106E-003  0.5004222E+03  0.7546771E-02  0.9398865E-01
        -11   -1    0    0    0    0  0.00000000000E+00  0.00000000000E+00  0.50000000000E+03  0.50000000000E+03  0.00000000000E+00 0. -1.
         11   -1    0    0    0    0 -0.00000000000E+00 -0.00000000000E+00 -0.50000000000E+03  0.50000000000E+03  0.00000000000E+00 0.  1.
        -11    1    1    2    0    0  0.26174693917E+01 -0.10900270235E+01  0.18065337096E+03  0.18067562023E+03  0.00000000000E+00 0. -1.
         11    1    1    2    0    0  0.94280241128E+01 -0.32267824221E+01 -0.49947838823E+03  0.49957778180E+03  0.00000000000E+00 0.  1.
        -15    1    1    2    0    0  0.21875390739E+01  0.14951065453E+01  0.85248322095E+01  0.91022614762E+01  0.17770000000E+01 0. -1.
         15    1    1    2    0    0 -0.14233032578E+02  0.28217029003E+01  0.31030018505E+03  0.31064433650E+03  0.17770000000E+01 0. -1.
</event>
<event>
 6    1  0.1599106E-003  0.5046896E+03  0.7546771E-02  0.9389377E-01
        -11   -1    0    0    0    0  0.00000000000E+00  0.00000000000E+00  0.50000000000E+03  0.50000000000E+03  0.00000000000E+00 0.  1.
         11   -1    0    0    0    0 -0.00000000000E+00 -0.00000000000E+00 -0.50000000000E+03  0.50000000000E+03  0.00000000000E+00 0.  1.
        -11    1    1    2    0    0  0.12302447399E+02 -0.17969096900E+01  0.49515436747E+03  0.49531043470E+03  0.00000000000E+00 0.  1.
         11    1    1    2    0    0 -0.12717370722E+02 -0.20690223872E+02 -0.45342206178E+03  0.45407200199E+03  0.00000000000E+00 0.  1.
        -15    1    1    2    0    0  0.37237154729E+01  0.19537696912E+02 -0.41235834072E+02  0.45816366051E+02  0.17770000000E+01 0.  1.
         15    1    1    2    0    0 -0.33087921493E+01  0.29494366504E+01 -0.49647161378E+00  0.48011972575E+01  0.17770000000E+01 0. -1.
</event>
<event>
 6    1  0.1599106E-003  0.5015800E+03  0.7546771E-02  0.9396281E-01
        -11   -1    0    0    0    0  0.00000000000E+00  0.00000000000E+00  0.50000000000E+03  0.50000000000E+03  0.00000000000E+00 0.  1.
         11   -1    0    0    0    0 -0.00000000000E+00 -0.00000000000E+00 -0.50000000000E+03  0.50000000000E+03  0.00000000000E+00 0. -1.
        -11    1    1    2    0    0  0.96024547034E+01  0.73721818582E+00  0.49832690743E+03  0.49841996077E+03  0.00000000000E+00 0.  1.
         11    1    1    2    0    0  0.41052640919E+00  0.99864120754E+01 -0.45081878478E+03  0.45092956620E+03  0.00000000000E+00 0. -1.
        -15    1    1    2    0    0 -0.46565916364E+01 -0.92077060630E+01 -0.20517929337E+02  0.23034948446E+02  0.17770000000E+01 0.  1.
         15    1    1    2    0    0 -0.53563894762E+01 -0.15159241983E+01 -0.26990193308E+02  0.27615524587E+02  0.17770000000E+01 0. -1.
</event>
<event>
 6    1  0.1599106E-003  0.4883854E+03  0.7546771E-02  0.9426180E-01
        -11   -1    0    0    0    0  0.00000000000E+00  0.00000000000E+00  0.50000000000E+03  0.50000000000E+03  0.00000000000E+00 0.  1.
         11   -1    0    0    0    0 -0.00000000000E+00 -0.00000000000E+00 -0.50000000000E+03  0.50000000000E+03  0.00000000000E+00 0. -1.
        -11    1    1    2    0    0  0.52550910743E+00  0.14798141127E+02  0.48773665497E+03  0.48796137730E+03  0.00000000000E+00 0.  1.
         11    1    1    2    0    0 -0.71530563012E+01  0.25681714451E+00 -0.48889623348E+03  0.48894862643E+03  0.00000000000E+00 0. -1.
        -15    1    1    2    0    0  0.85667539677E+01 -0.72132983422E+01 -0.53753985553E+01  0.12548847961E+02  0.17770000000E+01 0.  1.
         15    1    1    2    0    0 -0.19392067739E+01 -0.78416599293E+01  0.65349770722E+01  0.10541148310E+02  0.17770000000E+01 0. -1.
</event>
<event>
 6    1  0.1599106E-003  0.5023124E+03  0.7546771E-02  0.9394650E-01
        -11   -1    0    0    0    0  0.00000000000E+00  0.00000000000E+00  0.50000000000E+03  0.50000000000E+03  0.00000000000E+00 0. -1.
         11   -1    0    0    0    0 -0.00000000000E+00 -0.00000000000E+00 -0.50000000000E+03  0.50000000000E+03  0.00000000000E+00 0. -1.
        -11    1    1    2    0    0  0.24182257245E+01  0.81903437459E+01  0.28733247433E+03  0.28745935426E+03  0.00000000000E+00 0. -1.
         11    1    1    2    0    0 -0.11401161840E+02  0.39460809505E+01 -0.49754138566E+03  0.49768764149E+03  0.00000000000E+00 0. -1.
        -15    1    1    2    0    0 -0.11355479794E+02  0.18058797476E+01  0.13877759563E+03  0.13926444953E+03  0.17770000000E+01 0. -1.
         15    1    1    2    0    0  0.20338415909E+02 -0.13942304444E+02  0.71431315691E+02  0.75588554723E+02  0.17770000000E+01 0.  1.
</event>
<event>
 6    1  0.1599106E-003  0.5038279E+03  0.7546771E-02  0.9391285E-01
        -11   -1    0    0    0    0  0.00000000000E+00  0.00000000000E+00  0.50000000000E+03  0.50000000000E+03  0.00000000000E+00 0. -1.
         11   -1    0    0    0    0 -0.00000000000E+00 -0.00000000000E+00 -0.50000000000E+03  0.50000000000E+03  0.00000000000E+00 0.  1.
        -11    1    1    2    0    0 -0.14039198048E+02 -0.97326961266E+00  0.49597249382E+03  0.49617210821E+03  0.00000000000E+00 0. -1.
         11    1    1    2    0    0  0.24206220854E+01 -0.61622089357E+01 -0.11254021725E+03  0.11273478935E+03  0.00000000000E+00 0.  1.
        -15    1    1    2    0    0  0.14201154049E+02 -0.10476169770E+02 -0.18164615651E+02  0.25387672208E+02  0.17770000000E+01 0. -1.
         15    1    1    2    0    0 -0.25825780866E+01  0.17611648318E+02 -0.36526766092E+03  0.36570543024E+03  0.17770000000E+01 0.  1.
</event>
<event>
 6    1  0.1599106E-003  0.5029557E+03  0.7546771E-02  0.9393220E-01
        -11   -1    0    0    0    0  0.00000000000E+00  0.00000000000E+00  0.50000000000E+03  0.50000000000E+03  0.00000000000E+00 0. -1.
         11   -1    0    0    0    0 -0.00000000000E+00 -0.00000000000E+00 -0.50000000000E+03  0.50000000000E+03  0.00000000000E+00 0.  1.
        -11    1    1    2    0    0 -0.31658507776E+00  0.38320708776E+02  0.49556482798E+03  0.49704433975E+03  0.00000000000E+00 0. -1.
         11    1    1    2    0    0  0.81979079006E+00 -0.17760290390E+01 -0.79804693170E+02  0.79828662697E+02  0.00000000000E+00 0.  1.
        -15    1    1    2    0    0  0.84910233782E+01  0.16729863607E+02 -0.50757070221E+02  0.54142623881E+02  0.17770000000E+01 0. -1.
         15    1    1    2    0    0 -0.89942290905E+01 -0.53274543344E+02 -0.36500306459E+03  0.36898437367E+03  0.17770000000E+01 0.  1.
</event>
<event>
 6    1  0.1599106E-003  0.5051497E+03  0.7546771E-02  0.9388360E-01
        -11   -1    0    0    0    0  0.00000000000E+00  0.00000000000E+00  0.50000000000E+03  0.50000000000E+03  0.00000000000E+00 0. -1.
         11   -1    0    0    0    0 -0.00000000000E+00 -0.00000000000E+00 -0.50000000000E+03  0.50000000000E+03  0.00000000000E+00 0.  1.
        -11    1    1    2    0    0  0.64408376354E+01  0.50568050210E+01  0.49478254956E+03  0.49485030769E+03  0.00000000000E+00 0. -1.
         11    1    1    2    0    0 -0.10944676264E+01  0.64388949988E+01 -0.37677958394E+03  0.37683618736E+03  0.00000000000E+00 0.  1.
        -15    1    1    2    0    0 -0.18125611796E+02 -0.41591470906E+00 -0.14122809694E+02  0.23050428861E+02  0.17770000000E+01 0. -1.
         15    1    1    2    0    0  0.12779241787E+02 -0.11079785311E+02 -0.10388015593E+03  0.10526307609E+03  0.17770000000E+01 0.  1.
</event>
<event>
 6    1  0.1599106E-003  0.5004782E+03  0.7546771E-02  0.9398740E-01
        -11   -1    0    0    0    0  0.00000000000E+00  0.00000000000E+00  0.50000000000E+03  0.50000000000E+03  0.00000000000E+00 0.  1.
         11   -1    0    0    0    0 -0.00000000000E+00 -0.00000000000E+00 -0.50000000000E+03  0.50000000000E+03  0.00000000000E+00 0. -1.
        -11    1    1    2    0    0  0.21172757527E+02  0.11170091076E+02  0.49894787896E+03  0.49952181386E+03  0.00000000000E+00 0.  1.
         11    1    1    2    0    0 -0.12735715717E+00 -0.11705266515E+01 -0.29930533071E+02  0.29953683620E+02  0.00000000000E+00 0. -1.
        -15    1    1    2    0    0 -0.11485807451E+02 -0.11438468516E+02 -0.95817081733E+02  0.97194820930E+02  0.17770000000E+01 0.  1.
         15    1    1    2    0    0 -0.95595929187E+01  0.14389040915E+01 -0.37320026416E+03  0.37332968159E+03  0.17770000000E+01 0. -1.
</event>
<event>
 6    1  0.1599106E-003  0.5031311E+03  0.7546771E-02  0.9392831E-01
        -11   -1    0    0    0    0  0.00000000000E+00  0.00000000000E+00  0.50000000000E+03  0.50000000000E+03  0.00000000000E+00 0.  1.
         11   -1    0    0    0    0 -0.00000000000E+00 -0.00000000000E+00 -0.50000000000E+03  0.50000000000E+03  0.00000000000E+00 0.  1.
        -11    1    1    2    0    0  0.10528541259E+02  0.35212742583E+01  0.43693557153E+03  0.43707658736E+03  0.00000000000E+00 0.  1.
         11    1    1    2    0    0 -0.55605217401E+01 -0.75021442835E+01 -0.49678112527E+03  0.49686888411E+03  0.00000000000E+00 0.  1.
        -15    1    1    2    0    0 -0.65712047793E+01 -0.75186545187E+00  0.60340596680E+02  0.60728011416E+02  0.17770000000E+01 0.  1.
         15    1    1    2    0    0  0.16031852599E+01  0.47327354771E+01 -0.49504294018E+00  0.53265171160E+01  0.17770000000E+01 0. -1.
</event>
<event>
 6    1  0.1599106E-003  0.5018523E+03  0.7546771E-02  0.9395675E-01
        -11   -1    0    0    0    0  0.00000000000E+00  0.00000000000E+00  0.50000000000E+03  0.50000000000E+03  0.00000000000E+00 0. -1.
         11   -1    0    0    0    0 -0.00000000000E+00 -0.00000000000E+00 -0.50000000000E+03  0.50000000000E+03  0.00000000000E+00 0. -1.
        -11    1    1    2    0    0  0.44639039317E+01 -0.10622151610E+02  0.39868208088E+03  0.39884854037E+03  0.00000000000E+00 0. -1.
         11    1    1    2    0    0 -0.11939448673E+02 -0.60544339124E+01 -0.49796780064E+03  0.49814770609E+03  0.00000000000E+00 0. -1.
        -15    1    1    2    0    0 -0.32439329621E+01  0.54628931019E+01  0.64951782740E+02  0.65285971787E+02  0.17770000000E+01 0. -1.
         15    1    1    2    0    0  0.10719477704E+02  0.11213692420E+02  0.34333937020E+02  0.37717781751E+02  0.17770000000E+01 0.  1.
</event>
<event>
 6    1  0.1599106E-003  0.5008191E+03  0.7546771E-02  0.9397979E-01
        -11   -1    0    0    0    0  0.00000000000E+00  0.00000000000E+00  0.50000000000E+03  0.50000000000E+03  0.00000000000E+00 0.  1.
         11   -1    0    0    0    0 -0.00000000000E+00 -0.00000000000E+00 -0.50000000000E+03  0.50000000000E+03  0.00000000000E+00 0.  1.
        -11    1    1    2    0    0 -0.66823103697E+01 -0.39456177333E+01  0.49912055275E+03  0.49918087639E+03  0.00000000000E+00 0.  1.
         11    1    1    2    0    0  0.52270384725E+01  0.29127521183E+01 -0.42249114486E+03  0.42253351765E+03  0.00000000000E+00 0.  1.
        -15    1    1    2    0    0  0.10298747139E+01 -0.87828549129E+00 -0.74439781194E+00  0.23545454833E+01  0.17770000000E+01 0.  1.
         15    1    1    2    0    0  0.42539718319E+00  0.19111511063E+01 -0.75885010084E+02  0.75931060481E+02  0.17770000000E+01 0. -1.
</event>
<event>
 6    1  0.1599106E-003  0.5057461E+03  0.7546771E-02  0.9387043E-01
        -11   -1    0    0    0    0  0.00000000000E+00  0.00000000000E+00  0.50000000000E+03  0.50000000000E+03  0.00000000000E+00 0.  1.
         11   -1    0    0    0    0 -0.00000000000E+00 -0.00000000000E+00 -0.50000000000E+03  0.50000000000E+03  0.00000000000E+00 0. -1.
        -11    1    1    2    0    0  0.11717740911E+02  0.92565156045E+01  0.49402830533E+03  0.49425393777E+03  0.00000000000E+00 0.  1.
         11    1    1    2    0    0 -0.64467492486E+01  0.70278784805E+01 -0.47561716841E+03  0.47571277315E+03  0.00000000000E+00 0. -1.
        -15    1    1    2    0    0  0.21266255018E+01 -0.14634382213E+02 -0.76294790259E+01  0.16734824707E+02  0.17770000000E+01 0. -1.
         15    1    1    2    0    0 -0.73976171646E+01 -0.16500118723E+01 -0.10781657891E+02  0.13298464376E+02  0.17770000000E+01 0.  1.
</event>
<event>
 6    1  0.1599106E-003  0.5002016E+03  0.7546771E-02  0.9399359E-01
        -11   -1    0    0    0    0  0.00000000000E+00  0.00000000000E+00  0.50000000000E+03  0.50000000000E+03  0.00000000000E+00 0. -1.
         11   -1    0    0    0    0 -0.00000000000E+00 -0.00000000000E+00 -0.50000000000E+03  0.50000000000E+03  0.00000000000E+00 0. -1.
        -11    1    1    2    0    0  0.56531516345E+00  0.26433763496E+01  0.16591194800E+03  0.16593396731E+03  0.00000000000E+00 0. -1.
         11    1    1    2    0    0  0.99954802695E+01 -0.15413602240E+01 -0.49969605270E+03  0.49979838986E+03  0.00000000000E+00 0. -1.
        -15    1    1    2    0    0 -0.12305933226E+02  0.29029579323E+01  0.27423512580E+03  0.27453219321E+03  0.17770000000E+01 0. -1.
         15    1    1    2    0    0  0.17451377934E+01 -0.40049740578E+01  0.59548978908E+02  0.59735449619E+02  0.17770000000E+01 0.  1.
</event>
<event>
 6    1  0.1599106E-003  0.5020531E+03  0.7546771E-02  0.9395227E-01
        -11   -1    0    0    0    0  0.00000000000E+00  0.00000000000E+00  0.50000000000E+03  0.50000000000E+03  0.00000000000E+00 0.  1.
         11   -1    0    0    0    0 -0.00000000000E+00 -0.00000000000E+00 -0.50000000000E+03  0.50000000000E+03  0.00000000000E+00 0. -1.
        -11    1    1    2    0    0 -0.82557438880E+01  0.29327336860E+01  0.49786980682E+03  0.49794688751E+03  0.00000000000E+00 0.  1.
         11    1    1    2    0    0 -0.62351998094E+01 -0.23508257749E+01 -0.45393285394E+03  0.45398176173E+03  0.00000000000E+00 0. -1.
        -15    1    1    2    0    0  0.54996514136E+00  0.13704415567E+00 -0.21539106851E+02  0.21619715440E+02  0.17770000000E+01 0.  1.
         15    1    1    2    0    0  0.13940978556E+02 -0.71895206678E+00 -0.22397846031E+02  0.26451635318E+02  0.17770000000E+01 0. -1.
</event>
<event>
 6    1  0.1599106E-003  0.5009766E+03  0.7546771E-02  0.9397627E-01
        -11   -1    0    0    0    0  0.00000000000E+00  0.00000000000E+00  0.50000000000E+03  0.50000000000E+03  0.00000000000E+00 0. -1.
         11   -1    0    0    0    0 -0.00000000000E+00 -0.00000000000E+00 -0.50000000000E+03  0.50000000000E+03  0.00000000000E+00 0.  1.
        -11    1    1    2    0    0  0.69010861610E+01 -0.31432681670E+01  0.49896579786E+03  0.49902341885E+03  0.00000000000E+00 0. -1.
         11    1    1    2    0    0  0.87049520615E+01  0.12737821586E+01 -0.25406983497E+03  0.25422210713E+03  0.00000000000E+00 0.  1.
        -15    1    1    2    0    0 -0.14361023160E+02  0.12166562380E+02 -0.18258467374E+03  0.18356084833E+03  0.17770000000E+01 0. -1.
         15    1    1    2    0    0 -0.12450150629E+01 -0.10297076371E+02 -0.62311289144E+02  0.63193625692E+02  0.17770000000E+01 0.  1.
</event>
<event>
 6    1  0.1599106E-003  0.5069771E+03  0.7546771E-02  0.9384332E-01
        -11   -1    0    0    0    0  0.00000000000E+00  0.00000000000E+00  0.50000000000E+03  0.50000000000E+03  0.00000000000E+00 0. -1.
         11   -1    0    0    0    0 -0.00000000000E+00 -0.00000000000E+00 -0.50000000000E+03  0.50000000000E+03  0.00000000000E+00 0. -1.
        -11    1    1    2    0    0  0.72331319894E+01  0.38881331561E+01  0.46883559647E+03  0.46890750931E+03  0.00000000000E+00 0. -1.
         11    1    1    2    0    0 -0.78398509822E+01 -0.42031111735E+01 -0.49294266697E+03  0.49302292272E+03  0.00000000000E+00 0. -1.
        -15    1    1    2    0    0  0.44283011835E+01  0.14163698015E+02  0.11222631768E+02  0.18690248410E+02  0.17770000000E+01 0.  1.
         15    1    1    2    0    0 -0.38215821907E+01 -0.13848719997E+02  0.12884438735E+02  0.19379319558E+02  0.17770000000E+01 0. -1.
</event>
<event>
 6    1  0.1599106E-003  0.4492275E+03  0.7546771E-02  0.9521183E-01
        -11   -1    0    0    0    0  0.00000000000E+00  0.00000000000E+00  0.50000000000E+03  0.50000000000E+03  0.00000000000E+00 0.  1.
         11   -1    0    0    0    0 -0.00000000000E+00 -0.00000000000E+00 -0.50000000000E+03  0.50000000000E+03  0.00000000000E+00 0. -1.
        -11    1    1    2    0    0  0.63464705708E+01 -0.29890959493E+00  0.44418584175E+03  0.44423127878E+03  0.00000000000E+00 0.  1.
         11    1    1    2    0    0  0.15961342813E+02 -0.84960775885E+01 -0.45424014082E+03  0.45459988268E+03  0.00000000000E+00 0. -1.
        -15    1    1    2    0    0 -0.17282434399E+02  0.15064422177E+02 -0.42313634371E+02  0.48158288352E+02  0.17770000000E+01 0.  1.
         15    1    1    2    0    0 -0.50253789847E+01 -0.62694349936E+01  0.52367933441E+02  0.53010550186E+02  0.17770000000E+01 0. -1.
</event>
<event>
 6    1  0.1599106E-003  0.5029275E+03  0.7546771E-02  0.9393283E-01
        -11   -1    0    0    0    0  0.00000000000E+00  0.00000000000E+00  0.50000000000E+03  0.50000000000E+03  0.00000000000E+00 0. -1.
         11   -1    0    0    0    0 -0.00000000000E+00 -0.00000000000E+00 -0.50000000000E+03  0.50000000000E+03  0.00000000000E+00 0.  1.
        -11    1    1    2    0    0 -0.13811045710E+01  0.67072316765E+01  0.30430111973E+03  0.30437816261E+03  0.00000000000E+00 0. -1.
         11    1    1    2    0    0 -0.10998172321E+02 -0.35511479028E+01 -0.49693812802E+03  0.49707250329E+03  0.00000000000E+00 0.  1.
        -15    1    1    2    0    0  0.59126912201E+01  0.13635685358E+02  0.20067038188E+02  0.25034687601E+02  0.17770000000E+01 0.  1.
         15    1    1    2    0    0  0.64665856720E+01 -0.16791769131E+02  0.17256997010E+03  0.17351464650E+03  0.17770000000E+01 0. -1.
</event>
<event>
 6    1  0.1599106E-003  0.5011271E+03  0.7546771E-02  0.9397291E-01
        -11   -1    0    0    0    0  0.00000000000E+00  0.00000000000E+00  0.50000000000E+03  0.50000000000E+03  0.00000000000E+00 0.  1.
         11   -1    0    0    0    0 -0.00000000000E+00 -0.00000000000E+00 -0.50000000000E+03  0.50000000000E+03  0.00000000000E+00 0. -1.
        -11    1    1    2    0    0 -0.29450291862E+01 -0.93869835707E+01  0.40617673498E+03  0.40629586350E+03  0.00000000000E+00 0.  1.
         11    1    1    2    0    0  0.46555246417E+00 -0.77927732958E+01 -0.49881183259E+03  0.49887291807E+03  0.00000000000E+00 0. -1.
        -15    1    1    2    0    0  0.30441911500E+01  0.35600787350E+01  0.44203211569E+02  0.44486210250E+02  0.17770000000E+01 0.  1.
         15    1    1    2    0    0 -0.56471442792E+00  0.13619678131E+02  0.48431886041E+02  0.50345008186E+02  0.17770000000E+01 0. -1.
</event>
<event>
 6    1  0.1599106E-003  0.5063032E+03  0.7546771E-02  0.9385815E-01
        -11   -1    0    0    0    0  0.00000000000E+00  0.00000000000E+00  0.50000000000E+03  0.50000000000E+03  0.00000000000E+00 0.  1.
         11   -1    0    0    0    0 -0.00000000000E+00 -0.00000000000E+00 -0.50000000000E+03  0.50000000000E+03  0.00000000000E+00 0.  1.
        -11    1    1    2    0    0  0.32396413819E+02 -0.11366910586E+02  0.36892405160E+03  0.37051813739E+03  0.00000000000E+00 0.  1.
         11    1    1    2    0    0 -0.12237829808E+02 -0.11553160399E+01 -0.49354370526E+03  0.49369675737E+03  0.00000000000E+00 0.  1.
        -15    1    1    2    0    0 -0.88486238067E+01 -0.73384643888E+01  0.29850903634E+01  0.12009150525E+02  0.17770000000E+01 0. -1.
         15    1    1    2    0    0 -0.11309960205E+02  0.19860691014E+02  0.12163456330E+03  0.12377595472E+03  0.17770000000E+01 0.  1.
</event>
<event>
 6    1  0.1599106E-003  0.5060246E+03  0.7546771E-02  0.9386429E-01
        -11   -1    0    0    0    0  0.00000000000E+00  0.00000000000E+00  0.50000000000E+03  0.50000000000E+03  0.00000000000E+00 0. -1.
         11   -1    0    0    0    0 -0.00000000000E+00 -0.00000000000E+00 -0.50000000000E+03  0.50000000000E+03  0.00000000000E+00 0.  1.
        -11    1    1    2    0    0  0.36938884383E+01  0.11121723079E+02  0.46741796691E+03  0.46756485467E+03  0.00000000000E+00 0. -1.
         11    1    1    2    0    0 -0.66585746611E+01  0.13119712805E-01 -0.49393054102E+03  0.49397542058E+03  0.00000000000E+00 0.  1.
        -15    1    1    2    0    0  0.15437524068E+01 -0.10603069636E+02  0.31300888334E+02  0.33131730964E+02  0.17770000000E+01 0.  1.
         15    1    1    2    0    0  0.14209338160E+01 -0.53177315630E+00 -0.47883142235E+01  0.53279937784E+01  0.17770000000E+01 0. -1.
</event>
<event>
 6    1  0.1599106E-003  0.5036519E+03  0.7546771E-02  0.9391675E-01
        -11   -1    0    0    0    0  0.00000000000E+00  0.00000000000E+00  0.50000000000E+03  0.50000000000E+03  0.00000000000E+00 0. -1.
         11   -1    0    0    0    0 -0.00000000000E+00 -0.00000000000E+00 -0.50000000000E+03  0.50000000000E+03  0.00000000000E+00 0.  1.
        -11    1    1    2    0    0 -0.11140398702E+02 -0.73330169868E+01  0.49616885348E+03  0.49634807624E+03  0.00000000000E+00 0. -1.
         11    1    1    2    0    0 -0.48972785811E+01  0.81939762956E+01 -0.37947836305E+03  0.37959840965E+03  0.00000000000E+00 0.  1.
        -15    1    1    2    0    0 -0.43215955197E+01 -0.75575445473E+01 -0.86672745847E+02  0.87127006542E+02  0.17770000000E+01 0. -1.
         15    1    1    2    0    0  0.20359272803E+02  0.66965852385E+01 -0.30017744582E+02  0.36926507575E+02  0.17770000000E+01 0.  1.
</event>
<event>
 6    1  0.1599106E-003  0.4638106E+03  0.7546771E-02  0.9484639E-01
        -11   -1    0    0    0    0  0.00000000000E+00  0.00000000000E+00  0.50000000000E+03  0.50000000000E+03  0.00000000000E+00 0. -1.
         11   -1    0    0    0    0 -0.00000000000E+00 -0.00000000000E+00 -0.50000000000E+03  0.50000000000E+03  0.00000000000E+00 0.  1.
        -11    1    1    2    0    0 -0.10644748059E+02  0.43422758414E+01  0.45574407219E+03  0.45588904940E+03  0.00000000000E+00 0. -1.
         11    1    1    2    0    0  0.24877147198E+02  0.42342126830E+02 -0.47057795393E+03  0.47313353176E+03  0.00000000000E+00 0.  1.
        -15    1    1    2    0    0 -0.21167465311E+02 -0.46406692897E+02 -0.36360507158E+01  0.51166603631E+02  0.17770000000E+01 0.  1.
         15    1    1    2    0    0  0.69350661714E+01 -0.27770977469E+00  0.18469932449E+02  0.19810815208E+02  0.17770000000E+01 0. -1.
</event>
<event>
 6    1  0.1599106E-003  0.5022480E+03  0.7546771E-02  0.9394794E-01
        -11   -1    0    0    0    0  0.00000000000E+00  0.00000000000E+00  0.50000000000E+03  0.50000000000E+03  0.00000000000E+00 0. -1.
         11   -1    0    0    0    0 -0.00000000000E+00 -0.00000000000E+00 -0.50000000000E+03  0.50000000000E+03  0.00000000000E+00 0.  1.
        -11    1    1    2    0    0 -0.37030646686E+02  0.15074011166E+02  0.49614367056E+03  0.49775198286E+03  0.00000000000E+00 0. -1.
         11    1    1    2    0    0  0.31378668345E+01 -0.18612223052E+01 -0.16006201209E+03  0.16010358544E+03  0.00000000000E+00 0.  1.
        -15    1    1    2    0    0 -0.66347790790E+01  0.91187004331E-01 -0.18551622716E+03  0.18564335936E+03  0.17770000000E+01 0. -1.
         15    1    1    2    0    0  0.40527558930E+02 -0.13303975865E+02 -0.15056543131E+03  0.15650107233E+03  0.17770000000E+01 0.  1.
</event>
<event>
 6    1  0.1599106E-003  0.5002025E+03  0.7546771E-02  0.9399357E-01
        -11   -1    0    0    0    0  0.00000000000E+00  0.00000000000E+00  0.50000000000E+03  0.50000000000E+03  0.00000000000E+00 0. -1.
         11   -1    0    0    0    0 -0.00000000000E+00 -0.00000000000E+00 -0.50000000000E+03  0.50000000000E+03  0.00000000000E+00 0. -1.
        -11    1    1    2    0    0 -0.53946595915E+01  0.57633615438E+01  0.69570582192E+02  0.70017030749E+02  0.00000000000E+00 0. -1.
         11    1    1    2    0    0  0.62322959790E+01 -0.22935648267E+02 -0.49923202345E+03  0.49979745769E+03  0.00000000000E+00 0. -1.
        -15    1    1    2    0    0  0.43155321346E+01  0.77305825124E+01  0.12333994643E+03  0.12367006848E+03  0.17770000000E+01 0. -1.
         15    1    1    2    0    0 -0.51531685221E+01  0.94417042107E+01  0.30632149483E+03  0.30651544308E+03  0.17770000000E+01 0. -1.
</event>
<event>
 6    1  0.1599106E-003  0.5170502E+03  0.7546771E-02  0.9362447E-01
        -11   -1    0    0    0    0  0.00000000000E+00  0.00000000000E+00  0.50000000000E+03  0.50000000000E+03  0.00000000000E+00 0.  1.
         11   -1    0    0    0    0 -0.00000000000E+00 -0.00000000000E+00 -0.50000000000E+03  0.50000000000E+03  0.00000000000E+00 0.  1.
        -11    1    1    2    0    0  0.14236524157E+01 -0.24020067073E+02  0.33296035544E+03  0.33382868167E+03  0.00000000000E+00 0.  1.
         11    1    1    2    0    0  0.13207135731E+02  0.23800811759E+02 -0.48218215924E+03  0.48294983359E+03  0.00000000000E+00 0.  1.
        -15    1    1    2    0    0  0.11291795946E+02  0.45315205655E+02  0.37316196064E+02  0.59804922347E+02  0.17770000000E+01 0.  1.
         15    1    1    2    0    0 -0.25922584093E+02 -0.45095950341E+02  0.11190560773E+03  0.12341656240E+03  0.17770000000E+01 0. -1.
</event>
<event>
 6    1  0.1599106E-003  0.5073905E+03  0.7546771E-02  0.9383423E-01
        -11   -1    0    0    0    0  0.00000000000E+00  0.00000000000E+00  0.50000000000E+03  0.50000000000E+03  0.00000000000E+00 0. -1.
         11   -1    0    0    0    0 -0.00000000000E+00 -0.00000000000E+00 -0.50000000000E+03  0.50000000000E+03  0.00000000000E+00 0.  1.
        -11    1    1    2    0    0  0.14773013038E+01  0.77580810771E+01  0.47333517928E+03  0.47340105850E+03  0.00000000000E+00 0. -1.
         11    1    1    2    0    0  0.57264799481E+01 -0.38897050334E+01 -0.49256088196E+03  0.49260952571E+03  0.00000000000E+00 0.  1.
        -15    1    1    2    0    0  0.29549860867E+00 -0.51321514657E+01  0.24151183512E+02  0.24756083941E+02  0.17770000000E+01 0.  1.
         15    1    1    2    0    0 -0.74992798606E+01  0.12637754220E+01 -0.49254808291E+01  0.92333318549E+01  0.17770000000E+01 0. -1.
</event>
<event>
 6    1  0.1599106E-003  0.5298100E+03  0.7546771E-02  0.9335472E-01
        -11   -1    0    0    0    0  0.00000000000E+00  0.00000000000E+00  0.50000000000E+03  0.50000000000E+03  0.00000000000E+00 0. -1.
         11   -1    0    0    0    0 -0.00000000000E+00 -0.00000000000E+00 -0.50000000000E+03  0.50000000000E+03  0.00000000000E+00 0. -1.
        -11    1    1    2    0    0  0.60122234330E+01 -0.32765888256E+01  0.47014017473E+03  0.47019003260E+03  0.00000000000E+00 0. -1.
         11    1    1    2    0    0  0.36183204251E+02  0.37934702234E+02 -0.33632253282E+03  0.34038377163E+03  0.00000000000E+00 0. -1.
        -15    1    1    2    0    0 -0.59139506084E+02  0.12359810281E+02 -0.17675436048E+02  0.62974795423E+02  0.17770000000E+01 0. -1.
         15    1    1    2    0    0  0.16944078400E+02 -0.47017923689E+02 -0.11614220586E+03  0.12645140035E+03  0.17770000000E+01 0.  1.
</event>
<event>
 6    1  0.1599106E-003  0.5079255E+03  0.7546771E-02  0.9382248E-01
        -11   -1    0    0    0    0  0.00000000000E+00  0.00000000000E+00  0.50000000000E+03  0.50000000000E+03  0.00000000000E+00 0. -1.
         11   -1    0    0    0    0 -0.00000000000E+00 -0.00000000000E+00 -0.50000000000E+03  0.50000000000E+03  0.00000000000E+00 0. -1.
        -11    1    1    2    0    0 -0.67748652541E+01 -0.40483221625E+01  0.47895478190E+03  0.47901980212E+03  0.00000000000E+00 0. -1.
         11    1    1    2    0    0  0.16040746456E+01 -0.72147963416E+01 -0.49201900540E+03  0.49207451470E+03  0.00000000000E+00 0. -1.
        -15    1    1    2    0    0 -0.36116241123E+01  0.45320385368E+01 -0.48580251123E+01  0.77679687834E+01  0.17770000000E+01 0.  1.
         15    1    1    2    0    0  0.87824147208E+01  0.67310799672E+01  0.17922248610E+02  0.21137714401E+02  0.17770000000E+01 0.  1.
</event>
<event>
 6    1  0.1599106E-003  0.4691880E+03  0.7546771E-02  0.9471523E-01
        -11   -1    0    0    0    0  0.00000000000E+00  0.00000000000E+00  0.50000000000E+03  0.50000000000E+03  0.00000000000E+00 0.  1.
         11   -1    0    0    0    0 -0.00000000000E+00 -0.00000000000E+00 -0.50000000000E+03  0.50000000000E+03  0.00000000000E+00 0. -1.
        -11    1    1    2    0    0  0.24568705113E+02 -0.12690324356E+02  0.46587882251E+03  0.46669877101E+03  0.00000000000E+00 0.  1.
         11    1    1    2    0    0 -0.28705646100E+01 -0.73142024005E+01 -0.47209632391E+03  0.47216170615E+03  0.00000000000E+00 0. -1.
        -15    1    1    2    0    0 -0.59446234692E+01  0.44156793035E+01 -0.23112468525E+02  0.24334763245E+02  0.17770000000E+01 0. -1.
         15    1    1    2    0    0 -0.15753517034E+02  0.15588847453E+02  0.29329969931E+02  0.36804759597E+02  0.17770000000E+01 0.  1.
</event>
<event>
 6    1  0.1599106E-003  0.5053899E+03  0.7546771E-02  0.9387830E-01
        -11   -1    0    0    0    0  0.00000000000E+00  0.00000000000E+00  0.50000000000E+03  0.50000000000E+03  0.00000000000E+00 0. -1.
         11   -1    0    0    0    0 -0.00000000000E+00 -0.00000000000E+00 -0.50000000000E+03  0.50000000000E+03  0.00000000000E+00 0. -1.
        -11    1    1    2    0    0  0.21597956399E+01  0.30132855619E+01  0.10234621938E+03  0.10241334497E+03  0.00000000000E+00 0. -1.
         11    1    1    2    0    0 -0.68506667468E+01 -0.50438110665E+01 -0.49453697546E+03  0.49461014119E+03  0.00000000000E+00 0. -1.
        -15    1    1    2    0    0  0.47531128912E+01 -0.46339031161E+01  0.39533598401E+03  0.39539570448E+03  0.17770000000E+01 0. -1.
         15    1    1    2    0    0 -0.62241784253E-01  0.66644286208E+01 -0.31452279241E+01  0.75808093615E+01  0.17770000000E+01 0.  1.
</event>
<event>
 6    1  0.1599106E-003  0.5119132E+03  0.7546771E-02  0.9373541E-01
        -11   -1    0    0    0    0  0.00000000000E+00  0.00000000000E+00  0.50000000000E+03  0.50000000000E+03  0.00000000000E+00 0.  1.
         11   -1    0    0    0    0 -0.00000000000E+00 -0.00000000000E+00 -0.50000000000E+03  0.50000000000E+03  0.00000000000E+00 0.  1.
        -11    1    1    2    0    0 -0.22559655190E+01 -0.12128890926E+02  0.22219028509E+03  0.22253251934E+03  0.00000000000E+00 0.  1.
         11    1    1    2    0    0  0.10779442906E+02 -0.16864081736E+02 -0.48767625767E+03  0.48808680164E+03  0.00000000000E+00 0.  1.
        -15    1    1    2    0    0 -0.19158238642E+02 -0.48674174264E+00  0.25581075851E+03  0.25653377346E+03  0.17770000000E+01 0.  1.
         15    1    1    2    0    0  0.10634761255E+02  0.29479714405E+02  0.96752140673E+01  0.32846905556E+02  0.17770000000E+01 0. -1.
</event>
<event>
 6    1  0.1625717E-003  0.5084657E+03  0.7546771E-02  0.9381064E-01
        -11   -1    0    0    0    0  0.00000000000E+00  0.00000000000E+00  0.50000000000E+03  0.50000000000E+03  0.00000000000E+00 0. -1.
         11   -1    0    0    0    0 -0.00000000000E+00 -0.00000000000E+00 -0.50000000000E+03  0.50000000000E+03  0.00000000000E+00 0.  1.
        -11    1    1    2    0    0  0.12316737979E+02  0.35721463059E+01  0.49136698878E+03  0.49153431206E+03  0.00000000000E+00 0. -1.
         11    1    1    2    0    0 -0.20714718605E+02 -0.17923275918E+02 -0.42998797769E+03  0.43085961095E+03  0.00000000000E+00 0.  1.
        -15    1    1    2    0    0 -0.37327384691E+01 -0.37265804036E+01  0.51500650196E+01  0.75829833634E+01  0.17770000000E+01 0.  1.
         15    1    1    2    0    0  0.12130719094E+02  0.18077710016E+02 -0.66529076109E+02  0.70023093634E+02  0.17770000000E+01 0. -1.
</event>
<event>
 6    1  0.1599106E-003  0.5000853E+03  0.7546771E-02  0.9399619E-01
        -11   -1    0    0    0    0  0.00000000000E+00  0.00000000000E+00  0.50000000000E+03  0.50000000000E+03  0.00000000000E+00 0. -1.
         11   -1    0    0    0    0 -0.00000000000E+00 -0.00000000000E+00 -0.50000000000E+03  0.50000000000E+03  0.00000000000E+00 0.  1.
        -11    1    1    2    0    0 -0.27081176845E+01  0.90964133319E+00  0.90901693408E+02  0.90946573400E+02  0.00000000000E+00 0. -1.
         11    1    1    2    0    0  0.72071977939E+01  0.46208021892E+01 -0.49984141882E+03  0.49991473221E+03  0.00000000000E+00 0.  1.
        -15    1    1    2    0    0 -0.32989554100E+01 -0.73362077262E+01  0.37258044455E+03  0.37267150205E+03  0.17770000000E+01 0. -1.
         15    1    1    2    0    0 -0.12001246994E+01  0.18057642038E+01  0.36359280855E+02  0.36467192337E+02  0.17770000000E+01 0. -1.
</event>
<event>
 6    1  0.1599106E-003  0.5057054E+03  0.7546771E-02  0.9387133E-01
        -11   -1    0    0    0    0  0.00000000000E+00  0.00000000000E+00  0.50000000000E+03  0.50000000000E+03  0.00000000000E+00 0.  1.
         11   -1    0    0    0    0 -0.00000000000E+00 -0.00000000000E+00 -0.50000000000E+03  0.50000000000E+03  0.00000000000E+00 0.  1.
        -11    1    1    2    0    0  0.37390725378E+02  0.28131259431E+02  0.49207491240E+03  0.49429460195E+03  0.00000000000E+00 0.  1.
         11    1    1    2    0    0  0.30222628792E+01 -0.59164166607E+01 -0.27244400164E+03  0.27252499351E+03  0.00000000000E+00 0.  1.
        -15    1    1    2    0    0  0.12434749662E+02  0.68245448000E+01 -0.77008328105E+02  0.78323928256E+02  0.17770000000E+01 0.  1.
         15    1    1    2    0    0 -0.52847737919E+02 -0.29039387570E+02 -0.14262258266E+03  0.15485647629E+03  0.17770000000E+01 0. -1.
</event>
<event>
 6    1  0.2413177E-003  0.5171529E+03  0.7546771E-02  0.9362226E-01
        -11   -1    0    0    0    0  0.00000000000E+00  0.00000000000E+00  0.50000000000E+03  0.50000000000E+03  0.00000000000E+00 0.  1.
         11   -1    0    0    0    0 -0.00000000000E+00 -0.00000000000E+00 -0.50000000000E+03  0.50000000000E+03  0.00000000000E+00 0.  1.
        -11    1    1    2    0    0 -0.31484781790E+01 -0.14596819978E+02  0.39276229287E+03  0.39304605171E+03  0.00000000000E+00 0.  1.
         11    1    1    2    0    0 -0.40477357948E+02 -0.57713976958E+01 -0.48111283474E+03  0.48284706201E+03  0.00000000000E+00 0.  1.
        -15    1    1    2    0    0  0.12593299477E+01  0.20357913031E+01  0.76307892729E+02  0.76366108843E+02  0.17770000000E+01 0. -1.
         15    1    1    2    0    0  0.42366506179E+02  0.18332426371E+02  0.12042649150E+02  0.47740777434E+02  0.17770000000E+01 0.  1.
</event>
<event>
 6    1  0.1599106E-003  0.5001139E+03  0.7546771E-02  0.9399555E-01
        -11   -1    0    0    0    0  0.00000000000E+00  0.00000000000E+00  0.50000000000E+03  0.50000000000E+03  0.00000000000E+00 0. -1.
         11   -1    0    0    0    0 -0.00000000000E+00 -0.00000000000E+00 -0.50000000000E+03  0.50000000000E+03  0.00000000000E+00 0.  1.
        -11    1    1    2    0    0  0.63761159338E+01 -0.31329169310E+01  0.49983559298E+03  0.49988607706E+03  0.00000000000E+00 0. -1.
         11    1    1    2    0    0  0.25448845938E+01 -0.15461853400E+01 -0.11929053080E+03  0.11932769111E+03  0.00000000000E+00 0.  1.
        -15    1    1    2    0    0 -0.63694598427E+01  0.21063107602E+01 -0.33236203377E+03  0.33243448345E+03  0.17770000000E+01 0.  1.
         15    1    1    2    0    0 -0.25515406850E+01  0.25727915108E+01 -0.48183028411E+02  0.48351748385E+02  0.17770000000E+01 0. -1.
</event>
<event>
 6    1  0.1599106E-003  0.5019953E+03  0.7546771E-02  0.9395356E-01
        -11   -1    0    0    0    0  0.00000000000E+00  0.00000000000E+00  0.50000000000E+03  0.50000000000E+03  0.00000000000E+00 0. -1.
         11   -1    0    0    0    0 -0.00000000000E+00 -0.00000000000E+00 -0.50000000000E+03  0.50000000000E+03  0.00000000000E+00 0.  1.
        -11    1    1    2    0    0 -0.68460964994E+01 -0.60677750231E+00  0.49795729230E+03  0.49800472103E+03  0.00000000000E+00 0. -1.
         11    1    1    2    0    0  0.12103150257E+02  0.14486025076E+00 -0.47300105653E+03  0.47315590106E+03  0.00000000000E+00 0.  1.
        -15    1    1    2    0    0  0.15821829029E+01 -0.22250774440E+01 -0.56860034132E+00  0.33068576804E+01  0.17770000000E+01 0.  1.
         15    1    1    2    0    0 -0.68392366603E+01  0.26869946956E+01 -0.24387635430E+02  0.25532520233E+02  0.17770000000E+01 0. -1.
</event>
<event>
 6    1  0.1599106E-003  0.5249344E+03  0.7546771E-02  0.9345683E-01
        -11   -1    0    0    0    0  0.00000000000E+00  0.00000000000E+00  0.50000000000E+03  0.50000000000E+03  0.00000000000E+00 0. -1.
         11   -1    0    0    0    0 -0.00000000000E+00 -0.00000000000E+00 -0.50000000000E+03  0.50000000000E+03  0.00000000000E+00 0.  1.
        -11    1    1    2    0    0 -0.24343034005E+01 -0.12405856321E+02  0.45054712238E+03  0.45072446194E+03  0.00000000000E+00 0. -1.
         11    1    1    2    0    0  0.16160370883E+02 -0.54418452739E+01 -0.47475944046E+03  0.47506557187E+03  0.00000000000E+00 0.  1.
        -15    1    1    2    0    0 -0.35612857468E+02  0.70208290286E+01  0.32099346235E+02  0.48488074977E+02  0.17770000000E+01 0.  1.
         15    1    1    2    0    0  0.21886789986E+02  0.10826872566E+02 -0.78870281613E+01  0.25721891215E+02  0.17770000000E+01 0. -1.
</event>
<event>
 6    1  0.1599106E-003  0.5227752E+03  0.7546771E-02  0.9350243E-01
        -11   -1    0    0    0    0  0.00000000000E+00  0.00000000000E+00  0.50000000000E+03  0.50000000000E+03  0.00000000000E+00 0.  1.
         11   -1    0    0    0    0 -0.00000000000E+00 -0.00000000000E+00 -0.50000000000E+03  0.50000000000E+03  0.00000000000E+00 0. -1.
        -11    1    1    2    0    0  0.66591770813E+01 -0.31888915314E+02  0.47611156737E+03  0.47722476062E+03  0.00000000000E+00 0.  1.
         11    1    1    2    0    0  0.98479499983E+01 -0.63249761177E+01 -0.41095361800E+03  0.41112025441E+03  0.00000000000E+00 0. -1.
        -15    1    1    2    0    0 -0.76124642854E+01  0.39323850721E+02  0.54465767190E+01  0.40461559225E+02  0.17770000000E+01 0.  1.
         15    1    1    2    0    0 -0.88946627943E+01 -0.11099592888E+01 -0.70604526095E+02  0.71193425750E+02  0.17770000000E+01 0. -1.
</event>
<event>
 6    1  0.1599106E-003  0.5006004E+03  0.7546771E-02  0.9398467E-01
        -11   -1    0    0    0    0  0.00000000000E+00  0.00000000000E+00  0.50000000000E+03  0.50000000000E+03  0.00000000000E+00 0. -1.
         11   -1    0    0    0    0 -0.00000000000E+00 -0.00000000000E+00 -0.50000000000E+03  0.50000000000E+03  0.00000000000E+00 0. -1.
        -11    1    1    2    0    0 -0.22372949370E+01  0.64581298107E+00  0.12319492624E+03  0.12321693234E+03  0.00000000000E+00 0. -1.
         11    1    1    2    0    0  0.18692728006E+02  0.90379774061E+01 -0.49896775292E+03  0.49939956104E+03  0.00000000000E+00 0. -1.
        -15    1    1    2    0    0 -0.87861541252E+00  0.10878879578E+01  0.17040957757E+01  0.28314548671E+01  0.17770000000E+01 0. -1.
         15    1    1    2    0    0 -0.15576817656E+02 -0.10771678345E+02  0.37406873090E+03  0.37455205175E+03  0.17770000000E+01 0. -1.
</event>
<event>
 6    1  0.1599106E-003  0.5053959E+03  0.7546771E-02  0.9387816E-01
        -11   -1    0    0    0    0  0.00000000000E+00  0.00000000000E+00  0.50000000000E+03  0.50000000000E+03  0.00000000000E+00 0.  1.
         11   -1    0    0    0    0 -0.00000000000E+00 -0.00000000000E+00 -0.50000000000E+03  0.50000000000E+03  0.00000000000E+00 0. -1.
        -11    1    1    2    0    0  0.12579027862E+02 -0.40435955828E+01  0.39328562618E+03  0.39350751755E+03  0.00000000000E+00 0.  1.
         11    1    1    2    0    0  0.77278897397E-01  0.70509396847E+01 -0.49455379898E+03  0.49460406570E+03  0.00000000000E+00 0. -1.
        -15    1    1    2    0    0 -0.38439479794E+01 -0.86394536448E+01 -0.43704420261E+00  0.96314501496E+01  0.17770000000E+01 0.  1.
         15    1    1    2    0    0 -0.88123587804E+01  0.56321095430E+01  0.10170521700E+03  0.10225696661E+03  0.17770000000E+01 0. -1.
</event>
<event>
 6    1  0.1599106E-003  0.5440105E+03  0.7546771E-02  0.9306383E-01
        -11   -1    0    0    0    0  0.00000000000E+00  0.00000000000E+00  0.50000000000E+03  0.50000000000E+03  0.00000000000E+00 0.  1.
         11   -1    0    0    0    0 -0.00000000000E+00 -0.00000000000E+00 -0.50000000000E+03  0.50000000000E+03  0.00000000000E+00 0.  1.
        -11    1    1    2    0    0 -0.19401454974E+02  0.23327796418E+02  0.45497888880E+03  0.45598946456E+03  0.00000000000E+00 0.  1.
         11    1    1    2    0    0  0.76990509757E+01 -0.21736405756E+01 -0.42202368208E+03  0.42209950052E+03  0.00000000000E+00 0.  1.
        -15    1    1    2    0    0  0.14084831512E+02 -0.24259861505E+02  0.39967426648E+02  0.48861807998E+02  0.17770000000E+01 0.  1.
         15    1    1    2    0    0 -0.23824275132E+01  0.31057056636E+01 -0.72922633364E+02  0.73049226925E+02  0.17770000000E+01 0.  1.
</event>
<event>
 6    1  0.1599106E-003  0.5240652E+03  0.7546771E-02  0.9347516E-01
        -11   -1    0    0    0    0  0.00000000000E+00  0.00000000000E+00  0.50000000000E+03  0.50000000000E+03  0.00000000000E+00 0.  1.
         11   -1    0    0    0    0 -0.00000000000E+00 -0.00000000000E+00 -0.50000000000E+03  0.50000000000E+03  0.00000000000E+00 0. -1.
        -11    1    1    2    0    0  0.22885710496E+02 -0.41997463764E+02  0.40235608176E+03  0.40518879456E+03  0.00000000000E+00 0.  1.
         11    1    1    2    0    0 -0.17603065074E+02  0.69727763535E+01 -0.47555804534E+03  0.47593480855E+03  0.00000000000E+00 0. -1.
        -15    1    1    2    0    0  0.47533895892E+01 -0.25301138660E+02  0.33531488375E+01  0.26021984286E+02  0.17770000000E+01 0. -1.
         15    1    1    2    0    0 -0.10036035011E+02  0.60325826070E+02  0.69848814737E+02  0.92854412598E+02  0.17770000000E+01 0.  1.
</event>
<event>
 6    1  0.1599106E-003  0.5151923E+03  0.7546771E-02  0.9366443E-01
        -11   -1    0    0    0    0  0.00000000000E+00  0.00000000000E+00  0.50000000000E+03  0.50000000000E+03  0.00000000000E+00 0. -1.
         11   -1    0    0    0    0 -0.00000000000E+00 -0.00000000000E+00 -0.50000000000E+03  0.50000000000E+03  0.00000000000E+00 0.  1.
        -11    1    1    2    0    0  0.80715721293E+01  0.86387894318E+00  0.41269344143E+03  0.41277327089E+03  0.00000000000E+00 0. -1.
         11    1    1    2    0    0 -0.73465116626E+01  0.56444034385E+02 -0.48145462974E+03  0.48480765335E+03  0.00000000000E+00 0.  1.
        -15    1    1    2    0    0 -0.60411499627E+01 -0.15695761877E+02  0.56055101372E+02  0.58550700701E+02  0.17770000000E+01 0.  1.
         15    1    1    2    0    0  0.53160894961E+01 -0.41612151452E+02  0.12706086933E+02  0.43868375057E+02  0.17770000000E+01 0. -1.
</event>
<event>
 6    1  0.1599106E-003  0.5075557E+03  0.7546771E-02  0.9383060E-01
        -11   -1    0    0    0    0  0.00000000000E+00  0.00000000000E+00  0.50000000000E+03  0.50000000000E+03  0.00000000000E+00 0.  1.
         11   -1    0    0    0    0 -0.00000000000E+00 -0.00000000000E+00 -0.50000000000E+03  0.50000000000E+03  0.00000000000E+00 0. -1.
        -11    1    1    2    0    0 -0.24760239390E+02  0.95652473734E+01  0.34171706727E+03  0.34274643321E+03  0.00000000000E+00 0.  1.
         11    1    1    2    0    0 -0.90595169257E+01  0.46605734080E+01 -0.49233892609E+03  0.49244432573E+03  0.00000000000E+00 0. -1.
        -15    1    1    2    0    0  0.22988343140E+02 -0.85519993287E+01  0.15382352769E+02  0.29006466840E+02  0.17770000000E+01 0. -1.
         15    1    1    2    0    0  0.10831413175E+02 -0.56738214527E+01  0.13523950606E+03  0.13580277423E+03  0.17770000000E+01 0.  1.
</event>
<event>
 6    1  0.1599106E-003  0.5001147E+03  0.7546771E-02  0.9399553E-01
        -11   -1    0    0    0    0  0.00000000000E+00  0.00000000000E+00  0.50000000000E+03  0.50000000000E+03  0.00000000000E+00 0. -1.
         11   -1    0    0    0    0 -0.00000000000E+00 -0.00000000000E+00 -0.50000000000E+03  0.50000000000E+03  0.00000000000E+00 0.  1.
        -11    1    1    2    0    0 -0.36762203294E+00  0.10631057734E+01  0.52069016119E+02  0.52081165304E+02  0.00000000000E+00 0. -1.
         11    1    1    2    0    0  0.51386381638E+01  0.81284092130E+01 -0.49979282439E+03  0.49988533080E+03  0.00000000000E+00 0.  1.
        -15    1    1    2    0    0  0.24778029936E+01 -0.13231965008E+01  0.24293563356E+03  0.24295837120E+03  0.17770000000E+01 0. -1.
         15    1    1    2    0    0 -0.72488191244E+01 -0.78683184855E+01  0.20478817472E+03  0.20507513269E+03  0.17770000000E+01 0. -1.
</event>
<event>
 6    1  0.1599106E-003  0.5042143E+03  0.7546771E-02  0.9390429E-01
        -11   -1    0    0    0    0  0.00000000000E+00  0.00000000000E+00  0.50000000000E+03  0.50000000000E+03  0.00000000000E+00 0. -1.
         11   -1    0    0    0    0 -0.00000000000E+00 -0.00000000000E+00 -0.50000000000E+03  0.50000000000E+03  0.00000000000E+00 0. -1.
        -11    1    1    2    0    0 -0.74333722654E+01 -0.70305150167E+01  0.49568014861E+03  0.49578573284E+03  0.00000000000E+00 0. -1.
         11    1    1    2    0    0 -0.57102118754E+01  0.67316388480E+01 -0.42740968694E+03  0.42750083271E+03  0.00000000000E+00 0. -1.
        -15    1    1    2    0    0 -0.60661818983E+01 -0.77568168747E+01 -0.76684780451E+01  0.12606746423E+02  0.17770000000E+01 0.  1.
         15    1    1    2    0    0  0.19209766039E+02  0.80556930434E+01 -0.60601983620E+02  0.64106688023E+02  0.17770000000E+01 0. -1.
</event>
<event>
 6    1  0.1599106E-003  0.5235623E+03  0.7546771E-02  0.9348578E-01
        -11   -1    0    0    0    0  0.00000000000E+00  0.00000000000E+00  0.50000000000E+03  0.50000000000E+03  0.00000000000E+00 0.  1.
         11   -1    0    0    0    0 -0.00000000000E+00 -0.00000000000E+00 -0.50000000000E+03  0.50000000000E+03  0.00000000000E+00 0.  1.
        -11    1    1    2    0    0  0.87188785236E+01  0.38452439726E+02  0.47480343965E+03  0.47643773493E+03  0.00000000000E+00 0.  1.
         11    1    1    2    0    0 -0.60755535799E+01  0.69966886093E+01 -0.35702252657E+03  0.35714275924E+03  0.00000000000E+00 0.  1.
        -15    1    1    2    0    0 -0.53962580592E+01 -0.27635458946E+02  0.15311396209E+02  0.32100385902E+02  0.17770000000E+01 0. -1.
         15    1    1    2    0    0  0.27529331155E+01 -0.17813669390E+02 -0.13309230929E+03  0.13431911993E+03  0.17770000000E+01 0.  1.
</event>
<event>
 6    1  0.1599106E-003  0.5037101E+03  0.7546771E-02  0.9391546E-01
        -11   -1    0    0    0    0  0.00000000000E+00  0.00000000000E+00  0.50000000000E+03  0.50000000000E+03  0.00000000000E+00 0.  1.
         11   -1    0    0    0    0 -0.00000000000E+00 -0.00000000000E+00 -0.50000000000E+03  0.50000000000E+03  0.00000000000E+00 0.  1.
        -11    1    1    2    0    0  0.36582404491E+01 -0.13935245634E+02  0.47331470695E+03  0.47353393290E+03  0.00000000000E+00 0.  1.
         11    1    1    2    0    0  0.99724036057E+00  0.14375281042E+02 -0.49608066150E+03  0.49628990107E+03  0.00000000000E+00 0.  1.
        -15    1    1    2    0    0 -0.81436181263E+01 -0.71877201702E+01  0.84620605246E+01  0.13883300571E+02  0.17770000000E+01 0.  1.
         15    1    1    2    0    0  0.34881373167E+01  0.67476847623E+01  0.14303894021E+02  0.16292865456E+02  0.17770000000E+01 0. -1.
</event>
<event>
 6    1  0.1599106E-003  0.5063235E+03  0.7546771E-02  0.9385770E-01
        -11   -1    0    0    0    0  0.00000000000E+00  0.00000000000E+00  0.50000000000E+03  0.50000000000E+03  0.00000000000E+00 0. -1.
         11   -1    0    0    0    0 -0.00000000000E+00 -0.00000000000E+00 -0.50000000000E+03  0.50000000000E+03  0.00000000000E+00 0.  1.
        -11    1    1    2    0    0  0.69330031694E+01 -0.51835321525E+00  0.35928887882E+03  0.35935613765E+03  0.00000000000E+00 0. -1.
         11    1    1    2    0    0 -0.25659034340E+02 -0.24409743605E+01 -0.49300316792E+03  0.49367648109E+03  0.00000000000E+00 0.  1.
        -15    1    1    2    0    0  0.12544003364E+02 -0.10918103230E+02  0.13020440567E+03  0.13127414820E+03  0.17770000000E+01 0. -1.
         15    1    1    2    0    0  0.61820278068E+01  0.13877430806E+02  0.35098834270E+01  0.15693233072E+02  0.17770000000E+01 0.  1.
</event>
<event>
 6    1  0.1599106E-003  0.5222415E+03  0.7546771E-02  0.9351373E-01
        -11   -1    0    0    0    0  0.00000000000E+00  0.00000000000E+00  0.50000000000E+03  0.50000000000E+03  0.00000000000E+00 0. -1.
         11   -1    0    0    0    0 -0.00000000000E+00 -0.00000000000E+00 -0.50000000000E+03  0.50000000000E+03  0.00000000000E+00 0. -1.
        -11    1    1    2    0    0 -0.13072161865E+01 -0.98082860147E+01  0.46269382231E+03  0.46279961592E+03  0.00000000000E+00 0. -1.
         11    1    1    2    0    0 -0.76418704923E+01  0.50431352194E+01 -0.47767073984E+03  0.47775848197E+03  0.00000000000E+00 0. -1.
        -15    1    1    2    0    0 -0.15553660167E+02  0.22072531218E+02  0.10648988790E+02  0.29080434491E+02  0.17770000000E+01 0.  1.
         15    1    1    2    0    0  0.24502746845E+02 -0.17307380423E+02  0.43279287339E+01  0.30361467622E+02  0.17770000000E+01 0. -1.
</event>
<event>
 6    1  0.1599106E-003  0.5091272E+03  0.7546771E-02  0.9379615E-01
        -11   -1    0    0    0    0  0.00000000000E+00  0.00000000000E+00  0.50000000000E+03  0.50000000000E+03  0.00000000000E+00 0. -1.
         11   -1    0    0    0    0 -0.00000000000E+00 -0.00000000000E+00 -0.50000000000E+03  0.50000000000E+03  0.00000000000E+00 0. -1.
        -11    1    1    2    0    0  0.63602877171E+01 -0.58753923091E+01  0.44696499231E+03  0.44704885398E+03  0.00000000000E+00 0. -1.
         11    1    1    2    0    0  0.38646501150E+01  0.90133234215E+01 -0.49077487255E+03  0.49087284611E+03  0.00000000000E+00 0. -1.
        -15    1    1    2    0    0 -0.17574212355E+02  0.27994031417E+01  0.48272843236E+02  0.51479264961E+02  0.17770000000E+01 0. -1.
         15    1    1    2    0    0  0.73492745229E+01 -0.59373342541E+01 -0.44629629953E+01  0.10599034945E+02  0.17770000000E+01 0.  1.
</event>
<event>
 6    1  0.1599106E-003  0.5039006E+03  0.7546771E-02  0.9391124E-01
        -11   -1    0    0    0    0  0.00000000000E+00  0.00000000000E+00  0.50000000000E+03  0.50000000000E+03  0.00000000000E+00 0.  1.
         11   -1    0    0    0    0 -0.00000000000E+00 -0.00000000000E+00 -0.50000000000E+03  0.50000000000E+03  0.00000000000E+00 0.  1.
        -11    1    1    2    0    0  0.41796325541E+01  0.86202019606E+01  0.49600693355E+03  0.49609944098E+03  0.00000000000E+00 0.  1.
         11    1    1    2    0    0  0.38726112995E+01  0.28125932346E+02 -0.28979081304E+03  0.29117826243E+03  0.00000000000E+00 0.  1.
        -15    1    1    2    0    0 -0.54662650723E+01  0.25698678785E+01 -0.61353498278E+01  0.87911615423E+01  0.17770000000E+01 0. -1.
         15    1    1    2    0    0 -0.25859787813E+01 -0.39316002185E+02 -0.20008077068E+03  0.20393113504E+03  0.17770000000E+01 0.  1.
</event>
<event>
 6    1  0.1599106E-003  0.5010025E+03  0.7546771E-02  0.9397569E-01
        -11   -1    0    0    0    0  0.00000000000E+00  0.00000000000E+00  0.50000000000E+03  0.50000000000E+03  0.00000000000E+00 0. -1.
         11   -1    0    0    0    0 -0.00000000000E+00 -0.00000000000E+00 -0.50000000000E+03  0.50000000000E+03  0.00000000000E+00 0.  1.
        -11    1    1    2    0    0  0.53226545275E+01  0.49984905603E+01  0.23888283534E+03  0.23899440282E+03  0.00000000000E+00 0. -1.
         11    1    1    2    0    0 -0.13448159505E+01  0.97472979120E+01 -0.49890046292E+03  0.49899748521E+03  0.00000000000E+00 0.  1.
        -15    1    1    2    0    0 -0.15601340311E+01 -0.20724336737E+02  0.11774532787E+03  0.11957864406E+03  0.17770000000E+01 0.  1.
         15    1    1    2    0    0 -0.24177045460E+01  0.59785482644E+01  0.14227229971E+03  0.14242946790E+03  0.17770000000E+01 0. -1.
</event>
<event>
 6    1  0.1599106E-003  0.5018346E+03  0.7546771E-02  0.9395714E-01
        -11   -1    0    0    0    0  0.00000000000E+00  0.00000000000E+00  0.50000000000E+03  0.50000000000E+03  0.00000000000E+00 0. -1.
         11   -1    0    0    0    0 -0.00000000000E+00 -0.00000000000E+00 -0.50000000000E+03  0.50000000000E+03  0.00000000000E+00 0. -1.
        -11    1    1    2    0    0  0.91843487357E+00  0.11389426429E+02  0.49803429921E+03  0.49816535984E+03  0.00000000000E+00 0. -1.
         11    1    1    2    0    0 -0.58138403416E+01 -0.26784592576E+00 -0.16344809312E+03  0.16355167876E+03  0.00000000000E+00 0. -1.
        -15    1    1    2    0    0  0.25825173387E+02 -0.99624223670E+01 -0.15426351934E+03  0.15673729795E+03  0.17770000000E+01 0. -1.
         15    1    1    2    0    0 -0.20929767919E+02 -0.11591581358E+01 -0.18032268675E+03  0.18154566345E+03  0.17770000000E+01 0.  1.
</event>
<event>
 6    1  0.1599106E-003  0.5005268E+03  0.7546771E-02  0.9398632E-01
        -11   -1    0    0    0    0  0.00000000000E+00  0.00000000000E+00  0.50000000000E+03  0.50000000000E+03  0.00000000000E+00 0. -1.
         11   -1    0    0    0    0 -0.00000000000E+00 -0.00000000000E+00 -0.50000000000E+03  0.50000000000E+03  0.00000000000E+00 0.  1.
        -11    1    1    2    0    0 -0.27636021100E+01 -0.59527718954E+01  0.27850851389E+03  0.27858583111E+03  0.00000000000E+00 0. -1.
         11    1    1    2    0    0  0.89026160488E+00 -0.69581206283E+01 -0.49942393600E+03  0.49947319834E+03  0.00000000000E+00 0.  1.
        -15    1    1    2    0    0 -0.68029962254E+01  0.21049301985E+01  0.76443246767E+02  0.76794786243E+02  0.17770000000E+01 0.  1.
         15    1    1    2    0    0  0.86763367305E+01  0.10805962325E+02  0.14447217535E+03  0.14514618431E+03  0.17770000000E+01 0. -1.
</event>
<event>
 6    1  0.1599106E-003  0.5010761E+03  0.7546771E-02  0.9397405E-01
        -11   -1    0    0    0    0  0.00000000000E+00  0.00000000000E+00  0.50000000000E+03  0.50000000000E+03  0.00000000000E+00 0.  1.
         11   -1    0    0    0    0 -0.00000000000E+00 -0.00000000000E+00 -0.50000000000E+03  0.50000000000E+03  0.00000000000E+00 0.  1.
        -11    1    1    2    0    0  0.37890523128E+00 -0.63533206628E+00  0.25919848116E+02  0.25930401894E+02  0.00000000000E+00 0.  1.
         11    1    1    2    0    0  0.13642572462E+02  0.78445741679E+01 -0.49867569177E+03  0.49892394479E+03  0.00000000000E+00 0.  1.
        -15    1    1    2    0    0 -0.13057691807E+02  0.16938404056E-01  0.36178546841E+02  0.38503877502E+02  0.17770000000E+01 0. -1.
         15    1    1    2    0    0 -0.96378588659E+00 -0.72261805057E+01  0.43657729681E+03  0.43664177581E+03  0.17770000000E+01 0.  1.
</event>
<event>
 6    1  0.1599106E-003  0.5018192E+03  0.7546771E-02  0.9395748E-01
        -11   -1    0    0    0    0  0.00000000000E+00  0.00000000000E+00  0.50000000000E+03  0.50000000000E+03  0.00000000000E+00 0. -1.
         11   -1    0    0    0    0 -0.00000000000E+00 -0.00000000000E+00 -0.50000000000E+03  0.50000000000E+03  0.00000000000E+00 0. -1.
        -11    1    1    2    0    0  0.26521125919E+01  0.74378790244E+01  0.49811816800E+03  0.49818075539E+03  0.00000000000E+00 0. -1.
         11    1    1    2    0    0 -0.66443937060E+00  0.79038639582E+01 -0.45146557075E+03  0.45153524128E+03  0.00000000000E+00 0. -1.
        -15    1    1    2    0    0  0.25150366214E+01 -0.12212572784E+02 -0.26807614014E+02  0.29618883188E+02  0.17770000000E+01 0. -1.
         15    1    1    2    0    0 -0.45027098427E+01 -0.31291701986E+01 -0.19844983232E+02  0.20665120143E+02  0.17770000000E+01 0.  1.
</event>
<event>
 6    1  0.1599106E-003  0.5386068E+03  0.7546771E-02  0.9317340E-01
        -11   -1    0    0    0    0  0.00000000000E+00  0.00000000000E+00  0.50000000000E+03  0.50000000000E+03  0.00000000000E+00 0.  1.
         11   -1    0    0    0    0 -0.00000000000E+00 -0.00000000000E+00 -0.50000000000E+03  0.50000000000E+03  0.00000000000E+00 0. -1.
        -11    1    1    2    0    0 -0.27362843275E+02  0.12562290338E+02  0.46040980263E+03  0.46139324083E+03  0.00000000000E+00 0.  1.
         11    1    1    2    0    0  0.22803349704E+02 -0.42566280850E+00 -0.35968173987E+03  0.36040411754E+03  0.00000000000E+00 0. -1.
        -15    1    1    2    0    0  0.26116673439E+02  0.47682996123E+02 -0.10085876863E+03  0.11459231078E+03  0.17770000000E+01 0.  1.
         15    1    1    2    0    0 -0.21557179868E+02 -0.59819623652E+02  0.13070587010E+00  0.63610330849E+02  0.17770000000E+01 0. -1.
</event>
<event>
 6    1  0.1599106E-003  0.5032941E+03  0.7546771E-02  0.9392469E-01
        -11   -1    0    0    0    0  0.00000000000E+00  0.00000000000E+00  0.50000000000E+03  0.50000000000E+03  0.00000000000E+00 0.  1.
         11   -1    0    0    0    0 -0.00000000000E+00 -0.00000000000E+00 -0.50000000000E+03  0.50000000000E+03  0.00000000000E+00 0.  1.
        -11    1    1    2    0    0  0.80522592750E+01 -0.18974379956E+01  0.49663704579E+03  0.49670594359E+03  0.00000000000E+00 0.  1.
         11    1    1    2    0    0  0.14141456463E+01  0.71272061950E+01 -0.48425113656E+03  0.48430564744E+03  0.00000000000E+00 0.  1.
        -15    1    1    2    0    0 -0.98217042583E+01 -0.16079103119E+01 -0.72152887852E+01  0.12420522186E+02  0.17770000000E+01 0.  1.
         15    1    1    2    0    0  0.35529933692E+00 -0.36218578874E+01 -0.51706204369E+01  0.65678867894E+01  0.17770000000E+01 0. -1.
</event>
<event>
 6    1  0.1599106E-003  0.5010498E+03  0.7546771E-02  0.9397464E-01
        -11   -1    0    0    0    0  0.00000000000E+00  0.00000000000E+00  0.50000000000E+03  0.50000000000E+03  0.00000000000E+00 0. -1.
         11   -1    0    0    0    0 -0.00000000000E+00 -0.00000000000E+00 -0.50000000000E+03  0.50000000000E+03  0.00000000000E+00 0.  1.
        -11    1    1    2    0    0 -0.17068135225E+02 -0.82494387081E+00  0.49865744832E+03  0.49895015036E+03  0.00000000000E+00 0. -1.
         11    1    1    2    0    0 -0.43529472931E+01  0.12965731955E+01 -0.15053037748E+03  0.15059888379E+03  0.00000000000E+00 0.  1.
        -15    1    1    2    0    0  0.16583822519E+02  0.11964991147E+01 -0.34142259987E+03  0.34183183616E+03  0.17770000000E+01 0.  1.
         15    1    1    2    0    0  0.48372599993E+01 -0.16681284394E+01 -0.67044709718E+01  0.86191297010E+01  0.17770000000E+01 0. -1.
</event>
<event>
 6    1  0.1599106E-003  0.5003643E+03  0.7546771E-02  0.9398995E-01
        -11   -1    0    0    0    0  0.00000000000E+00  0.00000000000E+00  0.50000000000E+03  0.50000000000E+03  0.00000000000E+00 0. -1.
         11   -1    0    0    0    0 -0.00000000000E+00 -0.00000000000E+00 -0.50000000000E+03  0.50000000000E+03  0.00000000000E+00 0.  1.
        -11    1    1    2    0    0 -0.26785250958E+01  0.10374213568E+01  0.92943054727E+02  0.92987430128E+02  0.00000000000E+00 0. -1.
         11    1    1    2    0    0 -0.81607903998E+00  0.89050955966E+01 -0.49955564876E+03  0.49963568019E+03  0.00000000000E+00 0.  1.
        -15    1    1    2    0    0  0.34834204312E+01 -0.54527608623E+01  0.39046841694E+03  0.39052606722E+03  0.17770000000E+01 0. -1.
         15    1    1    2    0    0  0.11183704581E-01 -0.44897560911E+01  0.16144177086E+02  0.16850822461E+02  0.17770000000E+01 0.  1.
</event>
<event>
 6    1  0.1599106E-003  0.5008005E+03  0.7546771E-02  0.9398020E-01
        -11   -1    0    0    0    0  0.00000000000E+00  0.00000000000E+00  0.50000000000E+03  0.50000000000E+03  0.00000000000E+00 0. -1.
         11   -1    0    0    0    0 -0.00000000000E+00 -0.00000000000E+00 -0.50000000000E+03  0.50000000000E+03  0.00000000000E+00 0. -1.
        -11    1    1    2    0    0  0.57871361144E+00  0.61164401932E+01  0.41836346288E+03  0.41840857164E+03  0.00000000000E+00 0. -1.
         11    1    1    2    0    0  0.14776618943E+01 -0.10784199968E+02 -0.49908080070E+03  0.49919948726E+03  0.00000000000E+00 0. -1.
        -15    1    1    2    0    0 -0.28857941604E+01  0.69645481436E+01  0.17922363404E+02  0.19524384184E+02  0.17770000000E+01 0. -1.
         15    1    1    2    0    0  0.82941865462E+00 -0.22967883693E+01  0.62794974413E+02  0.62867556916E+02  0.17770000000E+01 0. -1.
</event>
<event>
 6    1  0.1599106E-003  0.5001721E+03  0.7546771E-02  0.9399425E-01
        -11   -1    0    0    0    0  0.00000000000E+00  0.00000000000E+00  0.50000000000E+03  0.50000000000E+03  0.00000000000E+00 0. -1.
         11   -1    0    0    0    0 -0.00000000000E+00 -0.00000000000E+00 -0.50000000000E+03  0.50000000000E+03  0.00000000000E+00 0. -1.
        -11    1    1    2    0    0 -0.70735711825E+01  0.55320726700E+00  0.49977757743E+03  0.49982793875E+03  0.00000000000E+00 0. -1.
         11    1    1    2    0    0  0.69986359140E+00 -0.18744566768E+01 -0.73516814022E+02  0.73544036745E+02  0.00000000000E+00 0. -1.
        -15    1    1    2    0    0  0.10058859596E+02  0.43375621885E+01 -0.36063752077E+03  0.36080822360E+03  0.17770000000E+01 0. -1.
         15    1    1    2    0    0 -0.36851520047E+01 -0.30163127787E+01 -0.65623242644E+02  0.65819800913E+02  0.17770000000E+01 0.  1.
</event>
<event>
 6    1  0.1599106E-003  0.5418520E+03  0.7546771E-02  0.9310744E-01
        -11   -1    0    0    0    0  0.00000000000E+00  0.00000000000E+00  0.50000000000E+03  0.50000000000E+03  0.00000000000E+00 0. -1.
         11   -1    0    0    0    0 -0.00000000000E+00 -0.00000000000E+00 -0.50000000000E+03  0.50000000000E+03  0.00000000000E+00 0.  1.
        -11    1    1    2    0    0  0.23713015628E+02 -0.49779114368E+02  0.45481791635E+03  0.45814801579E+03  0.00000000000E+00 0. -1.
         11    1    1    2    0    0 -0.12211168278E+02 -0.83874732808E+01 -0.37681020584E+03  0.37710130411E+03  0.00000000000E+00 0.  1.
        -15    1    1    2    0    0 -0.15358404214E+01  0.32556252158E+02  0.35338832130E+02  0.48106747403E+02  0.17770000000E+01 0. -1.
         15    1    1    2    0    0 -0.99660069280E+01  0.25610335492E+02 -0.11334654264E+03  0.11664393270E+03  0.17770000000E+01 0.  1.
</event>
<event>
 6    1  0.1599106E-003  0.5008138E+03  0.7546771E-02  0.9397991E-01
        -11   -1    0    0    0    0  0.00000000000E+00  0.00000000000E+00  0.50000000000E+03  0.50000000000E+03  0.00000000000E+00 0. -1.
         11   -1    0    0    0    0 -0.00000000000E+00 -0.00000000000E+00 -0.50000000000E+03  0.50000000000E+03  0.00000000000E+00 0.  1.
        -11    1    1    2    0    0 -0.36493701278E+01  0.66424669214E+01  0.49912869767E+03  0.49918623489E+03  0.00000000000E+00 0. -1.
         11    1    1    2    0    0  0.45973399767E+01 -0.89918074054E+01 -0.44974935324E+03  0.44986272226E+03  0.00000000000E+00 0.  1.
        -15    1    1    2    0    0  0.40509563252E+01 -0.24825149296E+01 -0.26192826766E+02  0.26679487074E+02  0.17770000000E+01 0.  1.
         15    1    1    2    0    0 -0.49989261741E+01  0.48318554137E+01 -0.23186517658E+02  0.24271555775E+02  0.17770000000E+01 0. -1.
</event>
<event>
 6    1  0.1599106E-003  0.4805874E+03  0.7546771E-02  0.9444326E-01
        -11   -1    0    0    0    0  0.00000000000E+00  0.00000000000E+00  0.50000000000E+03  0.50000000000E+03  0.00000000000E+00 0. -1.
         11   -1    0    0    0    0 -0.00000000000E+00 -0.00000000000E+00 -0.50000000000E+03  0.50000000000E+03  0.00000000000E+00 0. -1.
        -11    1    1    2    0    0 -0.12735146469E+02  0.12311407315E+02  0.48677876676E+03  0.48710093663E+03  0.00000000000E+00 0. -1.
         11    1    1    2    0    0 -0.10241675953E+02 -0.15318558370E+01 -0.47437580528E+03  0.47448882299E+03  0.00000000000E+00 0. -1.
        -15    1    1    2    0    0 -0.23854132570E+01 -0.94645005459E+01 -0.76126470456E+01  0.12505082608E+02  0.17770000000E+01 0.  1.
         15    1    1    2    0    0  0.25362235679E+02 -0.13150509322E+01 -0.47903144289E+01  0.25905157767E+02  0.17770000000E+01 0. -1.
</event>
<event>
 6    1  0.1599106E-003  0.5164245E+03  0.7546771E-02  0.9363791E-01
        -11   -1    0    0    0    0  0.00000000000E+00  0.00000000000E+00  0.50000000000E+03  0.50000000000E+03  0.00000000000E+00 0. -1.
         11   -1    0    0    0    0 -0.00000000000E+00 -0.00000000000E+00 -0.50000000000E+03  0.50000000000E+03  0.00000000000E+00 0.  1.
        -11    1    1    2    0    0 -0.18166448919E+01 -0.82205449601E+01  0.46122250793E+03  0.46129933815E+03  0.00000000000E+00 0. -1.
         11    1    1    2    0    0 -0.15412703941E+02 -0.73657993204E+01 -0.48327372043E+03  0.48357553216E+03  0.00000000000E+00 0.  1.
        -15    1    1    2    0    0  0.15427236231E+02  0.86624065519E+01 -0.11234048415E+02  0.21033270734E+02  0.17770000000E+01 0. -1.
         15    1    1    2    0    0  0.18021126027E+01  0.69239377286E+01  0.33285260919E+02  0.34091858955E+02  0.17770000000E+01 0.  1.
</event>
<event>
 6    1  0.1599106E-003  0.5023022E+03  0.7546771E-02  0.9394673E-01
        -11   -1    0    0    0    0  0.00000000000E+00  0.00000000000E+00  0.50000000000E+03  0.50000000000E+03  0.00000000000E+00 0.  1.
         11   -1    0    0    0    0 -0.00000000000E+00 -0.00000000000E+00 -0.50000000000E+03  0.50000000000E+03  0.00000000000E+00 0. -1.
        -11    1    1    2    0    0  0.30424316441E+01 -0.14453327978E+02  0.22853020006E+03  0.22900700300E+03  0.00000000000E+00 0.  1.
         11    1    1    2    0    0 -0.29457470197E+02 -0.14280443034E+02 -0.49662004559E+03  0.49769784336E+03  0.00000000000E+00 0. -1.
        -15    1    1    2    0    0  0.14313461370E+02  0.19172111295E+02  0.24003541675E+03  0.24123143255E+03  0.17770000000E+01 0.  1.
         15    1    1    2    0    0  0.12101577183E+02  0.95616597169E+01  0.28054428782E+02  0.32063721090E+02  0.17770000000E+01 0. -1.
</event>
<event>
 6    1  0.1599106E-003  0.5034845E+03  0.7546771E-02  0.9392046E-01
        -11   -1    0    0    0    0  0.00000000000E+00  0.00000000000E+00  0.50000000000E+03  0.50000000000E+03  0.00000000000E+00 0. -1.
         11   -1    0    0    0    0 -0.00000000000E+00 -0.00000000000E+00 -0.50000000000E+03  0.50000000000E+03  0.00000000000E+00 0.  1.
        -11    1    1    2    0    0 -0.73039979017E+01 -0.19714922615E+01  0.49645781383E+03  0.49651545402E+03  0.00000000000E+00 0. -1.
         11    1    1    2    0    0  0.16006144030E+00 -0.74556003621E+01 -0.48542060907E+03  0.48547788755E+03  0.00000000000E+00 0.  1.
        -15    1    1    2    0    0  0.26890648112E+01 -0.14996144653E+00 -0.42124746953E+01  0.53062444396E+01  0.17770000000E+01 0. -1.
         15    1    1    2    0    0  0.44548716502E+01  0.95770540701E+01 -0.68247300659E+01  0.12700413991E+02  0.17770000000E+01 0.  1.
</event>
<event>
 6    1  0.1599106E-003  0.5006753E+03  0.7546771E-02  0.9398300E-01
        -11   -1    0    0    0    0  0.00000000000E+00  0.00000000000E+00  0.50000000000E+03  0.50000000000E+03  0.00000000000E+00 0.  1.
         11   -1    0    0    0    0 -0.00000000000E+00 -0.00000000000E+00 -0.50000000000E+03  0.50000000000E+03  0.00000000000E+00 0.  1.
        -11    1    1    2    0    0 -0.98791522373E+00 -0.12828649664E+02  0.49915890003E+03  0.49932470168E+03  0.00000000000E+00 0.  1.
         11    1    1    2    0    0  0.36044747684E+01 -0.16443704331E+01 -0.28094836161E+03  0.28097629452E+03  0.00000000000E+00 0.  1.
        -15    1    1    2    0    0 -0.25183174691E+01 -0.25893712441E+01 -0.99549059548E+01  0.10738000181E+02  0.17770000000E+01 0. -1.
         15    1    1    2    0    0 -0.98242075591E-01  0.17062391341E+02 -0.20825563247E+03  0.20896100362E+03  0.17770000000E+01 0.  1.
</event>
<event>
 6    1  0.1599106E-003  0.5139948E+03  0.7546771E-02  0.9369028E-01
        -11   -1    0    0    0    0  0.00000000000E+00  0.00000000000E+00  0.50000000000E+03  0.50000000000E+03  0.00000000000E+00 0. -1.
         11   -1    0    0    0    0 -0.00000000000E+00 -0.00000000000E+00 -0.50000000000E+03  0.50000000000E+03  0.00000000000E+00 0. -1.
        -11    1    1    2    0    0  0.14026531655E+02 -0.88270010098E+01  0.45896189589E+03  0.45926101666E+03  0.00000000000E+00 0. -1.
         11    1    1    2    0    0 -0.60913783584E+01  0.10282597372E+02 -0.48585819362E+03  0.48600516561E+03  0.00000000000E+00 0. -1.
        -15    1    1    2    0    0  0.40440798545E+01 -0.55063446264E+01 -0.11929661366E+02  0.13861780633E+02  0.17770000000E+01 0.  1.
         15    1    1    2    0    0 -0.11979233151E+02  0.40507482647E+01  0.38825959088E+02  0.40872037098E+02  0.17770000000E+01 0. -1.
</event>
<event>
 6    1  0.1599106E-003  0.5011956E+03  0.7546771E-02  0.9397138E-01
        -11   -1    0    0    0    0  0.00000000000E+00  0.00000000000E+00  0.50000000000E+03  0.50000000000E+03  0.00000000000E+00 0.  1.
         11   -1    0    0    0    0 -0.00000000000E+00 -0.00000000000E+00 -0.50000000000E+03  0.50000000000E+03  0.00000000000E+00 0. -1.
        -11    1    1    2    0    0 -0.64811091172E+01 -0.37027571950E-01  0.28531554840E+03  0.28538915240E+03  0.00000000000E+00 0.  1.
         11    1    1    2    0    0 -0.36266323590E+01 -0.66839088859E+01 -0.49874638710E+03  0.49880435618E+03  0.00000000000E+00 0. -1.
        -15    1    1    2    0    0  0.62127632549E+01 -0.60736125194E+00  0.84738638669E+01  0.10673865878E+02  0.17770000000E+01 0. -1.
         15    1    1    2    0    0  0.38949782213E+01  0.73282977098E+01  0.20495697483E+03  0.20513262555E+03  0.17770000000E+01 0.  1.
</event>
<event>
 6    1  0.1599106E-003  0.5006114E+03  0.7546771E-02  0.9398443E-01
        -11   -1    0    0    0    0  0.00000000000E+00  0.00000000000E+00  0.50000000000E+03  0.50000000000E+03  0.00000000000E+00 0.  1.
         11   -1    0    0    0    0 -0.00000000000E+00 -0.00000000000E+00 -0.50000000000E+03  0.50000000000E+03  0.00000000000E+00 0.  1.
        -11    1    1    2    0    0 -0.38065837658E+01 -0.40046279768E+01  0.38748476500E+03  0.38752415438E+03  0.00000000000E+00 0.  1.
         11    1    1    2    0    0  0.32443241332E+01 -0.59376423459E+01 -0.49934272048E+03  0.49938855988E+03  0.00000000000E+00 0.  1.
        -15    1    1    2    0    0 -0.40493395744E+01  0.54306481781E+01  0.24723982309E+02  0.25696733661E+02  0.17770000000E+01 0. -1.
         15    1    1    2    0    0  0.46115992070E+01  0.45116221446E+01  0.87133973178E+02  0.87390552077E+02  0.17770000000E+01 0.  1.
</event>
<event>
 6    1  0.1599106E-003  0.4709153E+03  0.7546771E-02  0.9467349E-01
        -11   -1    0    0    0    0  0.00000000000E+00  0.00000000000E+00  0.50000000000E+03  0.50000000000E+03  0.00000000000E+00 0. -1.
         11   -1    0    0    0    0 -0.00000000000E+00 -0.00000000000E+00 -0.50000000000E+03  0.50000000000E+03  0.00000000000E+00 0. -1.
        -11    1    1    2    0    0  0.97055565282E+01  0.95169299114E+01  0.46333366440E+03  0.46353301322E+03  0.00000000000E+00 0. -1.
         11    1    1    2    0    0 -0.53291737615E+01  0.29302055748E+02 -0.47829979577E+03  0.47922615246E+03  0.00000000000E+00 0. -1.
        -15    1    1    2    0    0 -0.11019928794E+01 -0.31322674288E+02 -0.83363353448E+01  0.32480402227E+02  0.17770000000E+01 0. -1.
         15    1    1    2    0    0 -0.32743898873E+01 -0.74963113709E+01  0.23302466718E+02  0.24760432093E+02  0.17770000000E+01 0.  1.
</event>
<event>
 6    1  0.1599106E-003  0.5026780E+03  0.7546771E-02  0.9393837E-01
        -11   -1    0    0    0    0  0.00000000000E+00  0.00000000000E+00  0.50000000000E+03  0.50000000000E+03  0.00000000000E+00 0. -1.
         11   -1    0    0    0    0 -0.00000000000E+00 -0.00000000000E+00 -0.50000000000E+03  0.50000000000E+03  0.00000000000E+00 0. -1.
        -11    1    1    2    0    0  0.53325969455E+01 -0.22777110610E+01  0.41503329030E+03  0.41507379659E+03  0.00000000000E+00 0. -1.
         11    1    1    2    0    0  0.94895504427E+01  0.10605035126E+01 -0.49723036429E+03  0.49732203994E+03  0.00000000000E+00 0. -1.
        -15    1    1    2    0    0 -0.43061099500E+01  0.76195013620E+01  0.68586798812E+02  0.69165786948E+02  0.17770000000E+01 0. -1.
         15    1    1    2    0    0 -0.10516037438E+02 -0.64022938136E+01  0.13610275175E+02  0.18438376523E+02  0.17770000000E+01 0.  1.
</event>
<event>
 6    1  0.1599106E-003  0.5334620E+03  0.7546771E-02  0.9327899E-01
        -11   -1    0    0    0    0  0.00000000000E+00  0.00000000000E+00  0.50000000000E+03  0.50000000000E+03  0.00000000000E+00 0. -1.
         11   -1    0    0    0    0 -0.00000000000E+00 -0.00000000000E+00 -0.50000000000E+03  0.50000000000E+03  0.00000000000E+00 0. -1.
        -11    1    1    2    0    0  0.23101597907E+02  0.23695817183E+02  0.46536279099E+03  0.46653799719E+03  0.00000000000E+00 0. -1.
         11    1    1    2    0    0  0.15545628517E+01  0.61547394362E+01 -0.43625449145E+03  0.43630067476E+03  0.00000000000E+00 0. -1.
        -15    1    1    2    0    0 -0.36346110451E+01 -0.75332105673E+01 -0.55812896947E+02  0.56464120055E+02  0.17770000000E+01 0.  1.
         15    1    1    2    0    0 -0.21021549713E+02 -0.22317346052E+02  0.26704597406E+02  0.40697207998E+02  0.17770000000E+01 0.  1.
</event>
<event>
 6    1  0.1599106E-003  0.5002921E+03  0.7546771E-02  0.9399156E-01
        -11   -1    0    0    0    0  0.00000000000E+00  0.00000000000E+00  0.50000000000E+03  0.50000000000E+03  0.00000000000E+00 0. -1.
         11   -1    0    0    0    0 -0.00000000000E+00 -0.00000000000E+00 -0.50000000000E+03  0.50000000000E+03  0.00000000000E+00 0. -1.
        -11    1    1    2    0    0  0.92333641592E+01 -0.75689436222E+01  0.49956523713E+03  0.49970788474E+03  0.00000000000E+00 0. -1.
         11    1    1    2    0    0 -0.70025646081E+01  0.19966340537E+01 -0.33778913176E+03  0.33786760720E+03  0.00000000000E+00 0. -1.
        -15    1    1    2    0    0  0.44692851084E+01  0.18802812384E+01 -0.32279174581E+02  0.32689643736E+02  0.17770000000E+01 0.  1.
         15    1    1    2    0    0 -0.67000846595E+01  0.36920283302E+01 -0.12949693079E+03  0.12973486432E+03  0.17770000000E+01 0. -1.
</event>
<event>
 6    1  0.1599106E-003  0.5097379E+03  0.7546771E-02  0.9378280E-01
        -11   -1    0    0    0    0  0.00000000000E+00  0.00000000000E+00  0.50000000000E+03  0.50000000000E+03  0.00000000000E+00 0.  1.
         11   -1    0    0    0    0 -0.00000000000E+00 -0.00000000000E+00 -0.50000000000E+03  0.50000000000E+03  0.00000000000E+00 0. -1.
        -11    1    1    2    0    0  0.51700323152E+01  0.42209315289E+01  0.46597402623E+03  0.46602182204E+03  0.00000000000E+00 0.  1.
         11    1    1    2    0    0  0.80261784270E+01  0.71174906994E+01 -0.49014472181E+03  0.49026209983E+03  0.00000000000E+00 0. -1.
        -15    1    1    2    0    0 -0.15687872745E+01 -0.28199335417E+01  0.28362054435E+02  0.28600296842E+02  0.17770000000E+01 0.  1.
         15    1    1    2    0    0 -0.11627423468E+02 -0.85184886866E+01 -0.41913588532E+01  0.15115781291E+02  0.17770000000E+01 0. -1.
</event>
<event>
 6    1  0.1599106E-003  0.5191992E+03  0.7546771E-02  0.9357846E-01
        -11   -1    0    0    0    0  0.00000000000E+00  0.00000000000E+00  0.50000000000E+03  0.50000000000E+03  0.00000000000E+00 0. -1.
         11   -1    0    0    0    0 -0.00000000000E+00 -0.00000000000E+00 -0.50000000000E+03  0.50000000000E+03  0.00000000000E+00 0. -1.
        -11    1    1    2    0    0 -0.12972130192E+02 -0.27472450050E+02  0.43430206108E+03  0.43536340215E+03  0.00000000000E+00 0. -1.
         11    1    1    2    0    0 -0.10420940557E+02 -0.31358185843E+01 -0.48067758976E+03  0.48080076400E+03  0.00000000000E+00 0. -1.
        -15    1    1    2    0    0  0.16620030453E+02  0.34361474936E+02  0.58180463405E+02  0.69606468256E+02  0.17770000000E+01 0.  1.
         15    1    1    2    0    0  0.67730402961E+01 -0.37532063015E+01 -0.11804934726E+02  0.14229365596E+02  0.17770000000E+01 0. -1.
</event>
<event>
 6    1  0.1599106E-003  0.5102433E+03  0.7546771E-02  0.9377177E-01
        -11   -1    0    0    0    0  0.00000000000E+00  0.00000000000E+00  0.50000000000E+03  0.50000000000E+03  0.00000000000E+00 0. -1.
         11   -1    0    0    0    0 -0.00000000000E+00 -0.00000000000E+00 -0.50000000000E+03  0.50000000000E+03  0.00000000000E+00 0. -1.
        -11    1    1    2    0    0 -0.29273195730E+01 -0.20226927163E+02  0.48933003677E+03  0.48975665659E+03  0.00000000000E+00 0. -1.
         11    1    1    2    0    0 -0.30444624440E+01  0.30769163339E+00 -0.10046310860E+03  0.10050969911E+03  0.00000000000E+00 0. -1.
        -15    1    1    2    0    0  0.37036240561E+02  0.58020000262E+02 -0.13958237364E+03  0.15564189766E+03  0.17770000000E+01 0.  1.
         15    1    1    2    0    0 -0.31064458544E+02 -0.38100764732E+02 -0.24928455453E+03  0.25409174665E+03  0.17770000000E+01 0. -1.
</event>
<event>
 6    1  0.1599106E-003  0.5007386E+03  0.7546771E-02  0.9398158E-01
        -11   -1    0    0    0    0  0.00000000000E+00  0.00000000000E+00  0.50000000000E+03  0.50000000000E+03  0.00000000000E+00 0. -1.
         11   -1    0    0    0    0 -0.00000000000E+00 -0.00000000000E+00 -0.50000000000E+03  0.50000000000E+03  0.00000000000E+00 0.  1.
        -11    1    1    2    0    0 -0.22821499822E+01  0.35714287884E+01  0.18504463532E+03  0.18509316674E+03  0.00000000000E+00 0. -1.
         11    1    1    2    0    0  0.77177873856E+01 -0.56357491403E+01 -0.49916990062E+03  0.49926137003E+03  0.00000000000E+00 0.  1.
        -15    1    1    2    0    0  0.48525031163E+01 -0.35982117610E+01  0.26605906797E+03  0.26613357415E+03  0.17770000000E+01 0. -1.
         15    1    1    2    0    0 -0.10288140520E+02  0.56625321130E+01  0.48066197337E+02  0.49511889085E+02  0.17770000000E+01 0.  1.
</event>
<event>
 6    1  0.1599106E-003  0.5012578E+03  0.7546771E-02  0.9397000E-01
        -11   -1    0    0    0    0  0.00000000000E+00  0.00000000000E+00  0.50000000000E+03  0.50000000000E+03  0.00000000000E+00 0. -1.
         11   -1    0    0    0    0 -0.00000000000E+00 -0.00000000000E+00 -0.50000000000E+03  0.50000000000E+03  0.00000000000E+00 0.  1.
        -11    1    1    2    0    0 -0.66798105427E+01  0.46246975622E+01  0.45510668411E+03  0.45517919726E+03  0.00000000000E+00 0. -1.
         11    1    1    2    0    0  0.10291614777E+02 -0.46443516761E+01 -0.49861434073E+03  0.49874216597E+03  0.00000000000E+00 0.  1.
        -15    1    1    2    0    0 -0.89314298041E+00 -0.70877679006E+01  0.21304270245E+02  0.22540271025E+02  0.17770000000E+01 0. -1.
         15    1    1    2    0    0 -0.27186612540E+01  0.71074220145E+01  0.22203386372E+02  0.23538365748E+02  0.17770000000E+01 0.  1.
</event>
<event>
 6    1  0.1599106E-003  0.5069403E+03  0.7546771E-02  0.9384413E-01
        -11   -1    0    0    0    0  0.00000000000E+00  0.00000000000E+00  0.50000000000E+03  0.50000000000E+03  0.00000000000E+00 0.  1.
         11   -1    0    0    0    0 -0.00000000000E+00 -0.00000000000E+00 -0.50000000000E+03  0.50000000000E+03  0.00000000000E+00 0.  1.
        -11    1    1    2    0    0  0.53681962466E+01 -0.41315236045E+01  0.49301317134E+03  0.49305970646E+03  0.00000000000E+00 0.  1.
         11    1    1    2    0    0 -0.36181242526E+01 -0.91158272330E+01 -0.47935398716E+03  0.47945430870E+03  0.00000000000E+00 0.  1.
        -15    1    1    2    0    0  0.29877370417E+01  0.14441329589E+02 -0.15958125458E+02  0.21801331842E+02  0.17770000000E+01 0.  1.
         15    1    1    2    0    0 -0.47378090357E+01 -0.11939787516E+01  0.22989412792E+01  0.56846529993E+01  0.17770000000E+01 0. -1.
</event>
<event>
 6    1  0.1599106E-003  0.5006412E+03  0.7546771E-02  0.9398376E-01
        -11   -1    0    0    0    0  0.00000000000E+00  0.00000000000E+00  0.50000000000E+03  0.50000000000E+03  0.00000000000E+00 0. -1.
         11   -1    0    0    0    0 -0.00000000000E+00 -0.00000000000E+00 -0.50000000000E+03  0.50000000000E+03  0.00000000000E+00 0. -1.
        -11    1    1    2    0    0  0.89429086677E+01 -0.13763118601E+01  0.49927678012E+03  0.49935876183E+03  0.00000000000E+00 0. -1.
         11    1    1    2    0    0  0.33400875836E+01 -0.80993923893E+00 -0.21992551591E+03  0.21995236924E+03  0.00000000000E+00 0. -1.
        -15    1    1    2    0    0 -0.52810302274E+01 -0.24697406303E+01 -0.25075437351E+03  0.25082843232E+03  0.17770000000E+01 0. -1.
         15    1    1    2    0    0 -0.70019660239E+01  0.46559917292E+01 -0.28596890709E+02  0.29860436608E+02  0.17770000000E+01 0.  1.
</event>
<event>
 6    1  0.1599106E-003  0.5004319E+03  0.7546771E-02  0.9398844E-01
        -11   -1    0    0    0    0  0.00000000000E+00  0.00000000000E+00  0.50000000000E+03  0.50000000000E+03  0.00000000000E+00 0.  1.
         11   -1    0    0    0    0 -0.00000000000E+00 -0.00000000000E+00 -0.50000000000E+03  0.50000000000E+03  0.00000000000E+00 0.  1.
        -11    1    1    2    0    0  0.22939213258E+02  0.23624502687E+02  0.49848161335E+03  0.49956805691E+03  0.00000000000E+00 0.  1.
         11    1    1    2    0    0  0.68229681152E+00 -0.94271255768E+00 -0.83843745387E+02  0.83851820949E+02  0.00000000000E+00 0.  1.
        -15    1    1    2    0    0 -0.18023115328E+02 -0.59235101206E+01 -0.13002013508E+03  0.13140895674E+03  0.17770000000E+01 0.  1.
         15    1    1    2    0    0 -0.55983947411E+01 -0.16758280009E+02 -0.28461773289E+03  0.28517116540E+03  0.17770000000E+01 0. -1.
</event>
<event>
 6    1  0.1599106E-003  0.5017294E+03  0.7546771E-02  0.9395948E-01
        -11   -1    0    0    0    0  0.00000000000E+00  0.00000000000E+00  0.50000000000E+03  0.50000000000E+03  0.00000000000E+00 0. -1.
         11   -1    0    0    0    0 -0.00000000000E+00 -0.00000000000E+00 -0.50000000000E+03  0.50000000000E+03  0.00000000000E+00 0. -1.
        -11    1    1    2    0    0  0.11203196969E+02  0.14046289043E+02  0.49794659498E+03  0.49827063059E+03  0.00000000000E+00 0. -1.
         11    1    1    2    0    0 -0.51916802003E+01  0.82981031281E+00 -0.26079128303E+03  0.26084427429E+03  0.00000000000E+00 0. -1.
        -15    1    1    2    0    0 -0.79210698229E+01 -0.18066179837E+02 -0.51398895733E+02  0.55082977521E+02  0.17770000000E+01 0.  1.
         15    1    1    2    0    0  0.19095530545E+01  0.31900804816E+01 -0.18575641622E+03  0.18580211759E+03  0.17770000000E+01 0. -1.
</event>
<event>
 6    1  0.1599106E-003  0.5101871E+03  0.7546771E-02  0.9377299E-01
        -11   -1    0    0    0    0  0.00000000000E+00  0.00000000000E+00  0.50000000000E+03  0.50000000000E+03  0.00000000000E+00 0.  1.
         11   -1    0    0    0    0 -0.00000000000E+00 -0.00000000000E+00 -0.50000000000E+03  0.50000000000E+03  0.00000000000E+00 0.  1.
        -11    1    1    2    0    0 -0.33556774814E+02  0.95956548851E+01  0.48856780081E+03  0.48981285173E+03  0.00000000000E+00 0.  1.
         11    1    1    2    0    0  0.82021511762E+01 -0.51955582471E+01 -0.19612780256E+03  0.19636798121E+03  0.00000000000E+00 0.  1.
        -15    1    1    2    0    0  0.32211877804E+02 -0.99988544369E+00 -0.13856690304E+02  0.35125068508E+02  0.17770000000E+01 0. -1.
         15    1    1    2    0    0 -0.68572541654E+01 -0.34002111943E+01 -0.27858330795E+03  0.27869409855E+03  0.17770000000E+01 0.  1.
</event>
<event>
 6    1  0.1599106E-003  0.5033751E+03  0.7546771E-02  0.9392289E-01
        -11   -1    0    0    0    0  0.00000000000E+00  0.00000000000E+00  0.50000000000E+03  0.50000000000E+03  0.00000000000E+00 0.  1.
         11   -1    0    0    0    0 -0.00000000000E+00 -0.00000000000E+00 -0.50000000000E+03  0.50000000000E+03  0.00000000000E+00 0. -1.
        -11    1    1    2    0    0  0.54126076882E+01 -0.41176551579E+00  0.10579658777E+03  0.10593575343E+03  0.00000000000E+00 0.  1.
         11    1    1    2    0    0 -0.80292926638E+01  0.45402003055E+01 -0.49653925411E+03  0.49662492269E+03  0.00000000000E+00 0. -1.
        -15    1    1    2    0    0 -0.50133313404E+01 -0.27649627217E+01  0.38931385113E+03  0.38936000169E+03  0.17770000000E+01 0.  1.
         15    1    1    2    0    0  0.76300163160E+01 -0.13634720680E+01  0.14288152223E+01  0.80793221871E+01  0.17770000000E+01 0. -1.
</event>
<event>
 6    1  0.1599106E-003  0.5132080E+03  0.7546771E-02  0.9370731E-01
        -11   -1    0    0    0    0  0.00000000000E+00  0.00000000000E+00  0.50000000000E+03  0.50000000000E+03  0.00000000000E+00 0. -1.
         11   -1    0    0    0    0 -0.00000000000E+00 -0.00000000000E+00 -0.50000000000E+03  0.50000000000E+03  0.00000000000E+00 0. -1.
        -11    1    1    2    0    0 -0.10507047908E+02 -0.15748683859E+02  0.48642372349E+03  0.48679200678E+03  0.00000000000E+00 0. -1.
         11    1    1    2    0    0  0.28679138610E+02 -0.83846126447E+01 -0.40024600655E+03  0.40135976440E+03  0.00000000000E+00 0. -1.
        -15    1    1    2    0    0 -0.92240990985E+01  0.28634179294E+02 -0.56255045691E+01  0.30656227078E+02  0.17770000000E+01 0. -1.
         15    1    1    2    0    0 -0.89479916030E+01 -0.45008827904E+01 -0.80552212366E+02  0.81192001734E+02  0.17770000000E+01 0.  1.
</event>
<event>
 6    1  0.1599106E-003  0.5041622E+03  0.7546771E-02  0.9390544E-01
        -11   -1    0    0    0    0  0.00000000000E+00  0.00000000000E+00  0.50000000000E+03  0.50000000000E+03  0.00000000000E+00 0. -1.
         11   -1    0    0    0    0 -0.00000000000E+00 -0.00000000000E+00 -0.50000000000E+03  0.50000000000E+03  0.00000000000E+00 0.  1.
        -11    1    1    2    0    0 -0.18950937646E+00 -0.69524419677E+01  0.45184117699E+03  0.45189470188E+03  0.00000000000E+00 0. -1.
         11    1    1    2    0    0 -0.12198154535E+02  0.10516600635E+02 -0.49557611619E+03  0.49583775653E+03  0.00000000000E+00 0.  1.
        -15    1    1    2    0    0  0.25929752783E+01 -0.12535150984E+02  0.31788882201E+02  0.34315365241E+02  0.17770000000E+01 0. -1.
         15    1    1    2    0    0  0.97946886331E+01  0.89709923175E+01  0.11946057001E+02  0.17952176343E+02  0.17770000000E+01 0.  1.
</event>
<event>
 6    1  0.1599106E-003  0.5005038E+03  0.7546771E-02  0.9398683E-01
        -11   -1    0    0    0    0  0.00000000000E+00  0.00000000000E+00  0.50000000000E+03  0.50000000000E+03  0.00000000000E+00 0.  1.
         11   -1    0    0    0    0 -0.00000000000E+00 -0.00000000000E+00 -0.50000000000E+03  0.50000000000E+03  0.00000000000E+00 0.  1.
        -11    1    1    2    0    0 -0.67410925190E+01 -0.60427250138E+01  0.49941419027E+03  0.49949623652E+03  0.00000000000E+00 0.  1.
         11    1    1    2    0    0  0.69701338138E+00 -0.55489308452E+01 -0.25319198867E+03  0.25325374546E+03  0.00000000000E+00 0.  1.
        -15    1    1    2    0    0  0.46893253780E+01  0.47518649948E+01 -0.25756602769E+02  0.26667026618E+02  0.17770000000E+01 0. -1.
         15    1    1    2    0    0  0.13547537596E+01  0.68397908642E+01 -0.22046559883E+03  0.22058299140E+03  0.17770000000E+01 0.  1.
</event>
<event>
 6    1  0.1599106E-003  0.4699697E+03  0.7546771E-02  0.9469631E-01
        -11   -1    0    0    0    0  0.00000000000E+00  0.00000000000E+00  0.50000000000E+03  0.50000000000E+03  0.00000000000E+00 0. -1.
         11   -1    0    0    0    0 -0.00000000000E+00 -0.00000000000E+00 -0.50000000000E+03  0.50000000000E+03  0.00000000000E+00 0.  1.
        -11    1    1    2    0    0 -0.22594440557E+00 -0.19388587381E+02  0.47305012807E+03  0.47344734875E+03  0.00000000000E+00 0. -1.
         11    1    1    2    0    0 -0.88034717797E+01  0.56809983522E+01 -0.46654035330E+03  0.46665798623E+03  0.00000000000E+00 0.  1.
        -15    1    1    2    0    0  0.25849128985E+02 -0.75991833117E+01 -0.15634718192E+02  0.31201397376E+02  0.17770000000E+01 0. -1.
         15    1    1    2    0    0 -0.16819712799E+02  0.21306772341E+02  0.91249434214E+01  0.28693267637E+02  0.17770000000E+01 0.  1.
</event>
<event>
 6    1  0.1599106E-003  0.5003317E+03  0.7546771E-02  0.9399068E-01
        -11   -1    0    0    0    0  0.00000000000E+00  0.00000000000E+00  0.50000000000E+03  0.50000000000E+03  0.00000000000E+00 0.  1.
         11   -1    0    0    0    0 -0.00000000000E+00 -0.00000000000E+00 -0.50000000000E+03  0.50000000000E+03  0.00000000000E+00 0. -1.
        -11    1    1    2    0    0 -0.37758814789E-01 -0.88738462334E+01  0.49958954058E+03  0.49966834564E+03  0.00000000000E+00 0.  1.
         11    1    1    2    0    0  0.15947456323E+01  0.73455914630E+01 -0.10874670293E+03  0.10900617563E+03  0.00000000000E+00 0. -1.
        -15    1    1    2    0    0  0.50473178513E+01 -0.60876736861E+01 -0.11101195038E+03  0.11130743931E+03  0.17770000000E+01 0. -1.
         15    1    1    2    0    0 -0.66043046688E+01  0.76159284565E+01 -0.27983088726E+03  0.28001803942E+03  0.17770000000E+01 0.  1.
</event>
<event>
 6    1  0.1599106E-003  0.5007216E+03  0.7546771E-02  0.9398197E-01
        -11   -1    0    0    0    0  0.00000000000E+00  0.00000000000E+00  0.50000000000E+03  0.50000000000E+03  0.00000000000E+00 0.  1.
         11   -1    0    0    0    0 -0.00000000000E+00 -0.00000000000E+00 -0.50000000000E+03  0.50000000000E+03  0.00000000000E+00 0.  1.
        -11    1    1    2    0    0 -0.42529547149E+01  0.17483822354E+02  0.28427281078E+03  0.28484171502E+03  0.00000000000E+00 0.  1.
         11    1    1    2    0    0  0.33911679805E+01 -0.94947443952E+01 -0.49917660600E+03  0.49927841348E+03  0.00000000000E+00 0.  1.
        -15    1    1    2    0    0  0.44166081845E+00  0.31639998279E+01  0.14673995523E+03  0.14678548344E+03  0.17770000000E+01 0.  1.
         15    1    1    2    0    0  0.42012591592E+00 -0.11153077786E+02  0.68163839992E+02  0.69094388060E+02  0.17770000000E+01 0. -1.
</event>
<event>
 6    1  0.1599106E-003  0.5037472E+03  0.7546771E-02  0.9391464E-01
        -11   -1    0    0    0    0  0.00000000000E+00  0.00000000000E+00  0.50000000000E+03  0.50000000000E+03  0.00000000000E+00 0. -1.
         11   -1    0    0    0    0 -0.00000000000E+00 -0.00000000000E+00 -0.50000000000E+03  0.50000000000E+03  0.00000000000E+00 0. -1.
        -11    1    1    2    0    0 -0.12869013361E+02 -0.30922281122E+01  0.49607631726E+03  0.49625284475E+03  0.00000000000E+00 0. -1.
         11    1    1    2    0    0 -0.77989513378E+01 -0.82535479748E+01 -0.43337394766E+03  0.43352269053E+03  0.00000000000E+00 0. -1.
        -15    1    1    2    0    0  0.67558030974E+01 -0.15980109713E+01 -0.34097201185E+01  0.79358953396E+01  0.17770000000E+01 0.  1.
         15    1    1    2    0    0  0.13912161601E+02  0.12943787058E+02 -0.59292649477E+02  0.62288569375E+02  0.17770000000E+01 0. -1.
</event>
<event>
 6    1  0.1599106E-003  0.5049868E+03  0.7546771E-02  0.9388720E-01
        -11   -1    0    0    0    0  0.00000000000E+00  0.00000000000E+00  0.50000000000E+03  0.50000000000E+03  0.00000000000E+00 0. -1.
         11   -1    0    0    0    0 -0.00000000000E+00 -0.00000000000E+00 -0.50000000000E+03  0.50000000000E+03  0.00000000000E+00 0. -1.
        -11    1    1    2    0    0  0.23178164088E+02 -0.19677806257E+02  0.49407856786E+03  0.49501320646E+03  0.00000000000E+00 0. -1.
         11    1    1    2    0    0  0.49928567989E+01  0.35950426865E+01 -0.31430940120E+03  0.31436961150E+03  0.00000000000E+00 0. -1.
        -15    1    1    2    0    0  0.10335133436E+02  0.55154947849E+01 -0.80911794084E+01  0.14347842314E+02  0.17770000000E+01 0.  1.
         15    1    1    2    0    0 -0.38506154323E+02  0.10567268785E+02 -0.17167798725E+03  0.17626933972E+03  0.17770000000E+01 0. -1.
</event>
<event>
 6    1  0.1599106E-003  0.5005048E+03  0.7546771E-02  0.9398681E-01
        -11   -1    0    0    0    0  0.00000000000E+00  0.00000000000E+00  0.50000000000E+03  0.50000000000E+03  0.00000000000E+00 0. -1.
         11   -1    0    0    0    0 -0.00000000000E+00 -0.00000000000E+00 -0.50000000000E+03  0.50000000000E+03  0.00000000000E+00 0.  1.
        -11    1    1    2    0    0 -0.69066820350E+01  0.13916940747E+01  0.40583370403E+03  0.40589485633E+03  0.00000000000E+00 0. -1.
         11    1    1    2    0    0  0.72661521128E+01 -0.99474100930E+01 -0.49934330109E+03  0.49949522548E+03  0.00000000000E+00 0.  1.
        -15    1    1    2    0    0  0.29434915090E+01  0.27681841666E+01  0.69209340796E+02  0.69349964443E+02  0.17770000000E+01 0.  1.
         15    1    1    2    0    0 -0.33029615869E+01  0.57875318518E+01  0.24300256261E+02  0.25259953752E+02  0.17770000000E+01 0. -1.
</event>
<event>
 6    1  0.1599106E-003  0.5018216E+03  0.7546771E-02  0.9395743E-01
        -11   -1    0    0    0    0  0.00000000000E+00  0.00000000000E+00  0.50000000000E+03  0.50000000000E+03  0.00000000000E+00 0.  1.
         11   -1    0    0    0    0 -0.00000000000E+00 -0.00000000000E+00 -0.50000000000E+03  0.50000000000E+03  0.00000000000E+00 0. -1.
        -11    1    1    2    0    0 -0.14438082710E+02 -0.31315809494E+00  0.49796899730E+03  0.49817836020E+03  0.00000000000E+00 0.  1.
         11    1    1    2    0    0 -0.49136110001E+01  0.32706020915E+01 -0.16968714488E+03  0.16978977457E+03  0.00000000000E+00 0. -1.
        -15    1    1    2    0    0  0.58719614842E+01  0.36474427318E+01 -0.29894147376E+03  0.29902666475E+03  0.17770000000E+01 0. -1.
         15    1    1    2    0    0  0.13479732226E+02 -0.66048867283E+01 -0.29340378657E+02  0.33005200473E+02  0.17770000000E+01 0.  1.
</event>
<event>
 6    1  0.1599106E-003  0.4679032E+03  0.7546771E-02  0.9474639E-01
        -11   -1    0    0    0    0  0.00000000000E+00  0.00000000000E+00  0.50000000000E+03  0.50000000000E+03  0.00000000000E+00 0.  1.
         11   -1    0    0    0    0 -0.00000000000E+00 -0.00000000000E+00 -0.50000000000E+03  0.50000000000E+03  0.00000000000E+00 0. -1.
        -11    1    1    2    0    0  0.41308530947E+02  0.10132500482E+02  0.46950531269E+03  0.47142793823E+03  0.00000000000E+00 0.  1.
         11    1    1    2    0    0  0.57869257040E+01 -0.72467428627E+01 -0.46548346437E+03  0.46557583635E+03  0.00000000000E+00 0. -1.
        -15    1    1    2    0    0 -0.45003126748E+02 -0.40318112409E+01  0.11933069223E+02  0.46766363864E+02  0.17770000000E+01 0.  1.
         15    1    1    2    0    0 -0.20923299033E+01  0.11460536219E+01 -0.15954917548E+02  0.16229861562E+02  0.17770000000E+01 0. -1.
</event>
<event>
 6    1  0.1599106E-003  0.5177775E+03  0.7546771E-02  0.9360887E-01
        -11   -1    0    0    0    0  0.00000000000E+00  0.00000000000E+00  0.50000000000E+03  0.50000000000E+03  0.00000000000E+00 0. -1.
         11   -1    0    0    0    0 -0.00000000000E+00 -0.00000000000E+00 -0.50000000000E+03  0.50000000000E+03  0.00000000000E+00 0.  1.
        -11    1    1    2    0    0  0.16792503557E+02  0.15652196587E+02  0.48167579063E+03  0.48222250747E+03  0.00000000000E+00 0. -1.
         11    1    1    2    0    0  0.10394533008E+02 -0.73686441700E+01 -0.44350023384E+03  0.44368322106E+03  0.00000000000E+00 0.  1.
        -15    1    1    2    0    0 -0.23077160976E+01  0.18657573747E+02  0.27848038110E+01  0.19087783344E+02  0.17770000000E+01 0.  1.
         15    1    1    2    0    0 -0.24879320468E+02 -0.26941126164E+02 -0.40960360601E+02  0.55006488122E+02  0.17770000000E+01 0. -1.
</event>
<event>
 6    1  0.1599106E-003  0.5049413E+03  0.7546771E-02  0.9388821E-01
        -11   -1    0    0    0    0  0.00000000000E+00  0.00000000000E+00  0.50000000000E+03  0.50000000000E+03  0.00000000000E+00 0. -1.
         11   -1    0    0    0    0 -0.00000000000E+00 -0.00000000000E+00 -0.50000000000E+03  0.50000000000E+03  0.00000000000E+00 0. -1.
        -11    1    1    2    0    0 -0.51848866979E+01 -0.97817830419E+01  0.49493493578E+03  0.49505874094E+03  0.00000000000E+00 0. -1.
         11    1    1    2    0    0 -0.45689732578E+00  0.62225082180E+01 -0.43996686390E+03  0.44001110179E+03  0.00000000000E+00 0. -1.
        -15    1    1    2    0    0  0.58208484223E+01 -0.28015431707E+01 -0.57474655230E+02  0.57863845735E+02  0.17770000000E+01 0. -1.
         15    1    1    2    0    0 -0.17906439855E+00  0.63608179947E+01  0.25065833534E+01  0.70663115362E+01  0.17770000000E+01 0.  1.
</event>
<event>
 6    1  0.1599106E-003  0.5134710E+03  0.7546771E-02  0.9370162E-01
        -11   -1    0    0    0    0  0.00000000000E+00  0.00000000000E+00  0.50000000000E+03  0.50000000000E+03  0.00000000000E+00 0.  1.
         11   -1    0    0    0    0 -0.00000000000E+00 -0.00000000000E+00 -0.50000000000E+03  0.50000000000E+03  0.00000000000E+00 0.  1.
        -11    1    1    2    0    0 -0.17461070755E+01 -0.94269979157E+01  0.48643451218E+03  0.48652898354E+03  0.00000000000E+00 0.  1.
         11    1    1    2    0    0 -0.15209693195E+02  0.17324104534E+02 -0.44881130260E+03  0.44940298698E+03  0.00000000000E+00 0.  1.
        -15    1    1    2    0    0  0.21732291537E+02 -0.96761971355E+01 -0.47306981325E+02  0.52981407093E+02  0.17770000000E+01 0.  1.
         15    1    1    2    0    0 -0.47764912663E+01  0.17790905168E+01  0.96837717407E+01  0.11086622390E+02  0.17770000000E+01 0. -1.
</event>
<event>
 6    1  0.1599106E-003  0.5208993E+03  0.7546771E-02  0.9354223E-01
        -11   -1    0    0    0    0  0.00000000000E+00  0.00000000000E+00  0.50000000000E+03  0.50000000000E+03  0.00000000000E+00 0.  1.
         11   -1    0    0    0    0 -0.00000000000E+00 -0.00000000000E+00 -0.50000000000E+03  0.50000000000E+03  0.00000000000E+00 0.  1.
        -11    1    1    2    0    0 -0.23939760744E+02 -0.10570451896E+02  0.41032353691E+03  0.41115721025E+03  0.00000000000E+00 0.  1.
         11    1    1    2    0    0  0.12358002601E+02 -0.12111188171E+02 -0.47878813133E+03  0.47910069486E+03  0.00000000000E+00 0.  1.
        -15    1    1    2    0    0  0.27212892181E+02  0.20593212858E+02  0.82030743668E+02  0.88864067837E+02  0.17770000000E+01 0. -1.
         15    1    1    2    0    0 -0.15631134038E+02  0.20884272083E+01 -0.13566149245E+02  0.20878027059E+02  0.17770000000E+01 0.  1.
</event>
<event>
 6    1  0.1599106E-003  0.5012452E+03  0.7546771E-02  0.9397028E-01
        -11   -1    0    0    0    0  0.00000000000E+00  0.00000000000E+00  0.50000000000E+03  0.50000000000E+03  0.00000000000E+00 0.  1.
         11   -1    0    0    0    0 -0.00000000000E+00 -0.00000000000E+00 -0.50000000000E+03  0.50000000000E+03  0.00000000000E+00 0. -1.
        -11    1    1    2    0    0  0.77221386827E+01  0.14156596693E+01  0.49869297819E+03  0.49875477142E+03  0.00000000000E+00 0.  1.
         11    1    1    2    0    0  0.49464729583E+01 -0.42725698927E+01 -0.43492816705E+03  0.43497727865E+03  0.00000000000E+00 0. -1.
        -15    1    1    2    0    0 -0.12786801680E+02 -0.95697119187E+00 -0.37582891404E+02  0.39749837061E+02  0.17770000000E+01 0.  1.
         15    1    1    2    0    0  0.11819003930E+00  0.38138814153E+01 -0.26181919733E+02  0.26518112871E+02  0.17770000000E+01 0. -1.
</event>
<event>
 6    1  0.1599106E-003  0.5078862E+03  0.7546771E-02  0.9382335E-01
        -11   -1    0    0    0    0  0.00000000000E+00  0.00000000000E+00  0.50000000000E+03  0.50000000000E+03  0.00000000000E+00 0. -1.
         11   -1    0    0    0    0 -0.00000000000E+00 -0.00000000000E+00 -0.50000000000E+03  0.50000000000E+03  0.00000000000E+00 0. -1.
        -11    1    1    2    0    0 -0.36886675440E+01  0.73453510857E+01  0.46118270078E+03  0.46125594191E+03  0.00000000000E+00 0. -1.
         11    1    1    2    0    0  0.43954617579E+01  0.13746669431E+02 -0.49190212447E+03  0.49211379889E+03  0.00000000000E+00 0. -1.
        -15    1    1    2    0    0  0.67016766143E+01 -0.22391315994E+02  0.31038450683E+02  0.38895072325E+02  0.17770000000E+01 0. -1.
         15    1    1    2    0    0 -0.74084708282E+01  0.12992954773E+01 -0.31902698867E+00  0.77351868736E+01  0.17770000000E+01 0.  1.
</event>
<event>
 6    1  0.1599106E-003  0.5015613E+03  0.7546771E-02  0.9396323E-01
        -11   -1    0    0    0    0  0.00000000000E+00  0.00000000000E+00  0.50000000000E+03  0.50000000000E+03  0.00000000000E+00 0. -1.
         11   -1    0    0    0    0 -0.00000000000E+00 -0.00000000000E+00 -0.50000000000E+03  0.50000000000E+03  0.00000000000E+00 0.  1.
        -11    1    1    2    0    0  0.84471247192E+01 -0.10358317924E+02  0.49825947250E+03  0.49843871298E+03  0.00000000000E+00 0. -1.
         11    1    1    2    0    0 -0.11476836317E+02  0.36991056064E+01 -0.24087651694E+03  0.24117814488E+03  0.00000000000E+00 0.  1.
        -15    1    1    2    0    0  0.14545001315E+01 -0.12081977681E+02 -0.33182441243E+02  0.35388160325E+02  0.17770000000E+01 0. -1.
         15    1    1    2    0    0  0.15752114662E+01  0.18741190000E+02 -0.22420051431E+03  0.22499498181E+03  0.17770000000E+01 0.  1.
</event>
<event>
 6    1  0.1599106E-003  0.5009348E+03  0.7546771E-02  0.9397721E-01
        -11   -1    0    0    0    0  0.00000000000E+00  0.00000000000E+00  0.50000000000E+03  0.50000000000E+03  0.00000000000E+00 0. -1.
         11   -1    0    0    0    0 -0.00000000000E+00 -0.00000000000E+00 -0.50000000000E+03  0.50000000000E+03  0.00000000000E+00 0.  1.
        -11    1    1    2    0    0  0.44265796966E+01 -0.77451629372E+01  0.36380591637E+03  0.36391527440E+03  0.00000000000E+00 0. -1.
         11    1    1    2    0    0 -0.61306539989E+01  0.81696614121E+01 -0.49896069602E+03  0.49906523066E+03  0.00000000000E+00 0.  1.
        -15    1    1    2    0    0  0.21564633540E+01  0.44660917374E+01  0.12826787331E+03  0.12837601552E+03  0.17770000000E+01 0. -1.
         15    1    1    2    0    0 -0.45238905170E+00 -0.48905902123E+01  0.68869063360E+01  0.86434794128E+01  0.17770000000E+01 0.  1.
</event>
<event>
 6    1  0.1599106E-003  0.5068077E+03  0.7546771E-02  0.9384705E-01
        -11   -1    0    0    0    0  0.00000000000E+00  0.00000000000E+00  0.50000000000E+03  0.50000000000E+03  0.00000000000E+00 0.  1.
         11   -1    0    0    0    0 -0.00000000000E+00 -0.00000000000E+00 -0.50000000000E+03  0.50000000000E+03  0.00000000000E+00 0. -1.
        -11    1    1    2    0    0 -0.11659311377E+02  0.20635646701E+01  0.46263630546E+03  0.46278780123E+03  0.00000000000E+00 0.  1.
         11    1    1    2    0    0  0.54380376631E+01 -0.40819120006E+01 -0.49314546625E+03  0.49319234092E+03  0.00000000000E+00 0. -1.
        -15    1    1    2    0    0 -0.65257393390E+01 -0.50126051213E+01 -0.17367002400E+01  0.85956582498E+01  0.17770000000E+01 0.  1.
         15    1    1    2    0    0  0.12747013053E+02  0.70309524518E+01  0.32245861032E+02  0.35424199593E+02  0.17770000000E+01 0. -1.
</event>
<event>
 6    1  0.1599106E-003  0.5208654E+03  0.7546771E-02  0.9354295E-01
        -11   -1    0    0    0    0  0.00000000000E+00  0.00000000000E+00  0.50000000000E+03  0.50000000000E+03  0.00000000000E+00 0.  1.
         11   -1    0    0    0    0 -0.00000000000E+00 -0.00000000000E+00 -0.50000000000E+03  0.50000000000E+03  0.00000000000E+00 0. -1.
        -11    1    1    2    0    0 -0.75548105891E+01 -0.57097128783E+01  0.43897854287E+03  0.43908067264E+03  0.00000000000E+00 0.  1.
         11    1    1    2    0    0 -0.12775820756E+02  0.10021852276E+01 -0.47896318003E+03  0.47913458839E+03  0.00000000000E+00 0. -1.
        -15    1    1    2    0    0  0.11775767904E+02  0.25922557572E+01 -0.18751632736E+02  0.22364479849E+02  0.17770000000E+01 0. -1.
         15    1    1    2    0    0  0.85548634409E+01  0.21152718935E+01  0.58736269895E+02  0.59420259119E+02  0.17770000000E+01 0. -1.
</event>
<event>
 6    1  0.1599106E-003  0.5082126E+03  0.7546771E-02  0.9381619E-01
        -11   -1    0    0    0    0  0.00000000000E+00  0.00000000000E+00  0.50000000000E+03  0.50000000000E+03  0.00000000000E+00 0.  1.
         11   -1    0    0    0    0 -0.00000000000E+00 -0.00000000000E+00 -0.50000000000E+03  0.50000000000E+03  0.00000000000E+00 0. -1.
        -11    1    1    2    0    0 -0.58119507598E+01 -0.12423952341E+02  0.49159607532E+03  0.49178738763E+03  0.00000000000E+00 0.  1.
         11    1    1    2    0    0 -0.17373801297E+02 -0.61527368759E+01 -0.30155946463E+03  0.30212218695E+03  0.00000000000E+00 0. -1.
        -15    1    1    2    0    0  0.16504739377E+02  0.72327577168E+01 -0.19183238442E+03  0.19268508153E+03  0.17770000000E+01 0. -1.
         15    1    1    2    0    0  0.66810126793E+01  0.11343931500E+02  0.17957737257E+01  0.13405343881E+02  0.17770000000E+01 0. -1.
</event>
<event>
 6    1  0.1599106E-003  0.5047189E+03  0.7546771E-02  0.9389312E-01
        -11   -1    0    0    0    0  0.00000000000E+00  0.00000000000E+00  0.50000000000E+03  0.50000000000E+03  0.00000000000E+00 0. -1.
         11   -1    0    0    0    0 -0.00000000000E+00 -0.00000000000E+00 -0.50000000000E+03  0.50000000000E+03  0.00000000000E+00 0. -1.
        -11    1    1    2    0    0 -0.20303581854E+02  0.17581974480E+02  0.49455232141E+03  0.49528109178E+03  0.00000000000E+00 0. -1.
         11    1    1    2    0    0 -0.63523696210E+01  0.69299615631E+00 -0.42066701360E+03  0.42071554425E+03  0.00000000000E+00 0. -1.
        -15    1    1    2    0    0 -0.31449231925E+01 -0.20565987964E+01 -0.19032766645E+02  0.19481377663E+02  0.17770000000E+01 0. -1.
         15    1    1    2    0    0  0.29800874668E+02 -0.16218371840E+02 -0.54852541168E+02  0.64521986312E+02  0.17770000000E+01 0.  1.
</event>
<event>
 6    1  0.1599106E-003  0.5015334E+03  0.7546771E-02  0.9396385E-01
        -11   -1    0    0    0    0  0.00000000000E+00  0.00000000000E+00  0.50000000000E+03  0.50000000000E+03  0.00000000000E+00 0.  1.
         11   -1    0    0    0    0 -0.00000000000E+00 -0.00000000000E+00 -0.50000000000E+03  0.50000000000E+03  0.00000000000E+00 0. -1.
        -11    1    1    2    0    0 -0.30041761838E+01 -0.89098515802E+01  0.49837795305E+03  0.49846664344E+03  0.00000000000E+00 0.  1.
         11    1    1    2    0    0  0.73994961639E+01 -0.41056313914E+01 -0.42132990047E+03  0.42141487133E+03  0.00000000000E+00 0. -1.
        -15    1    1    2    0    0  0.39571853575E+01  0.59928286134E+01 -0.11707042765E+02  0.13848678278E+02  0.17770000000E+01 0. -1.
         15    1    1    2    0    0 -0.83525053376E+01  0.70226543581E+01 -0.65341009824E+02  0.66269806953E+02  0.17770000000E+01 0.  1.
</event>
<event>
 6    1  0.1599106E-003  0.5100876E+03  0.7546771E-02  0.9377517E-01
        -11   -1    0    0    0    0  0.00000000000E+00  0.00000000000E+00  0.50000000000E+03  0.50000000000E+03  0.00000000000E+00 0.  1.
         11   -1    0    0    0    0 -0.00000000000E+00 -0.00000000000E+00 -0.50000000000E+03  0.50000000000E+03  0.00000000000E+00 0. -1.
        -11    1    1    2    0    0 -0.92847875047E+01 -0.49666161145E+01  0.48979926802E+03  0.48991243862E+03  0.00000000000E+00 0.  1.
         11    1    1    2    0    0  0.25662413842E+02  0.21544814535E+01 -0.34420002000E+03  0.34516207069E+03  0.00000000000E+00 0. -1.
        -15    1    1    2    0    0 -0.32344338488E+02  0.24238253551E+01 -0.14526435914E+03  0.14885201687E+03  0.17770000000E+01 0.  1.
         15    1    1    2    0    0  0.15966712150E+02  0.38830930585E+00 -0.33488887975E+00  0.16073473818E+02  0.17770000000E+01 0. -1.
</event>
<event>
 6    1  0.1599106E-003  0.5132303E+03  0.7546771E-02  0.9370683E-01
        -11   -1    0    0    0    0  0.00000000000E+00  0.00000000000E+00  0.50000000000E+03  0.50000000000E+03  0.00000000000E+00 0.  1.
         11   -1    0    0    0    0 -0.00000000000E+00 -0.00000000000E+00 -0.50000000000E+03  0.50000000000E+03  0.00000000000E+00 0. -1.
        -11    1    1    2    0    0  0.89675002198E+01  0.66507863500E+01  0.45191219482E+03  0.45205008666E+03  0.00000000000E+00 0.  1.
         11    1    1    2    0    0  0.67735408714E+01 -0.81885651496E+01 -0.48665364546E+03  0.48676966226E+03  0.00000000000E+00 0. -1.
        -15    1    1    2    0    0 -0.10227941021E+02  0.14350860169E+02 -0.55052119196E+01  0.18547858432E+02  0.17770000000E+01 0. -1.
         15    1    1    2    0    0 -0.55131000703E+01 -0.12813081370E+02  0.40246662559E+02  0.42632392646E+02  0.17770000000E+01 0.  1.
</event>
<event>
 6    1  0.1599106E-003  0.5020163E+03  0.7546771E-02  0.9395309E-01
        -11   -1    0    0    0    0  0.00000000000E+00  0.00000000000E+00  0.50000000000E+03  0.50000000000E+03  0.00000000000E+00 0. -1.
         11   -1    0    0    0    0 -0.00000000000E+00 -0.00000000000E+00 -0.50000000000E+03  0.50000000000E+03  0.00000000000E+00 0.  1.
        -11    1    1    2    0    0  0.64919202751E+01  0.24747139805E+01  0.38226411618E+03  0.38232724695E+03  0.00000000000E+00 0. -1.
         11    1    1    2    0    0  0.40253909567E+01  0.60170051951E+01 -0.49793104999E+03  0.49798367309E+03  0.00000000000E+00 0.  1.
        -15    1    1    2    0    0 -0.45946121784E+01 -0.10073327171E+02  0.11150946176E+03  0.11207185272E+03  0.17770000000E+01 0. -1.
         15    1    1    2    0    0 -0.59226990534E+01  0.15816079957E+01  0.41574720480E+01  0.76172272356E+01  0.17770000000E+01 0.  1.
</event>
<event>
 6    1  0.1599106E-003  0.5031531E+03  0.7546771E-02  0.9392782E-01
        -11   -1    0    0    0    0  0.00000000000E+00  0.00000000000E+00  0.50000000000E+03  0.50000000000E+03  0.00000000000E+00 0.  1.
         11   -1    0    0    0    0 -0.00000000000E+00 -0.00000000000E+00 -0.50000000000E+03  0.50000000000E+03  0.00000000000E+00 0.  1.
        -11    1    1    2    0    0  0.43082556082E+01 -0.86452897170E+01  0.42972910145E+03  0.42983764695E+03  0.00000000000E+00 0.  1.
         11    1    1    2    0    0 -0.50146717510E+00 -0.13621768394E+02 -0.49665991974E+03  0.49684693812E+03  0.00000000000E+00 0.  1.
        -15    1    1    2    0    0  0.49583264668E+01  0.22300213620E+01  0.28440595614E+02  0.29010053507E+02  0.17770000000E+01 0. -1.
         15    1    1    2    0    0 -0.87651148999E+01  0.20037036749E+02  0.38490222675E+02  0.44305361430E+02  0.17770000000E+01 0.  1.
</event>
<event>
 6    1  0.1599106E-003  0.5075067E+03  0.7546771E-02  0.9383168E-01
        -11   -1    0    0    0    0  0.00000000000E+00  0.00000000000E+00  0.50000000000E+03  0.50000000000E+03  0.00000000000E+00 0.  1.
         11   -1    0    0    0    0 -0.00000000000E+00 -0.00000000000E+00 -0.50000000000E+03  0.50000000000E+03  0.00000000000E+00 0. -1.
        -11    1    1    2    0    0  0.20790449545E+02  0.15136635307E+00  0.49205423971E+03  0.49249328982E+03  0.00000000000E+00 0.  1.
         11    1    1    2    0    0 -0.61432524941E+01 -0.10235826042E+02 -0.46577163509E+03  0.46592459448E+03  0.00000000000E+00 0. -1.
        -15    1    1    2    0    0 -0.11210631630E+02 -0.72416650844E+01 -0.16555163424E+02  0.21338958263E+02  0.17770000000E+01 0.  1.
         15    1    1    2    0    0 -0.34365654214E+01  0.17326124774E+02 -0.97274411949E+01  0.20243157431E+02  0.17770000000E+01 0. -1.
</event>
<event>
 6    1  0.1599106E-003  0.5053707E+03  0.7546771E-02  0.9387872E-01
        -11   -1    0    0    0    0  0.00000000000E+00  0.00000000000E+00  0.50000000000E+03  0.50000000000E+03  0.00000000000E+00 0. -1.
         11   -1    0    0    0    0 -0.00000000000E+00 -0.00000000000E+00 -0.50000000000E+03  0.50000000000E+03  0.00000000000E+00 0.  1.
        -11    1    1    2    0    0 -0.10965484840E+02  0.39255333349E+01  0.46339578242E+03  0.46354212628E+03  0.00000000000E+00 0. -1.
         11    1    1    2    0    0  0.10184038225E+02  0.11014464708E+01 -0.49452321352E+03  0.49462929203E+03  0.00000000000E+00 0.  1.
        -15    1    1    2    0    0 -0.12284276878E+02  0.92094719372E+00  0.20090742715E+02  0.23633604761E+02  0.17770000000E+01 0. -1.
         15    1    1    2    0    0  0.13065723494E+02 -0.59479269994E+01  0.11036688391E+02  0.18194976934E+02  0.17770000000E+01 0.  1.
</event>
<event>
 6    1  0.1599106E-003  0.4766064E+03  0.7546771E-02  0.9453732E-01
        -11   -1    0    0    0    0  0.00000000000E+00  0.00000000000E+00  0.50000000000E+03  0.50000000000E+03  0.00000000000E+00 0.  1.
         11   -1    0    0    0    0 -0.00000000000E+00 -0.00000000000E+00 -0.50000000000E+03  0.50000000000E+03  0.00000000000E+00 0.  1.
        -11    1    1    2    0    0  0.24510604063E+02 -0.34330434504E+02  0.47076769515E+03  0.47265375408E+03  0.00000000000E+00 0.  1.
         11    1    1    2    0    0 -0.11799725976E+02  0.25862009122E+02 -0.47988378368E+03  0.48072499715E+03  0.00000000000E+00 0.  1.
        -15    1    1    2    0    0 -0.17502911616E+02  0.16787475366E+02  0.20370439454E+02  0.31721976243E+02  0.17770000000E+01 0. -1.
         15    1    1    2    0    0  0.47920335296E+01 -0.83190499844E+01 -0.11254350930E+02  0.14899272528E+02  0.17770000000E+01 0.  1.
</event>
<event>
 6    1  0.1599106E-003  0.5135695E+03  0.7546771E-02  0.9369948E-01
        -11   -1    0    0    0    0  0.00000000000E+00  0.00000000000E+00  0.50000000000E+03  0.50000000000E+03  0.00000000000E+00 0.  1.
         11   -1    0    0    0    0 -0.00000000000E+00 -0.00000000000E+00 -0.50000000000E+03  0.50000000000E+03  0.00000000000E+00 0. -1.
        -11    1    1    2    0    0 -0.17205870306E+02 -0.64352228339E+01  0.47089006369E+03  0.47124824259E+03  0.00000000000E+00 0.  1.
         11    1    1    2    0    0  0.18620761964E+02  0.63238784017E+01 -0.48603278039E+03  0.48643045529E+03  0.00000000000E+00 0. -1.
        -15    1    1    2    0    0  0.34415616470E+01 -0.10124360360E+01 -0.13042748660E+02  0.13643327853E+02  0.17770000000E+01 0. -1.
         15    1    1    2    0    0 -0.48564533053E+01  0.11237804683E+01  0.28185465366E+02  0.28677974269E+02  0.17770000000E+01 0.  1.
</event>
<event>
 6    1  0.1599106E-003  0.5101116E+03  0.7546771E-02  0.9377464E-01
        -11   -1    0    0    0    0  0.00000000000E+00  0.00000000000E+00  0.50000000000E+03  0.50000000000E+03  0.00000000000E+00 0.  1.
         11   -1    0    0    0    0 -0.00000000000E+00 -0.00000000000E+00 -0.50000000000E+03  0.50000000000E+03  0.00000000000E+00 0.  1.
        -11    1    1    2    0    0 -0.10979506659E+02  0.52342018488E+01  0.47910511075E+03  0.47925948460E+03  0.00000000000E+00 0.  1.
         11    1    1    2    0    0  0.88835853611E+01  0.29624803665E+01 -0.48979885460E+03  0.48988836723E+03  0.00000000000E+00 0.  1.
        -15    1    1    2    0    0  0.71769990701E+01 -0.49446950785E+01 -0.74794894887E+01  0.11621523871E+02  0.17770000000E+01 0.  1.
         15    1    1    2    0    0 -0.50810777720E+01 -0.32519871368E+01  0.18173233341E+02  0.19230624294E+02  0.17770000000E+01 0. -1.
</event>
<event>
 6    1  0.1599106E-003  0.5001578E+03  0.7546771E-02  0.9399457E-01
        -11   -1    0    0    0    0  0.00000000000E+00  0.00000000000E+00  0.50000000000E+03  0.50000000000E+03  0.00000000000E+00 0. -1.
         11   -1    0    0    0    0 -0.00000000000E+00 -0.00000000000E+00 -0.50000000000E+03  0.50000000000E+03  0.00000000000E+00 0.  1.
        -11    1    1    2    0    0 -0.79856702297E+01 -0.18795913588E+01  0.49977487527E+03  0.49984220485E+03  0.00000000000E+00 0. -1.
         11    1    1    2    0    0  0.52071072070E+00 -0.23748328478E+01 -0.10772040044E+03  0.10774783358E+03  0.00000000000E+00 0.  1.
        -15    1    1    2    0    0 -0.20532821758E+01  0.18661920350E+01 -0.24541155344E+02  0.24761354467E+02  0.17770000000E+01 0. -1.
         15    1    1    2    0    0  0.95182416849E+01  0.23882321716E+01 -0.36751331949E+03  0.36764860711E+03  0.17770000000E+01 0.  1.
</event>
<event>
 6    1  0.1599106E-003  0.5055891E+03  0.7546771E-02  0.9387390E-01
        -11   -1    0    0    0    0  0.00000000000E+00  0.00000000000E+00  0.50000000000E+03  0.50000000000E+03  0.00000000000E+00 0. -1.
         11   -1    0    0    0    0 -0.00000000000E+00 -0.00000000000E+00 -0.50000000000E+03  0.50000000000E+03  0.00000000000E+00 0. -1.
        -11    1    1    2    0    0 -0.49084549244E+01 -0.16533278887E+02  0.48225700769E+03  0.48256529476E+03  0.00000000000E+00 0. -1.
         11    1    1    2    0    0  0.24109452928E+00  0.67101862942E+01 -0.49436527997E+03  0.49441087646E+03  0.00000000000E+00 0. -1.
        -15    1    1    2    0    0 -0.26708525675E+01  0.40391086930E+01  0.12481571677E+02  0.13505377188E+02  0.17770000000E+01 0.  1.
         15    1    1    2    0    0  0.73382129626E+01  0.57839839000E+01 -0.37329939832E+00  0.95184515905E+01  0.17770000000E+01 0. -1.
</event>
<event>
 6    1  0.1599106E-003  0.3762895E+03  0.7546771E-02  0.9729174E-01
        -11   -1    0    0    0    0  0.00000000000E+00  0.00000000000E+00  0.50000000000E+03  0.50000000000E+03  0.00000000000E+00 0. -1.
         11   -1    0    0    0    0 -0.00000000000E+00 -0.00000000000E+00 -0.50000000000E+03  0.50000000000E+03  0.00000000000E+00 0. -1.
        -11    1    1    2    0    0  0.39024141832E+01  0.69571786884E+02  0.40078711883E+03  0.40679943091E+03  0.00000000000E+00 0. -1.
         11    1    1    2    0    0  0.39361763646E+02  0.52204242751E+02 -0.35231668202E+03  0.35833179573E+03  0.00000000000E+00 0. -1.
        -15    1    1    2    0    0 -0.43998259921E+02 -0.16366488057E+03  0.16848994556E+01  0.16949347074E+03  0.17770000000E+01 0. -1.
         15    1    1    2    0    0  0.73408209234E+00  0.41888850935E+02 -0.50155336262E+02  0.65375302628E+02  0.17770000000E+01 0.  1.
</event>
<event>
 6    1  0.1599106E-003  0.5054675E+03  0.7546771E-02  0.9387658E-01
        -11   -1    0    0    0    0  0.00000000000E+00  0.00000000000E+00  0.50000000000E+03  0.50000000000E+03  0.00000000000E+00 0.  1.
         11   -1    0    0    0    0 -0.00000000000E+00 -0.00000000000E+00 -0.50000000000E+03  0.50000000000E+03  0.00000000000E+00 0. -1.
        -11    1    1    2    0    0  0.17846980857E+01 -0.66406378463E+01  0.40829978738E+03  0.40835768585E+03  0.00000000000E+00 0.  1.
         11    1    1    2    0    0  0.68914644249E+01 -0.11278981871E+02 -0.49435582991E+03  0.49453250074E+03  0.00000000000E+00 0. -1.
        -15    1    1    2    0    0 -0.13897097738E+01  0.37460907942E+01  0.79764342313E+02  0.79884119342E+02  0.17770000000E+01 0. -1.
         15    1    1    2    0    0 -0.72864527368E+01  0.14173528923E+02  0.62917002239E+01  0.17225694074E+02  0.17770000000E+01 0.  1.
</event>
<event>
 6    1  0.1599106E-003  0.5017222E+03  0.7546771E-02  0.9395964E-01
        -11   -1    0    0    0    0  0.00000000000E+00  0.00000000000E+00  0.50000000000E+03  0.50000000000E+03  0.00000000000E+00 0.  1.
         11   -1    0    0    0    0 -0.00000000000E+00 -0.00000000000E+00 -0.50000000000E+03  0.50000000000E+03  0.00000000000E+00 0.  1.
        -11    1    1    2    0    0  0.52709379725E+01  0.82566029989E+01  0.49818150787E+03  0.49827780310E+03  0.00000000000E+00 0.  1.
         11    1    1    2    0    0  0.83737160850E+01 -0.46386677659E+00 -0.43995975223E+03  0.44003967762E+03  0.00000000000E+00 0.  1.
        -15    1    1    2    0    0 -0.54108135911E+01 -0.76452373832E+01 -0.45044853054E+02  0.46042622362E+02  0.17770000000E+01 0. -1.
         15    1    1    2    0    0 -0.82338404664E+01 -0.14749883911E+00 -0.13176902587E+02  0.15639896915E+02  0.17770000000E+01 0.  1.
</event>
<event>
 6    1  0.1599106E-003  0.5250114E+03  0.7546771E-02  0.9345521E-01
        -11   -1    0    0    0    0  0.00000000000E+00  0.00000000000E+00  0.50000000000E+03  0.50000000000E+03  0.00000000000E+00 0. -1.
         11   -1    0    0    0    0 -0.00000000000E+00 -0.00000000000E+00 -0.50000000000E+03  0.50000000000E+03  0.00000000000E+00 0.  1.
        -11    1    1    2    0    0  0.35313948344E+00  0.15621582208E+02  0.44408913488E+03  0.44436394798E+03  0.00000000000E+00 0. -1.
         11    1    1    2    0    0  0.69841843519E+01  0.12178614627E+02 -0.47478105573E+03  0.47498857709E+03  0.00000000000E+00 0.  1.
        -15    1    1    2    0    0  0.50344700582E+01 -0.49365235031E+02  0.20284540062E+02  0.53636672277E+02  0.17770000000E+01 0.  1.
         15    1    1    2    0    0 -0.12371793894E+02  0.21565038196E+02  0.10407380783E+02  0.27010802659E+02  0.17770000000E+01 0. -1.
</event>
<event>
 6    1  0.1599106E-003  0.5547132E+03  0.7546771E-02  0.9285075E-01
        -11   -1    0    0    0    0  0.00000000000E+00  0.00000000000E+00  0.50000000000E+03  0.50000000000E+03  0.00000000000E+00 0.  1.
         11   -1    0    0    0    0 -0.00000000000E+00 -0.00000000000E+00 -0.50000000000E+03  0.50000000000E+03  0.00000000000E+00 0. -1.
        -11    1    1    2    0    0  0.64717112238E+01 -0.22791953571E+02  0.30994588133E+03  0.31085013358E+03  0.00000000000E+00 0.  1.
         11    1    1    2    0    0  0.23432267131E+02 -0.84189579384E+01 -0.44459016024E+03  0.44528682956E+03  0.00000000000E+00 0. -1.
        -15    1    1    2    0    0 -0.36433460325E+02  0.24552206065E+02  0.18626096276E+03  0.19138054194E+03  0.17770000000E+01 0.  1.
         15    1    1    2    0    0  0.65294819705E+01  0.66587054446E+01 -0.51616683853E+02  0.52482494929E+02  0.17770000000E+01 0. -1.
</event>
<event>
 6    1  0.1599106E-003  0.5057164E+03  0.7546771E-02  0.9387109E-01
        -11   -1    0    0    0    0  0.00000000000E+00  0.00000000000E+00  0.50000000000E+03  0.50000000000E+03  0.00000000000E+00 0. -1.
         11   -1    0    0    0    0 -0.00000000000E+00 -0.00000000000E+00 -0.50000000000E+03  0.50000000000E+03  0.00000000000E+00 0. -1.
        -11    1    1    2    0    0  0.19275424187E+00  0.52973182593E+01  0.32282356594E+03  0.32286708327E+03  0.00000000000E+00 0. -1.
         11    1    1    2    0    0 -0.34442557016E-01 -0.11977820026E+02 -0.49413841839E+03  0.49428356830E+03  0.00000000000E+00 0. -1.
        -15    1    1    2    0    0  0.14212794097E+02  0.20887343569E+02  0.26634558226E+02  0.36753803317E+02  0.17770000000E+01 0. -1.
         15    1    1    2    0    0 -0.14371105782E+02 -0.14206841802E+02  0.14468029423E+03  0.14609554512E+03  0.17770000000E+01 0.  1.
</event>
<event>
 6    1  0.1599106E-003  0.5138963E+03  0.7546771E-02  0.9369242E-01
        -11   -1    0    0    0    0  0.00000000000E+00  0.00000000000E+00  0.50000000000E+03  0.50000000000E+03  0.00000000000E+00 0.  1.
         11   -1    0    0    0    0 -0.00000000000E+00 -0.00000000000E+00 -0.50000000000E+03  0.50000000000E+03  0.00000000000E+00 0. -1.
        -11    1    1    2    0    0  0.19644522046E+02  0.20913328759E+02  0.26584628337E+03  0.26739020354E+03  0.00000000000E+00 0.  1.
         11    1    1    2    0    0 -0.45979748909E+01  0.61824015510E+01 -0.48604268013E+03  0.48610374446E+03  0.00000000000E+00 0. -1.
        -15    1    1    2    0    0  0.71857269462E+01 -0.28060132706E+02  0.41569578949E+01  0.29316271031E+02  0.17770000000E+01 0. -1.
         15    1    1    2    0    0 -0.22232274102E+02  0.96440239508E+00  0.21603943887E+03  0.21718978098E+03  0.17770000000E+01 0.  1.
</event>
<event>
 6    1  0.1599106E-003  0.5009605E+03  0.7546771E-02  0.9397663E-01
        -11   -1    0    0    0    0  0.00000000000E+00  0.00000000000E+00  0.50000000000E+03  0.50000000000E+03  0.00000000000E+00 0.  1.
         11   -1    0    0    0    0 -0.00000000000E+00 -0.00000000000E+00 -0.50000000000E+03  0.50000000000E+03  0.00000000000E+00 0.  1.
        -11    1    1    2    0    0 -0.50524317963E+01 -0.54096454151E+01  0.32242197995E+03  0.32250693711E+03  0.00000000000E+00 0.  1.
         11    1    1    2    0    0 -0.59506943988E+01 -0.47793796235E+01 -0.49898112664E+03  0.49903949540E+03  0.00000000000E+00 0.  1.
        -15    1    1    2    0    0  0.75268986849E+01  0.99616671963E+01  0.17193744147E+03  0.17239933447E+03  0.17770000000E+01 0.  1.
         15    1    1    2    0    0  0.34762275102E+01  0.22735784229E+00  0.46217052228E+01  0.60542330198E+01  0.17770000000E+01 0. -1.
</event>
<event>
 6    1  0.1599106E-003  0.5012825E+03  0.7546771E-02  0.9396944E-01
        -11   -1    0    0    0    0  0.00000000000E+00  0.00000000000E+00  0.50000000000E+03  0.50000000000E+03  0.00000000000E+00 0.  1.
         11   -1    0    0    0    0 -0.00000000000E+00 -0.00000000000E+00 -0.50000000000E+03  0.50000000000E+03  0.00000000000E+00 0. -1.
        -11    1    1    2    0    0  0.83027652564E+01 -0.43264837819E+01  0.44358604130E+03  0.44368483230E+03  0.00000000000E+00 0.  1.
         11    1    1    2    0    0 -0.30026570254E+01 -0.70618728988E+01 -0.49865841429E+03  0.49871745522E+03  0.00000000000E+00 0. -1.
        -15    1    1    2    0    0 -0.83947512195E+00  0.19571292740E+01  0.18515018590E+01  0.33347955873E+01  0.17770000000E+01 0.  1.
         15    1    1    2    0    0 -0.44606331090E+01  0.94312274067E+01  0.53220871125E+02  0.54262916900E+02  0.17770000000E+01 0. -1.
</event>
<event>
 6    1  0.1599106E-003  0.5167294E+03  0.7546771E-02  0.9363135E-01
        -11   -1    0    0    0    0  0.00000000000E+00  0.00000000000E+00  0.50000000000E+03  0.50000000000E+03  0.00000000000E+00 0.  1.
         11   -1    0    0    0    0 -0.00000000000E+00 -0.00000000000E+00 -0.50000000000E+03  0.50000000000E+03  0.00000000000E+00 0. -1.
        -11    1    1    2    0    0 -0.68233803613E+02 -0.57796009585E+02  0.47492556229E+03  0.48327064922E+03  0.00000000000E+00 0.  1.
         11    1    1    2    0    0 -0.18582823622E+02  0.10510987184E+01 -0.24460700007E+03  0.24531410605E+03  0.00000000000E+00 0. -1.
        -15    1    1    2    0    0  0.55437846481E+02  0.24621849869E+02 -0.33068951089E+02  0.69110806453E+02  0.17770000000E+01 0.  1.
         15    1    1    2    0    0  0.31378780754E+02  0.32123060997E+02 -0.19724961113E+03  0.20230443828E+03  0.17770000000E+01 0. -1.
</event>
<event>
 6    1  0.1599106E-003  0.4849402E+03  0.7546771E-02  0.9434152E-01
        -11   -1    0    0    0    0  0.00000000000E+00  0.00000000000E+00  0.50000000000E+03  0.50000000000E+03  0.00000000000E+00 0. -1.
         11   -1    0    0    0    0 -0.00000000000E+00 -0.00000000000E+00 -0.50000000000E+03  0.50000000000E+03  0.00000000000E+00 0. -1.
        -11    1    1    2    0    0  0.97085845362E+01 -0.63944063376E+01  0.48474810811E+03  0.48488748526E+03  0.00000000000E+00 0. -1.
         11    1    1    2    0    0 -0.10039404419E+02 -0.50632478265E+01 -0.48493031323E+03  0.48506065065E+03  0.00000000000E+00 0. -1.
        -15    1    1    2    0    0  0.46500502199E+01  0.19705267431E+02  0.19230579590E+01  0.20415102558E+02  0.17770000000E+01 0.  1.
         15    1    1    2    0    0 -0.43192303371E+01 -0.82476132665E+01 -0.17408528374E+01  0.96367615359E+01  0.17770000000E+01 0. -1.
</event>
<event>
 6    1  0.1599106E-003  0.5003369E+03  0.7546771E-02  0.9399056E-01
        -11   -1    0    0    0    0  0.00000000000E+00  0.00000000000E+00  0.50000000000E+03  0.50000000000E+03  0.00000000000E+00 0.  1.
         11   -1    0    0    0    0 -0.00000000000E+00 -0.00000000000E+00 -0.50000000000E+03  0.50000000000E+03  0.00000000000E+00 0.  1.
        -11    1    1    2    0    0  0.31629007396E+01 -0.59301165614E+01  0.17347129169E+03  0.17360143797E+03  0.00000000000E+00 0.  1.
         11    1    1    2    0    0  0.53562643463E+01 -0.54754423049E+01 -0.49960441131E+03  0.49966312435E+03  0.00000000000E+00 0.  1.
        -15    1    1    2    0    0 -0.27384398515E+01  0.15679477881E+01  0.20965575607E+03  0.20968703177E+03  0.17770000000E+01 0.  1.
         15    1    1    2    0    0 -0.57807252344E+01  0.98376110781E+01  0.11647736355E+03  0.11704840591E+03  0.17770000000E+01 0. -1.
</event>
<event>
 6    1  0.1599106E-003  0.5023532E+03  0.7546771E-02  0.9394560E-01
        -11   -1    0    0    0    0  0.00000000000E+00  0.00000000000E+00  0.50000000000E+03  0.50000000000E+03  0.00000000000E+00 0.  1.
         11   -1    0    0    0    0 -0.00000000000E+00 -0.00000000000E+00 -0.50000000000E+03  0.50000000000E+03  0.00000000000E+00 0.  1.
        -11    1    1    2    0    0 -0.88565881149E+01  0.15787819335E+01  0.49756548941E+03  0.49764681046E+03  0.00000000000E+00 0.  1.
         11    1    1    2    0    0 -0.57596419788E+01 -0.54462533848E+01 -0.41649433103E+03  0.41656975758E+03  0.00000000000E+00 0.  1.
        -15    1    1    2    0    0  0.60787152952E+01 -0.29129725068E+01 -0.69266726039E+02  0.69616616218E+02  0.17770000000E+01 0. -1.
         15    1    1    2    0    0  0.85375147985E+01  0.67804439581E+01 -0.11804432346E+02  0.16166815741E+02  0.17770000000E+01 0.  1.
</event>
<event>
 6    1  0.1599106E-003  0.5050909E+03  0.7546771E-02  0.9388490E-01
        -11   -1    0    0    0    0  0.00000000000E+00  0.00000000000E+00  0.50000000000E+03  0.50000000000E+03  0.00000000000E+00 0. -1.
         11   -1    0    0    0    0 -0.00000000000E+00 -0.00000000000E+00 -0.50000000000E+03  0.50000000000E+03  0.00000000000E+00 0.  1.
        -11    1    1    2    0    0 -0.73873219796E+01 -0.49290164593E+01  0.49482944524E+03  0.49490913066E+03  0.00000000000E+00 0. -1.
         11    1    1    2    0    0  0.63952643108E+00 -0.10307788328E+02 -0.45360716156E+03  0.45372471446E+03  0.00000000000E+00 0.  1.
        -15    1    1    2    0    0  0.10833111986E+02  0.66668637321E+01 -0.39524969164E+02  0.41559406922E+02  0.17770000000E+01 0. -1.
         15    1    1    2    0    0 -0.40853164371E+01  0.85699410552E+01 -0.16973145207E+01  0.98067479657E+01  0.17770000000E+01 0.  1.
</event>
<event>
 6    1  0.1599106E-003  0.5008858E+03  0.7546771E-02  0.9397830E-01
        -11   -1    0    0    0    0  0.00000000000E+00  0.00000000000E+00  0.50000000000E+03  0.50000000000E+03  0.00000000000E+00 0. -1.
         11   -1    0    0    0    0 -0.00000000000E+00 -0.00000000000E+00 -0.50000000000E+03  0.50000000000E+03  0.00000000000E+00 0.  1.
        -11    1    1    2    0    0  0.16859300573E+01 -0.97718057140E+01  0.49901567853E+03  0.49911419331E+03  0.00000000000E+00 0. -1.
         11    1    1    2    0    0  0.76325589914E+01  0.24495899196E+01 -0.19277102603E+03  0.19293761926E+03  0.00000000000E+00 0.  1.
        -15    1    1    2    0    0  0.26981122319E+01 -0.69733922264E+01 -0.19357252118E+03  0.19372502857E+03  0.17770000000E+01 0.  1.
         15    1    1    2    0    0 -0.12016601281E+02  0.14295608021E+02 -0.11267213132E+03  0.11422315886E+03  0.17770000000E+01 0. -1.
</event>
<event>
 6    1  0.1599106E-003  0.5000646E+03  0.7546771E-02  0.9399665E-01
        -11   -1    0    0    0    0  0.00000000000E+00  0.00000000000E+00  0.50000000000E+03  0.50000000000E+03  0.00000000000E+00 0. -1.
         11   -1    0    0    0    0 -0.00000000000E+00 -0.00000000000E+00 -0.50000000000E+03  0.50000000000E+03  0.00000000000E+00 0. -1.
        -11    1    1    2    0    0 -0.56660736118E+01  0.86452560844E+01  0.49982857286E+03  0.49993544292E+03  0.00000000000E+00 0. -1.
         11    1    1    2    0    0 -0.30577301345E+00  0.11090303528E+01 -0.54984069536E+02  0.54996103027E+02  0.00000000000E+00 0. -1.
        -15    1    1    2    0    0 -0.92684222621E+00 -0.25077268486E+01 -0.18077631577E+03  0.18080481687E+03  0.17770000000E+01 0.  1.
         15    1    1    2    0    0  0.68986888515E+01 -0.72465595885E+01 -0.26406818755E+03  0.26426363719E+03  0.17770000000E+01 0. -1.
</event>
<event>
 6    1  0.1599106E-003  0.5030457E+03  0.7546771E-02  0.9393021E-01
        -11   -1    0    0    0    0  0.00000000000E+00  0.00000000000E+00  0.50000000000E+03  0.50000000000E+03  0.00000000000E+00 0.  1.
         11   -1    0    0    0    0 -0.00000000000E+00 -0.00000000000E+00 -0.50000000000E+03  0.50000000000E+03  0.00000000000E+00 0.  1.
        -11    1    1    2    0    0 -0.63254666990E+01 -0.59949944884E+01  0.46356436893E+03  0.46364628288E+03  0.00000000000E+00 0.  1.
         11    1    1    2    0    0  0.68391183356E+01 -0.78762725924E+00 -0.49690666009E+03  0.49695434673E+03  0.00000000000E+00 0.  1.
        -15    1    1    2    0    0  0.23359903354E+01  0.29223107387E+00 -0.18331743227E+01  0.34728240590E+01  0.17770000000E+01 0. -1.
         15    1    1    2    0    0 -0.28496419721E+01  0.64903906738E+01  0.35175465480E+02  0.35926546330E+02  0.17770000000E+01 0.  1.
</event>
<event>
 6    1  0.1599106E-003  0.5101324E+03  0.7546771E-02  0.9377419E-01
        -11   -1    0    0    0    0  0.00000000000E+00  0.00000000000E+00  0.50000000000E+03  0.50000000000E+03  0.00000000000E+00 0. -1.
         11   -1    0    0    0    0 -0.00000000000E+00 -0.00000000000E+00 -0.50000000000E+03  0.50000000000E+03  0.00000000000E+00 0. -1.
        -11    1    1    2    0    0  0.74779526442E+01  0.25162381727E+01  0.39822773059E+03  0.39830588326E+03  0.00000000000E+00 0. -1.
         11    1    1    2    0    0 -0.89528589948E+01  0.64579724217E+01 -0.48974321285E+03  0.48986760826E+03  0.00000000000E+00 0. -1.
        -15    1    1    2    0    0 -0.19354393940E+02 -0.22469997321E+02  0.78095033565E+02  0.83555283142E+02  0.17770000000E+01 0. -1.
         15    1    1    2    0    0  0.20829300291E+02  0.13495786727E+02  0.13420448688E+02  0.28271225335E+02  0.17770000000E+01 0.  1.
</event>
<event>
 6    1  0.1599106E-003  0.4887176E+03  0.7546771E-02  0.9425415E-01
        -11   -1    0    0    0    0  0.00000000000E+00  0.00000000000E+00  0.50000000000E+03  0.50000000000E+03  0.00000000000E+00 0. -1.
         11   -1    0    0    0    0 -0.00000000000E+00 -0.00000000000E+00 -0.50000000000E+03  0.50000000000E+03  0.00000000000E+00 0. -1.
        -11    1    1    2    0    0  0.93660170793E+01  0.71603458384E+01  0.48801262226E+03  0.48815500849E+03  0.00000000000E+00 0. -1.
         11    1    1    2    0    0 -0.67440432095E+01 -0.62419477053E+01 -0.48919858927E+03  0.48928489019E+03  0.00000000000E+00 0. -1.
        -15    1    1    2    0    0 -0.46877183012E+01 -0.61552795681E+01  0.94893571630E+01  0.12372057137E+02  0.17770000000E+01 0.  1.
         15    1    1    2    0    0  0.20657444313E+01  0.52368814350E+01 -0.83033901522E+01  0.10188044181E+02  0.17770000000E+01 0. -1.
</event>
<event>
 6    1  0.1599106E-003  0.5099772E+03  0.7546771E-02  0.9377758E-01
        -11   -1    0    0    0    0  0.00000000000E+00  0.00000000000E+00  0.50000000000E+03  0.50000000000E+03  0.00000000000E+00 0.  1.
         11   -1    0    0    0    0 -0.00000000000E+00 -0.00000000000E+00 -0.50000000000E+03  0.50000000000E+03  0.00000000000E+00 0.  1.
        -11    1    1    2    0    0  0.68980234549E+01  0.17176090486E+00  0.40457474190E+03  0.40463357994E+03  0.00000000000E+00 0.  1.
         11    1    1    2    0    0  0.10161173093E+02  0.13337441900E+02 -0.48973582549E+03  0.49002277045E+03  0.00000000000E+00 0.  1.
        -15    1    1    2    0    0 -0.26176891356E+02 -0.27737536153E+02  0.32935446899E+02  0.50423228222E+02  0.17770000000E+01 0.  1.
         15    1    1    2    0    0  0.91176948078E+01  0.14228333348E+02  0.52225636693E+02  0.54920421388E+02  0.17770000000E+01 0.  1.
</event>
<event>
 6    1  0.1599106E-003  0.5026759E+03  0.7546771E-02  0.9393842E-01
        -11   -1    0    0    0    0  0.00000000000E+00  0.00000000000E+00  0.50000000000E+03  0.50000000000E+03  0.00000000000E+00 0. -1.
         11   -1    0    0    0    0 -0.00000000000E+00 -0.00000000000E+00 -0.50000000000E+03  0.50000000000E+03  0.00000000000E+00 0.  1.
        -11    1    1    2    0    0  0.41016840746E+01  0.53329148978E+01  0.49727854385E+03  0.49732405327E+03  0.00000000000E+00 0. -1.
         11    1    1    2    0    0  0.56418026795E+01 -0.61550602698E+01 -0.47326273274E+03  0.47333638029E+03  0.00000000000E+00 0.  1.
        -15    1    1    2    0    0 -0.10426576085E+02 -0.67105345542E+00 -0.24655589626E+02  0.26836907989E+02  0.17770000000E+01 0. -1.
         15    1    1    2    0    0  0.68308933109E+00  0.14931988273E+01  0.63977851676E+00  0.25026584511E+01  0.17770000000E+01 0.  1.
</event>
<event>
 6    1  0.1599106E-003  0.5016491E+03  0.7546771E-02  0.9396127E-01
        -11   -1    0    0    0    0  0.00000000000E+00  0.00000000000E+00  0.50000000000E+03  0.50000000000E+03  0.00000000000E+00 0. -1.
         11   -1    0    0    0    0 -0.00000000000E+00 -0.00000000000E+00 -0.50000000000E+03  0.50000000000E+03  0.00000000000E+00 0.  1.
        -11    1    1    2    0    0 -0.99869374218E+01 -0.27048489908E+00  0.23868453413E+03  0.23889353050E+03  0.00000000000E+00 0. -1.
         11    1    1    2    0    0  0.94217554127E+01  0.77872831826E+01 -0.49820094498E+03  0.49835087322E+03  0.00000000000E+00 0.  1.
        -15    1    1    2    0    0  0.12531321483E+02 -0.19989878323E+02  0.15835318180E+03  0.16011095269E+03  0.17770000000E+01 0. -1.
         15    1    1    2    0    0 -0.11966139474E+02  0.12473080039E+02  0.10116322905E+03  0.10264464360E+03  0.17770000000E+01 0.  1.
</event>
<event>
 6    1  0.1599106E-003  0.5024424E+03  0.7546771E-02  0.9394361E-01
        -11   -1    0    0    0    0  0.00000000000E+00  0.00000000000E+00  0.50000000000E+03  0.50000000000E+03  0.00000000000E+00 0. -1.
         11   -1    0    0    0    0 -0.00000000000E+00 -0.00000000000E+00 -0.50000000000E+03  0.50000000000E+03  0.00000000000E+00 0. -1.
        -11    1    1    2    0    0 -0.64012389417E+01  0.13832969030E+01  0.44045943415E+03  0.44050811855E+03  0.00000000000E+00 0. -1.
         11    1    1    2    0    0  0.61792410369E+01  0.84898661677E+01 -0.49744679049E+03  0.49755760493E+03  0.00000000000E+00 0. -1.
        -15    1    1    2    0    0  0.50501453923E+01 -0.11566491372E+00  0.46187354479E+02  0.46496739559E+02  0.17770000000E+01 0.  1.
         15    1    1    2    0    0 -0.48281474875E+01 -0.97574981570E+01  0.10800001863E+02  0.15437536969E+02  0.17770000000E+01 0. -1.
</event>
<event>
 6    1  0.1599106E-003  0.5074298E+03  0.7546771E-02  0.9383337E-01
        -11   -1    0    0    0    0  0.00000000000E+00  0.00000000000E+00  0.50000000000E+03  0.50000000000E+03  0.00000000000E+00 0. -1.
         11   -1    0    0    0    0 -0.00000000000E+00 -0.00000000000E+00 -0.50000000000E+03  0.50000000000E+03  0.00000000000E+00 0.  1.
        -11    1    1    2    0    0 -0.92021254214E+00 -0.54079643580E+00  0.36623505341E+02  0.36639055602E+02  0.00000000000E+00 0. -1.
         11    1    1    2    0    0  0.75169047201E+01  0.15754991156E+02 -0.49226079979E+03  0.49257021693E+03  0.00000000000E+00 0.  1.
        -15    1    1    2    0    0  0.14496178301E+02 -0.57426266213E+01  0.11749064471E+01  0.15737060716E+02  0.17770000000E+01 0.  1.
         15    1    1    2    0    0 -0.21092870478E+02 -0.94715680990E+01  0.45446238800E+03  0.45505366675E+03  0.17770000000E+01 0. -1.
</event>
<event>
 6    1  0.1599106E-003  0.5036798E+03  0.7546771E-02  0.9391613E-01
        -11   -1    0    0    0    0  0.00000000000E+00  0.00000000000E+00  0.50000000000E+03  0.50000000000E+03  0.00000000000E+00 0. -1.
         11   -1    0    0    0    0 -0.00000000000E+00 -0.00000000000E+00 -0.50000000000E+03  0.50000000000E+03  0.00000000000E+00 0. -1.
        -11    1    1    2    0    0 -0.14110461809E+02  0.17216919471E+02  0.49582076721E+03  0.49632021986E+03  0.00000000000E+00 0. -1.
         11    1    1    2    0    0 -0.31401970888E+01  0.48640436912E+01 -0.40871675433E+02  0.41279699750E+02  0.00000000000E+00 0. -1.
        -15    1    1    2    0    0  0.75268952850E+01 -0.47833233994E+01 -0.43164463068E+03  0.43174040726E+03  0.17770000000E+01 0. -1.
         15    1    1    2    0    0  0.97237636126E+01 -0.17297639763E+02 -0.23304461097E+02  0.30659673126E+02  0.17770000000E+01 0.  1.
</event>
<event>
 6    1  0.1599106E-003  0.5033679E+03  0.7546771E-02  0.9392305E-01
        -11   -1    0    0    0    0  0.00000000000E+00  0.00000000000E+00  0.50000000000E+03  0.50000000000E+03  0.00000000000E+00 0. -1.
         11   -1    0    0    0    0 -0.00000000000E+00 -0.00000000000E+00 -0.50000000000E+03  0.50000000000E+03  0.00000000000E+00 0.  1.
        -11    1    1    2    0    0  0.67950997053E+01  0.55422808127E+01  0.38760528917E+03  0.38770446276E+03  0.00000000000E+00 0. -1.
         11    1    1    2    0    0 -0.13772691952E+02  0.38649121913E+01 -0.49642602791E+03  0.49663208291E+03  0.00000000000E+00 0.  1.
        -15    1    1    2    0    0 -0.14272054637E+02  0.54747561091E+00  0.56316234551E+02  0.58126304511E+02  0.17770000000E+01 0. -1.
         15    1    1    2    0    0  0.21249646884E+02 -0.99546686149E+01  0.52504504189E+02  0.57537149817E+02  0.17770000000E+01 0.  1.
</event>
<event>
 6    1  0.1599106E-003  0.5045560E+03  0.7546771E-02  0.9389673E-01
        -11   -1    0    0    0    0  0.00000000000E+00  0.00000000000E+00  0.50000000000E+03  0.50000000000E+03  0.00000000000E+00 0. -1.
         11   -1    0    0    0    0 -0.00000000000E+00 -0.00000000000E+00 -0.50000000000E+03  0.50000000000E+03  0.00000000000E+00 0.  1.
        -11    1    1    2    0    0  0.13486038131E+01 -0.15199561915E+02  0.49520893150E+03  0.49544397388E+03  0.00000000000E+00 0. -1.
         11    1    1    2    0    0 -0.19967642975E+02  0.21750806410E+02 -0.36744833228E+03  0.36863271862E+03  0.00000000000E+00 0.  1.
        -15    1    1    2    0    0  0.20836551523E+02 -0.19289019273E+02 -0.11150394752E+03  0.11507613212E+03  0.17770000000E+01 0. -1.
         15    1    1    2    0    0 -0.22175123615E+01  0.12737774778E+02 -0.16256651707E+02  0.20847175375E+02  0.17770000000E+01 0.  1.
</event>
<event>
 6    1  0.1599106E-003  0.5015718E+03  0.7546771E-02  0.9396300E-01
        -11   -1    0    0    0    0  0.00000000000E+00  0.00000000000E+00  0.50000000000E+03  0.50000000000E+03  0.00000000000E+00 0. -1.
         11   -1    0    0    0    0 -0.00000000000E+00 -0.00000000000E+00 -0.50000000000E+03  0.50000000000E+03  0.00000000000E+00 0.  1.
        -11    1    1    2    0    0  0.26958295509E+02 -0.16001432156E+02  0.49744136523E+03  0.49842823693E+03  0.00000000000E+00 0. -1.
         11    1    1    2    0    0 -0.11178152964E+02  0.39935972403E+01 -0.28292425061E+03  0.28317314758E+03  0.00000000000E+00 0.  1.
        -15    1    1    2    0    0  0.68751542426E+01  0.99354743421E+01 -0.28763879090E+02  0.31248997833E+02  0.17770000000E+01 0. -1.
         15    1    1    2    0    0 -0.22655296788E+02  0.20723605737E+01 -0.18575323553E+03  0.18714961766E+03  0.17770000000E+01 0.  1.
</event>
<event>
 6    1  0.1599106E-003  0.5225588E+03  0.7546771E-02  0.9350701E-01
        -11   -1    0    0    0    0  0.00000000000E+00  0.00000000000E+00  0.50000000000E+03  0.50000000000E+03  0.00000000000E+00 0.  1.
         11   -1    0    0    0    0 -0.00000000000E+00 -0.00000000000E+00 -0.50000000000E+03  0.50000000000E+03  0.00000000000E+00 0. -1.
        -11    1    1    2    0    0  0.15793445794E+02 -0.20495124588E+02  0.47673957040E+03  0.47744120167E+03  0.00000000000E+00 0.  1.
         11    1    1    2    0    0 -0.36586088100E+01 -0.51631699502E+01 -0.45696151946E+03  0.45700533258E+03  0.00000000000E+00 0. -1.
        -15    1    1    2    0    0 -0.30973140892E+02  0.25749472105E+02 -0.22912285354E+02  0.46373498030E+02  0.17770000000E+01 0. -1.
         15    1    1    2    0    0  0.18838303908E+02 -0.91177566618E-01  0.31342344069E+01  0.19179967722E+02  0.17770000000E+01 0.  1.
</event>
<event>
 6    1  0.1599106E-003  0.5115424E+03  0.7546771E-02  0.9374347E-01
        -11   -1    0    0    0    0  0.00000000000E+00  0.00000000000E+00  0.50000000000E+03  0.50000000000E+03  0.00000000000E+00 0. -1.
         11   -1    0    0    0    0 -0.00000000000E+00 -0.00000000000E+00 -0.50000000000E+03  0.50000000000E+03  0.00000000000E+00 0. -1.
        -11    1    1    2    0    0 -0.19033244523E+02 -0.12706112404E+02  0.45343316163E+03  0.45401028816E+03  0.00000000000E+00 0. -1.
         11    1    1    2    0    0  0.11656088340E+01  0.11375867906E+02 -0.48832371161E+03  0.48845758909E+03  0.00000000000E+00 0. -1.
        -15    1    1    2    0    0 -0.11127925749E+02 -0.87631474824E+01  0.15989444909E+02  0.21434634655E+02  0.17770000000E+01 0.  1.
         15    1    1    2    0    0  0.28995561438E+02  0.10093391980E+02  0.18901105072E+02  0.36097488094E+02  0.17770000000E+01 0. -1.
</event>
<event>
 6    1  0.1599106E-003  0.5006809E+03  0.7546771E-02  0.9398287E-01
        -11   -1    0    0    0    0  0.00000000000E+00  0.00000000000E+00  0.50000000000E+03  0.50000000000E+03  0.00000000000E+00 0. -1.
         11   -1    0    0    0    0 -0.00000000000E+00 -0.00000000000E+00 -0.50000000000E+03  0.50000000000E+03  0.00000000000E+00 0. -1.
        -11    1    1    2    0    0  0.62657209830E+01  0.81741034453E+01  0.49921284819E+03  0.49931907938E+03  0.00000000000E+00 0. -1.
         11    1    1    2    0    0  0.56483872367E+01  0.37225068817E+01 -0.52830074475E+02  0.53261412908E+02  0.00000000000E+00 0. -1.
        -15    1    1    2    0    0  0.33877485634E+01 -0.14341657392E+02 -0.21723521784E+03  0.21774172217E+03  0.17770000000E+01 0. -1.
         15    1    1    2    0    0 -0.15301856783E+02  0.24450470648E+01 -0.22914755588E+03  0.22967778554E+03  0.17770000000E+01 0.  1.
</event>
<event>
 6    1  0.1599106E-003  0.5016831E+03  0.7546771E-02  0.9396051E-01
        -11   -1    0    0    0    0  0.00000000000E+00  0.00000000000E+00  0.50000000000E+03  0.50000000000E+03  0.00000000000E+00 0. -1.
         11   -1    0    0    0    0 -0.00000000000E+00 -0.00000000000E+00 -0.50000000000E+03  0.50000000000E+03  0.00000000000E+00 0.  1.
        -11    1    1    2    0    0  0.11632893701E+02  0.63201468020E+01  0.43582816146E+03  0.43602919030E+03  0.00000000000E+00 0. -1.
         11    1    1    2    0    0 -0.48955433322E+01 -0.67818487176E+01 -0.49824668969E+03  0.49831689075E+03  0.00000000000E+00 0.  1.
        -15    1    1    2    0    0  0.49838677478E+01  0.13095129940E-01  0.59923847666E+01  0.79940924064E+01  0.17770000000E+01 0. -1.
         15    1    1    2    0    0 -0.11721218116E+02  0.44860678569E+00  0.56426143463E+02  0.57659826546E+02  0.17770000000E+01 0.  1.
</event>
<event>
 6    1  0.1599106E-003  0.5038979E+03  0.7546771E-02  0.9391130E-01
        -11   -1    0    0    0    0  0.00000000000E+00  0.00000000000E+00  0.50000000000E+03  0.50000000000E+03  0.00000000000E+00 0.  1.
         11   -1    0    0    0    0 -0.00000000000E+00 -0.00000000000E+00 -0.50000000000E+03  0.50000000000E+03  0.00000000000E+00 0.  1.
        -11    1    1    2    0    0 -0.40317044344E+02  0.17065559237E+02  0.49416655551E+03  0.49610208824E+03  0.00000000000E+00 0.  1.
         11    1    1    2    0    0  0.85239527142E+01 -0.10836975447E+02 -0.26836748288E+03  0.26872142392E+03  0.00000000000E+00 0.  1.
        -15    1    1    2    0    0  0.10052974366E+02 -0.14471401648E+02 -0.15340765880E+02  0.23430334740E+02  0.17770000000E+01 0. -1.
         15    1    1    2    0    0  0.21740117264E+02  0.82428178593E+01 -0.21045830675E+03  0.21174615310E+03  0.17770000000E+01 0.  1.
</event>
<event>
 6    1  0.1599106E-003  0.5260314E+03  0.7546771E-02  0.9343375E-01
        -11   -1    0    0    0    0  0.00000000000E+00  0.00000000000E+00  0.50000000000E+03  0.50000000000E+03  0.00000000000E+00 0. -1.
         11   -1    0    0    0    0 -0.00000000000E+00 -0.00000000000E+00 -0.50000000000E+03  0.50000000000E+03  0.00000000000E+00 0. -1.
        -11    1    1    2    0    0  0.68069231797E+01  0.25185108216E+02  0.17174564763E+03  0.17371583508E+03  0.00000000000E+00 0. -1.
         11    1    1    2    0    0  0.11573590513E+02 -0.18859735291E+01 -0.47382351742E+03  0.47396859659E+03  0.00000000000E+00 0. -1.
        -15    1    1    2    0    0 -0.30998500132E+02 -0.41545819995E+01 -0.14770496444E+02  0.34633695388E+02  0.17770000000E+01 0.  1.
         15    1    1    2    0    0  0.12617986439E+02 -0.19144552688E+02  0.31684836624E+03  0.31768187294E+03  0.17770000000E+01 0. -1.
</event>
<event>
 6    1  0.1599106E-003  0.5532606E+03  0.7546771E-02  0.9287937E-01
        -11   -1    0    0    0    0  0.00000000000E+00  0.00000000000E+00  0.50000000000E+03  0.50000000000E+03  0.00000000000E+00 0. -1.
         11   -1    0    0    0    0 -0.00000000000E+00 -0.00000000000E+00 -0.50000000000E+03  0.50000000000E+03  0.00000000000E+00 0. -1.
        -11    1    1    2    0    0 -0.27687958917E+02 -0.38252925298E+01  0.30756848320E+03  0.30883592374E+03  0.00000000000E+00 0. -1.
         11    1    1    2    0    0 -0.78522378014E+01 -0.82692468094E+01 -0.44659386058E+03  0.44673942560E+03  0.00000000000E+00 0. -1.
        -15    1    1    2    0    0  0.72270941880E+01  0.12723895622E+02 -0.50592074708E+02  0.52695769873E+02  0.17770000000E+01 0.  1.
         15    1    1    2    0    0  0.28313102530E+02 -0.62935628295E+00  0.18961745209E+03  0.19172888079E+03  0.17770000000E+01 0. -1.
</event>
<event>
 6    1  0.1599106E-003  0.5015217E+03  0.7546771E-02  0.9396411E-01
        -11   -1    0    0    0    0  0.00000000000E+00  0.00000000000E+00  0.50000000000E+03  0.50000000000E+03  0.00000000000E+00 0. -1.
         11   -1    0    0    0    0 -0.00000000000E+00 -0.00000000000E+00 -0.50000000000E+03  0.50000000000E+03  0.00000000000E+00 0. -1.
        -11    1    1    2    0    0  0.10518830030E+02 -0.53302438068E+01  0.49833884650E+03  0.49847834779E+03  0.00000000000E+00 0. -1.
         11    1    1    2    0    0 -0.11631817764E+02 -0.67809435224E+01 -0.40006318283E+03  0.40028968340E+03  0.00000000000E+00 0. -1.
        -15    1    1    2    0    0 -0.26937968898E+00  0.23770714863E+01 -0.82531233096E+02  0.82585018009E+02  0.17770000000E+01 0. -1.
         15    1    1    2    0    0  0.13823674235E+01  0.97341158429E+01 -0.15744430574E+02  0.18646950797E+02  0.17770000000E+01 0.  1.
</event>
<event>
 6    1  0.1599106E-003  0.5008602E+03  0.7546771E-02  0.9397887E-01
        -11   -1    0    0    0    0  0.00000000000E+00  0.00000000000E+00  0.50000000000E+03  0.50000000000E+03  0.00000000000E+00 0.  1.
         11   -1    0    0    0    0 -0.00000000000E+00 -0.00000000000E+00 -0.50000000000E+03  0.50000000000E+03  0.00000000000E+00 0. -1.
        -11    1    1    2    0    0 -0.10899955899E+02 -0.26930712148E+01  0.49901347331E+03  0.49913976822E+03  0.00000000000E+00 0.  1.
         11    1    1    2    0    0 -0.10426384689E+01  0.73199645587E+01 -0.32544705994E+03  0.32553103969E+03  0.00000000000E+00 0. -1.
        -15    1    1    2    0    0  0.90223299295E+01 -0.13369798042E+01 -0.24745876737E+02  0.26433049329E+02  0.17770000000E+01 0. -1.
         15    1    1    2    0    0  0.29202644382E+01 -0.32899135397E+01 -0.14882053664E+03  0.14889614276E+03  0.17770000000E+01 0.  1.
</event>
<event>
 6    1  0.1599106E-003  0.5029140E+03  0.7546771E-02  0.9393313E-01
        -11   -1    0    0    0    0  0.00000000000E+00  0.00000000000E+00  0.50000000000E+03  0.50000000000E+03  0.00000000000E+00 0. -1.
         11   -1    0    0    0    0 -0.00000000000E+00 -0.00000000000E+00 -0.50000000000E+03  0.50000000000E+03  0.00000000000E+00 0.  1.
        -11    1    1    2    0    0  0.77144040951E+01  0.15576433591E+01  0.18767093152E+03  0.18783587736E+03  0.00000000000E+00 0. -1.
         11    1    1    2    0    0 -0.84892775581E+01  0.92354041051E+01 -0.49692770993E+03  0.49708601813E+03  0.00000000000E+00 0.  1.
        -15    1    1    2    0    0  0.48197344738E+01 -0.15482270735E+02  0.20265279372E+02  0.26014800106E+02  0.17770000000E+01 0.  1.
         15    1    1    2    0    0 -0.40448610108E+01  0.46892232704E+01  0.28899149903E+03  0.28906330441E+03  0.17770000000E+01 0. -1.
</event>
<event>
 6    1  0.1599106E-003  0.5002913E+03  0.7546771E-02  0.9399158E-01
        -11   -1    0    0    0    0  0.00000000000E+00  0.00000000000E+00  0.50000000000E+03  0.50000000000E+03  0.00000000000E+00 0. -1.
         11   -1    0    0    0    0 -0.00000000000E+00 -0.00000000000E+00 -0.50000000000E+03  0.50000000000E+03  0.00000000000E+00 0.  1.
        -11    1    1    2    0    0 -0.15794678366E+01  0.60797908135E+01  0.37611623275E+03  0.37616868439E+03  0.00000000000E+00 0. -1.
         11    1    1    2    0    0 -0.50563568612E+01 -0.66750398408E+01 -0.49963849204E+03  0.49970866075E+03  0.00000000000E+00 0.  1.
        -15    1    1    2    0    0  0.43806879057E+01  0.49875493061E+01  0.76716234740E+02  0.77023402134E+02  0.17770000000E+01 0. -1.
         15    1    1    2    0    0  0.22551367920E+01 -0.43923002788E+01  0.46806024549E+02  0.47099252720E+02  0.17770000000E+01 0.  1.
</event>
<event>
 6    1  0.1599106E-003  0.5051334E+03  0.7546771E-02  0.9388396E-01
        -11   -1    0    0    0    0  0.00000000000E+00  0.00000000000E+00  0.50000000000E+03  0.50000000000E+03  0.00000000000E+00 0.  1.
         11   -1    0    0    0    0 -0.00000000000E+00 -0.00000000000E+00 -0.50000000000E+03  0.50000000000E+03  0.00000000000E+00 0. -1.
        -11    1    1    2    0    0 -0.68445178317E+01 -0.11631604823E+01  0.49481793611E+03  0.49486663886E+03  0.00000000000E+00 0.  1.
         11    1    1    2    0    0  0.18035041026E+01  0.90133815549E+01 -0.44558561503E+03  0.44568041689E+03  0.00000000000E+00 0. -1.
        -15    1    1    2    0    0 -0.11150117551E+02  0.34042425238E+00 -0.33562917234E+02  0.35412824687E+02  0.17770000000E+01 0.  1.
         15    1    1    2    0    0  0.16191131280E+02 -0.81906453249E+01 -0.15669403843E+02  0.24040119566E+02  0.17770000000E+01 0. -1.
</event>
<event>
 6    1  0.1599106E-003  0.5030297E+03  0.7546771E-02  0.9393056E-01
        -11   -1    0    0    0    0  0.00000000000E+00  0.00000000000E+00  0.50000000000E+03  0.50000000000E+03  0.00000000000E+00 0. -1.
         11   -1    0    0    0    0 -0.00000000000E+00 -0.00000000000E+00 -0.50000000000E+03  0.50000000000E+03  0.00000000000E+00 0.  1.
        -11    1    1    2    0    0 -0.93231876834E+00 -0.65171652790E+01  0.45558096999E+03  0.45562853606E+03  0.00000000000E+00 0. -1.
         11    1    1    2    0    0 -0.90337971709E+01  0.64843717842E+01 -0.49684583669E+03  0.49697026270E+03  0.00000000000E+00 0.  1.
        -15    1    1    2    0    0  0.74631430491E+00 -0.52368148889E+01  0.93404378986E+00  0.56578601983E+01  0.17770000000E+01 0. -1.
         15    1    1    2    0    0  0.92198016343E+01  0.52696083837E+01  0.40330822917E+02  0.41743341036E+02  0.17770000000E+01 0.  1.
</event>
<event>
 6    1  0.1599106E-003  0.5167441E+03  0.7546771E-02  0.9363104E-01
        -11   -1    0    0    0    0  0.00000000000E+00  0.00000000000E+00  0.50000000000E+03  0.50000000000E+03  0.00000000000E+00 0. -1.
         11   -1    0    0    0    0 -0.00000000000E+00 -0.00000000000E+00 -0.50000000000E+03  0.50000000000E+03  0.00000000000E+00 0. -1.
        -11    1    1    2    0    0 -0.40341456934E+00  0.15444155048E+02  0.48300887449E+03  0.48325589237E+03  0.00000000000E+00 0. -1.
         11    1    1    2    0    0  0.45859491054E+01 -0.22523653096E+01 -0.34108930280E+03  0.34112756640E+03  0.00000000000E+00 0. -1.
        -15    1    1    2    0    0 -0.19155605918E+01 -0.12220356487E+02  0.14514501205E+02  0.19152936049E+02  0.17770000000E+01 0.  1.
         15    1    1    2    0    0 -0.22669739443E+01 -0.97143325153E+00 -0.15643407290E+03  0.15646360518E+03  0.17770000000E+01 0. -1.
</event>
<event>
 6    1  0.1599106E-003  0.5067061E+03  0.7546771E-02  0.9384928E-01
        -11   -1    0    0    0    0  0.00000000000E+00  0.00000000000E+00  0.50000000000E+03  0.50000000000E+03  0.00000000000E+00 0. -1.
         11   -1    0    0    0    0 -0.00000000000E+00 -0.00000000000E+00 -0.50000000000E+03  0.50000000000E+03  0.00000000000E+00 0.  1.
        -11    1    1    2    0    0  0.12002849041E+00 -0.20425394620E+01  0.11318804710E+03  0.11320653859E+03  0.00000000000E+00 0. -1.
         11    1    1    2    0    0 -0.26453813843E+02  0.22724232956E+01 -0.49257878281E+03  0.49329385305E+03  0.00000000000E+00 0.  1.
        -15    1    1    2    0    0 -0.28430218705E+01  0.90221079689E+01  0.35275272936E+03  0.35288401353E+03  0.17770000000E+01 0. -1.
         15    1    1    2    0    0  0.29176807223E+02 -0.92519918025E+01  0.26638006360E+02  0.40615594836E+02  0.17770000000E+01 0.  1.
</event>
<event>
 6    1  0.1599106E-003  0.5005839E+03  0.7546771E-02  0.9398504E-01
        -11   -1    0    0    0    0  0.00000000000E+00  0.00000000000E+00  0.50000000000E+03  0.50000000000E+03  0.00000000000E+00 0. -1.
         11   -1    0    0    0    0 -0.00000000000E+00 -0.00000000000E+00 -0.50000000000E+03  0.50000000000E+03  0.00000000000E+00 0. -1.
        -11    1    1    2    0    0  0.10280270215E+02  0.19324597404E+01  0.49930651471E+03  0.49941607302E+03  0.00000000000E+00 0. -1.
         11    1    1    2    0    0 -0.45985845062E+01  0.94873583399E+01 -0.32386664408E+03  0.32403820778E+03  0.00000000000E+00 0. -1.
        -15    1    1    2    0    0 -0.91337913549E+01 -0.12500020192E+02 -0.14653319891E+03  0.14735946784E+03  0.17770000000E+01 0. -1.
         15    1    1    2    0    0  0.34521056462E+01  0.10802021116E+01 -0.28906671719E+02  0.29186251367E+02  0.17770000000E+01 0.  1.
</event>
<event>
 6    1  0.1599106E-003  0.4731398E+03  0.7546771E-02  0.9462002E-01
        -11   -1    0    0    0    0  0.00000000000E+00  0.00000000000E+00  0.50000000000E+03  0.50000000000E+03  0.00000000000E+00 0. -1.
         11   -1    0    0    0    0 -0.00000000000E+00 -0.00000000000E+00 -0.50000000000E+03  0.50000000000E+03  0.00000000000E+00 0. -1.
        -11    1    1    2    0    0  0.16177585271E+02 -0.16975220997E+00  0.48093101533E+03  0.48120305962E+03  0.00000000000E+00 0. -1.
         11    1    1    2    0    0  0.11595844818E+02  0.21851813276E+02 -0.46520564910E+03  0.46586292116E+03  0.00000000000E+00 0. -1.
        -15    1    1    2    0    0 -0.25964304012E+00 -0.17610879634E+02 -0.17649690500E+02  0.24997595879E+02  0.17770000000E+01 0. -1.
         15    1    1    2    0    0 -0.27513787049E+02 -0.40711814323E+01  0.19243242719E+01  0.27936423338E+02  0.17770000000E+01 0.  1.
</event>
<event>
 6    1  0.1599106E-003  0.5084237E+03  0.7546771E-02  0.9381156E-01
        -11   -1    0    0    0    0  0.00000000000E+00  0.00000000000E+00  0.50000000000E+03  0.50000000000E+03  0.00000000000E+00 0. -1.
         11   -1    0    0    0    0 -0.00000000000E+00 -0.00000000000E+00 -0.50000000000E+03  0.50000000000E+03  0.00000000000E+00 0.  1.
        -11    1    1    2    0    0 -0.15387435382E+02 -0.69449185777E+01  0.49128628561E+03  0.49157626009E+03  0.00000000000E+00 0. -1.
         11    1    1    2    0    0 -0.17782280917E+02  0.13926929808E+02 -0.43958630909E+03  0.44016620955E+03  0.00000000000E+00 0.  1.
        -15    1    1    2    0    0  0.29548260919E+01  0.17146410187E+01 -0.29444966020E+02  0.29695702450E+02  0.17770000000E+01 0. -1.
         15    1    1    2    0    0  0.30214890207E+02 -0.86966522490E+01 -0.22255010493E+02  0.38561827908E+02  0.17770000000E+01 0.  1.
</event>
<event>
 6    1  0.1599106E-003  0.5022220E+03  0.7546771E-02  0.9394851E-01
        -11   -1    0    0    0    0  0.00000000000E+00  0.00000000000E+00  0.50000000000E+03  0.50000000000E+03  0.00000000000E+00 0.  1.
         11   -1    0    0    0    0 -0.00000000000E+00 -0.00000000000E+00 -0.50000000000E+03  0.50000000000E+03  0.00000000000E+00 0.  1.
        -11    1    1    2    0    0  0.15194931069E+02 -0.12429051348E+02  0.49739072687E+03  0.49777796498E+03  0.00000000000E+00 0.  1.
         11    1    1    2    0    0  0.37455742496E+01  0.80289872049E+01 -0.56572243890E+02  0.57261791281E+02  0.00000000000E+00 0.  1.
        -15    1    1    2    0    0 -0.14311779215E+02 -0.75721995506E+01 -0.42079097819E+03  0.42110612710E+03  0.17770000000E+01 0.  1.
         15    1    1    2    0    0 -0.46287261039E+01  0.11972263694E+02 -0.20027504791E+02  0.23854116635E+02  0.17770000000E+01 0. -1.
</event>
<event>
 6    1  0.1599106E-003  0.5254082E+03  0.7546771E-02  0.9344685E-01
        -11   -1    0    0    0    0  0.00000000000E+00  0.00000000000E+00  0.50000000000E+03  0.50000000000E+03  0.00000000000E+00 0.  1.
         11   -1    0    0    0    0 -0.00000000000E+00 -0.00000000000E+00 -0.50000000000E+03  0.50000000000E+03  0.00000000000E+00 0. -1.
        -11    1    1    2    0    0  0.20364386314E+01 -0.70993547661E+01  0.47453433575E+03  0.47459180747E+03  0.00000000000E+00 0.  1.
         11    1    1    2    0    0  0.97826471502E+00 -0.85029696493E+01 -0.27314363108E+03  0.27327769886E+03  0.00000000000E+00 0. -1.
        -15    1    1    2    0    0 -0.34161206267E+02 -0.52099260871E+01 -0.21067380461E+03  0.21349646606E+03  0.17770000000E+01 0. -1.
         15    1    1    2    0    0  0.31146502921E+02  0.20812250502E+02  0.92830999449E+01  0.38634027602E+02  0.17770000000E+01 0.  1.
</event>
<event>
 6    1  0.1599106E-003  0.4660204E+03  0.7546771E-02  0.9479226E-01
        -11   -1    0    0    0    0  0.00000000000E+00  0.00000000000E+00  0.50000000000E+03  0.50000000000E+03  0.00000000000E+00 0.  1.
         11   -1    0    0    0    0 -0.00000000000E+00 -0.00000000000E+00 -0.50000000000E+03  0.50000000000E+03  0.00000000000E+00 0. -1.
        -11    1    1    2    0    0 -0.78747492200E+01 -0.38137589993E+02  0.47374714141E+03  0.47534497098E+03  0.00000000000E+00 0.  1.
         11    1    1    2    0    0  0.75138938536E+01  0.11182133626E+01 -0.45750905087E+03  0.45757211522E+03  0.00000000000E+00 0. -1.
        -15    1    1    2    0    0  0.26627506698E+01 -0.58593882764E+01 -0.22664781662E+02  0.23627795684E+02  0.17770000000E+01 0. -1.
         15    1    1    2    0    0 -0.23018953034E+01  0.42878764907E+02  0.64266911246E+01  0.43455118108E+02  0.17770000000E+01 0.  1.
</event>
<event>
 6    1  0.1599106E-003  0.4765198E+03  0.7546771E-02  0.9453938E-01
        -11   -1    0    0    0    0  0.00000000000E+00  0.00000000000E+00  0.50000000000E+03  0.50000000000E+03  0.00000000000E+00 0. -1.
         11   -1    0    0    0    0 -0.00000000000E+00 -0.00000000000E+00 -0.50000000000E+03  0.50000000000E+03  0.00000000000E+00 0.  1.
        -11    1    1    2    0    0 -0.65465684163E+01 -0.97802991795E+01  0.47358637918E+03  0.47373259372E+03  0.00000000000E+00 0. -1.
         11    1    1    2    0    0  0.62364289163E+00 -0.11075195983E+02 -0.47944324552E+03  0.47957155313E+03  0.00000000000E+00 0.  1.
        -15    1    1    2    0    0  0.45396080271E+01  0.33145860978E+02  0.17687584811E+01  0.33549103961E+02  0.17770000000E+01 0. -1.
         15    1    1    2    0    0  0.13833174975E+01 -0.12290365816E+02  0.40881078588E+01  0.13146749182E+02  0.17770000000E+01 0.  1.
</event>
<event>
 6    1  0.1599106E-003  0.5042415E+03  0.7546771E-02  0.9390369E-01
        -11   -1    0    0    0    0  0.00000000000E+00  0.00000000000E+00  0.50000000000E+03  0.50000000000E+03  0.00000000000E+00 0.  1.
         11   -1    0    0    0    0 -0.00000000000E+00 -0.00000000000E+00 -0.50000000000E+03  0.50000000000E+03  0.00000000000E+00 0. -1.
        -11    1    1    2    0    0 -0.72010522261E+01 -0.73835770204E+01  0.41545133900E+03  0.41557933952E+03  0.00000000000E+00 0.  1.
         11    1    1    2    0    0  0.27815130218E+01 -0.65782328731E+01 -0.49570707400E+03  0.49575852305E+03  0.00000000000E+00 0. -1.
        -15    1    1    2    0    0 -0.39089376387E+00  0.36696997852E+01  0.76435572805E+02  0.76545241613E+02  0.17770000000E+01 0.  1.
         15    1    1    2    0    0  0.48104329681E+01  0.10292110108E+02  0.38201622007E+01  0.12116895810E+02  0.17770000000E+01 0. -1.
</event>
<event>
 6    1  0.1599106E-003  0.5017758E+03  0.7546771E-02  0.9395845E-01
        -11   -1    0    0    0    0  0.00000000000E+00  0.00000000000E+00  0.50000000000E+03  0.50000000000E+03  0.00000000000E+00 0.  1.
         11   -1    0    0    0    0 -0.00000000000E+00 -0.00000000000E+00 -0.50000000000E+03  0.50000000000E+03  0.00000000000E+00 0. -1.
        -11    1    1    2    0    0  0.81316771863E+00  0.67775812010E+01  0.49817740062E+03  0.49822416575E+03  0.00000000000E+00 0.  1.
         11    1    1    2    0    0 -0.64388870528E+01 -0.48727207575E+00 -0.44712876266E+03  0.44717538740E+03  0.00000000000E+00 0. -1.
        -15    1    1    2    0    0 -0.26223979311E+01  0.38307850065E+01 -0.67449534660E+01  0.83787833803E+01  0.17770000000E+01 0.  1.
         15    1    1    2    0    0  0.82481172653E+01 -0.10121094132E+02 -0.44303684498E+02  0.46221663470E+02  0.17770000000E+01 0.  1.
</event>
<event>
 6    1  0.1599106E-003  0.5006860E+03  0.7546771E-02  0.9398276E-01
        -11   -1    0    0    0    0  0.00000000000E+00  0.00000000000E+00  0.50000000000E+03  0.50000000000E+03  0.00000000000E+00 0.  1.
         11   -1    0    0    0    0 -0.00000000000E+00 -0.00000000000E+00 -0.50000000000E+03  0.50000000000E+03  0.00000000000E+00 0. -1.
        -11    1    1    2    0    0 -0.92491821183E+00  0.55244950187E+01  0.23587622136E+03  0.23594272043E+03  0.00000000000E+00 0.  1.
         11    1    1    2    0    0 -0.94185344579E+01  0.12602583340E+02 -0.49906609664E+03  0.49931403217E+03  0.00000000000E+00 0. -1.
        -15    1    1    2    0    0  0.56218823026E+01  0.99811258242E+00  0.12523002604E+03  0.12537272008E+03  0.17770000000E+01 0. -1.
         15    1    1    2    0    0  0.47215703671E+01 -0.19125190941E+02  0.13795984924E+03  0.13937052732E+03  0.17770000000E+01 0.  1.
</event>
<event>
 6    1  0.1599106E-003  0.5016399E+03  0.7546771E-02  0.9396148E-01
        -11   -1    0    0    0    0  0.00000000000E+00  0.00000000000E+00  0.50000000000E+03  0.50000000000E+03  0.00000000000E+00 0.  1.
         11   -1    0    0    0    0 -0.00000000000E+00 -0.00000000000E+00 -0.50000000000E+03  0.50000000000E+03  0.00000000000E+00 0.  1.
        -11    1    1    2    0    0 -0.61697190886E+01 -0.10433329965E+01  0.39824624607E+03  0.39829540103E+03  0.00000000000E+00 0.  1.
         11    1    1    2    0    0  0.13109070131E+02  0.10748723355E+02 -0.49807173623E+03  0.49836014809E+03  0.00000000000E+00 0.  1.
        -15    1    1    2    0    0 -0.14954339007E+02 -0.61572265799E+01  0.46263860319E+02  0.49041270323E+02  0.17770000000E+01 0. -1.
         15    1    1    2    0    0  0.80149879649E+01 -0.35481637785E+01  0.53561629842E+02  0.54303180557E+02  0.17770000000E+01 0.  1.
</event>
<event>
 6    1  0.1599106E-003  0.5020604E+03  0.7546771E-02  0.9395211E-01
        -11   -1    0    0    0    0  0.00000000000E+00  0.00000000000E+00  0.50000000000E+03  0.50000000000E+03  0.00000000000E+00 0. -1.
         11   -1    0    0    0    0 -0.00000000000E+00 -0.00000000000E+00 -0.50000000000E+03  0.50000000000E+03  0.00000000000E+00 0. -1.
        -11    1    1    2    0    0 -0.40939900394E+01  0.38757071041E+01  0.30996270620E+03  0.31001396920E+03  0.00000000000E+00 0. -1.
         11    1    1    2    0    0 -0.33065578126E+01 -0.10956768820E+02 -0.49780803159E+03  0.49793957507E+03  0.00000000000E+00 0. -1.
        -15    1    1    2    0    0 -0.14680368574E+02  0.45192949904E+01  0.10960113280E+03  0.11068650906E+03  0.17770000000E+01 0. -1.
         15    1    1    2    0    0  0.22080916426E+02  0.25617667254E+01  0.78244192591E+02  0.81359946671E+02  0.17770000000E+01 0.  1.
</event>
<event>
 6    1  0.1599106E-003  0.5040166E+03  0.7546771E-02  0.9390867E-01
        -11   -1    0    0    0    0  0.00000000000E+00  0.00000000000E+00  0.50000000000E+03  0.50000000000E+03  0.00000000000E+00 0.  1.
         11   -1    0    0    0    0 -0.00000000000E+00 -0.00000000000E+00 -0.50000000000E+03  0.50000000000E+03  0.00000000000E+00 0.  1.
        -11    1    1    2    0    0 -0.76050237818E+00 -0.12178371832E+02  0.36024735136E+03  0.36045394333E+03  0.00000000000E+00 0.  1.
         11    1    1    2    0    0  0.16881394074E+02 -0.35171490752E+01 -0.49568359099E+03  0.49598344144E+03  0.00000000000E+00 0.  1.
        -15    1    1    2    0    0 -0.19826470918E+02  0.17623056697E+02  0.13636236735E+03  0.13892988891E+03  0.17770000000E+01 0. -1.
         15    1    1    2    0    0  0.37055792220E+01 -0.19275357903E+01 -0.92612771324E+00  0.46327263177E+01  0.17770000000E+01 0.  1.
</event>
<event>
 6    1  0.1599106E-003  0.5142887E+03  0.7546771E-02  0.9368393E-01
        -11   -1    0    0    0    0  0.00000000000E+00  0.00000000000E+00  0.50000000000E+03  0.50000000000E+03  0.00000000000E+00 0.  1.
         11   -1    0    0    0    0 -0.00000000000E+00 -0.00000000000E+00 -0.50000000000E+03  0.50000000000E+03  0.00000000000E+00 0. -1.
        -11    1    1    2    0    0 -0.10748110753E+02  0.50971297221E+01  0.45775772889E+03  0.45791226340E+03  0.00000000000E+00 0.  1.
         11    1    1    2    0    0 -0.21979851648E+01  0.18173373043E+02 -0.48536622982E+03  0.48571131310E+03  0.00000000000E+00 0. -1.
        -15    1    1    2    0    0  0.19066193113E+01 -0.72851593711E+01 -0.10807144356E+02  0.13291382260E+02  0.17770000000E+01 0.  1.
         15    1    1    2    0    0  0.11039476607E+02 -0.15985343394E+02  0.38415645280E+02  0.43085041237E+02  0.17770000000E+01 0. -1.
</event>
<event>
 6    1  0.1599106E-003  0.5015273E+03  0.7546771E-02  0.9396399E-01
        -11   -1    0    0    0    0  0.00000000000E+00  0.00000000000E+00  0.50000000000E+03  0.50000000000E+03  0.00000000000E+00 0.  1.
         11   -1    0    0    0    0 -0.00000000000E+00 -0.00000000000E+00 -0.50000000000E+03  0.50000000000E+03  0.00000000000E+00 0.  1.
        -11    1    1    2    0    0 -0.10156048063E+02  0.57615853212E+01  0.49833595906E+03  0.49847273674E+03  0.00000000000E+00 0.  1.
         11    1    1    2    0    0 -0.62198403629E+01 -0.69104533561E+01 -0.39966597691E+03  0.39977410357E+03  0.00000000000E+00 0.  1.
        -15    1    1    2    0    0  0.66937644391E+01 -0.62139481024E+01 -0.69190454683E+02  0.69813296596E+02  0.17770000000E+01 0. -1.
         15    1    1    2    0    0  0.96821239863E+01  0.73628161373E+01 -0.29479527463E+02  0.31939863100E+02  0.17770000000E+01 0.  1.
</event>
<event>
 6    1  0.1599106E-003  0.5016595E+03  0.7546771E-02  0.9396104E-01
        -11   -1    0    0    0    0  0.00000000000E+00  0.00000000000E+00  0.50000000000E+03  0.50000000000E+03  0.00000000000E+00 0.  1.
         11   -1    0    0    0    0 -0.00000000000E+00 -0.00000000000E+00 -0.50000000000E+03  0.50000000000E+03  0.00000000000E+00 0. -1.
        -11    1    1    2    0    0 -0.44484232508E+01  0.17965840868E+02  0.49799664695E+03  0.49834046623E+03  0.00000000000E+00 0.  1.
         11    1    1    2    0    0  0.62510451038E+01  0.13815367525E+02 -0.29123355541E+03  0.29162805719E+03  0.00000000000E+00 0. -1.
        -15    1    1    2    0    0  0.46576667968E+01 -0.13402875339E+02 -0.48504814951E+02  0.50568821716E+02  0.17770000000E+01 0.  1.
         15    1    1    2    0    0 -0.64602886499E+01 -0.18378333054E+02 -0.15825827660E+03  0.15946265486E+03  0.17770000000E+01 0. -1.
</event>
<event>
 6    1  0.1599106E-003  0.5002552E+03  0.7546771E-02  0.9399239E-01
        -11   -1    0    0    0    0  0.00000000000E+00  0.00000000000E+00  0.50000000000E+03  0.50000000000E+03  0.00000000000E+00 0. -1.
         11   -1    0    0    0    0 -0.00000000000E+00 -0.00000000000E+00 -0.50000000000E+03  0.50000000000E+03  0.00000000000E+00 0.  1.
        -11    1    1    2    0    0  0.46454515827E+01 -0.12646796945E+01  0.30612100332E+03  0.30615886123E+03  0.00000000000E+00 0. -1.
         11    1    1    2    0    0 -0.13908681998E+02 -0.41560798786E+01 -0.49953392394E+03  0.49974480047E+03  0.00000000000E+00 0.  1.
        -15    1    1    2    0    0  0.90659672280E+01  0.53692383959E+00  0.16127805338E+03  0.16154333251E+03  0.17770000000E+01 0. -1.
         15    1    1    2    0    0  0.19726318776E+00  0.48838357335E+01  0.32134867236E+02  0.32553005783E+02  0.17770000000E+01 0.  1.
</event>
<event>
 6    1  0.1599106E-003  0.5059761E+03  0.7546771E-02  0.9386536E-01
        -11   -1    0    0    0    0  0.00000000000E+00  0.00000000000E+00  0.50000000000E+03  0.50000000000E+03  0.00000000000E+00 0.  1.
         11   -1    0    0    0    0 -0.00000000000E+00 -0.00000000000E+00 -0.50000000000E+03  0.50000000000E+03  0.00000000000E+00 0.  1.
        -11    1    1    2    0    0  0.37758505661E+01 -0.66604954615E+01  0.24713133769E+03  0.24724990863E+03  0.00000000000E+00 0.  1.
         11    1    1    2    0    0 -0.10503559839E+02  0.34969951602E+01 -0.49389981160E+03  0.49402386343E+03  0.00000000000E+00 0.  1.
        -15    1    1    2    0    0  0.44783753818E+01 -0.28585777646E+02  0.20022296638E+03  0.20231064362E+03  0.17770000000E+01 0.  1.
         15    1    1    2    0    0  0.22493338912E+01  0.31749277948E+02  0.46545507531E+02  0.56415584314E+02  0.17770000000E+01 0. -1.
</event>
<event>
 6    1  0.1599106E-003  0.5010149E+03  0.7546771E-02  0.9397542E-01
        -11   -1    0    0    0    0  0.00000000000E+00  0.00000000000E+00  0.50000000000E+03  0.50000000000E+03  0.00000000000E+00 0. -1.
         11   -1    0    0    0    0 -0.00000000000E+00 -0.00000000000E+00 -0.50000000000E+03  0.50000000000E+03  0.00000000000E+00 0. -1.
        -11    1    1    2    0    0  0.79178335961E+01 -0.87024396404E+00  0.49892156145E+03  0.49898514396E+03  0.00000000000E+00 0. -1.
         11    1    1    2    0    0  0.29042620917E+01 -0.85470117431E+01 -0.72713072003E+02  0.73271256220E+02  0.00000000000E+00 0. -1.
        -15    1    1    2    0    0  0.11793824461E+01  0.25886697664E+01 -0.36546616724E+01  0.49604873806E+01  0.17770000000E+01 0.  1.
         15    1    1    2    0    0 -0.12001478134E+02  0.68285859408E+01 -0.42255382778E+03  0.42278311244E+03  0.17770000000E+01 0. -1.
</event>
<event>
 6    1  0.1599106E-003  0.5084312E+03  0.7546771E-02  0.9381139E-01
        -11   -1    0    0    0    0  0.00000000000E+00  0.00000000000E+00  0.50000000000E+03  0.50000000000E+03  0.00000000000E+00 0. -1.
         11   -1    0    0    0    0 -0.00000000000E+00 -0.00000000000E+00 -0.50000000000E+03  0.50000000000E+03  0.00000000000E+00 0. -1.
        -11    1    1    2    0    0  0.30778577456E+01 -0.26661836125E+02  0.49083553017E+03  0.49156875856E+03  0.00000000000E+00 0. -1.
         11    1    1    2    0    0 -0.23245974201E+02  0.11849345136E+02 -0.44610856868E+03  0.44687094037E+03  0.00000000000E+00 0. -1.
        -15    1    1    2    0    0 -0.48600270289E+01  0.13054299805E+02 -0.57543349491E+01  0.15175793417E+02  0.17770000000E+01 0. -1.
         15    1    1    2    0    0  0.25028143484E+02  0.17581911836E+01 -0.38972626535E+02  0.46384507657E+02  0.17770000000E+01 0.  1.
</event>
<event>
 6    1  0.1599106E-003  0.5004495E+03  0.7546771E-02  0.9398805E-01
        -11   -1    0    0    0    0  0.00000000000E+00  0.00000000000E+00  0.50000000000E+03  0.50000000000E+03  0.00000000000E+00 0.  1.
         11   -1    0    0    0    0 -0.00000000000E+00 -0.00000000000E+00 -0.50000000000E+03  0.50000000000E+03  0.00000000000E+00 0.  1.
        -11    1    1    2    0    0  0.26405852631E+01  0.69251334717E+01  0.49949554817E+03  0.49955053078E+03  0.00000000000E+00 0.  1.
         11    1    1    2    0    0  0.75469617903E+01 -0.49498314943E+00 -0.36444094290E+03  0.36451941307E+03  0.00000000000E+00 0.  1.
        -15    1    1    2    0    0 -0.10170338032E+02 -0.71023963487E+01 -0.94015329690E+02  0.94846822589E+02  0.17770000000E+01 0.  1.
         15    1    1    2    0    0 -0.17209021264E-01  0.67224602646E+00 -0.41039275578E+02  0.41083233561E+02  0.17770000000E+01 0. -1.
</event>
<event>
 6    1  0.1599106E-003  0.5001382E+03  0.7546771E-02  0.9399500E-01
        -11   -1    0    0    0    0  0.00000000000E+00  0.00000000000E+00  0.50000000000E+03  0.50000000000E+03  0.00000000000E+00 0.  1.
         11   -1    0    0    0    0 -0.00000000000E+00 -0.00000000000E+00 -0.50000000000E+03  0.50000000000E+03  0.00000000000E+00 0. -1.
        -11    1    1    2    0    0  0.17202860875E+01 -0.33105401179E+00  0.69347485540E+02  0.69369609568E+02  0.00000000000E+00 0.  1.
         11    1    1    2    0    0  0.34159174642E+01  0.96513912970E+01 -0.49975689299E+03  0.49986175083E+03  0.00000000000E+00 0. -1.
        -15    1    1    2    0    0 -0.75360900996E+01 -0.44445108983E+01  0.36518405817E+03  0.36529317048E+03  0.17770000000E+01 0.  1.
         15    1    1    2    0    0  0.23998865479E+01 -0.48758263869E+01  0.65225349284E+02  0.65475469121E+02  0.17770000000E+01 0. -1.
</event>
<event>
 6    1  0.1599106E-003  0.5061907E+03  0.7546771E-02  0.9386063E-01
        -11   -1    0    0    0    0  0.00000000000E+00  0.00000000000E+00  0.50000000000E+03  0.50000000000E+03  0.00000000000E+00 0.  1.
         11   -1    0    0    0    0 -0.00000000000E+00 -0.00000000000E+00 -0.50000000000E+03  0.50000000000E+03  0.00000000000E+00 0.  1.
        -11    1    1    2    0    0  0.39615009831E+01 -0.13000207328E+02  0.46747362796E+03  0.46767113629E+03  0.00000000000E+00 0.  1.
         11    1    1    2    0    0 -0.57815262141E+01 -0.36944346424E+01 -0.49376162145E+03  0.49380928881E+03  0.00000000000E+00 0.  1.
        -15    1    1    2    0    0  0.67965264396E+01 -0.54126358770E-01  0.17548902087E+02  0.18902840918E+02  0.17770000000E+01 0. -1.
         15    1    1    2    0    0 -0.49765012086E+01  0.16748768330E+02  0.87390914081E+01  0.19616733991E+02  0.17770000000E+01 0.  1.
</event>
<event>
 6    1  0.1599106E-003  0.5021264E+03  0.7546771E-02  0.9395064E-01
        -11   -1    0    0    0    0  0.00000000000E+00  0.00000000000E+00  0.50000000000E+03  0.50000000000E+03  0.00000000000E+00 0.  1.
         11   -1    0    0    0    0 -0.00000000000E+00 -0.00000000000E+00 -0.50000000000E+03  0.50000000000E+03  0.00000000000E+00 0. -1.
        -11    1    1    2    0    0 -0.11255511013E+02  0.10065371049E+02  0.49764454189E+03  0.49787356658E+03  0.00000000000E+00 0.  1.
         11    1    1    2    0    0 -0.59628918745E+01 -0.61724465788E+00 -0.31253474911E+03  0.31259223675E+03  0.00000000000E+00 0. -1.
        -15    1    1    2    0    0 -0.11320659174E+01 -0.71218180601E+01 -0.62361003087E+01  0.96978627430E+01  0.17770000000E+01 0.  1.
         15    1    1    2    0    0  0.18350468805E+02 -0.23263083313E+01 -0.17887369247E+03  0.17983633393E+03  0.17770000000E+01 0. -1.
</event>
<event>
 6    1  0.1599106E-003  0.5044087E+03  0.7546771E-02  0.9389999E-01
        -11   -1    0    0    0    0  0.00000000000E+00  0.00000000000E+00  0.50000000000E+03  0.50000000000E+03  0.00000000000E+00 0.  1.
         11   -1    0    0    0    0 -0.00000000000E+00 -0.00000000000E+00 -0.50000000000E+03  0.50000000000E+03  0.00000000000E+00 0.  1.
        -11    1    1    2    0    0 -0.40783768738E+01 -0.16027294451E+02  0.37825620812E+03  0.37861757263E+03  0.00000000000E+00 0.  1.
         11    1    1    2    0    0 -0.13706457179E+02  0.17318307087E+02 -0.49509890849E+03  0.49559128314E+03  0.00000000000E+00 0.  1.
        -15    1    1    2    0    0  0.15016137369E+02 -0.94361982674E+01  0.11554460919E+03  0.11691125122E+03  0.17770000000E+01 0.  1.
         15    1    1    2    0    0  0.27686966838E+01  0.81451856313E+01  0.12980911887E+01  0.88798930190E+01  0.17770000000E+01 0. -1.
</event>
<event>
 6    1  0.1599106E-003  0.5168939E+03  0.7546771E-02  0.9362782E-01
        -11   -1    0    0    0    0  0.00000000000E+00  0.00000000000E+00  0.50000000000E+03  0.50000000000E+03  0.00000000000E+00 0.  1.
         11   -1    0    0    0    0 -0.00000000000E+00 -0.00000000000E+00 -0.50000000000E+03  0.50000000000E+03  0.00000000000E+00 0.  1.
        -11    1    1    2    0    0  0.69492406702E+01 -0.68169055074E+01  0.48300802765E+03  0.48310611352E+03  0.00000000000E+00 0.  1.
         11    1    1    2    0    0  0.65316960067E+01  0.22921355532E+01 -0.22025323022E+03  0.22036198030E+03  0.00000000000E+00 0.  1.
        -15    1    1    2    0    0 -0.41174251513E+02  0.26104772547E+01 -0.26539697986E+03  0.26859048425E+03  0.17770000000E+01 0.  1.
         15    1    1    2    0    0  0.27693314836E+02  0.19142926994E+01  0.26421824341E+01  0.27941421943E+02  0.17770000000E+01 0. -1.
</event>
<event>
 6    1  0.1599106E-003  0.5079381E+03  0.7546771E-02  0.9382221E-01
        -11   -1    0    0    0    0  0.00000000000E+00  0.00000000000E+00  0.50000000000E+03  0.50000000000E+03  0.00000000000E+00 0.  1.
         11   -1    0    0    0    0 -0.00000000000E+00 -0.00000000000E+00 -0.50000000000E+03  0.50000000000E+03  0.00000000000E+00 0. -1.
        -11    1    1    2    0    0  0.12917208444E+02  0.24869716333E+01  0.49188600359E+03  0.49206186586E+03  0.00000000000E+00 0.  1.
         11    1    1    2    0    0 -0.81647744728E+01  0.10399664230E+01 -0.46825943234E+03  0.46833176386E+03  0.00000000000E+00 0. -1.
        -15    1    1    2    0    0 -0.66821841206E+01  0.35936250518E+00  0.62721124215E+01  0.93422614639E+01  0.17770000000E+01 0. -1.
         15    1    1    2    0    0  0.19297501490E+01 -0.38863005616E+01 -0.29898683678E+02  0.30264108815E+02  0.17770000000E+01 0.  1.
</event>
<event>
 6    1  0.1599106E-003  0.5040949E+03  0.7546771E-02  0.9390693E-01
        -11   -1    0    0    0    0  0.00000000000E+00  0.00000000000E+00  0.50000000000E+03  0.50000000000E+03  0.00000000000E+00 0.  1.
         11   -1    0    0    0    0 -0.00000000000E+00 -0.00000000000E+00 -0.50000000000E+03  0.50000000000E+03  0.00000000000E+00 0. -1.
        -11    1    1    2    0    0  0.32826055422E+01  0.14284948239E+02  0.49568846000E+03  0.49590511655E+03  0.00000000000E+00 0.  1.
         11    1    1    2    0    0  0.50170888102E+01  0.68183851435E+01 -0.27039118316E+03  0.27052366529E+03  0.00000000000E+00 0. -1.
        -15    1    1    2    0    0  0.95584427447E+01 -0.36184061734E+02 -0.15518781030E+03  0.15964668599E+03  0.17770000000E+01 0. -1.
         15    1    1    2    0    0 -0.17858137097E+02  0.15080728351E+02 -0.70109466541E+02  0.73924532165E+02  0.17770000000E+01 0.  1.
</event>
<event>
 6    1  0.1599106E-003  0.5001836E+03  0.7546771E-02  0.9399399E-01
        -11   -1    0    0    0    0  0.00000000000E+00  0.00000000000E+00  0.50000000000E+03  0.50000000000E+03  0.00000000000E+00 0.  1.
         11   -1    0    0    0    0 -0.00000000000E+00 -0.00000000000E+00 -0.50000000000E+03  0.50000000000E+03  0.00000000000E+00 0. -1.
        -11    1    1    2    0    0 -0.92147069674E+00  0.68550297696E+00  0.38035966077E+02  0.38053301276E+02  0.00000000000E+00 0.  1.
         11    1    1    2    0    0  0.10832250144E+02 -0.57868353957E+01 -0.49966550258E+03  0.49981640586E+03  0.00000000000E+00 0. -1.
        -15    1    1    2    0    0  0.10158753787E+01 -0.34979105124E+01  0.25200768143E+03  0.25204026783E+03  0.17770000000E+01 0. -1.
         15    1    1    2    0    0 -0.10926654826E+02  0.85992429311E+01  0.20962185507E+03  0.21009002503E+03  0.17770000000E+01 0.  1.
</event>
<event>
 6    1  0.1599106E-003  0.4874181E+03  0.7546771E-02  0.9428411E-01
        -11   -1    0    0    0    0  0.00000000000E+00  0.00000000000E+00  0.50000000000E+03  0.50000000000E+03  0.00000000000E+00 0. -1.
         11   -1    0    0    0    0 -0.00000000000E+00 -0.00000000000E+00 -0.50000000000E+03  0.50000000000E+03  0.00000000000E+00 0.  1.
        -11    1    1    2    0    0 -0.10163986745E+02 -0.15351172301E+01  0.48599414155E+03  0.48610283772E+03  0.00000000000E+00 0. -1.
         11    1    1    2    0    0 -0.83287755503E+01 -0.95044955022E+01 -0.48881205547E+03  0.48897538743E+03  0.00000000000E+00 0.  1.
        -15    1    1    2    0    0  0.11435496721E+02  0.88572908066E+01 -0.35601822454E+01  0.15001826966E+02  0.17770000000E+01 0. -1.
         15    1    1    2    0    0  0.70572655742E+01  0.21823219257E+01  0.63780961652E+01  0.99199478862E+01  0.17770000000E+01 0.  1.
</event>
<event>
 6    1  0.1599106E-003  0.5056634E+03  0.7546771E-02  0.9387226E-01
        -11   -1    0    0    0    0  0.00000000000E+00  0.00000000000E+00  0.50000000000E+03  0.50000000000E+03  0.00000000000E+00 0. -1.
         11   -1    0    0    0    0 -0.00000000000E+00 -0.00000000000E+00 -0.50000000000E+03  0.50000000000E+03  0.00000000000E+00 0.  1.
        -11    1    1    2    0    0  0.64399827991E+01  0.69936936546E+01  0.45526349833E+03  0.45536275434E+03  0.00000000000E+00 0. -1.
         11    1    1    2    0    0  0.29234149046E+01 -0.20268691936E+02 -0.49391222741E+03  0.49433658029E+03  0.00000000000E+00 0.  1.
        -15    1    1    2    0    0 -0.48308675340E+01 -0.30383464007E+01  0.31114997658E+02  0.31683901879E+02  0.17770000000E+01 0. -1.
         15    1    1    2    0    0 -0.45325301696E+01  0.16313344682E+02  0.75337314260E+01  0.18616763485E+02  0.17770000000E+01 0.  1.
</event>
<event>
 6    1  0.1599106E-003  0.5056750E+03  0.7546771E-02  0.9387200E-01
        -11   -1    0    0    0    0  0.00000000000E+00  0.00000000000E+00  0.50000000000E+03  0.50000000000E+03  0.00000000000E+00 0.  1.
         11   -1    0    0    0    0 -0.00000000000E+00 -0.00000000000E+00 -0.50000000000E+03  0.50000000000E+03  0.00000000000E+00 0. -1.
        -11    1    1    2    0    0 -0.74829377855E+01 -0.15142991246E+01  0.49426607001E+03  0.49432503014E+03  0.00000000000E+00 0.  1.
         11    1    1    2    0    0  0.31376657988E+01  0.90076346589E+01 -0.48597859819E+03  0.48607219662E+03  0.00000000000E+00 0. -1.
        -15    1    1    2    0    0  0.90932995594E+01 -0.39212355187E+01 -0.11174722058E+01  0.10122779164E+02  0.17770000000E+01 0. -1.
         15    1    1    2    0    0 -0.47480275727E+01 -0.35721000156E+01 -0.71699996064E+01  0.94799940774E+01  0.17770000000E+01 0. -1.
</event>
<event>
 6    1  0.1599106E-003  0.5010605E+03  0.7546771E-02  0.9397440E-01
        -11   -1    0    0    0    0  0.00000000000E+00  0.00000000000E+00  0.50000000000E+03  0.50000000000E+03  0.00000000000E+00 0.  1.
         11   -1    0    0    0    0 -0.00000000000E+00 -0.00000000000E+00 -0.50000000000E+03  0.50000000000E+03  0.00000000000E+00 0. -1.
        -11    1    1    2    0    0  0.65016197407E+01 -0.61077368481E+01  0.36683783343E+03  0.36694627883E+03  0.00000000000E+00 0.  1.
         11    1    1    2    0    0 -0.39087868198E+01 -0.82433559644E+01 -0.49885605998E+03  0.49893947539E+03  0.00000000000E+00 0. -1.
        -15    1    1    2    0    0 -0.20505273741E+01  0.77761112589E+01  0.12005695161E+03  0.12033911221E+03  0.17770000000E+01 0.  1.
         15    1    1    2    0    0 -0.54230554682E+00  0.65749815536E+01  0.11961274937E+02  0.13775133570E+02  0.17770000000E+01 0. -1.
</event>
<event>
 6    1  0.1599106E-003  0.4859856E+03  0.7546771E-02  0.9431726E-01
        -11   -1    0    0    0    0  0.00000000000E+00  0.00000000000E+00  0.50000000000E+03  0.50000000000E+03  0.00000000000E+00 0.  1.
         11   -1    0    0    0    0 -0.00000000000E+00 -0.00000000000E+00 -0.50000000000E+03  0.50000000000E+03  0.00000000000E+00 0. -1.
        -11    1    1    2    0    0 -0.13017369008E+02  0.16443226771E+01  0.49213616337E+03  0.49231103887E+03  0.00000000000E+00 0.  1.
         11    1    1    2    0    0 -0.75724247503E+01  0.80988983212E+01 -0.47987622070E+03  0.48000429265E+03  0.00000000000E+00 0. -1.
        -15    1    1    2    0    0  0.14249942901E+01 -0.23140570211E+01  0.69883888534E+00  0.33213812505E+01  0.17770000000E+01 0.  1.
         15    1    1    2    0    0  0.19164799468E+02 -0.74291639772E+01 -0.12958781563E+02  0.24363287230E+02  0.17770000000E+01 0. -1.
</event>
<event>
 6    1  0.1599106E-003  0.5079171E+03  0.7546771E-02  0.9382267E-01
        -11   -1    0    0    0    0  0.00000000000E+00  0.00000000000E+00  0.50000000000E+03  0.50000000000E+03  0.00000000000E+00 0. -1.
         11   -1    0    0    0    0 -0.00000000000E+00 -0.00000000000E+00 -0.50000000000E+03  0.50000000000E+03  0.00000000000E+00 0. -1.
        -11    1    1    2    0    0 -0.23448655950E+02 -0.14759271955E+02  0.49130225928E+03  0.49208290515E+03  0.00000000000E+00 0. -1.
         11    1    1    2    0    0 -0.43086348359E+01 -0.11946126998E+01 -0.33066406132E+03  0.33069428916E+03  0.00000000000E+00 0. -1.
        -15    1    1    2    0    0  0.77638796445E+01 -0.56659981993E+00 -0.14818050299E+03  0.14839547856E+03  0.17770000000E+01 0.  1.
         15    1    1    2    0    0  0.19993411141E+02  0.16520484475E+02 -0.12457694971E+02  0.28827327128E+02  0.17770000000E+01 0.  1.
</event>
<event>
 6    1  0.1599106E-003  0.5023998E+03  0.7546771E-02  0.9394456E-01
        -11   -1    0    0    0    0  0.00000000000E+00  0.00000000000E+00  0.50000000000E+03  0.50000000000E+03  0.00000000000E+00 0.  1.
         11   -1    0    0    0    0 -0.00000000000E+00 -0.00000000000E+00 -0.50000000000E+03  0.50000000000E+03  0.00000000000E+00 0. -1.
        -11    1    1    2    0    0  0.16559501605E+02  0.50571679947E+01  0.49729888014E+03  0.49760020923E+03  0.00000000000E+00 0.  1.
         11    1    1    2    0    0  0.21711327595E+02 -0.72954706238E+01 -0.15657375907E+03  0.15824015820E+03  0.00000000000E+00 0. -1.
        -15    1    1    2    0    0 -0.11590784161E+02 -0.45070219151E+01 -0.34871778303E+02  0.37065592873E+02  0.17770000000E+01 0.  1.
         15    1    1    2    0    0 -0.26680045039E+02  0.67453245441E+01 -0.30585334276E+03  0.30709403969E+03  0.17770000000E+01 0. -1.
</event>
<event>
 6    1  0.2061894E-003  0.5334874E+03  0.7546771E-02  0.9327847E-01
        -11   -1    0    0    0    0  0.00000000000E+00  0.00000000000E+00  0.50000000000E+03  0.50000000000E+03  0.00000000000E+00 0. -1.
         11   -1    0    0    0    0 -0.00000000000E+00 -0.00000000000E+00 -0.50000000000E+03  0.50000000000E+03  0.00000000000E+00 0.  1.
        -11    1    1    2    0    0  0.11241991344E+02  0.11411996577E+01  0.41475682365E+03  0.41491072229E+03  0.00000000000E+00 0. -1.
         11    1    1    2    0    0  0.62774849295E+01  0.13529812168E+01 -0.46646839317E+03  0.46651259275E+03  0.00000000000E+00 0.  1.
        -15    1    1    2    0    0 -0.12056089729E+02  0.21099477269E-01  0.84408526007E+02  0.85283683882E+02  0.17770000000E+01 0.  1.
         15    1    1    2    0    0 -0.54633865446E+01 -0.25152803517E+01 -0.32696956491E+02  0.33293001074E+02  0.17770000000E+01 0. -1.
</event>
<event>
 6    1  0.1599106E-003  0.5002065E+03  0.7546771E-02  0.9399348E-01
        -11   -1    0    0    0    0  0.00000000000E+00  0.00000000000E+00  0.50000000000E+03  0.50000000000E+03  0.00000000000E+00 0.  1.
         11   -1    0    0    0    0 -0.00000000000E+00 -0.00000000000E+00 -0.50000000000E+03  0.50000000000E+03  0.00000000000E+00 0. -1.
        -11    1    1    2    0    0 -0.39553362856E+01  0.86759573354E+01  0.49970252647E+03  0.49979348924E+03  0.00000000000E+00 0.  1.
         11    1    1    2    0    0  0.51306750059E+01 -0.10989956349E+01 -0.29915115284E+03  0.29919716553E+03  0.00000000000E+00 0. -1.
        -15    1    1    2    0    0 -0.51911040802E+01 -0.69174173750E+01 -0.11242846282E+03  0.11277462128E+03  0.17770000000E+01 0. -1.
         15    1    1    2    0    0  0.40157653599E+01 -0.65954432545E+00 -0.88122910819E+02  0.88234723949E+02  0.17770000000E+01 0.  1.
</event>
<event>
 6    1  0.1599106E-003  0.4937545E+03  0.7546771E-02  0.9413894E-01
        -11   -1    0    0    0    0  0.00000000000E+00  0.00000000000E+00  0.50000000000E+03  0.50000000000E+03  0.00000000000E+00 0. -1.
         11   -1    0    0    0    0 -0.00000000000E+00 -0.00000000000E+00 -0.50000000000E+03  0.50000000000E+03  0.00000000000E+00 0. -1.
        -11    1    1    2    0    0 -0.57222855604E+01  0.46622268612E+01  0.49407214147E+03  0.49412727296E+03  0.00000000000E+00 0. -1.
         11    1    1    2    0    0  0.72851790111E+01 -0.14229837441E+01 -0.49333267989E+03  0.49338852010E+03  0.00000000000E+00 0. -1.
        -15    1    1    2    0    0  0.20721838278E+01 -0.65932080648E+01 -0.10819640896E+01  0.72175282260E+01  0.17770000000E+01 0.  1.
         15    1    1    2    0    0 -0.36350772786E+01  0.33539649477E+01  0.34250251055E+00  0.52666787126E+01  0.17770000000E+01 0. -1.
</event>
<event>
 6    1  0.1599106E-003  0.5125975E+03  0.7546771E-02  0.9372055E-01
        -11   -1    0    0    0    0  0.00000000000E+00  0.00000000000E+00  0.50000000000E+03  0.50000000000E+03  0.00000000000E+00 0.  1.
         11   -1    0    0    0    0 -0.00000000000E+00 -0.00000000000E+00 -0.50000000000E+03  0.50000000000E+03  0.00000000000E+00 0. -1.
        -11    1    1    2    0    0 -0.70471775987E+01  0.26348604713E+01  0.48320654807E+03  0.48326511699E+03  0.00000000000E+00 0.  1.
         11    1    1    2    0    0  0.80546572017E+01  0.26063391321E+01 -0.48732901388E+03  0.48740254233E+03  0.00000000000E+00 0. -1.
        -15    1    1    2    0    0 -0.66885820628E+01 -0.57368323914E+01 -0.10330338403E+02  0.13693867110E+02  0.17770000000E+01 0.  1.
         15    1    1    2    0    0  0.56811024598E+01  0.49563278803E+00  0.14452804205E+02  0.15638473563E+02  0.17770000000E+01 0. -1.
</event>
<event>
 6    1  0.1599106E-003  0.5089227E+03  0.7546771E-02  0.9380063E-01
        -11   -1    0    0    0    0  0.00000000000E+00  0.00000000000E+00  0.50000000000E+03  0.50000000000E+03  0.00000000000E+00 0. -1.
         11   -1    0    0    0    0 -0.00000000000E+00 -0.00000000000E+00 -0.50000000000E+03  0.50000000000E+03  0.00000000000E+00 0.  1.
        -11    1    1    2    0    0  0.77008735821E+01  0.20064122553E+02  0.43369604296E+03  0.43422820054E+03  0.00000000000E+00 0. -1.
         11    1    1    2    0    0  0.90099499542E+01  0.15285651170E+01 -0.49099225284E+03  0.49107729337E+03  0.00000000000E+00 0.  1.
        -15    1    1    2    0    0 -0.77651094046E+01 -0.11714087585E+02  0.59417734619E+02  0.61083072027E+02  0.17770000000E+01 0. -1.
         15    1    1    2    0    0 -0.89457141317E+01 -0.98786000851E+01 -0.21215247371E+01  0.13611434060E+02  0.17770000000E+01 0.  1.
</event>
<event>
 6    1  0.1599106E-003  0.5054010E+03  0.7546771E-02  0.9387805E-01
        -11   -1    0    0    0    0  0.00000000000E+00  0.00000000000E+00  0.50000000000E+03  0.50000000000E+03  0.00000000000E+00 0. -1.
         11   -1    0    0    0    0 -0.00000000000E+00 -0.00000000000E+00 -0.50000000000E+03  0.50000000000E+03  0.00000000000E+00 0.  1.
        -11    1    1    2    0    0 -0.15322590235E+02 -0.50032462431E+00  0.35467965222E+03  0.35501082771E+03  0.00000000000E+00 0. -1.
         11    1    1    2    0    0 -0.31569322129E+01  0.76787877044E+01 -0.49452933958E+03  0.49459902720E+03  0.00000000000E+00 0.  1.
        -15    1    1    2    0    0  0.10524182262E+01 -0.11502338246E+02  0.12859422034E+03  0.12912413641E+03  0.17770000000E+01 0. -1.
         15    1    1    2    0    0  0.17427104222E+02  0.43238751657E+01  0.11255467029E+02  0.21266008677E+02  0.17770000000E+01 0.  1.
</event>
<event>
 6    1  0.1599106E-003  0.5011947E+03  0.7546771E-02  0.9397141E-01
        -11   -1    0    0    0    0  0.00000000000E+00  0.00000000000E+00  0.50000000000E+03  0.50000000000E+03  0.00000000000E+00 0. -1.
         11   -1    0    0    0    0 -0.00000000000E+00 -0.00000000000E+00 -0.50000000000E+03  0.50000000000E+03  0.00000000000E+00 0. -1.
        -11    1    1    2    0    0 -0.10704894873E+01 -0.36122155679E+01  0.79174718820E+02  0.79264305644E+02  0.00000000000E+00 0. -1.
         11    1    1    2    0    0  0.78968825932E+01 -0.14369689743E+02 -0.49853576267E+03  0.49880532816E+03  0.00000000000E+00 0. -1.
        -15    1    1    2    0    0  0.47894062008E+01  0.18242352247E+02  0.38762522867E+03  0.38808787337E+03  0.17770000000E+01 0. -1.
         15    1    1    2    0    0 -0.11615799307E+02 -0.26044693645E+00  0.31735815185E+02  0.33842492825E+02  0.17770000000E+01 0.  1.
</event>
<event>
 6    1  0.1599106E-003  0.5057571E+03  0.7546771E-02  0.9387019E-01
        -11   -1    0    0    0    0  0.00000000000E+00  0.00000000000E+00  0.50000000000E+03  0.50000000000E+03  0.00000000000E+00 0.  1.
         11   -1    0    0    0    0 -0.00000000000E+00 -0.00000000000E+00 -0.50000000000E+03  0.50000000000E+03  0.00000000000E+00 0. -1.
        -11    1    1    2    0    0 -0.67493571046E+01  0.59128274015E+01  0.47246346179E+03  0.47254866213E+03  0.00000000000E+00 0.  1.
         11    1    1    2    0    0  0.79504748180E+01  0.19659637185E+01 -0.49417507889E+03  0.49424293992E+03  0.00000000000E+00 0. -1.
        -15    1    1    2    0    0 -0.53570299154E+01  0.41053351670E+01 -0.10821181793E+01  0.70625954933E+01  0.17770000000E+01 0. -1.
         15    1    1    2    0    0  0.41559122020E+01 -0.11984126287E+02  0.22793735283E+02  0.26145802459E+02  0.17770000000E+01 0.  1.
</event>
<event>
 6    1  0.1599106E-003  0.5001566E+03  0.7546771E-02  0.9399459E-01
        -11   -1    0    0    0    0  0.00000000000E+00  0.00000000000E+00  0.50000000000E+03  0.50000000000E+03  0.00000000000E+00 0. -1.
         11   -1    0    0    0    0 -0.00000000000E+00 -0.00000000000E+00 -0.50000000000E+03  0.50000000000E+03  0.00000000000E+00 0. -1.
        -11    1    1    2    0    0 -0.24695791774E+01  0.71314168632E+00  0.12918437421E+03  0.12920994518E+03  0.00000000000E+00 0. -1.
         11    1    1    2    0    0  0.87022026882E+01  0.13808617589E+01 -0.49976576168E+03  0.49984342714E+03  0.00000000000E+00 0. -1.
        -15    1    1    2    0    0 -0.13142314647E+01  0.51384900235E+01  0.23772013168E+03  0.23778593318E+03  0.17770000000E+01 0. -1.
         15    1    1    2    0    0 -0.49183920461E+01 -0.72324934688E+01  0.13286125579E+03  0.13316069450E+03  0.17770000000E+01 0.  1.
</event>
<event>
 6    1  0.1599106E-003  0.5080483E+03  0.7546771E-02  0.9381979E-01
        -11   -1    0    0    0    0  0.00000000000E+00  0.00000000000E+00  0.50000000000E+03  0.50000000000E+03  0.00000000000E+00 0. -1.
         11   -1    0    0    0    0 -0.00000000000E+00 -0.00000000000E+00 -0.50000000000E+03  0.50000000000E+03  0.00000000000E+00 0. -1.
        -11    1    1    2    0    0 -0.13316846512E+02 -0.15358473857E+01  0.49176903853E+03  0.49195170951E+03  0.00000000000E+00 0. -1.
         11    1    1    2    0    0  0.28548853060E+01 -0.14954109926E+02 -0.43365494688E+03  0.43392209983E+03  0.00000000000E+00 0. -1.
        -15    1    1    2    0    0 -0.26267859011E+01  0.11764201686E+02 -0.58830691486E+02  0.60079151419E+02  0.17770000000E+01 0. -1.
         15    1    1    2    0    0  0.13088747107E+02  0.47257556257E+01  0.71659982991E+00  0.14047039239E+02  0.17770000000E+01 0.  1.
</event>
<event>
 6    1  0.1599106E-003  0.5213882E+03  0.7546771E-02  0.9353184E-01
        -11   -1    0    0    0    0  0.00000000000E+00  0.00000000000E+00  0.50000000000E+03  0.50000000000E+03  0.00000000000E+00 0. -1.
         11   -1    0    0    0    0 -0.00000000000E+00 -0.00000000000E+00 -0.50000000000E+03  0.50000000000E+03  0.00000000000E+00 0. -1.
        -11    1    1    2    0    0 -0.15693705985E+02  0.77816642089E+01  0.47829109875E+03  0.47861176527E+03  0.00000000000E+00 0. -1.
         11    1    1    2    0    0 -0.22513030175E+02 -0.91740904218E+01 -0.14866031112E+03  0.15063495134E+03  0.00000000000E+00 0. -1.
        -15    1    1    2    0    0  0.18225050214E+02 -0.25800475910E+02  0.70226125307E+01  0.32408206187E+02  0.17770000000E+01 0.  1.
         15    1    1    2    0    0  0.19981685946E+02  0.27192902123E+02 -0.33665340016E+03  0.33834507721E+03  0.17770000000E+01 0. -1.
</event>
<event>
 6    1  0.1599106E-003  0.5160146E+03  0.7546771E-02  0.9364672E-01
        -11   -1    0    0    0    0  0.00000000000E+00  0.00000000000E+00  0.50000000000E+03  0.50000000000E+03  0.00000000000E+00 0.  1.
         11   -1    0    0    0    0 -0.00000000000E+00 -0.00000000000E+00 -0.50000000000E+03  0.50000000000E+03  0.00000000000E+00 0. -1.
        -11    1    1    2    0    0 -0.32429018182E+02  0.11060949508E+03  0.47005927511E+03  0.48398535488E+03  0.00000000000E+00 0.  1.
         11    1    1    2    0    0 -0.82458456039E+01  0.12857773224E+02 -0.11999901041E+03  0.12096726335E+03  0.00000000000E+00 0. -1.
        -15    1    1    2    0    0  0.25438246870E+02 -0.13953470530E+03 -0.21114195694E+03  0.25436415254E+03  0.17770000000E+01 0.  1.
         15    1    1    2    0    0  0.15236616916E+02  0.16067436991E+02 -0.13891830776E+03  0.14068322923E+03  0.17770000000E+01 0. -1.
</event>
<event>
 6    1  0.1599106E-003  0.5029072E+03  0.7546771E-02  0.9393328E-01
        -11   -1    0    0    0    0  0.00000000000E+00  0.00000000000E+00  0.50000000000E+03  0.50000000000E+03  0.00000000000E+00 0.  1.
         11   -1    0    0    0    0 -0.00000000000E+00 -0.00000000000E+00 -0.50000000000E+03  0.50000000000E+03  0.00000000000E+00 0. -1.
        -11    1    1    2    0    0 -0.73866127243E+01  0.20965132653E+01  0.49703349532E+03  0.49709280108E+03  0.00000000000E+00 0.  1.
         11    1    1    2    0    0 -0.27692616490E+01 -0.13349983884E+01 -0.15030057959E+03  0.15033201673E+03  0.00000000000E+00 0. -1.
        -15    1    1    2    0    0  0.18087539167E+02 -0.97384951228E+01 -0.35109042083E+02  0.40716089269E+02  0.17770000000E+01 0.  1.
         15    1    1    2    0    0 -0.79316647935E+01  0.89769802460E+01 -0.31162387365E+03  0.31185909292E+03  0.17770000000E+01 0. -1.
</event>
<event>
 6    1  0.1599106E-003  0.4722701E+03  0.7546771E-02  0.9464089E-01
        -11   -1    0    0    0    0  0.00000000000E+00  0.00000000000E+00  0.50000000000E+03  0.50000000000E+03  0.00000000000E+00 0. -1.
         11   -1    0    0    0    0 -0.00000000000E+00 -0.00000000000E+00 -0.50000000000E+03  0.50000000000E+03  0.00000000000E+00 0.  1.
        -11    1    1    2    0    0  0.45484704112E+01  0.58844814400E+01  0.47540677141E+03  0.47546494509E+03  0.00000000000E+00 0. -1.
         11    1    1    2    0    0 -0.22045886611E+01  0.15434297478E+02 -0.46908094120E+03  0.46933996969E+03  0.00000000000E+00 0.  1.
        -15    1    1    2    0    0 -0.16217435194E+02 -0.18082477246E+02 -0.22787374408E+02  0.33352711270E+02  0.17770000000E+01 0. -1.
         15    1    1    2    0    0  0.13873553444E+02 -0.32363016722E+01  0.16461544198E+02  0.21842373957E+02  0.17770000000E+01 0.  1.
</event>
<event>
 6    1  0.1599106E-003  0.5281633E+03  0.7546771E-02  0.9338907E-01
        -11   -1    0    0    0    0  0.00000000000E+00  0.00000000000E+00  0.50000000000E+03  0.50000000000E+03  0.00000000000E+00 0. -1.
         11   -1    0    0    0    0 -0.00000000000E+00 -0.00000000000E+00 -0.50000000000E+03  0.50000000000E+03  0.00000000000E+00 0. -1.
        -11    1    1    2    0    0 -0.31118739836E+01  0.11694509744E+02  0.37528220922E+03  0.37547727212E+03  0.00000000000E+00 0. -1.
         11    1    1    2    0    0 -0.24891597298E+02  0.55417514883E+00 -0.47117930979E+03  0.47183666739E+03  0.00000000000E+00 0. -1.
        -15    1    1    2    0    0 -0.40272316826E+02  0.10602343322E+02  0.14815181515E+02  0.44237049165E+02  0.17770000000E+01 0. -1.
         15    1    1    2    0    0  0.68275788107E+02 -0.22851028216E+02  0.81081919050E+02  0.10844901133E+03  0.17770000000E+01 0.  1.
</event>
<event>
 6    1  0.1599106E-003  0.5033819E+03  0.7546771E-02  0.9392274E-01
        -11   -1    0    0    0    0  0.00000000000E+00  0.00000000000E+00  0.50000000000E+03  0.50000000000E+03  0.00000000000E+00 0.  1.
         11   -1    0    0    0    0 -0.00000000000E+00 -0.00000000000E+00 -0.50000000000E+03  0.50000000000E+03  0.00000000000E+00 0.  1.
        -11    1    1    2    0    0 -0.20907153165E+01  0.67953833853E+01  0.46297508059E+03  0.46302966813E+03  0.00000000000E+00 0.  1.
         11    1    1    2    0    0 -0.61758716925E+01 -0.36936586898E+01 -0.49656598781E+03  0.49661812770E+03  0.00000000000E+00 0.  1.
        -15    1    1    2    0    0  0.56503593069E+01 -0.40018402869E+01  0.35724332885E+02  0.36432498886E+02  0.17770000000E+01 0. -1.
         15    1    1    2    0    0  0.26162277021E+01  0.90011559138E+00 -0.21334256579E+01  0.39197052829E+01  0.17770000000E+01 0.  1.
</event>
<event>
 6    1  0.1599106E-003  0.5035705E+03  0.7546771E-02  0.9391856E-01
        -11   -1    0    0    0    0  0.00000000000E+00  0.00000000000E+00  0.50000000000E+03  0.50000000000E+03  0.00000000000E+00 0. -1.
         11   -1    0    0    0    0 -0.00000000000E+00 -0.00000000000E+00 -0.50000000000E+03  0.50000000000E+03  0.00000000000E+00 0. -1.
        -11    1    1    2    0    0 -0.28118586453E+01 -0.56906690700E+01  0.33737507489E+03  0.33743478099E+03  0.00000000000E+00 0. -1.
         11    1    1    2    0    0 -0.62781995271E+01  0.44586956220E+01 -0.49636978190E+03  0.49642950772E+03  0.00000000000E+00 0. -1.
        -15    1    1    2    0    0  0.16296104293E+02  0.20493133285E+02  0.69453145031E+02  0.74245731262E+02  0.17770000000E+01 0. -1.
         15    1    1    2    0    0 -0.72060461207E+01 -0.19261159837E+02  0.89541561978E+02  0.91889980027E+02  0.17770000000E+01 0.  1.
</event>
<event>
 6    1  0.1599106E-003  0.4665916E+03  0.7546771E-02  0.9477832E-01
        -11   -1    0    0    0    0  0.00000000000E+00  0.00000000000E+00  0.50000000000E+03  0.50000000000E+03  0.00000000000E+00 0.  1.
         11   -1    0    0    0    0 -0.00000000000E+00 -0.00000000000E+00 -0.50000000000E+03  0.50000000000E+03  0.00000000000E+00 0.  1.
        -11    1    1    2    0    0 -0.10722708804E+02 -0.12671197539E+02  0.46514152469E+03  0.46543761529E+03  0.00000000000E+00 0.  1.
         11    1    1    2    0    0 -0.24176007459E+01 -0.78562274345E+01 -0.46799590510E+03  0.46806808510E+03  0.00000000000E+00 0.  1.
        -15    1    1    2    0    0  0.20986426591E+01 -0.16904536679E+02  0.17767101533E+02  0.24677829873E+02  0.17770000000E+01 0. -1.
         15    1    1    2    0    0  0.11041666891E+02  0.37431961653E+02 -0.14912721132E+02  0.41816469739E+02  0.17770000000E+01 0.  1.
</event>
<event>
 6    1  0.1599106E-003  0.5001506E+03  0.7546771E-02  0.9399473E-01
        -11   -1    0    0    0    0  0.00000000000E+00  0.00000000000E+00  0.50000000000E+03  0.50000000000E+03  0.00000000000E+00 0.  1.
         11   -1    0    0    0    0 -0.00000000000E+00 -0.00000000000E+00 -0.50000000000E+03  0.50000000000E+03  0.00000000000E+00 0. -1.
        -11    1    1    2    0    0 -0.17906529427E+01  0.18129312085E+00  0.10425719889E+03  0.10427273290E+03  0.00000000000E+00 0.  1.
         11    1    1    2    0    0 -0.98533463379E+00  0.68250258345E+01 -0.49980180692E+03  0.49984937537E+03  0.00000000000E+00 0. -1.
        -15    1    1    2    0    0  0.47724104968E+01 -0.58600404792E+01  0.37900846987E+03  0.37908797652E+03  0.17770000000E+01 0.  1.
         15    1    1    2    0    0 -0.19964229203E+01 -0.11462784761E+01  0.16536138152E+02  0.16789915211E+02  0.17770000000E+01 0. -1.
</event>
<event>
 6    1  0.1599106E-003  0.5058972E+03  0.7546771E-02  0.9386710E-01
        -11   -1    0    0    0    0  0.00000000000E+00  0.00000000000E+00  0.50000000000E+03  0.50000000000E+03  0.00000000000E+00 0.  1.
         11   -1    0    0    0    0 -0.00000000000E+00 -0.00000000000E+00 -0.50000000000E+03  0.50000000000E+03  0.00000000000E+00 0.  1.
        -11    1    1    2    0    0  0.14109577429E+02 -0.17866103541E+02  0.44176826675E+03  0.44235447249E+03  0.00000000000E+00 0.  1.
         11    1    1    2    0    0  0.48769163868E+01  0.11103589898E+02 -0.49395397989E+03  0.49410283168E+03  0.00000000000E+00 0.  1.
        -15    1    1    2    0    0 -0.29897643309E+01  0.12923519169E+02  0.68348053117E+01  0.15027585672E+02  0.17770000000E+01 0. -1.
         15    1    1    2    0    0 -0.15996729485E+02 -0.61610055262E+01  0.45350907833E+02  0.48515110157E+02  0.17770000000E+01 0.  1.
</event>
<event>
 6    1  0.1599106E-003  0.5181875E+03  0.7546771E-02  0.9360009E-01
        -11   -1    0    0    0    0  0.00000000000E+00  0.00000000000E+00  0.50000000000E+03  0.50000000000E+03  0.00000000000E+00 0.  1.
         11   -1    0    0    0    0 -0.00000000000E+00 -0.00000000000E+00 -0.50000000000E+03  0.50000000000E+03  0.00000000000E+00 0. -1.
        -11    1    1    2    0    0 -0.85238791036E+01  0.47322652230E+01  0.46917938127E+03  0.46928066512E+03  0.00000000000E+00 0.  1.
         11    1    1    2    0    0 -0.76344830050E+01  0.50280701257E+01 -0.48172573760E+03  0.48181246672E+03  0.00000000000E+00 0. -1.
        -15    1    1    2    0    0  0.88739160312E+01 -0.58000497922E+01 -0.15917332399E+02  0.19206930078E+02  0.17770000000E+01 0.  1.
         15    1    1    2    0    0  0.72844460774E+01 -0.39602855565E+01  0.28463688738E+02  0.29699938079E+02  0.17770000000E+01 0. -1.
</event>
<event>
 6    1  0.1599106E-003  0.5010234E+03  0.7546771E-02  0.9397523E-01
        -11   -1    0    0    0    0  0.00000000000E+00  0.00000000000E+00  0.50000000000E+03  0.50000000000E+03  0.00000000000E+00 0.  1.
         11   -1    0    0    0    0 -0.00000000000E+00 -0.00000000000E+00 -0.50000000000E+03  0.50000000000E+03  0.00000000000E+00 0.  1.
        -11    1    1    2    0    0 -0.25638659132E+01  0.85563657431E+01  0.49889661955E+03  0.49897657440E+03  0.00000000000E+00 0.  1.
         11    1    1    2    0    0  0.76370179924E+01 -0.57189907556E+01 -0.39579393040E+03  0.39590891154E+03  0.00000000000E+00 0.  1.
        -15    1    1    2    0    0 -0.52093001919E+01  0.33344854618E+01 -0.92457333439E+02  0.92681021991E+02  0.17770000000E+01 0.  1.
         15    1    1    2    0    0  0.13614811266E+00 -0.61718604492E+01 -0.10645355713E+02  0.12433492067E+02  0.17770000000E+01 0. -1.
</event>
<event>
 6    1  0.1599106E-003  0.5015425E+03  0.7546771E-02  0.9396365E-01
        -11   -1    0    0    0    0  0.00000000000E+00  0.00000000000E+00  0.50000000000E+03  0.50000000000E+03  0.00000000000E+00 0.  1.
         11   -1    0    0    0    0 -0.00000000000E+00 -0.00000000000E+00 -0.50000000000E+03  0.50000000000E+03  0.00000000000E+00 0.  1.
        -11    1    1    2    0    0 -0.30052526061E+01 -0.26260616161E+02  0.49775616964E+03  0.49845747654E+03  0.00000000000E+00 0.  1.
         11    1    1    2    0    0 -0.21568826640E+01 -0.26113332374E+01 -0.20853019651E+03  0.20855769960E+03  0.00000000000E+00 0.  1.
        -15    1    1    2    0    0 -0.37107631525E+01  0.27957220167E+01 -0.18792466734E+03  0.18799048952E+03  0.17770000000E+01 0. -1.
         15    1    1    2    0    0  0.88728984226E+01  0.26076227381E+02 -0.10130130578E+03  0.10499433434E+03  0.17770000000E+01 0.  1.
</event>
<event>
 6    1  0.1599106E-003  0.5225400E+03  0.7546771E-02  0.9350741E-01
        -11   -1    0    0    0    0  0.00000000000E+00  0.00000000000E+00  0.50000000000E+03  0.50000000000E+03  0.00000000000E+00 0.  1.
         11   -1    0    0    0    0 -0.00000000000E+00 -0.00000000000E+00 -0.50000000000E+03  0.50000000000E+03  0.00000000000E+00 0. -1.
        -11    1    1    2    0    0  0.17305498750E+02  0.17827029964E+02  0.40896064123E+03  0.40971464382E+03  0.00000000000E+00 0.  1.
         11    1    1    2    0    0 -0.29294046583E+01 -0.46967910172E+02 -0.47513518183E+03  0.47745995330E+03  0.00000000000E+00 0. -1.
        -15    1    1    2    0    0 -0.11613689057E+02 -0.22497606275E+02  0.54003485347E+02  0.59670379756E+02  0.17770000000E+01 0.  1.
         15    1    1    2    0    0 -0.27624050342E+01  0.51638486483E+02  0.12171055251E+02  0.53155023119E+02  0.17770000000E+01 0. -1.
</event>
<event>
 6    1  0.1599106E-003  0.5027757E+03  0.7546771E-02  0.9393620E-01
        -11   -1    0    0    0    0  0.00000000000E+00  0.00000000000E+00  0.50000000000E+03  0.50000000000E+03  0.00000000000E+00 0. -1.
         11   -1    0    0    0    0 -0.00000000000E+00 -0.00000000000E+00 -0.50000000000E+03  0.50000000000E+03  0.00000000000E+00 0. -1.
        -11    1    1    2    0    0 -0.48356642401E+01  0.81100659185E+01  0.49713464422E+03  0.49722430683E+03  0.00000000000E+00 0. -1.
         11    1    1    2    0    0 -0.10109819367E+02  0.15785739851E+01 -0.41658768351E+03  0.41671332880E+03  0.00000000000E+00 0. -1.
        -15    1    1    2    0    0  0.15028610952E+02 -0.15708315457E+02 -0.73291972498E+02  0.76468825565E+02  0.17770000000E+01 0. -1.
         15    1    1    2    0    0 -0.83127344930E-01  0.60196755531E+01 -0.72549882099E+01  0.95935388072E+01  0.17770000000E+01 0.  1.
</event>
<event>
 6    1  0.1599106E-003  0.5121989E+03  0.7546771E-02  0.9372920E-01
        -11   -1    0    0    0    0  0.00000000000E+00  0.00000000000E+00  0.50000000000E+03  0.50000000000E+03  0.00000000000E+00 0. -1.
         11   -1    0    0    0    0 -0.00000000000E+00 -0.00000000000E+00 -0.50000000000E+03  0.50000000000E+03  0.00000000000E+00 0. -1.
        -11    1    1    2    0    0 -0.10344413397E+02 -0.10310707020E+02  0.45398187730E+03  0.45421675716E+03  0.00000000000E+00 0. -1.
         11    1    1    2    0    0 -0.71777786987E+01 -0.40780507105E+01 -0.48773120205E+03  0.48780106238E+03  0.00000000000E+00 0. -1.
        -15    1    1    2    0    0 -0.11800487450E+02  0.27384150555E+01  0.71291479474E+00  0.12264436292E+02  0.17770000000E+01 0.  1.
         15    1    1    2    0    0  0.29322679545E+02  0.11650342675E+02  0.33036409952E+02  0.45717744167E+02  0.17770000000E+01 0. -1.
</event>
<event>
 6    1  0.1599106E-003  0.5068817E+03  0.7546771E-02  0.9384542E-01
        -11   -1    0    0    0    0  0.00000000000E+00  0.00000000000E+00  0.50000000000E+03  0.50000000000E+03  0.00000000000E+00 0. -1.
         11   -1    0    0    0    0 -0.00000000000E+00 -0.00000000000E+00 -0.50000000000E+03  0.50000000000E+03  0.00000000000E+00 0. -1.
        -11    1    1    2    0    0 -0.41802801700E+01  0.79071890616E+01  0.49303715819E+03  0.49311827966E+03  0.00000000000E+00 0. -1.
         11    1    1    2    0    0  0.31823196119E+01 -0.79076547005E+01 -0.47410376805E+03  0.47418038872E+03  0.00000000000E+00 0. -1.
        -15    1    1    2    0    0 -0.43282151524E+01  0.16645761035E+01 -0.24273282232E+02  0.24776081598E+02  0.17770000000E+01 0. -1.
         15    1    1    2    0    0  0.53261757106E+01 -0.16641104646E+01  0.53398920967E+01  0.79252500240E+01  0.17770000000E+01 0.  1.
</event>
<event>
 6    1  0.1599106E-003  0.5006004E+03  0.7546771E-02  0.9398467E-01
        -11   -1    0    0    0    0  0.00000000000E+00  0.00000000000E+00  0.50000000000E+03  0.50000000000E+03  0.00000000000E+00 0. -1.
         11   -1    0    0    0    0 -0.00000000000E+00 -0.00000000000E+00 -0.50000000000E+03  0.50000000000E+03  0.00000000000E+00 0.  1.
        -11    1    1    2    0    0 -0.12058909980E+01  0.50093703771E+01  0.33452511148E+03  0.33456478920E+03  0.00000000000E+00 0. -1.
         11    1    1    2    0    0 -0.44536816231E+01  0.80590781007E+01 -0.49931468712E+03  0.49939958029E+03  0.00000000000E+00 0.  1.
        -15    1    1    2    0    0  0.76525254816E+01 -0.99070074082E+01  0.68498003540E+02  0.69655180425E+02  0.17770000000E+01 0.  1.
         15    1    1    2    0    0 -0.19929528605E+01 -0.31614410697E+01  0.96291572102E+02  0.96380450080E+02  0.17770000000E+01 0. -1.
</event>
<event>
 6    1  0.1599106E-003  0.5027293E+03  0.7546771E-02  0.9393723E-01
        -11   -1    0    0    0    0  0.00000000000E+00  0.00000000000E+00  0.50000000000E+03  0.50000000000E+03  0.00000000000E+00 0. -1.
         11   -1    0    0    0    0 -0.00000000000E+00 -0.00000000000E+00 -0.50000000000E+03  0.50000000000E+03  0.00000000000E+00 0.  1.
        -11    1    1    2    0    0  0.60126860848E+01  0.32285927610E+01  0.45872296773E+03  0.45877373217E+03  0.00000000000E+00 0. -1.
         11    1    1    2    0    0  0.33524932581E+01 -0.84007410548E+01 -0.49718845171E+03  0.49727071920E+03  0.00000000000E+00 0.  1.
        -15    1    1    2    0    0 -0.55412103962E+01 -0.31315584856E+01  0.31859271181E+02  0.32537402484E+02  0.17770000000E+01 0. -1.
         15    1    1    2    0    0 -0.38239689467E+01  0.83037067794E+01  0.66062128056E+01  0.11418146146E+02  0.17770000000E+01 0. -1.
</event>
<event>
 6    1  0.1599106E-003  0.5026139E+03  0.7546771E-02  0.9393980E-01
        -11   -1    0    0    0    0  0.00000000000E+00  0.00000000000E+00  0.50000000000E+03  0.50000000000E+03  0.00000000000E+00 0.  1.
         11   -1    0    0    0    0 -0.00000000000E+00 -0.00000000000E+00 -0.50000000000E+03  0.50000000000E+03  0.00000000000E+00 0. -1.
        -11    1    1    2    0    0 -0.89939788461E+01  0.36795027962E+00  0.19703888405E+03  0.19724438869E+03  0.00000000000E+00 0.  1.
         11    1    1    2    0    0  0.10121810712E+02 -0.26360334036E+01 -0.49727613872E+03  0.49738612552E+03  0.00000000000E+00 0. -1.
        -15    1    1    2    0    0  0.11271792600E+02  0.19461897906E+01  0.28666034942E+03  0.28689397801E+03  0.17770000000E+01 0.  1.
         15    1    1    2    0    0 -0.12399624466E+02  0.32189333343E+00  0.13576905255E+02  0.18475507774E+02  0.17770000000E+01 0. -1.
</event>
<event>
 6    1  0.1599106E-003  0.5140489E+03  0.7546771E-02  0.9368912E-01
        -11   -1    0    0    0    0  0.00000000000E+00  0.00000000000E+00  0.50000000000E+03  0.50000000000E+03  0.00000000000E+00 0. -1.
         11   -1    0    0    0    0 -0.00000000000E+00 -0.00000000000E+00 -0.50000000000E+03  0.50000000000E+03  0.00000000000E+00 0.  1.
        -11    1    1    2    0    0  0.66174838280E+01 -0.31792267794E+00  0.48590592392E+03  0.48595108711E+03  0.00000000000E+00 0. -1.
         11    1    1    2    0    0  0.18051929599E+01  0.52836117959E+01 -0.39079844089E+03  0.39083832549E+03  0.00000000000E+00 0.  1.
        -15    1    1    2    0    0  0.76700638103E+01  0.19038225917E+02 -0.91782738106E+02  0.94066533199E+02  0.17770000000E+01 0.  1.
         15    1    1    2    0    0 -0.16092740598E+02 -0.24003915035E+02 -0.33247449257E+01  0.29144054193E+02  0.17770000000E+01 0. -1.
</event>
<event>
 6    1  0.1599106E-003  0.5046493E+03  0.7546771E-02  0.9389466E-01
        -11   -1    0    0    0    0  0.00000000000E+00  0.00000000000E+00  0.50000000000E+03  0.50000000000E+03  0.00000000000E+00 0. -1.
         11   -1    0    0    0    0 -0.00000000000E+00 -0.00000000000E+00 -0.50000000000E+03  0.50000000000E+03  0.00000000000E+00 0. -1.
        -11    1    1    2    0    0  0.93843833523E+01  0.59346658148E+01  0.49522619588E+03  0.49535065559E+03  0.00000000000E+00 0. -1.
         11    1    1    2    0    0  0.72170116570E+01 -0.23069013723E+01 -0.45637249408E+03  0.45643538469E+03  0.00000000000E+00 0. -1.
        -15    1    1    2    0    0 -0.12761600696E+02  0.56369208113E+01 -0.90649756749E+01  0.16732149938E+02  0.17770000000E+01 0.  1.
         15    1    1    2    0    0 -0.38397943136E+01 -0.92646852537E+01 -0.29788726131E+02  0.31481809775E+02  0.17770000000E+01 0. -1.
</event>
<event>
 6    1  0.1599106E-003  0.5015353E+03  0.7546771E-02  0.9396381E-01
        -11   -1    0    0    0    0  0.00000000000E+00  0.00000000000E+00  0.50000000000E+03  0.50000000000E+03  0.00000000000E+00 0.  1.
         11   -1    0    0    0    0 -0.00000000000E+00 -0.00000000000E+00 -0.50000000000E+03  0.50000000000E+03  0.00000000000E+00 0.  1.
        -11    1    1    2    0    0  0.66942004651E+01 -0.12719970886E+01  0.49841812338E+03  0.49846469886E+03  0.00000000000E+00 0.  1.
         11    1    1    2    0    0 -0.92779195884E+01  0.98887315998E+01 -0.42705820734E+03  0.42727342447E+03  0.00000000000E+00 0.  1.
        -15    1    1    2    0    0  0.23801072289E+01 -0.28984485162E+01 -0.19352900784E+01  0.45791910759E+01  0.17770000000E+01 0.  1.
         15    1    1    2    0    0  0.20361189446E+00 -0.57182859950E+01 -0.69424625962E+02  0.69682685593E+02  0.17770000000E+01 0. -1.
</event>
<event>
 6    1  0.1599106E-003  0.4718470E+03  0.7546771E-02  0.9465106E-01
        -11   -1    0    0    0    0  0.00000000000E+00  0.00000000000E+00  0.50000000000E+03  0.50000000000E+03  0.00000000000E+00 0. -1.
         11   -1    0    0    0    0 -0.00000000000E+00 -0.00000000000E+00 -0.50000000000E+03  0.50000000000E+03  0.00000000000E+00 0.  1.
        -11    1    1    2    0    0  0.43280766318E+01 -0.85050445333E+01  0.46657629116E+03  0.46667387274E+03  0.00000000000E+00 0. -1.
         11    1    1    2    0    0  0.14519606895E+02  0.41318210921E+02 -0.47581233826E+03  0.47782360216E+03  0.00000000000E+00 0.  1.
        -15    1    1    2    0    0 -0.13015638080E+02  0.15589443370E+01  0.15132467843E+02  0.20099414273E+02  0.17770000000E+01 0. -1.
         15    1    1    2    0    0 -0.58320454466E+01 -0.34372110725E+02 -0.58964207405E+01  0.35403110829E+02  0.17770000000E+01 0.  1.
</event>
<event>
 6    1  0.1599106E-003  0.5146804E+03  0.7546771E-02  0.9367547E-01
        -11   -1    0    0    0    0  0.00000000000E+00  0.00000000000E+00  0.50000000000E+03  0.50000000000E+03  0.00000000000E+00 0. -1.
         11   -1    0    0    0    0 -0.00000000000E+00 -0.00000000000E+00 -0.50000000000E+03  0.50000000000E+03  0.00000000000E+00 0. -1.
        -11    1    1    2    0    0 -0.91425908668E+01  0.36450230068E+00  0.48523336961E+03  0.48531962954E+03  0.00000000000E+00 0. -1.
         11    1    1    2    0    0 -0.14655320520E+02  0.68028615015E+01 -0.39752187358E+03  0.39785009403E+03  0.00000000000E+00 0. -1.
        -15    1    1    2    0    0  0.55471357720E+00  0.16834790273E+02  0.54899679535E+01  0.17804924820E+02  0.17770000000E+01 0.  1.
         15    1    1    2    0    0  0.23243197809E+02 -0.24002154076E+02 -0.93201463986E+02  0.99025351617E+02  0.17770000000E+01 0. -1.
</event>
<event>
 6    1  0.1599106E-003  0.5438760E+03  0.7546771E-02  0.9306654E-01
        -11   -1    0    0    0    0  0.00000000000E+00  0.00000000000E+00  0.50000000000E+03  0.50000000000E+03  0.00000000000E+00 0. -1.
         11   -1    0    0    0    0 -0.00000000000E+00 -0.00000000000E+00 -0.50000000000E+03  0.50000000000E+03  0.00000000000E+00 0.  1.
        -11    1    1    2    0    0  0.55190934409E+01 -0.25625304445E+02  0.40811911533E+03  0.40896005785E+03  0.00000000000E+00 0. -1.
         11    1    1    2    0    0  0.12762158856E+01 -0.12378507774E+02 -0.45595423949E+03  0.45612402336E+03  0.00000000000E+00 0.  1.
        -15    1    1    2    0    0 -0.98737974854E+01  0.16534072058E+02  0.87533229140E+02  0.89644248830E+02  0.17770000000E+01 0. -1.
         15    1    1    2    0    0  0.30784881589E+01  0.21469740161E+02 -0.39698104985E+02  0.45271669953E+02  0.17770000000E+01 0.  1.
</event>
<event>
 6    1  0.1599106E-003  0.5011155E+03  0.7546771E-02  0.9397317E-01
        -11   -1    0    0    0    0  0.00000000000E+00  0.00000000000E+00  0.50000000000E+03  0.50000000000E+03  0.00000000000E+00 0. -1.
         11   -1    0    0    0    0 -0.00000000000E+00 -0.00000000000E+00 -0.50000000000E+03  0.50000000000E+03  0.00000000000E+00 0.  1.
        -11    1    1    2    0    0 -0.56329846864E+01  0.30804934907E+01  0.34558128932E+03  0.34564092276E+03  0.00000000000E+00 0. -1.
         11    1    1    2    0    0 -0.62106146181E+01 -0.98218595540E+01 -0.49874914366E+03  0.49888450463E+03  0.00000000000E+00 0.  1.
        -15    1    1    2    0    0 -0.86564329240E+00  0.66287015353E+01  0.13046736409E+02  0.14766993001E+02  0.17770000000E+01 0. -1.
         15    1    1    2    0    0  0.12709242597E+02  0.11266452796E+00  0.14012111793E+03  0.14070757961E+03  0.17770000000E+01 0.  1.
</event>
<event>
 6    1  0.1599106E-003  0.5060800E+03  0.7546771E-02  0.9386307E-01
        -11   -1    0    0    0    0  0.00000000000E+00  0.00000000000E+00  0.50000000000E+03  0.50000000000E+03  0.00000000000E+00 0.  1.
         11   -1    0    0    0    0 -0.00000000000E+00 -0.00000000000E+00 -0.50000000000E+03  0.50000000000E+03  0.00000000000E+00 0.  1.
        -11    1    1    2    0    0 -0.34672619952E+01 -0.11835441717E+02  0.47525682754E+03  0.47541681892E+03  0.00000000000E+00 0.  1.
         11    1    1    2    0    0 -0.10864660715E+01 -0.83891285581E+01 -0.49384751204E+03  0.49391995610E+03  0.00000000000E+00 0.  1.
        -15    1    1    2    0    0  0.26820566113E+01  0.14565477778E+02  0.50260400983E+01  0.15740564749E+02  0.17770000000E+01 0.  1.
         15    1    1    2    0    0  0.18716714553E+01  0.56590924977E+01  0.13564644398E+02  0.14922660238E+02  0.17770000000E+01 0. -1.
</event>
<event>
 6    1  0.1599106E-003  0.5000653E+03  0.7546771E-02  0.9399664E-01
        -11   -1    0    0    0    0  0.00000000000E+00  0.00000000000E+00  0.50000000000E+03  0.50000000000E+03  0.00000000000E+00 0. -1.
         11   -1    0    0    0    0 -0.00000000000E+00 -0.00000000000E+00 -0.50000000000E+03  0.50000000000E+03  0.00000000000E+00 0. -1.
        -11    1    1    2    0    0  0.28510977613E+00 -0.27552649731E+01  0.12094834630E+03  0.12098006136E+03  0.00000000000E+00 0. -1.
         11    1    1    2    0    0  0.23077591043E+01  0.95264082878E+01 -0.49983859149E+03  0.49993469148E+03  0.00000000000E+00 0. -1.
        -15    1    1    2    0    0 -0.52034906706E+01 -0.32529391699E+01  0.28913900406E+03  0.28920957683E+03  0.17770000000E+01 0. -1.
         15    1    1    2    0    0  0.26106217901E+01 -0.35182041448E+01  0.89751241120E+02  0.89875670334E+02  0.17770000000E+01 0.  1.
</event>
<event>
 6    1  0.1599106E-003  0.5002690E+03  0.7546771E-02  0.9399208E-01
        -11   -1    0    0    0    0  0.00000000000E+00  0.00000000000E+00  0.50000000000E+03  0.50000000000E+03  0.00000000000E+00 0. -1.
         11   -1    0    0    0    0 -0.00000000000E+00 -0.00000000000E+00 -0.50000000000E+03  0.50000000000E+03  0.00000000000E+00 0. -1.
        -11    1    1    2    0    0 -0.65157785617E+01 -0.23960642505E+01  0.49968278526E+03  0.49973101002E+03  0.00000000000E+00 0. -1.
         11    1    1    2    0    0 -0.30601380105E+01  0.35944517265E+01 -0.33917548734E+03  0.33920833678E+03  0.00000000000E+00 0. -1.
        -15    1    1    2    0    0  0.68795493049E+01 -0.47414418609E+01 -0.10456646284E+03  0.10491478613E+03  0.17770000000E+01 0.  1.
         15    1    1    2    0    0  0.26963672674E+01  0.35430543849E+01 -0.55940835083E+02  0.56145867075E+02  0.17770000000E+01 0. -1.
</event>
<event>
 6    1  0.1599106E-003  0.4601363E+03  0.7546771E-02  0.9493710E-01
        -11   -1    0    0    0    0  0.00000000000E+00  0.00000000000E+00  0.50000000000E+03  0.50000000000E+03  0.00000000000E+00 0.  1.
         11   -1    0    0    0    0 -0.00000000000E+00 -0.00000000000E+00 -0.50000000000E+03  0.50000000000E+03  0.00000000000E+00 0.  1.
        -11    1    1    2    0    0  0.17201464334E+02  0.41875757016E+02  0.44988105140E+03  0.45215310439E+03  0.00000000000E+00 0.  1.
         11    1    1    2    0    0 -0.70327855463E+01 -0.18398851962E+02 -0.46824405103E+03  0.46865815809E+03  0.00000000000E+00 0.  1.
        -15    1    1    2    0    0  0.10922374934E+02 -0.43877753835E+02  0.20572985954E+02  0.49708762164E+02  0.17770000000E+01 0. -1.
         15    1    1    2    0    0 -0.21091053722E+02  0.20400848781E+02 -0.22099863274E+01  0.29479975350E+02  0.17770000000E+01 0.  1.
</event>
<event>
 6    1  0.1599106E-003  0.5130739E+03  0.7546771E-02  0.9371022E-01
        -11   -1    0    0    0    0  0.00000000000E+00  0.00000000000E+00  0.50000000000E+03  0.50000000000E+03  0.00000000000E+00 0. -1.
         11   -1    0    0    0    0 -0.00000000000E+00 -0.00000000000E+00 -0.50000000000E+03  0.50000000000E+03  0.00000000000E+00 0.  1.
        -11    1    1    2    0    0  0.14197651854E+01 -0.12067556151E+02  0.46307758699E+03  0.46323697307E+03  0.00000000000E+00 0. -1.
         11    1    1    2    0    0 -0.23814422565E+02 -0.19916698434E+01 -0.48633934933E+03  0.48692613010E+03  0.00000000000E+00 0.  1.
        -15    1    1    2    0    0 -0.18932504690E+00  0.16727039519E+02  0.21011277406E+02  0.26915816954E+02  0.17770000000E+01 0. -1.
         15    1    1    2    0    0  0.22583982426E+02 -0.26678135245E+01  0.22504849296E+01  0.22921079876E+02  0.17770000000E+01 0.  1.
</event>
<event>
 6    1  0.1599106E-003  0.5005702E+03  0.7546771E-02  0.9398535E-01
        -11   -1    0    0    0    0  0.00000000000E+00  0.00000000000E+00  0.50000000000E+03  0.50000000000E+03  0.00000000000E+00 0.  1.
         11   -1    0    0    0    0 -0.00000000000E+00 -0.00000000000E+00 -0.50000000000E+03  0.50000000000E+03  0.00000000000E+00 0. -1.
        -11    1    1    2    0    0  0.96645228551E+01 -0.15728018673E+02  0.49908852724E+03  0.49942980647E+03  0.00000000000E+00 0.  1.
         11    1    1    2    0    0  0.51727140812E+01  0.16678327667E+01 -0.22134553896E+03  0.22141225407E+03  0.00000000000E+00 0. -1.
        -15    1    1    2    0    0 -0.47301122877E+01  0.71553555439E+01 -0.34297423512E+02  0.35398362445E+02  0.17770000000E+01 0.  1.
         15    1    1    2    0    0 -0.10107124649E+02  0.69048303625E+01 -0.24344556476E+03  0.24375957701E+03  0.17770000000E+01 0. -1.
</event>
<event>
 6    1  0.1599106E-003  0.5005652E+03  0.7546771E-02  0.9398546E-01
        -11   -1    0    0    0    0  0.00000000000E+00  0.00000000000E+00  0.50000000000E+03  0.50000000000E+03  0.00000000000E+00 0.  1.
         11   -1    0    0    0    0 -0.00000000000E+00 -0.00000000000E+00 -0.50000000000E+03  0.50000000000E+03  0.00000000000E+00 0.  1.
        -11    1    1    2    0    0  0.66656880220E+01  0.22059646861E+01  0.49938548571E+03  0.49943484161E+03  0.00000000000E+00 0.  1.
         11    1    1    2    0    0  0.48663795148E+01  0.37164077594E+01 -0.33667322445E+03  0.33672890193E+03  0.00000000000E+00 0.  1.
        -15    1    1    2    0    0 -0.10007896816E+02  0.93389928644E+00 -0.12620180244E+03  0.12661391249E+03  0.17770000000E+01 0.  1.
         15    1    1    2    0    0 -0.15241707212E+01 -0.68562717320E+01 -0.36510458822E+02  0.37222343973E+02  0.17770000000E+01 0. -1.
</event>
<event>
 6    1  0.1599106E-003  0.5053132E+03  0.7546771E-02  0.9387999E-01
        -11   -1    0    0    0    0  0.00000000000E+00  0.00000000000E+00  0.50000000000E+03  0.50000000000E+03  0.00000000000E+00 0.  1.
         11   -1    0    0    0    0 -0.00000000000E+00 -0.00000000000E+00 -0.50000000000E+03  0.50000000000E+03  0.00000000000E+00 0.  1.
        -11    1    1    2    0    0 -0.49422751672E+01 -0.19052249208E+02  0.48585350760E+03  0.48625203869E+03  0.00000000000E+00 0.  1.
         11    1    1    2    0    0  0.28214283911E+01  0.96842030452E+01 -0.49458392977E+03  0.49468677750E+03  0.00000000000E+00 0.  1.
        -15    1    1    2    0    0  0.79474716121E+00 -0.13461173801E+00  0.90895851624E+01  0.92966677253E+01  0.17770000000E+01 0.  1.
         15    1    1    2    0    0  0.13260996149E+01  0.95026579012E+01 -0.35916298890E+00  0.97645160878E+01  0.17770000000E+01 0. -1.
</event>
<event>
 6    1  0.1599106E-003  0.4323261E+03  0.7546771E-02  0.9565432E-01
        -11   -1    0    0    0    0  0.00000000000E+00  0.00000000000E+00  0.50000000000E+03  0.50000000000E+03  0.00000000000E+00 0. -1.
         11   -1    0    0    0    0 -0.00000000000E+00 -0.00000000000E+00 -0.50000000000E+03  0.50000000000E+03  0.00000000000E+00 0.  1.
        -11    1    1    2    0    0 -0.35915781443E+01 -0.16860547550E+02  0.43066673424E+03  0.43101161640E+03  0.00000000000E+00 0. -1.
         11    1    1    2    0    0  0.57085868111E+01  0.53208647623E+01 -0.43365506903E+03  0.43372527994E+03  0.00000000000E+00 0.  1.
        -15    1    1    2    0    0 -0.28156718331E+02  0.10565333509E+02 -0.59964682711E+02  0.67106988913E+02  0.17770000000E+01 0.  1.
         15    1    1    2    0    0  0.26039709664E+02  0.97434927902E+00  0.62953017500E+02  0.68156114746E+02  0.17770000000E+01 0. -1.
</event>
<event>
 6    1  0.1599106E-003  0.5042518E+03  0.7546771E-02  0.9390346E-01
        -11   -1    0    0    0    0  0.00000000000E+00  0.00000000000E+00  0.50000000000E+03  0.50000000000E+03  0.00000000000E+00 0. -1.
         11   -1    0    0    0    0 -0.00000000000E+00 -0.00000000000E+00 -0.50000000000E+03  0.50000000000E+03  0.00000000000E+00 0. -1.
        -11    1    1    2    0    0  0.16583760645E+02  0.13212954066E+01  0.49546902580E+03  0.49574824504E+03  0.00000000000E+00 0. -1.
         11    1    1    2    0    0 -0.14498884100E+01  0.48846636204E+01 -0.27398761830E+03  0.27403499247E+03  0.00000000000E+00 0. -1.
        -15    1    1    2    0    0 -0.15825047579E+01 -0.32701707941E+02 -0.10648768853E+03  0.11142123478E+03  0.17770000000E+01 0.  1.
         15    1    1    2    0    0 -0.13551367477E+02  0.26495748914E+02 -0.11499371897E+03  0.11879552771E+03  0.17770000000E+01 0. -1.
</event>
<event>
 6    1  0.1599106E-003  0.5039381E+03  0.7546771E-02  0.9391041E-01
        -11   -1    0    0    0    0  0.00000000000E+00  0.00000000000E+00  0.50000000000E+03  0.50000000000E+03  0.00000000000E+00 0. -1.
         11   -1    0    0    0    0 -0.00000000000E+00 -0.00000000000E+00 -0.50000000000E+03  0.50000000000E+03  0.00000000000E+00 0. -1.
        -11    1    1    2    0    0 -0.93442509993E+01 -0.16405582243E+01  0.38623713923E+03  0.38635363876E+03  0.00000000000E+00 0. -1.
         11    1    1    2    0    0  0.37059916595E+01 -0.25280991135E+02 -0.49540338252E+03  0.49606186539E+03  0.00000000000E+00 0. -1.
        -15    1    1    2    0    0  0.13344808273E+02  0.31118309529E+02  0.94533528597E+02  0.10042996990E+03  0.17770000000E+01 0. -1.
         15    1    1    2    0    0 -0.77065489333E+01 -0.41967601699E+01  0.14632714689E+02  0.17154525950E+02  0.17770000000E+01 0.  1.
</event>
<event>
 6    1  0.1599106E-003  0.5036873E+03  0.7546771E-02  0.9391597E-01
        -11   -1    0    0    0    0  0.00000000000E+00  0.00000000000E+00  0.50000000000E+03  0.50000000000E+03  0.00000000000E+00 0.  1.
         11   -1    0    0    0    0 -0.00000000000E+00 -0.00000000000E+00 -0.50000000000E+03  0.50000000000E+03  0.00000000000E+00 0.  1.
        -11    1    1    2    0    0 -0.93226637673E+01  0.58958156881E+00  0.49622476425E+03  0.49631267999E+03  0.00000000000E+00 0.  1.
         11    1    1    2    0    0  0.15513876241E+01 -0.44882172672E+01 -0.32667169772E+03  0.32670621204E+03  0.00000000000E+00 0.  1.
        -15    1    1    2    0    0  0.77936226131E+01 -0.33196603553E+01 -0.15252187567E+01  0.87888975170E+01  0.17770000000E+01 0. -1.
         15    1    1    2    0    0 -0.22346469868E-01  0.72182960537E+01 -0.16802784778E+03  0.16819221045E+03  0.17770000000E+01 0.  1.
</event>
<event>
 6    1  0.1599106E-003  0.5055361E+03  0.7546771E-02  0.9387507E-01
        -11   -1    0    0    0    0  0.00000000000E+00  0.00000000000E+00  0.50000000000E+03  0.50000000000E+03  0.00000000000E+00 0. -1.
         11   -1    0    0    0    0 -0.00000000000E+00 -0.00000000000E+00 -0.50000000000E+03  0.50000000000E+03  0.00000000000E+00 0. -1.
        -11    1    1    2    0    0 -0.21112876130E+02  0.15864512008E+02  0.19701682063E+03  0.19877893221E+03  0.00000000000E+00 0. -1.
         11    1    1    2    0    0 -0.13776627753E+02 -0.45039917720E+01 -0.49425145860E+03  0.49446393775E+03  0.00000000000E+00 0. -1.
        -15    1    1    2    0    0  0.92232466143E+01 -0.36912969624E+01  0.19800949405E+01  0.10284573708E+02  0.17770000000E+01 0.  1.
         15    1    1    2    0    0  0.25666257269E+02 -0.76692232739E+01  0.29525454303E+03  0.29647255633E+03  0.17770000000E+01 0. -1.
</event>
<event>
 6    1  0.1599106E-003  0.5027987E+03  0.7546771E-02  0.9393569E-01
        -11   -1    0    0    0    0  0.00000000000E+00  0.00000000000E+00  0.50000000000E+03  0.50000000000E+03  0.00000000000E+00 0. -1.
         11   -1    0    0    0    0 -0.00000000000E+00 -0.00000000000E+00 -0.50000000000E+03  0.50000000000E+03  0.00000000000E+00 0.  1.
        -11    1    1    2    0    0  0.54843254259E+01  0.24893765545E+01  0.35402953986E+03  0.35408076750E+03  0.00000000000E+00 0. -1.
         11    1    1    2    0    0  0.78337020665E+01 -0.68352013500E+01 -0.49709259017E+03  0.49720129733E+03  0.00000000000E+00 0.  1.
        -15    1    1    2    0    0 -0.11773429120E+02 -0.22095809975E+01  0.14090705645E+03  0.14142649034E+03  0.17770000000E+01 0. -1.
         15    1    1    2    0    0 -0.15445983720E+01  0.65554057929E+01  0.21559938560E+01  0.72914448326E+01  0.17770000000E+01 0.  1.
</event>
<event>
 6    1  0.1599106E-003  0.5058030E+03  0.7546771E-02  0.9386918E-01
        -11   -1    0    0    0    0  0.00000000000E+00  0.00000000000E+00  0.50000000000E+03  0.50000000000E+03  0.00000000000E+00 0.  1.
         11   -1    0    0    0    0 -0.00000000000E+00 -0.00000000000E+00 -0.50000000000E+03  0.50000000000E+03  0.00000000000E+00 0. -1.
        -11    1    1    2    0    0  0.28444930680E+01 -0.74051162329E+01  0.49413330287E+03  0.49419697277E+03  0.00000000000E+00 0.  1.
         11    1    1    2    0    0  0.28794217035E+02 -0.81338378617E+01 -0.34539231078E+03  0.34668590193E+03  0.00000000000E+00 0. -1.
        -15    1    1    2    0    0 -0.25506877387E+02  0.12728048930E+01 -0.13750555944E+03  0.13986835751E+03  0.17770000000E+01 0. -1.
         15    1    1    2    0    0 -0.61318327162E+01  0.14266149202E+02 -0.11235432648E+02  0.19248767787E+02  0.17770000000E+01 0. -1.
</event>
<event>
 6    1  0.1599106E-003  0.5115050E+03  0.7546771E-02  0.9374428E-01
        -11   -1    0    0    0    0  0.00000000000E+00  0.00000000000E+00  0.50000000000E+03  0.50000000000E+03  0.00000000000E+00 0. -1.
         11   -1    0    0    0    0 -0.00000000000E+00 -0.00000000000E+00 -0.50000000000E+03  0.50000000000E+03  0.00000000000E+00 0. -1.
        -11    1    1    2    0    0 -0.10601865486E+02 -0.37407939232E+01  0.46040114759E+03  0.46053839122E+03  0.00000000000E+00 0. -1.
         11    1    1    2    0    0  0.20858232444E+02 -0.14849935452E+02 -0.48782348242E+03  0.48849497075E+03  0.00000000000E+00 0. -1.
        -15    1    1    2    0    0  0.83571399406E+01 -0.27201470917E+01  0.19604296699E+02  0.21557531543E+02  0.17770000000E+01 0. -1.
         15    1    1    2    0    0 -0.18613506898E+02  0.21310876467E+02  0.78180381386E+01  0.29409106484E+02  0.17770000000E+01 0.  1.
</event>
<event>
 6    1  0.1599106E-003  0.5073239E+03  0.7546771E-02  0.9383569E-01
        -11   -1    0    0    0    0  0.00000000000E+00  0.00000000000E+00  0.50000000000E+03  0.50000000000E+03  0.00000000000E+00 0.  1.
         11   -1    0    0    0    0 -0.00000000000E+00 -0.00000000000E+00 -0.50000000000E+03  0.50000000000E+03  0.00000000000E+00 0. -1.
        -11    1    1    2    0    0  0.66976975616E+00  0.69552094779E+01  0.36445767424E+03  0.36452464916E+03  0.00000000000E+00 0.  1.
         11    1    1    2    0    0 -0.66289921186E+01 -0.18308518845E+01 -0.49262805571E+03  0.49267605668E+03  0.00000000000E+00 0. -1.
        -15    1    1    2    0    0  0.11633868053E+02 -0.34635889432E+00 -0.23918714450E+01  0.12014392550E+02  0.17770000000E+01 0. -1.
         15    1    1    2    0    0 -0.56746456901E+01 -0.47779986991E+01  0.13056225291E+03  0.13078490161E+03  0.17770000000E+01 0. -1.
</event>
<event>
 6    1  0.1599106E-003  0.5083878E+03  0.7546771E-02  0.9381235E-01
        -11   -1    0    0    0    0  0.00000000000E+00  0.00000000000E+00  0.50000000000E+03  0.50000000000E+03  0.00000000000E+00 0. -1.
         11   -1    0    0    0    0 -0.00000000000E+00 -0.00000000000E+00 -0.50000000000E+03  0.50000000000E+03  0.00000000000E+00 0. -1.
        -11    1    1    2    0    0  0.58463659527E+01 -0.10856630668E+02  0.32858709665E+03  0.32881837921E+03  0.00000000000E+00 0. -1.
         11    1    1    2    0    0 -0.21290658833E+02  0.28490814098E+02 -0.49032389969E+03  0.49161218989E+03  0.00000000000E+00 0. -1.
        -15    1    1    2    0    0  0.30358998874E+02  0.19965997343E+02  0.91986028332E+02  0.98918638284E+02  0.17770000000E+01 0.  1.
         15    1    1    2    0    0 -0.14914705994E+02 -0.37600180773E+02  0.69750774707E+02  0.80650792620E+02  0.17770000000E+01 0. -1.
</event>
<event>
 6    1  0.1599106E-003  0.5010765E+03  0.7546771E-02  0.9397404E-01
        -11   -1    0    0    0    0  0.00000000000E+00  0.00000000000E+00  0.50000000000E+03  0.50000000000E+03  0.00000000000E+00 0. -1.
         11   -1    0    0    0    0 -0.00000000000E+00 -0.00000000000E+00 -0.50000000000E+03  0.50000000000E+03  0.00000000000E+00 0. -1.
        -11    1    1    2    0    0 -0.69552938442E+01 -0.18718726038E+01  0.49887148695E+03  0.49892348162E+03  0.00000000000E+00 0. -1.
         11    1    1    2    0    0  0.34964943349E+01 -0.54262508350E+01 -0.14449656596E+03  0.14464068323E+03  0.00000000000E+00 0. -1.
        -15    1    1    2    0    0 -0.21533476875E+01  0.84875285702E+01 -0.34607841382E+03  0.34619373375E+03  0.17770000000E+01 0. -1.
         15    1    1    2    0    0  0.56121471968E+01 -0.11894051314E+01 -0.82965071669E+01  0.10242101391E+02  0.17770000000E+01 0.  1.
</event>
<event>
 6    1  0.1599106E-003  0.4864790E+03  0.7546771E-02  0.9430583E-01
        -11   -1    0    0    0    0  0.00000000000E+00  0.00000000000E+00  0.50000000000E+03  0.50000000000E+03  0.00000000000E+00 0. -1.
         11   -1    0    0    0    0 -0.00000000000E+00 -0.00000000000E+00 -0.50000000000E+03  0.50000000000E+03  0.00000000000E+00 0.  1.
        -11    1    1    2    0    0  0.52262474414E+01  0.82997151971E+01  0.48367971283E+03  0.48377914748E+03  0.00000000000E+00 0. -1.
         11    1    1    2    0    0  0.12457231316E+02 -0.58950653278E+01 -0.48916381926E+03  0.48935792267E+03  0.00000000000E+00 0.  1.
        -15    1    1    2    0    0 -0.35796140931E+01 -0.61810751902E+01  0.91121985486E+01  0.11713633892E+02  0.17770000000E+01 0.  1.
         15    1    1    2    0    0 -0.14103864664E+02  0.37764253210E+01 -0.36280921180E+01  0.15149295960E+02  0.17770000000E+01 0. -1.
</event>
<event>
 6    1  0.1599106E-003  0.5001577E+03  0.7546771E-02  0.9399457E-01
        -11   -1    0    0    0    0  0.00000000000E+00  0.00000000000E+00  0.50000000000E+03  0.50000000000E+03  0.00000000000E+00 0. -1.
         11   -1    0    0    0    0 -0.00000000000E+00 -0.00000000000E+00 -0.50000000000E+03  0.50000000000E+03  0.00000000000E+00 0.  1.
        -11    1    1    2    0    0 -0.48495497478E+01 -0.57478043134E+01  0.49978577255E+03  0.49984234898E+03  0.00000000000E+00 0. -1.
         11    1    1    2    0    0  0.33382242013E+01  0.23489632101E+01 -0.13100001338E+03  0.13106359096E+03  0.00000000000E+00 0.  1.
        -15    1    1    2    0    0 -0.37978475023E+01  0.37419699868E+01 -0.30769847855E+03  0.30774979678E+03  0.17770000000E+01 0.  1.
         15    1    1    2    0    0  0.53091730488E+01 -0.34312888342E+00 -0.61087280622E+02  0.61344263290E+02  0.17770000000E+01 0. -1.
</event>
<event>
 6    1  0.1599106E-003  0.5007944E+03  0.7546771E-02  0.9398034E-01
        -11   -1    0    0    0    0  0.00000000000E+00  0.00000000000E+00  0.50000000000E+03  0.50000000000E+03  0.00000000000E+00 0.  1.
         11   -1    0    0    0    0 -0.00000000000E+00 -0.00000000000E+00 -0.50000000000E+03  0.50000000000E+03  0.00000000000E+00 0. -1.
        -11    1    1    2    0    0  0.15192023021E+02  0.48148631997E+01  0.49895118597E+03  0.49920563544E+03  0.00000000000E+00 0.  1.
         11    1    1    2    0    0 -0.12507104123E+01  0.53663952151E+01 -0.36360978318E+03  0.36365153224E+03  0.00000000000E+00 0. -1.
        -15    1    1    2    0    0 -0.98077218953E+01 -0.13326659683E+02 -0.10444240937E+03  0.10575994455E+03  0.17770000000E+01 0.  1.
         15    1    1    2    0    0 -0.41335907137E+01  0.31454012676E+01 -0.30898993425E+02  0.31382887773E+02  0.17770000000E+01 0. -1.
</event>
<event>
 6    1  0.1599106E-003  0.5005406E+03  0.7546771E-02  0.9398601E-01
        -11   -1    0    0    0    0  0.00000000000E+00  0.00000000000E+00  0.50000000000E+03  0.50000000000E+03  0.00000000000E+00 0. -1.
         11   -1    0    0    0    0 -0.00000000000E+00 -0.00000000000E+00 -0.50000000000E+03  0.50000000000E+03  0.00000000000E+00 0. -1.
        -11    1    1    2    0    0 -0.31480319991E+01 -0.51240647943E+01  0.34962417609E+03  0.34967589372E+03  0.00000000000E+00 0. -1.
         11    1    1    2    0    0 -0.77680664651E+01  0.27394828777E+01 -0.49939147616E+03  0.49945940183E+03  0.00000000000E+00 0. -1.
        -15    1    1    2    0    0  0.16751961612E+01 -0.22870781000E+00  0.35123089186E+01  0.42839972433E+01  0.17770000000E+01 0.  1.
         15    1    1    2    0    0  0.92409023029E+01  0.26132897266E+01  0.14625499115E+03  0.14658070720E+03  0.17770000000E+01 0. -1.
</event>
<event>
 6    1  0.1599106E-003  0.5067722E+03  0.7546771E-02  0.9384783E-01
        -11   -1    0    0    0    0  0.00000000000E+00  0.00000000000E+00  0.50000000000E+03  0.50000000000E+03  0.00000000000E+00 0. -1.
         11   -1    0    0    0    0 -0.00000000000E+00 -0.00000000000E+00 -0.50000000000E+03  0.50000000000E+03  0.00000000000E+00 0. -1.
        -11    1    1    2    0    0  0.14431532509E+02 -0.35325398346E+01  0.45256985130E+03  0.45281366839E+03  0.00000000000E+00 0. -1.
         11    1    1    2    0    0 -0.41673186116E+01 -0.12954997006E+02 -0.49304004272E+03  0.49322781979E+03  0.00000000000E+00 0. -1.
        -15    1    1    2    0    0 -0.11296020681E+02  0.86932562254E+01  0.43138984058E+02  0.45467597930E+02  0.17770000000E+01 0.  1.
         15    1    1    2    0    0  0.10318067835E+01  0.77942806154E+01 -0.26687926404E+01  0.84909138912E+01  0.17770000000E+01 0. -1.
</event>
<event>
 6    1  0.1599106E-003  0.5007651E+03  0.7546771E-02  0.9398099E-01
        -11   -1    0    0    0    0  0.00000000000E+00  0.00000000000E+00  0.50000000000E+03  0.50000000000E+03  0.00000000000E+00 0. -1.
         11   -1    0    0    0    0 -0.00000000000E+00 -0.00000000000E+00 -0.50000000000E+03  0.50000000000E+03  0.00000000000E+00 0.  1.
        -11    1    1    2    0    0  0.10086392782E+02 -0.52915811729E+01  0.49910493719E+03  0.49923488908E+03  0.00000000000E+00 0. -1.
         11    1    1    2    0    0  0.55807697118E+01 -0.32152598671E+01 -0.26736928613E+03  0.26744685089E+03  0.00000000000E+00 0.  1.
        -15    1    1    2    0    0  0.20946202927E+01  0.52047955044E+01 -0.21208419140E+02  0.22009818305E+02  0.17770000000E+01 0. -1.
         15    1    1    2    0    0 -0.17761782787E+02  0.33020455356E+01 -0.21052723192E+03  0.21130844172E+03  0.17770000000E+01 0.  1.
</event>
<event>
 6    1  0.1599106E-003  0.5039120E+03  0.7546771E-02  0.9391099E-01
        -11   -1    0    0    0    0  0.00000000000E+00  0.00000000000E+00  0.50000000000E+03  0.50000000000E+03  0.00000000000E+00 0. -1.
         11   -1    0    0    0    0 -0.00000000000E+00 -0.00000000000E+00 -0.50000000000E+03  0.50000000000E+03  0.00000000000E+00 0.  1.
        -11    1    1    2    0    0  0.74357711391E+01  0.64924880431E+01  0.26681021349E+03  0.26699275855E+03  0.00000000000E+00 0. -1.
         11    1    1    2    0    0  0.13948389634E+02  0.17684526887E+02 -0.49557645611E+03  0.49608802033E+03  0.00000000000E+00 0.  1.
        -15    1    1    2    0    0 -0.18533227082E+02 -0.25050057782E+02  0.55938988805E+02  0.64057115909E+02  0.17770000000E+01 0.  1.
         15    1    1    2    0    0 -0.28509336910E+01  0.87304285248E+00  0.17282725382E+03  0.17286210521E+03  0.17770000000E+01 0. -1.
</event>
<event>
 6    1  0.1599106E-003  0.5042591E+03  0.7546771E-02  0.9390330E-01
        -11   -1    0    0    0    0  0.00000000000E+00  0.00000000000E+00  0.50000000000E+03  0.50000000000E+03  0.00000000000E+00 0.  1.
         11   -1    0    0    0    0 -0.00000000000E+00 -0.00000000000E+00 -0.50000000000E+03  0.50000000000E+03  0.00000000000E+00 0.  1.
        -11    1    1    2    0    0 -0.69149215621E+01  0.30808415741E+01  0.49287166076E+03  0.49292979389E+03  0.00000000000E+00 0.  1.
         11    1    1    2    0    0  0.72752544356E+01  0.11531184674E+00 -0.49568748478E+03  0.49574088514E+03  0.00000000000E+00 0.  1.
        -15    1    1    2    0    0  0.47115720626E+01 -0.21706494419E+01  0.10746079855E+01  0.55877671412E+01  0.17770000000E+01 0. -1.
         15    1    1    2    0    0 -0.50719049361E+01 -0.10255039789E+01  0.17412160381E+01  0.57415538300E+01  0.17770000000E+01 0.  1.
</event>
<event>
 6    1  0.1599106E-003  0.5218520E+03  0.7546771E-02  0.9352199E-01
        -11   -1    0    0    0    0  0.00000000000E+00  0.00000000000E+00  0.50000000000E+03  0.50000000000E+03  0.00000000000E+00 0. -1.
         11   -1    0    0    0    0 -0.00000000000E+00 -0.00000000000E+00 -0.50000000000E+03  0.50000000000E+03  0.00000000000E+00 0. -1.
        -11    1    1    2    0    0 -0.31877927198E+01 -0.63284437234E+01  0.30709500319E+03  0.30717674424E+03  0.00000000000E+00 0. -1.
         11    1    1    2    0    0  0.84784526371E+01 -0.18835350709E+02 -0.47770165969E+03  0.47814802129E+03  0.00000000000E+00 0. -1.
        -15    1    1    2    0    0 -0.17974766058E+02  0.15891465088E+01  0.18385935918E+03  0.18475129036E+03  0.17770000000E+01 0.  1.
         15    1    1    2    0    0  0.12684106141E+02  0.23574647923E+02 -0.13252702678E+02  0.29923944101E+02  0.17770000000E+01 0. -1.
</event>
<event>
 6    1  0.1599106E-003  0.5006758E+03  0.7546771E-02  0.9398299E-01
        -11   -1    0    0    0    0  0.00000000000E+00  0.00000000000E+00  0.50000000000E+03  0.50000000000E+03  0.00000000000E+00 0. -1.
         11   -1    0    0    0    0 -0.00000000000E+00 -0.00000000000E+00 -0.50000000000E+03  0.50000000000E+03  0.00000000000E+00 0. -1.
        -11    1    1    2    0    0 -0.69216332094E+01 -0.38743650928E+01  0.49926120679E+03  0.49932421563E+03  0.00000000000E+00 0. -1.
         11    1    1    2    0    0 -0.40422144553E+01 -0.21247197856E+01 -0.10654652968E+03  0.10664434781E+03  0.00000000000E+00 0. -1.
        -15    1    1    2    0    0  0.97913408624E+01  0.49762351307E+01 -0.39088604957E+03  0.39104436417E+03  0.17770000000E+01 0. -1.
         15    1    1    2    0    0  0.11725068023E+01  0.10228497477E+01 -0.18286275419E+01  0.29870723953E+01  0.17770000000E+01 0.  1.
</event>
<event>
 6    1  0.1599106E-003  0.5005070E+03  0.7546771E-02  0.9398676E-01
        -11   -1    0    0    0    0  0.00000000000E+00  0.00000000000E+00  0.50000000000E+03  0.50000000000E+03  0.00000000000E+00 0. -1.
         11   -1    0    0    0    0 -0.00000000000E+00 -0.00000000000E+00 -0.50000000000E+03  0.50000000000E+03  0.00000000000E+00 0.  1.
        -11    1    1    2    0    0  0.20688737462E+01  0.35752096258E+00  0.10981853304E+03  0.10983860095E+03  0.00000000000E+00 0. -1.
         11    1    1    2    0    0 -0.13768322745E+02  0.13737417483E+02 -0.49911415194E+03  0.49949296293E+03  0.00000000000E+00 0.  1.
        -15    1    1    2    0    0  0.20207706469E+02 -0.89368075226E+01  0.29535237181E+03  0.29618305015E+03  0.17770000000E+01 0. -1.
         15    1    1    2    0    0 -0.85082574696E+01 -0.51581309226E+01  0.93943247085E+02  0.94485385968E+02  0.17770000000E+01 0.  1.
</event>
<event>
 6    1  0.1599106E-003  0.5034138E+03  0.7546771E-02  0.9392203E-01
        -11   -1    0    0    0    0  0.00000000000E+00  0.00000000000E+00  0.50000000000E+03  0.50000000000E+03  0.00000000000E+00 0.  1.
         11   -1    0    0    0    0 -0.00000000000E+00 -0.00000000000E+00 -0.50000000000E+03  0.50000000000E+03  0.00000000000E+00 0. -1.
        -11    1    1    2    0    0 -0.41317551050E+00 -0.73745962495E+01  0.48349072401E+03  0.48354713895E+03  0.00000000000E+00 0.  1.
         11    1    1    2    0    0  0.52774964747E+01  0.56567324194E+01 -0.49652595761E+03  0.49658622330E+03  0.00000000000E+00 0. -1.
        -15    1    1    2    0    0 -0.91595068007E+01 -0.29444747004E+00  0.56509306133E+01  0.10912103827E+02  0.17770000000E+01 0.  1.
         15    1    1    2    0    0  0.42951858366E+01  0.20123113001E+01  0.73843029828E+01  0.89545339176E+01  0.17770000000E+01 0. -1.
</event>
<event>
 6    1  0.1599106E-003  0.5003496E+03  0.7546771E-02  0.9399028E-01
        -11   -1    0    0    0    0  0.00000000000E+00  0.00000000000E+00  0.50000000000E+03  0.50000000000E+03  0.00000000000E+00 0. -1.
         11   -1    0    0    0    0 -0.00000000000E+00 -0.00000000000E+00 -0.50000000000E+03  0.50000000000E+03  0.00000000000E+00 0. -1.
        -11    1    1    2    0    0  0.96286888078E+01 -0.45827368926E+01  0.49953655297E+03  0.49965035863E+03  0.00000000000E+00 0. -1.
         11    1    1    2    0    0  0.56229987800E+00  0.88905234551E+00 -0.53920418482E+02  0.53930678880E+02  0.00000000000E+00 0. -1.
        -15    1    1    2    0    0 -0.78173431425E+01  0.47849162928E+01 -0.43887322300E+03  0.43897251608E+03  0.17770000000E+01 0. -1.
         15    1    1    2    0    0 -0.23736455433E+01 -0.10912317457E+01 -0.67429114800E+01  0.74464464085E+01  0.17770000000E+01 0.  1.
</event>
<event>
 6    1  0.1599106E-003  0.5006757E+03  0.7546771E-02  0.9398299E-01
        -11   -1    0    0    0    0  0.00000000000E+00  0.00000000000E+00  0.50000000000E+03  0.50000000000E+03  0.00000000000E+00 0.  1.
         11   -1    0    0    0    0 -0.00000000000E+00 -0.00000000000E+00 -0.50000000000E+03  0.50000000000E+03  0.00000000000E+00 0.  1.
        -11    1    1    2    0    0 -0.21149950402E+01  0.46098032408E+01  0.35101931393E+03  0.35105595315E+03  0.00000000000E+00 0.  1.
         11    1    1    2    0    0  0.67166308885E+01  0.41603586015E+00 -0.49927897286E+03  0.49932432242E+03  0.00000000000E+00 0.  1.
        -15    1    1    2    0    0 -0.48732062275E+01  0.35080623688E+01  0.17808513294E+02  0.18877381049E+02  0.17770000000E+01 0.  1.
         15    1    1    2    0    0  0.27157037916E+00 -0.85339014698E+01  0.13045114564E+03  0.13074234338E+03  0.17770000000E+01 0. -1.
</event>
<event>
 6    1  0.1599106E-003  0.5024737E+03  0.7546771E-02  0.9394292E-01
        -11   -1    0    0    0    0  0.00000000000E+00  0.00000000000E+00  0.50000000000E+03  0.50000000000E+03  0.00000000000E+00 0.  1.
         11   -1    0    0    0    0 -0.00000000000E+00 -0.00000000000E+00 -0.50000000000E+03  0.50000000000E+03  0.00000000000E+00 0.  1.
        -11    1    1    2    0    0 -0.75824212054E+01  0.88983195414E+00  0.35435818214E+03  0.35444041271E+03  0.00000000000E+00 0.  1.
         11    1    1    2    0    0 -0.15074168520E+02  0.26914959600E+02 -0.49656897573E+03  0.49752627394E+03  0.00000000000E+00 0.  1.
        -15    1    1    2    0    0 -0.99162190635E-01 -0.17509528512E+01  0.10908247263E+01  0.27245727391E+01  0.17770000000E+01 0.  1.
         15    1    1    2    0    0  0.22755751916E+02 -0.26053838703E+02  0.14111996886E+03  0.14530874061E+03  0.17770000000E+01 0. -1.
</event>
<event>
 6    1  0.1599106E-003  0.5012518E+03  0.7546771E-02  0.9397013E-01
        -11   -1    0    0    0    0  0.00000000000E+00  0.00000000000E+00  0.50000000000E+03  0.50000000000E+03  0.00000000000E+00 0. -1.
         11   -1    0    0    0    0 -0.00000000000E+00 -0.00000000000E+00 -0.50000000000E+03  0.50000000000E+03  0.00000000000E+00 0. -1.
        -11    1    1    2    0    0 -0.21955182265E+01  0.98506491365E+01  0.35256231640E+03  0.35270673730E+03  0.00000000000E+00 0. -1.
         11    1    1    2    0    0  0.11352399878E+01  0.11251682077E+02 -0.49862001092E+03  0.49874823750E+03  0.00000000000E+00 0. -1.
        -15    1    1    2    0    0  0.51599439275E+01 -0.17138656653E+02  0.70739314493E+02  0.72990183704E+02  0.17770000000E+01 0.  1.
         15    1    1    2    0    0 -0.40996656888E+01 -0.39636745601E+01  0.75318380028E+02  0.75554841498E+02  0.17770000000E+01 0. -1.
</event>
<event>
 6    1  0.1599106E-003  0.5007730E+03  0.7546771E-02  0.9398082E-01
        -11   -1    0    0    0    0  0.00000000000E+00  0.00000000000E+00  0.50000000000E+03  0.50000000000E+03  0.00000000000E+00 0.  1.
         11   -1    0    0    0    0 -0.00000000000E+00 -0.00000000000E+00 -0.50000000000E+03  0.50000000000E+03  0.00000000000E+00 0. -1.
        -11    1    1    2    0    0 -0.24605540491E+01  0.73753283545E+01  0.44502730142E+03  0.44509521319E+03  0.00000000000E+00 0.  1.
         11    1    1    2    0    0  0.65487298279E+01 -0.31979031916E+01 -0.49917384329E+03  0.49922704081E+03  0.00000000000E+00 0. -1.
        -15    1    1    2    0    0 -0.56385356953E+01 -0.16435185640E+01  0.12887340409E+02  0.14273594847E+02  0.17770000000E+01 0. -1.
         15    1    1    2    0    0  0.15503599165E+01 -0.25339065989E+01  0.41259201461E+02  0.41404151154E+02  0.17770000000E+01 0.  1.
</event>
<event>
 6    1  0.1599106E-003  0.5893728E+03  0.7546771E-02  0.9219418E-01
        -11   -1    0    0    0    0  0.00000000000E+00  0.00000000000E+00  0.50000000000E+03  0.50000000000E+03  0.00000000000E+00 0. -1.
         11   -1    0    0    0    0 -0.00000000000E+00 -0.00000000000E+00 -0.50000000000E+03  0.50000000000E+03  0.00000000000E+00 0.  1.
        -11    1    1    2    0    0  0.36784672387E+01 -0.57989460648E+01  0.28755375154E+03  0.28763573999E+03  0.00000000000E+00 0. -1.
         11    1    1    2    0    0  0.17638258501E+02 -0.27003967780E+02 -0.40935844747E+03  0.41062715564E+03  0.00000000000E+00 0.  1.
        -15    1    1    2    0    0 -0.14101118483E+03  0.29964701619E+02  0.11014250832E+03  0.18142923540E+03  0.17770000000E+01 0. -1.
         15    1    1    2    0    0  0.11969445909E+03  0.28382122260E+01  0.11662187606E+02  0.12030786896E+03  0.17770000000E+01 0.  1.
</event>
<event>
 6    1  0.1599106E-003  0.5007385E+03  0.7546771E-02  0.9398159E-01
        -11   -1    0    0    0    0  0.00000000000E+00  0.00000000000E+00  0.50000000000E+03  0.50000000000E+03  0.00000000000E+00 0. -1.
         11   -1    0    0    0    0 -0.00000000000E+00 -0.00000000000E+00 -0.50000000000E+03  0.50000000000E+03  0.00000000000E+00 0. -1.
        -11    1    1    2    0    0 -0.35024539602E+01  0.33933555584E+01  0.19547595057E+03  0.19553677224E+03  0.00000000000E+00 0. -1.
         11    1    1    2    0    0 -0.36401451826E+01 -0.91939425791E+01 -0.49916355462E+03  0.49926148809E+03  0.00000000000E+00 0. -1.
        -15    1    1    2    0    0  0.79647359555E+01  0.11632747414E+02  0.69722317793E+02  0.71155584170E+02  0.17770000000E+01 0. -1.
         15    1    1    2    0    0 -0.82213681273E+00 -0.58321603930E+01  0.23396528625E+03  0.23404615550E+03  0.17770000000E+01 0.  1.
</event>
<event>
 6    1  0.1599106E-003  0.5223487E+03  0.7546771E-02  0.9351146E-01
        -11   -1    0    0    0    0  0.00000000000E+00  0.00000000000E+00  0.50000000000E+03  0.50000000000E+03  0.00000000000E+00 0. -1.
         11   -1    0    0    0    0 -0.00000000000E+00 -0.00000000000E+00 -0.50000000000E+03  0.50000000000E+03  0.00000000000E+00 0.  1.
        -11    1    1    2    0    0  0.21267745024E+00  0.27969349972E+01  0.11027991684E+03  0.11031558428E+03  0.00000000000E+00 0. -1.
         11    1    1    2    0    0  0.63706962867E+01  0.10665779760E+01 -0.47760765082E+03  0.47765132835E+03  0.00000000000E+00 0.  1.
        -15    1    1    2    0    0  0.19700801339E+02  0.88275983688E+00  0.38131631603E+03  0.38183005570E+03  0.17770000000E+01 0. -1.
         15    1    1    2    0    0 -0.26284175076E+02 -0.47462728101E+01 -0.13988582052E+02  0.30203031666E+02  0.17770000000E+01 0.  1.
</event>
<event>
 6    1  0.1599106E-003  0.5011752E+03  0.7546771E-02  0.9397184E-01
        -11   -1    0    0    0    0  0.00000000000E+00  0.00000000000E+00  0.50000000000E+03  0.50000000000E+03  0.00000000000E+00 0.  1.
         11   -1    0    0    0    0 -0.00000000000E+00 -0.00000000000E+00 -0.50000000000E+03  0.50000000000E+03  0.00000000000E+00 0.  1.
        -11    1    1    2    0    0  0.38011292431E+01  0.10256312402E+02  0.41970010262E+03  0.41984260940E+03  0.00000000000E+00 0.  1.
         11    1    1    2    0    0  0.10654788822E+02 -0.59580783797E+00 -0.49871060632E+03  0.49882476720E+03  0.00000000000E+00 0.  1.
        -15    1    1    2    0    0 -0.11115927063E+02 -0.99573874705E+01  0.69211292705E+02  0.70824248436E+02  0.17770000000E+01 0. -1.
         15    1    1    2    0    0 -0.33399910017E+01  0.29688290667E+00  0.97992109906E+01  0.10508374964E+02  0.17770000000E+01 0.  1.
</event>
<event>
 6    1  0.1599106E-003  0.5026668E+03  0.7546771E-02  0.9393862E-01
        -11   -1    0    0    0    0  0.00000000000E+00  0.00000000000E+00  0.50000000000E+03  0.50000000000E+03  0.00000000000E+00 0.  1.
         11   -1    0    0    0    0 -0.00000000000E+00 -0.00000000000E+00 -0.50000000000E+03  0.50000000000E+03  0.00000000000E+00 0.  1.
        -11    1    1    2    0    0  0.30956228893E+01  0.59935351332E+01  0.49728745455E+03  0.49733320601E+03  0.00000000000E+00 0.  1.
         11    1    1    2    0    0 -0.56875888393E+01 -0.39870525514E+01 -0.43352112281E+03  0.43357676273E+03  0.00000000000E+00 0.  1.
        -15    1    1    2    0    0 -0.52840587677E+01 -0.81203407169E+00 -0.91084230323E+00  0.57068414290E+01  0.17770000000E+01 0.  1.
         15    1    1    2    0    0  0.78760247177E+01 -0.11944485101E+01 -0.62855489435E+02  0.63383189836E+02  0.17770000000E+01 0. -1.
</event>
<event>
 6    1  0.1599106E-003  0.5277783E+03  0.7546771E-02  0.9339713E-01
        -11   -1    0    0    0    0  0.00000000000E+00  0.00000000000E+00  0.50000000000E+03  0.50000000000E+03  0.00000000000E+00 0.  1.
         11   -1    0    0    0    0 -0.00000000000E+00 -0.00000000000E+00 -0.50000000000E+03  0.50000000000E+03  0.00000000000E+00 0. -1.
        -11    1    1    2    0    0  0.38374452014E+01  0.67570747918E+01  0.46077407153E+03  0.46083959144E+03  0.00000000000E+00 0.  1.
         11    1    1    2    0    0 -0.59387751423E+01 -0.37928114144E+01 -0.47216912878E+03  0.47222170709E+03  0.00000000000E+00 0. -1.
        -15    1    1    2    0    0 -0.55223766338E+01 -0.28192922971E+02 -0.12442607048E+02  0.31357833925E+02  0.17770000000E+01 0.  1.
         15    1    1    2    0    0  0.76237065747E+01  0.25228659594E+02  0.23837664304E+02  0.35580867546E+02  0.17770000000E+01 0. -1.
</event>
<event>
 6    1  0.1599106E-003  0.5172196E+03  0.7546771E-02  0.9362083E-01
        -11   -1    0    0    0    0  0.00000000000E+00  0.00000000000E+00  0.50000000000E+03  0.50000000000E+03  0.00000000000E+00 0.  1.
         11   -1    0    0    0    0 -0.00000000000E+00 -0.00000000000E+00 -0.50000000000E+03  0.50000000000E+03  0.00000000000E+00 0. -1.
        -11    1    1    2    0    0 -0.38655183838E+02 -0.86908662426E+01  0.48115193770E+03  0.48278042788E+03  0.00000000000E+00 0.  1.
         11    1    1    2    0    0 -0.49637549979E+01 -0.57292455196E+01 -0.40879285571E+03  0.40886313358E+03  0.00000000000E+00 0. -1.
        -15    1    1    2    0    0  0.25677445279E+02  0.88535022443E+00 -0.80397642258E+02  0.84421878981E+02  0.17770000000E+01 0. -1.
         15    1    1    2    0    0  0.17941493557E+02  0.13534761538E+02  0.80385602687E+01  0.23934559556E+02  0.17770000000E+01 0.  1.
</event>
<event>
 6    1  0.1599106E-003  0.5007694E+03  0.7546771E-02  0.9398090E-01
        -11   -1    0    0    0    0  0.00000000000E+00  0.00000000000E+00  0.50000000000E+03  0.50000000000E+03  0.00000000000E+00 0.  1.
         11   -1    0    0    0    0 -0.00000000000E+00 -0.00000000000E+00 -0.50000000000E+03  0.50000000000E+03  0.00000000000E+00 0.  1.
        -11    1    1    2    0    0 -0.83520304146E+01 -0.19091214403E+01  0.49915705843E+03  0.49923057812E+03  0.00000000000E+00 0.  1.
         11    1    1    2    0    0 -0.60838229857E+00  0.92504616715E+01 -0.29494058465E+03  0.29508624102E+03  0.00000000000E+00 0.  1.
        -15    1    1    2    0    0  0.37632556992E+01 -0.75227628974E+01 -0.19301368215E+03  0.19320505501E+03  0.17770000000E+01 0.  1.
         15    1    1    2    0    0  0.51971570139E+01  0.18142266612E+00 -0.11202791631E+02  0.12478125843E+02  0.17770000000E+01 0. -1.
</event>
<event>
 6    1  0.1599106E-003  0.5002814E+03  0.7546771E-02  0.9399180E-01
        -11   -1    0    0    0    0  0.00000000000E+00  0.00000000000E+00  0.50000000000E+03  0.50000000000E+03  0.00000000000E+00 0. -1.
         11   -1    0    0    0    0 -0.00000000000E+00 -0.00000000000E+00 -0.50000000000E+03  0.50000000000E+03  0.00000000000E+00 0. -1.
        -11    1    1    2    0    0  0.84821304120E+01  0.11845822975E+02  0.49950614734E+03  0.49971858210E+03  0.00000000000E+00 0. -1.
         11    1    1    2    0    0  0.28353252101E+01 -0.30028671891E+01 -0.23940279680E+03  0.23943841671E+03  0.00000000000E+00 0. -1.
        -15    1    1    2    0    0 -0.63630431625E+01 -0.98575244608E+01 -0.10889407695E+03  0.10953874580E+03  0.17770000000E+01 0.  1.
         15    1    1    2    0    0 -0.49544124596E+01  0.10145686751E+01 -0.15120927359E+03  0.15130425539E+03  0.17770000000E+01 0. -1.
</event>
<event>
 6    1  0.1599106E-003  0.5387738E+03  0.7546771E-02  0.9316999E-01
        -11   -1    0    0    0    0  0.00000000000E+00  0.00000000000E+00  0.50000000000E+03  0.50000000000E+03  0.00000000000E+00 0. -1.
         11   -1    0    0    0    0 -0.00000000000E+00 -0.00000000000E+00 -0.50000000000E+03  0.50000000000E+03  0.00000000000E+00 0. -1.
        -11    1    1    2    0    0  0.37045656441E+02 -0.14547112225E+02  0.45950580859E+03  0.46122617799E+03  0.00000000000E+00 0. -1.
         11    1    1    2    0    0  0.58687097413E+02 -0.55158764447E+02 -0.23859496980E+03  0.25182181064E+03  0.00000000000E+00 0. -1.
        -15    1    1    2    0    0 -0.23968151734E+02  0.72985356010E+00  0.16735461623E+02  0.29295705973E+02  0.17770000000E+01 0.  1.
         15    1    1    2    0    0 -0.71764602121E+02  0.68976023112E+02 -0.23764630041E+03  0.25765630540E+03  0.17770000000E+01 0. -1.
</event>
<event>
 6    1  0.3166972E-003  0.5000957E+03  0.7546771E-02  0.9399596E-01
        -11   -1    0    0    0    0  0.00000000000E+00  0.00000000000E+00  0.50000000000E+03  0.50000000000E+03  0.00000000000E+00 0.  1.
         11   -1    0    0    0    0 -0.00000000000E+00 -0.00000000000E+00 -0.50000000000E+03  0.50000000000E+03  0.00000000000E+00 0.  1.
        -11    1    1    2    0    0 -0.58967034032E+01 -0.40803727431E+01  0.49985290110E+03  0.49990433413E+03  0.00000000000E+00 0.  1.
         11    1    1    2    0    0  0.44270246217E+00 -0.44149478911E+00 -0.46336872230E+02  0.46341090095E+02  0.00000000000E+00 0.  1.
        -15    1    1    2    0    0 -0.27852442153E+01  0.50777518126E+01 -0.15307555098E+03  0.15319537586E+03  0.17770000000E+01 0.  1.
         15    1    1    2    0    0  0.82392451563E+01 -0.55588428036E+00 -0.30044047789E+03  0.30055919991E+03  0.17770000000E+01 0. -1.
</event>
<event>
 6    1  0.1599106E-003  0.5015279E+03  0.7546771E-02  0.9396397E-01
        -11   -1    0    0    0    0  0.00000000000E+00  0.00000000000E+00  0.50000000000E+03  0.50000000000E+03  0.00000000000E+00 0.  1.
         11   -1    0    0    0    0 -0.00000000000E+00 -0.00000000000E+00 -0.50000000000E+03  0.50000000000E+03  0.00000000000E+00 0. -1.
        -11    1    1    2    0    0  0.69443527008E+01 -0.40878443911E+01  0.43714872532E+03  0.43722298951E+03  0.00000000000E+00 0.  1.
         11    1    1    2    0    0 -0.17063574704E+01  0.85419890000E+01 -0.49839597329E+03  0.49847208891E+03  0.00000000000E+00 0. -1.
        -15    1    1    2    0    0  0.36036157521E+01 -0.15453077041E+00  0.25452435278E+01  0.47587729368E+01  0.17770000000E+01 0. -1.
         15    1    1    2    0    0 -0.88416109825E+01 -0.42996138386E+01  0.58702004437E+02  0.59546148640E+02  0.17770000000E+01 0.  1.
</event>
<event>
 6    1  0.1599106E-003  0.5006176E+03  0.7546771E-02  0.9398429E-01
        -11   -1    0    0    0    0  0.00000000000E+00  0.00000000000E+00  0.50000000000E+03  0.50000000000E+03  0.00000000000E+00 0.  1.
         11   -1    0    0    0    0 -0.00000000000E+00 -0.00000000000E+00 -0.50000000000E+03  0.50000000000E+03  0.00000000000E+00 0. -1.
        -11    1    1    2    0    0  0.18867702086E+01 -0.17735347777E-01  0.25206278269E+02  0.25276801232E+02  0.00000000000E+00 0.  1.
         11    1    1    2    0    0  0.28303654639E+01  0.15447046785E+02 -0.49913542256E+03  0.49938241086E+03  0.00000000000E+00 0. -1.
        -15    1    1    2    0    0 -0.59090914179E+01 -0.71028279590E+01  0.32668745230E+02  0.33996649398E+02  0.17770000000E+01 0. -1.
         15    1    1    2    0    0  0.11919557454E+01 -0.83264834782E+01  0.44126039906E+03  0.44134413851E+03  0.17770000000E+01 0.  1.
</event>
<event>
 6    1  0.1599106E-003  0.5024665E+03  0.7546771E-02  0.9394308E-01
        -11   -1    0    0    0    0  0.00000000000E+00  0.00000000000E+00  0.50000000000E+03  0.50000000000E+03  0.00000000000E+00 0. -1.
         11   -1    0    0    0    0 -0.00000000000E+00 -0.00000000000E+00 -0.50000000000E+03  0.50000000000E+03  0.00000000000E+00 0.  1.
        -11    1    1    2    0    0  0.43696648812E+01  0.70335209220E+01  0.49746462639E+03  0.49753353545E+03  0.00000000000E+00 0. -1.
         11    1    1    2    0    0 -0.82339731811E+01 -0.36430373147E+01 -0.46609275098E+03  0.46617971058E+03  0.00000000000E+00 0.  1.
        -15    1    1    2    0    0 -0.35981817334E+00 -0.70267800269E+01 -0.39790504287E+01  0.82762115717E+01  0.17770000000E+01 0.  1.
         15    1    1    2    0    0  0.42241264732E+01  0.36362964197E+01 -0.27392824981E+02  0.28010542400E+02  0.17770000000E+01 0. -1.
</event>
<event>
 6    1  0.1599106E-003  0.5021347E+03  0.7546771E-02  0.9395046E-01
        -11   -1    0    0    0    0  0.00000000000E+00  0.00000000000E+00  0.50000000000E+03  0.50000000000E+03  0.00000000000E+00 0.  1.
         11   -1    0    0    0    0 -0.00000000000E+00 -0.00000000000E+00 -0.50000000000E+03  0.50000000000E+03  0.00000000000E+00 0.  1.
        -11    1    1    2    0    0 -0.13895455327E+02 -0.28251821709E+01  0.35019301240E+03  0.35047997271E+03  0.00000000000E+00 0.  1.
         11    1    1    2    0    0  0.68658807351E+01 -0.67270374605E+01 -0.49777250417E+03  0.49786530232E+03  0.00000000000E+00 0.  1.
        -15    1    1    2    0    0  0.32590039226E+01  0.13349453056E+02  0.14462827091E+03  0.14529047966E+03  0.17770000000E+01 0.  1.
         15    1    1    2    0    0  0.37705706693E+01 -0.37972334249E+01  0.29512208503E+01  0.63642453097E+01  0.17770000000E+01 0. -1.
</event>
<event>
 6    1  0.1599106E-003  0.5159122E+03  0.7546771E-02  0.9364892E-01
        -11   -1    0    0    0    0  0.00000000000E+00  0.00000000000E+00  0.50000000000E+03  0.50000000000E+03  0.00000000000E+00 0. -1.
         11   -1    0    0    0    0 -0.00000000000E+00 -0.00000000000E+00 -0.50000000000E+03  0.50000000000E+03  0.00000000000E+00 0.  1.
        -11    1    1    2    0    0  0.47840475085E+01 -0.52148684006E+01  0.48403611869E+03  0.48408784963E+03  0.00000000000E+00 0. -1.
         11    1    1    2    0    0 -0.28054012403E+02  0.16065217771E+02 -0.69142757188E+02  0.76327188508E+02  0.00000000000E+00 0.  1.
        -15    1    1    2    0    0  0.11524070594E+02 -0.84056226058E+01  0.80452547655E+01  0.16472478492E+02  0.17770000000E+01 0. -1.
         15    1    1    2    0    0  0.11745894301E+02 -0.24447267642E+01 -0.42293861627E+03  0.42311248337E+03  0.17770000000E+01 0.  1.
</event>
<event>
 6    1  0.1599106E-003  0.5096355E+03  0.7546771E-02  0.9378504E-01
        -11   -1    0    0    0    0  0.00000000000E+00  0.00000000000E+00  0.50000000000E+03  0.50000000000E+03  0.00000000000E+00 0. -1.
         11   -1    0    0    0    0 -0.00000000000E+00 -0.00000000000E+00 -0.50000000000E+03  0.50000000000E+03  0.00000000000E+00 0.  1.
        -11    1    1    2    0    0  0.17131745304E+01  0.11472367313E+02  0.47997852305E+03  0.48011866530E+03  0.00000000000E+00 0. -1.
         11    1    1    2    0    0 -0.36491764450E+01 -0.76501194639E+01 -0.49029124908E+03  0.49036450702E+03  0.00000000000E+00 0.  1.
        -15    1    1    2    0    0  0.10844532687E+01  0.10436372903E+02  0.10735746573E+02  0.15116477822E+02  0.17770000000E+01 0.  1.
         15    1    1    2    0    0  0.85154864580E+00 -0.14258620752E+02 -0.42302053798E+00  0.14400349864E+02  0.17770000000E+01 0.  1.
</event>
<event>
 6    1  0.1599106E-003  0.5003097E+03  0.7546771E-02  0.9399117E-01
        -11   -1    0    0    0    0  0.00000000000E+00  0.00000000000E+00  0.50000000000E+03  0.50000000000E+03  0.00000000000E+00 0. -1.
         11   -1    0    0    0    0 -0.00000000000E+00 -0.00000000000E+00 -0.50000000000E+03  0.50000000000E+03  0.00000000000E+00 0. -1.
        -11    1    1    2    0    0 -0.35271299637E+01  0.70898919627E+01  0.49962754246E+03  0.49969029248E+03  0.00000000000E+00 0. -1.
         11    1    1    2    0    0  0.62854045735E+01 -0.36617370463E+01 -0.12081476602E+03  0.12103355864E+03  0.00000000000E+00 0. -1.
        -15    1    1    2    0    0 -0.47389261723E+01  0.66168532584E+01 -0.15981473562E+03  0.16003170816E+03  0.17770000000E+01 0.  1.
         15    1    1    2    0    0  0.19806515625E+01 -0.10045008175E+02 -0.21899804082E+03  0.21924444071E+03  0.17770000000E+01 0. -1.
</event>
<event>
 6    1  0.1599106E-003  0.5001923E+03  0.7546771E-02  0.9399379E-01
        -11   -1    0    0    0    0  0.00000000000E+00  0.00000000000E+00  0.50000000000E+03  0.50000000000E+03  0.00000000000E+00 0.  1.
         11   -1    0    0    0    0 -0.00000000000E+00 -0.00000000000E+00 -0.50000000000E+03  0.50000000000E+03  0.00000000000E+00 0. -1.
        -11    1    1    2    0    0 -0.75687096532E+01  0.40040571115E+01  0.49973432197E+03  0.49980767340E+03  0.00000000000E+00 0.  1.
         11    1    1    2    0    0 -0.14430849424E+01  0.15403088634E+00 -0.25220037923E+02  0.25261760281E+02  0.00000000000E+00 0. -1.
        -15    1    1    2    0    0  0.62487333210E+01 -0.30263379715E+00 -0.43985813600E+03  0.43990621249E+03  0.17770000000E+01 0. -1.
         15    1    1    2    0    0  0.27630612746E+01 -0.38554542007E+01 -0.34656148043E+02  0.35024353826E+02  0.17770000000E+01 0.  1.
</event>
<event>
 6    1  0.1599106E-003  0.5036469E+03  0.7546771E-02  0.9391686E-01
        -11   -1    0    0    0    0  0.00000000000E+00  0.00000000000E+00  0.50000000000E+03  0.50000000000E+03  0.00000000000E+00 0. -1.
         11   -1    0    0    0    0 -0.00000000000E+00 -0.00000000000E+00 -0.50000000000E+03  0.50000000000E+03  0.00000000000E+00 0. -1.
        -11    1    1    2    0    0  0.32178624402E+01 -0.24988594834E+01  0.18126506807E+03  0.18131084865E+03  0.00000000000E+00 0. -1.
         11    1    1    2    0    0 -0.15313477105E+02  0.12457067679E+02 -0.49596037198E+03  0.49635307160E+03  0.00000000000E+00 0. -1.
        -15    1    1    2    0    0 -0.17367583976E+01  0.61478423067E+01  0.28847609539E+03  0.28855229618E+03  0.17770000000E+01 0. -1.
         15    1    1    2    0    0  0.13832373063E+02 -0.16106050502E+02  0.26219208519E+02  0.33783783561E+02  0.17770000000E+01 0.  1.
</event>
<event>
 6    1  0.1599106E-003  0.5004651E+03  0.7546771E-02  0.9398770E-01
        -11   -1    0    0    0    0  0.00000000000E+00  0.00000000000E+00  0.50000000000E+03  0.50000000000E+03  0.00000000000E+00 0.  1.
         11   -1    0    0    0    0 -0.00000000000E+00 -0.00000000000E+00 -0.50000000000E+03  0.50000000000E+03  0.00000000000E+00 0.  1.
        -11    1    1    2    0    0  0.18160228312E+01 -0.61775430889E+01  0.36291162198E+02  0.36857949362E+02  0.00000000000E+00 0.  1.
         11    1    1    2    0    0  0.14120869590E+01  0.70430788368E+01 -0.49948328075E+03  0.49953493041E+03  0.00000000000E+00 0.  1.
        -15    1    1    2    0    0  0.46039193783E+01 -0.44165340380E+01  0.35417828783E+03  0.35424019979E+03  0.17770000000E+01 0.  1.
         15    1    1    2    0    0 -0.78320291685E+01  0.35509982901E+01  0.10901383072E+03  0.10936692044E+03  0.17770000000E+01 0. -1.
</event>
<event>
 6    1  0.1599106E-003  0.5082643E+03  0.7546771E-02  0.9381505E-01
        -11   -1    0    0    0    0  0.00000000000E+00  0.00000000000E+00  0.50000000000E+03  0.50000000000E+03  0.00000000000E+00 0.  1.
         11   -1    0    0    0    0 -0.00000000000E+00 -0.00000000000E+00 -0.50000000000E+03  0.50000000000E+03  0.00000000000E+00 0. -1.
        -11    1    1    2    0    0 -0.18149746429E+02 -0.20057241036E+02  0.49099112402E+03  0.49173569128E+03  0.00000000000E+00 0.  1.
         11    1    1    2    0    0  0.11531329365E+02  0.25988453224E+01 -0.41630951431E+03  0.41647729501E+03  0.00000000000E+00 0. -1.
        -15    1    1    2    0    0  0.20573113259E+02  0.14521240309E+02 -0.12887119078E+02  0.28343517361E+02  0.17770000000E+01 0.  1.
         15    1    1    2    0    0 -0.13954696195E+02  0.29371554052E+01 -0.61794490627E+02  0.63443496346E+02  0.17770000000E+01 0.  1.
</event>
<event>
 6    1  0.1599106E-003  0.5051858E+03  0.7546771E-02  0.9388280E-01
        -11   -1    0    0    0    0  0.00000000000E+00  0.00000000000E+00  0.50000000000E+03  0.50000000000E+03  0.00000000000E+00 0.  1.
         11   -1    0    0    0    0 -0.00000000000E+00 -0.00000000000E+00 -0.50000000000E+03  0.50000000000E+03  0.00000000000E+00 0.  1.
        -11    1    1    2    0    0 -0.95506984774E+01  0.29801924594E+01  0.49471304027E+03  0.49481419705E+03  0.00000000000E+00 0.  1.
         11    1    1    2    0    0 -0.19664540166E+01 -0.11811297450E+02 -0.46039950631E+03  0.46055518573E+03  0.00000000000E+00 0.  1.
        -15    1    1    2    0    0  0.10203457147E+02  0.14581552029E+02 -0.34053512488E+02  0.38464680411E+02  0.17770000000E+01 0.  1.
         15    1    1    2    0    0  0.13136953469E+01 -0.57504470386E+01 -0.26002147212E+00  0.61659368124E+01  0.17770000000E+01 0. -1.
</event>
<event>
 6    1  0.1599106E-003  0.4799850E+03  0.7546771E-02  0.9445743E-01
        -11   -1    0    0    0    0  0.00000000000E+00  0.00000000000E+00  0.50000000000E+03  0.50000000000E+03  0.00000000000E+00 0. -1.
         11   -1    0    0    0    0 -0.00000000000E+00 -0.00000000000E+00 -0.50000000000E+03  0.50000000000E+03  0.00000000000E+00 0.  1.
        -11    1    1    2    0    0  0.21918773804E+02  0.87330449503E+00  0.48199921839E+03  0.48249812625E+03  0.00000000000E+00 0. -1.
         11    1    1    2    0    0 -0.70460594591E+00 -0.10197781743E+02 -0.47765190612E+03  0.47776127369E+03  0.00000000000E+00 0.  1.
        -15    1    1    2    0    0 -0.12395599812E+02  0.12769972468E+01  0.13331156458E+02  0.18334641480E+02  0.17770000000E+01 0. -1.
         15    1    1    2    0    0 -0.88185680453E+01  0.80474800012E+01 -0.17678468736E+02  0.21405958577E+02  0.17770000000E+01 0.  1.
</event>
<event>
 6    1  0.1599106E-003  0.6014841E+03  0.7546771E-02  0.9197594E-01
        -11   -1    0    0    0    0  0.00000000000E+00  0.00000000000E+00  0.50000000000E+03  0.50000000000E+03  0.00000000000E+00 0.  1.
         11   -1    0    0    0    0 -0.00000000000E+00 -0.00000000000E+00 -0.50000000000E+03  0.50000000000E+03  0.00000000000E+00 0.  1.
        -11    1    1    2    0    0 -0.28657999232E+02 -0.30628109268E+02  0.34113537094E+03  0.34370438359E+03  0.00000000000E+00 0.  1.
         11    1    1    2    0    0  0.56696673527E+01  0.16530994096E+01 -0.39847214257E+03  0.39851590467E+03  0.00000000000E+00 0.  1.
        -15    1    1    2    0    0 -0.76506966996E+01 -0.50485277314E+00 -0.97185984505E+02  0.97504160678E+02  0.17770000000E+01 0. -1.
         15    1    1    2    0    0  0.30639028579E+02  0.29479862632E+02  0.15452275614E+03  0.16027555106E+03  0.17770000000E+01 0.  1.
</event>
<event>
 6    1  0.1599106E-003  0.5020085E+03  0.7546771E-02  0.9395327E-01
        -11   -1    0    0    0    0  0.00000000000E+00  0.00000000000E+00  0.50000000000E+03  0.50000000000E+03  0.00000000000E+00 0.  1.
         11   -1    0    0    0    0 -0.00000000000E+00 -0.00000000000E+00 -0.50000000000E+03  0.50000000000E+03  0.00000000000E+00 0.  1.
        -11    1    1    2    0    0 -0.66566931644E+01  0.13722259422E+01  0.49794511640E+03  0.49799149944E+03  0.00000000000E+00 0.  1.
         11    1    1    2    0    0 -0.58777220375E+01  0.91803777507E+01 -0.33208273251E+03  0.33226159601E+03  0.00000000000E+00 0.  1.
        -15    1    1    2    0    0  0.91424979733E+00  0.10087374106E+02 -0.80049961202E+02  0.80707775254E+02  0.17770000000E+01 0.  1.
         15    1    1    2    0    0  0.11620165405E+02 -0.20639977798E+02 -0.85812422690E+02  0.89039129288E+02  0.17770000000E+01 0. -1.
</event>
<event>
 6    1  0.1599106E-003  0.5012179E+03  0.7546771E-02  0.9397089E-01
        -11   -1    0    0    0    0  0.00000000000E+00  0.00000000000E+00  0.50000000000E+03  0.50000000000E+03  0.00000000000E+00 0. -1.
         11   -1    0    0    0    0 -0.00000000000E+00 -0.00000000000E+00 -0.50000000000E+03  0.50000000000E+03  0.00000000000E+00 0.  1.
        -11    1    1    2    0    0 -0.12314048840E+02 -0.16697693652E+02  0.49835040427E+03  0.49878209091E+03  0.00000000000E+00 0. -1.
         11    1    1    2    0    0  0.70768179786E+01 -0.56839465356E+01 -0.90985447185E+02  0.91437083289E+02  0.00000000000E+00 0.  1.
        -15    1    1    2    0    0 -0.95303753905E+01 -0.19355553071E+01 -0.36285347429E+02  0.37607959217E+02  0.17770000000E+01 0. -1.
         15    1    1    2    0    0  0.14767606252E+02  0.24317195495E+02 -0.37107960966E+03  0.37217286659E+03  0.17770000000E+01 0.  1.
</event>
<event>
 6    1  0.1599106E-003  0.5289408E+03  0.7546771E-02  0.9337284E-01
        -11   -1    0    0    0    0  0.00000000000E+00  0.00000000000E+00  0.50000000000E+03  0.50000000000E+03  0.00000000000E+00 0. -1.
         11   -1    0    0    0    0 -0.00000000000E+00 -0.00000000000E+00 -0.50000000000E+03  0.50000000000E+03  0.00000000000E+00 0.  1.
        -11    1    1    2    0    0  0.12493018191E+02  0.68468606397E+01  0.47084374936E+03  0.47105922272E+03  0.00000000000E+00 0. -1.
         11    1    1    2    0    0  0.15082495124E+02  0.91498618899E+01 -0.44506916213E+03  0.44541863534E+03  0.00000000000E+00 0.  1.
        -15    1    1    2    0    0 -0.62605431171E+01  0.53083253839E+01 -0.46274580378E+02  0.47030492626E+02  0.17770000000E+01 0.  1.
         15    1    1    2    0    0 -0.21314970198E+02 -0.21305047914E+02  0.20499993148E+02  0.36491649308E+02  0.17770000000E+01 0. -1.
</event>
<event>
 6    1  0.1599106E-003  0.5148060E+03  0.7546771E-02  0.9367276E-01
        -11   -1    0    0    0    0  0.00000000000E+00  0.00000000000E+00  0.50000000000E+03  0.50000000000E+03  0.00000000000E+00 0.  1.
         11   -1    0    0    0    0 -0.00000000000E+00 -0.00000000000E+00 -0.50000000000E+03  0.50000000000E+03  0.00000000000E+00 0.  1.
        -11    1    1    2    0    0 -0.77113396022E+01  0.10542629732E+02  0.44141502967E+03  0.44160824292E+03  0.00000000000E+00 0.  1.
         11    1    1    2    0    0  0.18056966837E+02 -0.93300447719E+01 -0.48476806142E+03  0.48519395829E+03  0.00000000000E+00 0.  1.
        -15    1    1    2    0    0 -0.12906515859E+02  0.56587154380E+01 -0.11222893153E+02  0.18102769726E+02  0.17770000000E+01 0. -1.
         15    1    1    2    0    0  0.25608886240E+01 -0.68713003977E+01  0.54575924906E+02  0.55095029068E+02  0.17770000000E+01 0.  1.
</event>
<event>
 6    1  0.1599106E-003  0.5001395E+03  0.7546771E-02  0.9399498E-01
        -11   -1    0    0    0    0  0.00000000000E+00  0.00000000000E+00  0.50000000000E+03  0.50000000000E+03  0.00000000000E+00 0. -1.
         11   -1    0    0    0    0 -0.00000000000E+00 -0.00000000000E+00 -0.50000000000E+03  0.50000000000E+03  0.00000000000E+00 0. -1.
        -11    1    1    2    0    0 -0.25571573414E+01 -0.29816330332E+01  0.18629976183E+03  0.18634116681E+03  0.00000000000E+00 0. -1.
         11    1    1    2    0    0 -0.10680443306E+00 -0.68481787582E+01 -0.49981362285E+03  0.49986054710E+03  0.00000000000E+00 0. -1.
        -15    1    1    2    0    0 -0.27769923420E+01  0.40422197556E+01  0.12466659702E+03  0.12477567619E+03  0.17770000000E+01 0.  1.
         15    1    1    2    0    0  0.54409541165E+01  0.57875920358E+01  0.18884726400E+03  0.18902260990E+03  0.17770000000E+01 0. -1.
</event>
<event>
 6    1  0.1599106E-003  0.5007661E+03  0.7546771E-02  0.9398097E-01
        -11   -1    0    0    0    0  0.00000000000E+00  0.00000000000E+00  0.50000000000E+03  0.50000000000E+03  0.00000000000E+00 0. -1.
         11   -1    0    0    0    0 -0.00000000000E+00 -0.00000000000E+00 -0.50000000000E+03  0.50000000000E+03  0.00000000000E+00 0. -1.
        -11    1    1    2    0    0 -0.44257573846E+01  0.11575612868E+02  0.49908008259E+03  0.49923392411E+03  0.00000000000E+00 0. -1.
         11    1    1    2    0    0 -0.42310502901E+00 -0.52036582707E+01 -0.13096982172E+03  0.13107383903E+03  0.00000000000E+00 0. -1.
        -15    1    1    2    0    0  0.57680263736E+01 -0.12470772398E+02 -0.62610478030E+02  0.64125033962E+02  0.17770000000E+01 0.  1.
         15    1    1    2    0    0 -0.91916395996E+00  0.60988178005E+01 -0.30549978284E+03  0.30556720290E+03  0.17770000000E+01 0.  1.
</event>
<event>
 6    1  0.1599106E-003  0.5101679E+03  0.7546771E-02  0.9377341E-01
        -11   -1    0    0    0    0  0.00000000000E+00  0.00000000000E+00  0.50000000000E+03  0.50000000000E+03  0.00000000000E+00 0. -1.
         11   -1    0    0    0    0 -0.00000000000E+00 -0.00000000000E+00 -0.50000000000E+03  0.50000000000E+03  0.00000000000E+00 0. -1.
        -11    1    1    2    0    0 -0.83710247868E+01 -0.93911178341E+01  0.40307979349E+03  0.40327606806E+03  0.00000000000E+00 0. -1.
         11    1    1    2    0    0  0.88956064977E+01 -0.11193363259E+02 -0.48962338437E+03  0.48983209544E+03  0.00000000000E+00 0. -1.
        -15    1    1    2    0    0  0.18701488385E+02  0.33275400645E+02  0.42478274197E+02  0.57136323505E+02  0.17770000000E+01 0. -1.
         15    1    1    2    0    0 -0.19226070096E+02 -0.12690919552E+02  0.44065316686E+02  0.49755513001E+02  0.17770000000E+01 0.  1.
</event>
<event>
 6    1  0.1599106E-003  0.5007677E+03  0.7546771E-02  0.9398094E-01
        -11   -1    0    0    0    0  0.00000000000E+00  0.00000000000E+00  0.50000000000E+03  0.50000000000E+03  0.00000000000E+00 0.  1.
         11   -1    0    0    0    0 -0.00000000000E+00 -0.00000000000E+00 -0.50000000000E+03  0.50000000000E+03  0.00000000000E+00 0. -1.
        -11    1    1    2    0    0 -0.54850840826E+01  0.36053788313E+01  0.80917389289E+02  0.81183180482E+02  0.00000000000E+00 0.  1.
         11    1    1    2    0    0 -0.15468785587E+02 -0.12488239734E+02 -0.49883627865E+03  0.49923228297E+03  0.00000000000E+00 0. -1.
        -15    1    1    2    0    0 -0.74649859007E+00  0.10199525293E+02  0.52564725600E+02  0.53579806670E+02  0.17770000000E+01 0. -1.
         15    1    1    2    0    0  0.21700368259E+02 -0.13166643900E+01  0.36535416376E+03  0.36600472988E+03  0.17770000000E+01 0.  1.
</event>
<event>
 6    1  0.1599106E-003  0.5011640E+03  0.7546771E-02  0.9397209E-01
        -11   -1    0    0    0    0  0.00000000000E+00  0.00000000000E+00  0.50000000000E+03  0.50000000000E+03  0.00000000000E+00 0. -1.
         11   -1    0    0    0    0 -0.00000000000E+00 -0.00000000000E+00 -0.50000000000E+03  0.50000000000E+03  0.00000000000E+00 0. -1.
        -11    1    1    2    0    0 -0.99710981421E+00  0.84546319338E+01  0.34115662356E+03  0.34126282661E+03  0.00000000000E+00 0. -1.
         11    1    1    2    0    0 -0.22304801967E+02 -0.79129736894E+01 -0.49827430322E+03  0.49883604580E+03  0.00000000000E+00 0. -1.
        -15    1    1    2    0    0  0.20143575300E+02 -0.17536315978E+01  0.75104858258E+02  0.77799333625E+02  0.17770000000E+01 0.  1.
         15    1    1    2    0    0  0.31583364809E+01  0.12119733534E+01  0.82012821399E+02  0.82101793961E+02  0.17770000000E+01 0. -1.
</event>
<event>
 6    1  0.1599106E-003  0.5425378E+03  0.7546771E-02  0.9309356E-01
        -11   -1    0    0    0    0  0.00000000000E+00  0.00000000000E+00  0.50000000000E+03  0.50000000000E+03  0.00000000000E+00 0. -1.
         11   -1    0    0    0    0 -0.00000000000E+00 -0.00000000000E+00 -0.50000000000E+03  0.50000000000E+03  0.00000000000E+00 0.  1.
        -11    1    1    2    0    0  0.25780563104E+02  0.12727683987E+02  0.25558498219E+03  0.25719703438E+03  0.00000000000E+00 0. -1.
         11    1    1    2    0    0 -0.34399674629E+02  0.14388052259E+02 -0.45594003670E+03  0.45746220689E+03  0.00000000000E+00 0.  1.
        -15    1    1    2    0    0  0.25933023012E+02 -0.19263355904E+02 -0.35892907683E+02  0.48322428687E+02  0.17770000000E+01 0.  1.
         15    1    1    2    0    0 -0.17313911487E+02 -0.78523803423E+01  0.23624796219E+03  0.23701833004E+03  0.17770000000E+01 0. -1.
</event>
<event>
 6    1  0.1599106E-003  0.5138366E+03  0.7546771E-02  0.9369371E-01
        -11   -1    0    0    0    0  0.00000000000E+00  0.00000000000E+00  0.50000000000E+03  0.50000000000E+03  0.00000000000E+00 0.  1.
         11   -1    0    0    0    0 -0.00000000000E+00 -0.00000000000E+00 -0.50000000000E+03  0.50000000000E+03  0.00000000000E+00 0.  1.
        -11    1    1    2    0    0  0.21708423826E+01  0.61009979029E+01  0.45770577869E+03  0.45775158610E+03  0.00000000000E+00 0.  1.
         11    1    1    2    0    0 -0.16865684798E+02  0.10024247642E+02 -0.48576737183E+03  0.48616342561E+03  0.00000000000E+00 0.  1.
        -15    1    1    2    0    0  0.21701696989E+02 -0.13420376212E+02 -0.14127437764E+01  0.25616864052E+02  0.17770000000E+01 0.  1.
         15    1    1    2    0    0 -0.70068545737E+01 -0.27048693324E+01  0.29474336912E+02  0.30468124237E+02  0.17770000000E+01 0. -1.
</event>
<event>
 6    1  0.1599106E-003  0.5070331E+03  0.7546771E-02  0.9384209E-01
        -11   -1    0    0    0    0  0.00000000000E+00  0.00000000000E+00  0.50000000000E+03  0.50000000000E+03  0.00000000000E+00 0.  1.
         11   -1    0    0    0    0 -0.00000000000E+00 -0.00000000000E+00 -0.50000000000E+03  0.50000000000E+03  0.00000000000E+00 0.  1.
        -11    1    1    2    0    0  0.95030975288E+00  0.96141567603E+01  0.49287219082E+03  0.49296686661E+03  0.00000000000E+00 0.  1.
         11    1    1    2    0    0 -0.12278965659E+02  0.53133146830E+01 -0.47449002724E+03  0.47467861786E+03  0.00000000000E+00 0.  1.
        -15    1    1    2    0    0  0.52951138519E+01 -0.10465373666E+02 -0.21076578431E+02  0.24185577604E+02  0.17770000000E+01 0.  1.
         15    1    1    2    0    0  0.60335420543E+01 -0.44620977772E+01  0.26944148511E+01  0.81689379166E+01  0.17770000000E+01 0. -1.
</event>
<event>
 6    1  0.1599106E-003  0.5105378E+03  0.7546771E-02  0.9376534E-01
        -11   -1    0    0    0    0  0.00000000000E+00  0.00000000000E+00  0.50000000000E+03  0.50000000000E+03  0.00000000000E+00 0. -1.
         11   -1    0    0    0    0 -0.00000000000E+00 -0.00000000000E+00 -0.50000000000E+03  0.50000000000E+03  0.00000000000E+00 0.  1.
        -11    1    1    2    0    0 -0.58364652221E-01  0.90555126348E+01  0.47998867140E+03  0.48007408844E+03  0.00000000000E+00 0. -1.
         11    1    1    2    0    0 -0.82656844980E+01  0.14959397521E+01 -0.48939007405E+03  0.48946215783E+03  0.00000000000E+00 0.  1.
        -15    1    1    2    0    0  0.68209069864E+00 -0.57912106873E+01 -0.84336792012E+01  0.10406154084E+02  0.17770000000E+01 0.  1.
         15    1    1    2    0    0  0.76419584516E+01 -0.47602416996E+01  0.17835081845E+02  0.20057599643E+02  0.17770000000E+01 0. -1.
</event>
<event>
 6    1  0.1599106E-003  0.5057663E+03  0.7546771E-02  0.9386999E-01
        -11   -1    0    0    0    0  0.00000000000E+00  0.00000000000E+00  0.50000000000E+03  0.50000000000E+03  0.00000000000E+00 0.  1.
         11   -1    0    0    0    0 -0.00000000000E+00 -0.00000000000E+00 -0.50000000000E+03  0.50000000000E+03  0.00000000000E+00 0. -1.
        -11    1    1    2    0    0  0.96813956365E+01  0.48535365708E+01  0.49411503115E+03  0.49423370003E+03  0.00000000000E+00 0.  1.
         11    1    1    2    0    0  0.15683038275E+02  0.86066420740E+01 -0.37944739006E+03  0.37986886395E+03  0.00000000000E+00 0. -1.
        -15    1    1    2    0    0 -0.11817449055E+02 -0.11483769981E+02 -0.11012328414E+03  0.11136347926E+03  0.17770000000E+01 0. -1.
         15    1    1    2    0    0 -0.13546984856E+02 -0.19764086638E+01 -0.45443569533E+01  0.14533956757E+02  0.17770000000E+01 0.  1.
</event>
<event>
 6    1  0.1599106E-003  0.5340481E+03  0.7546771E-02  0.9326690E-01
        -11   -1    0    0    0    0  0.00000000000E+00  0.00000000000E+00  0.50000000000E+03  0.50000000000E+03  0.00000000000E+00 0. -1.
         11   -1    0    0    0    0 -0.00000000000E+00 -0.00000000000E+00 -0.50000000000E+03  0.50000000000E+03  0.00000000000E+00 0.  1.
        -11    1    1    2    0    0 -0.76183965261E+02  0.29022260633E+02  0.15636911909E+03  0.17634508663E+03  0.00000000000E+00 0. -1.
         11    1    1    2    0    0 -0.58017457972E+01  0.50845975698E+02 -0.46313302343E+03  0.46595189762E+03  0.00000000000E+00 0.  1.
        -15    1    1    2    0    0  0.91140277911E+02 -0.30092334644E+01  0.23522692616E+03  0.25229044822E+03  0.17770000000E+01 0. -1.
         15    1    1    2    0    0 -0.91545668522E+01 -0.76859002866E+02  0.71536978189E+02  0.10541256753E+03  0.17770000000E+01 0.  1.
</event>
<event>
 6    1  0.1599106E-003  0.4636074E+03  0.7546771E-02  0.9485138E-01
        -11   -1    0    0    0    0  0.00000000000E+00  0.00000000000E+00  0.50000000000E+03  0.50000000000E+03  0.00000000000E+00 0. -1.
         11   -1    0    0    0    0 -0.00000000000E+00 -0.00000000000E+00 -0.50000000000E+03  0.50000000000E+03  0.00000000000E+00 0. -1.
        -11    1    1    2    0    0  0.89712234154E+01  0.49040636416E+01  0.45945338627E+03  0.45956712985E+03  0.00000000000E+00 0. -1.
         11    1    1    2    0    0  0.20340731272E+02 -0.76277239274E+01 -0.46764682809E+03  0.46815113301E+03  0.00000000000E+00 0. -1.
        -15    1    1    2    0    0 -0.30383666124E+02  0.52872912293E+01 -0.24496790490E+02  0.39425538537E+02  0.17770000000E+01 0.  1.
         15    1    1    2    0    0  0.10717114357E+01 -0.25636309435E+01  0.32690232309E+02  0.32856198600E+02  0.17770000000E+01 0. -1.
</event>
<event>
 6    1  0.1599106E-003  0.5017377E+03  0.7546771E-02  0.9395930E-01
        -11   -1    0    0    0    0  0.00000000000E+00  0.00000000000E+00  0.50000000000E+03  0.50000000000E+03  0.00000000000E+00 0. -1.
         11   -1    0    0    0    0 -0.00000000000E+00 -0.00000000000E+00 -0.50000000000E+03  0.50000000000E+03  0.00000000000E+00 0. -1.
        -11    1    1    2    0    0 -0.50150485560E+00 -0.61877860965E+01  0.44886242521E+03  0.44890535414E+03  0.00000000000E+00 0. -1.
         11    1    1    2    0    0 -0.63533919642E+01  0.48753286386E+01 -0.49819795929E+03  0.49826232153E+03  0.00000000000E+00 0. -1.
        -15    1    1    2    0    0  0.12874576379E-01 -0.14357954662E+01  0.42681862198E+02  0.42742961574E+02  0.17770000000E+01 0.  1.
         15    1    1    2    0    0  0.68420222435E+01  0.27482529241E+01  0.66536718748E+01  0.10089362761E+02  0.17770000000E+01 0. -1.
</event>
<event>
 6    1  0.1599106E-003  0.5014799E+03  0.7546771E-02  0.9396504E-01
        -11   -1    0    0    0    0  0.00000000000E+00  0.00000000000E+00  0.50000000000E+03  0.50000000000E+03  0.00000000000E+00 0.  1.
         11   -1    0    0    0    0 -0.00000000000E+00 -0.00000000000E+00 -0.50000000000E+03  0.50000000000E+03  0.00000000000E+00 0. -1.
        -11    1    1    2    0    0 -0.51959498892E+01 -0.50437381946E+01  0.32754911289E+03  0.32762914789E+03  0.00000000000E+00 0.  1.
         11    1    1    2    0    0 -0.75650503100E+01 -0.59179663820E+01 -0.49842755845E+03  0.49852009321E+03  0.00000000000E+00 0. -1.
        -15    1    1    2    0    0  0.58028705856E+01 -0.22933413235E+00  0.63530859520E+01  0.87889323180E+01  0.17770000000E+01 0. -1.
         15    1    1    2    0    0  0.69581296136E+01  0.11191038709E+02  0.16452535961E+03  0.16506182659E+03  0.17770000000E+01 0.  1.
</event>
<event>
 6    1  0.1599106E-003  0.5228564E+03  0.7546771E-02  0.9350071E-01
        -11   -1    0    0    0    0  0.00000000000E+00  0.00000000000E+00  0.50000000000E+03  0.50000000000E+03  0.00000000000E+00 0. -1.
         11   -1    0    0    0    0 -0.00000000000E+00 -0.00000000000E+00 -0.50000000000E+03  0.50000000000E+03  0.00000000000E+00 0.  1.
        -11    1    1    2    0    0  0.60406287764E+01  0.23392156659E+01  0.45594262000E+03  0.45598863347E+03  0.00000000000E+00 0. -1.
         11    1    1    2    0    0 -0.15984457147E+02 -0.25580632492E+01 -0.47686892387E+03  0.47714360219E+03  0.00000000000E+00 0.  1.
        -15    1    1    2    0    0  0.87277579880E+01 -0.14278598428E+01  0.43351131987E+02  0.44279689664E+02  0.17770000000E+01 0. -1.
         15    1    1    2    0    0  0.12160703824E+01  0.16467074260E+01 -0.22424828111E+02  0.22588074671E+02  0.17770000000E+01 0.  1.
</event>
<event>
 6    1  0.1599106E-003  0.5247504E+03  0.7546771E-02  0.9346071E-01
        -11   -1    0    0    0    0  0.00000000000E+00  0.00000000000E+00  0.50000000000E+03  0.50000000000E+03  0.00000000000E+00 0.  1.
         11   -1    0    0    0    0 -0.00000000000E+00 -0.00000000000E+00 -0.50000000000E+03  0.50000000000E+03  0.00000000000E+00 0. -1.
        -11    1    1    2    0    0 -0.88586673009E+01  0.78040030395E+00  0.47516637104E+03  0.47524958198E+03  0.00000000000E+00 0.  1.
         11    1    1    2    0    0  0.14576373953E+02 -0.27752147965E+02 -0.42227543654E+03  0.42343735865E+03  0.00000000000E+00 0. -1.
        -15    1    1    2    0    0  0.70991062008E+01  0.14281682890E+01  0.20884569314E+02  0.22175660936E+02  0.17770000000E+01 0. -1.
         15    1    1    2    0    0 -0.12816812853E+02  0.25543579373E+02 -0.73775503815E+02  0.79137398434E+02  0.17770000000E+01 0. -1.
</event>
<event>
 6    1  0.1599106E-003  0.5019150E+03  0.7546771E-02  0.9395535E-01
        -11   -1    0    0    0    0  0.00000000000E+00  0.00000000000E+00  0.50000000000E+03  0.50000000000E+03  0.00000000000E+00 0.  1.
         11   -1    0    0    0    0 -0.00000000000E+00 -0.00000000000E+00 -0.50000000000E+03  0.50000000000E+03  0.00000000000E+00 0.  1.
        -11    1    1    2    0    0 -0.61214621097E+01  0.33068398201E+01  0.49803636692E+03  0.49808496289E+03  0.00000000000E+00 0.  1.
         11    1    1    2    0    0  0.11724620020E+02 -0.15341074413E+01 -0.47038126085E+03  0.47052986171E+03  0.00000000000E+00 0.  1.
        -15    1    1    2    0    0 -0.33100126503E+01 -0.52243815027E+00 -0.25284038233E+00  0.38014185017E+01  0.17770000000E+01 0.  1.
         15    1    1    2    0    0 -0.22931452599E+01 -0.12502942285E+01 -0.27402265683E+02  0.27583756894E+02  0.17770000000E+01 0. -1.
</event>
<event>
 6    1  0.1599106E-003  0.5002319E+03  0.7546771E-02  0.9399291E-01
        -11   -1    0    0    0    0  0.00000000000E+00  0.00000000000E+00  0.50000000000E+03  0.50000000000E+03  0.00000000000E+00 0. -1.
         11   -1    0    0    0    0 -0.00000000000E+00 -0.00000000000E+00 -0.50000000000E+03  0.50000000000E+03  0.00000000000E+00 0.  1.
        -11    1    1    2    0    0 -0.32160449463E-01  0.96978984296E+00  0.58409940554E+02  0.58417999642E+02  0.00000000000E+00 0. -1.
         11    1    1    2    0    0  0.14513256314E+02  0.22984636673E+02 -0.49902828116E+03  0.49976809975E+03  0.00000000000E+00 0.  1.
        -15    1    1    2    0    0  0.38879639764E+00 -0.10208806325E+01  0.12273370489E+03  0.12275142934E+03  0.17770000000E+01 0. -1.
         15    1    1    2    0    0 -0.14869892262E+02 -0.22933545883E+02  0.31788463571E+03  0.31906247127E+03  0.17770000000E+01 0. -1.
</event>
<event>
 6    1  0.1599106E-003  0.5045691E+03  0.7546771E-02  0.9389644E-01
        -11   -1    0    0    0    0  0.00000000000E+00  0.00000000000E+00  0.50000000000E+03  0.50000000000E+03  0.00000000000E+00 0.  1.
         11   -1    0    0    0    0 -0.00000000000E+00 -0.00000000000E+00 -0.50000000000E+03  0.50000000000E+03  0.00000000000E+00 0. -1.
        -11    1    1    2    0    0 -0.32349508864E+01  0.13884061898E+01  0.23659352075E+03  0.23661970890E+03  0.00000000000E+00 0.  1.
         11    1    1    2    0    0 -0.27210369877E+01 -0.63755273672E+01 -0.49538239215E+03  0.49543088907E+03  0.00000000000E+00 0. -1.
        -15    1    1    2    0    0 -0.19531989440E+02 -0.23234131473E+02  0.13771869073E+03  0.14103516931E+03  0.17770000000E+01 0. -1.
         15    1    1    2    0    0  0.25487977314E+02  0.28221252650E+02  0.12107018067E+03  0.12691423272E+03  0.17770000000E+01 0.  1.
</event>
<event>
 6    1  0.1599106E-003  0.4721904E+03  0.7546771E-02  0.9464280E-01
        -11   -1    0    0    0    0  0.00000000000E+00  0.00000000000E+00  0.50000000000E+03  0.50000000000E+03  0.00000000000E+00 0.  1.
         11   -1    0    0    0    0 -0.00000000000E+00 -0.00000000000E+00 -0.50000000000E+03  0.50000000000E+03  0.00000000000E+00 0.  1.
        -11    1    1    2    0    0  0.78277735142E+01 -0.31341126299E+01  0.47301057297E+03  0.47308572039E+03  0.00000000000E+00 0.  1.
         11    1    1    2    0    0  0.35158306912E+01 -0.66030686029E+01 -0.47135549799E+03  0.47141485665E+03  0.00000000000E+00 0.  1.
        -15    1    1    2    0    0 -0.89419830181E+01  0.39513013461E+01  0.25608703392E+02  0.27468805235E+02  0.17770000000E+01 0. -1.
         15    1    1    2    0    0 -0.24016211873E+01  0.57858798867E+01 -0.27263778367E+02  0.28030617729E+02  0.17770000000E+01 0.  1.
</event>
<event>
 6    1  0.1599106E-003  0.5038725E+03  0.7546771E-02  0.9391186E-01
        -11   -1    0    0    0    0  0.00000000000E+00  0.00000000000E+00  0.50000000000E+03  0.50000000000E+03  0.00000000000E+00 0. -1.
         11   -1    0    0    0    0 -0.00000000000E+00 -0.00000000000E+00 -0.50000000000E+03  0.50000000000E+03  0.00000000000E+00 0. -1.
        -11    1    1    2    0    0 -0.32869098038E+01 -0.12807662160E+02  0.49595128277E+03  0.49612751876E+03  0.00000000000E+00 0. -1.
         11    1    1    2    0    0  0.79258650191E+01  0.34197692330E+01 -0.38300644730E+03  0.38310371028E+03  0.00000000000E+00 0. -1.
        -15    1    1    2    0    0  0.45831795973E+01  0.51580684711E+00 -0.10597256328E+03  0.10608776315E+03  0.17770000000E+01 0. -1.
         15    1    1    2    0    0 -0.92221348126E+01  0.88720860796E+01 -0.69722721947E+01  0.14681007815E+02  0.17770000000E+01 0.  1.
</event>
<event>
 6    1  0.1599106E-003  0.5289351E+03  0.7546771E-02  0.9337296E-01
        -11   -1    0    0    0    0  0.00000000000E+00  0.00000000000E+00  0.50000000000E+03  0.50000000000E+03  0.00000000000E+00 0.  1.
         11   -1    0    0    0    0 -0.00000000000E+00 -0.00000000000E+00 -0.50000000000E+03  0.50000000000E+03  0.00000000000E+00 0. -1.
        -11    1    1    2    0    0  0.86265914254E+01  0.20920505835E+01  0.35096483997E+03  0.35107707651E+03  0.00000000000E+00 0.  1.
         11    1    1    2    0    0  0.17830481250E+02  0.13982661825E+02 -0.47051961828E+03  0.47106491281E+03  0.00000000000E+00 0. -1.
        -15    1    1    2    0    0 -0.26307712487E+02 -0.18224586503E+02 -0.20322719056E+02  0.37952627423E+02  0.17770000000E+01 0.  1.
         15    1    1    2    0    0 -0.14936018912E+00  0.21498740944E+01  0.13987749737E+03  0.13990538326E+03  0.17770000000E+01 0. -1.
</event>
<event>
 6    1  0.1599106E-003  0.5029487E+03  0.7546771E-02  0.9393236E-01
        -11   -1    0    0    0    0  0.00000000000E+00  0.00000000000E+00  0.50000000000E+03  0.50000000000E+03  0.00000000000E+00 0.  1.
         11   -1    0    0    0    0 -0.00000000000E+00 -0.00000000000E+00 -0.50000000000E+03  0.50000000000E+03  0.00000000000E+00 0.  1.
        -11    1    1    2    0    0  0.13750001573E+02 -0.11097920183E-01  0.49686108870E+03  0.49705130935E+03  0.00000000000E+00 0.  1.
         11    1    1    2    0    0  0.39346851117E+01  0.47436079718E+01 -0.12323847077E+03  0.12339248049E+03  0.00000000000E+00 0.  1.
        -15    1    1    2    0    0 -0.13364137682E+02 -0.87681502672E+01 -0.37300547321E+03  0.37335200737E+03  0.17770000000E+01 0.  1.
         15    1    1    2    0    0 -0.43205490027E+01  0.40356402156E+01 -0.61714471763E+00  0.62042027882E+01  0.17770000000E+01 0. -1.
</event>
<event>
 6    1  0.1599106E-003  0.5416364E+03  0.7546771E-02  0.9311181E-01
        -11   -1    0    0    0    0  0.00000000000E+00  0.00000000000E+00  0.50000000000E+03  0.50000000000E+03  0.00000000000E+00 0.  1.
         11   -1    0    0    0    0 -0.00000000000E+00 -0.00000000000E+00 -0.50000000000E+03  0.50000000000E+03  0.00000000000E+00 0.  1.
        -11    1    1    2    0    0 -0.80133095517E+01 -0.50701536832E+01  0.44386875250E+03  0.44397003169E+03  0.00000000000E+00 0.  1.
         11    1    1    2    0    0  0.28197858871E+01 -0.59502925257E+01 -0.45831634372E+03  0.45836364177E+03  0.00000000000E+00 0.  1.
        -15    1    1    2    0    0  0.65654686672E+01 -0.60111977474E+01  0.53887904538E+02  0.54647084658E+02  0.17770000000E+01 0. -1.
         15    1    1    2    0    0 -0.13719450025E+01  0.17031643956E+02 -0.39440313320E+02  0.43019241889E+02  0.17770000000E+01 0.  1.
</event>
<event>
 6    1  0.1599106E-003  0.5006532E+03  0.7546771E-02  0.9398349E-01
        -11   -1    0    0    0    0  0.00000000000E+00  0.00000000000E+00  0.50000000000E+03  0.50000000000E+03  0.00000000000E+00 0.  1.
         11   -1    0    0    0    0 -0.00000000000E+00 -0.00000000000E+00 -0.50000000000E+03  0.50000000000E+03  0.00000000000E+00 0.  1.
        -11    1    1    2    0    0  0.69355690952E+01 -0.82882334597E+01  0.49922985979E+03  0.49934682320E+03  0.00000000000E+00 0.  1.
         11    1    1    2    0    0  0.74749706243E+01  0.57133804086E+01 -0.26442500569E+03  0.26459233083E+03  0.00000000000E+00 0.  1.
        -15    1    1    2    0    0 -0.39720784441E+01  0.15312552495E+01 -0.10092936573E+02  0.11097172949E+02  0.17770000000E+01 0. -1.
         15    1    1    2    0    0 -0.10438461275E+02  0.10435978016E+01 -0.22471191753E+03  0.22496367302E+03  0.17770000000E+01 0.  1.
</event>
<event>
 6    1  0.1599106E-003  0.5114983E+03  0.7546771E-02  0.9374443E-01
        -11   -1    0    0    0    0  0.00000000000E+00  0.00000000000E+00  0.50000000000E+03  0.50000000000E+03  0.00000000000E+00 0. -1.
         11   -1    0    0    0    0 -0.00000000000E+00 -0.00000000000E+00 -0.50000000000E+03  0.50000000000E+03  0.00000000000E+00 0. -1.
        -11    1    1    2    0    0 -0.52164590220E+01  0.62314081319E+01  0.48843405228E+03  0.48850165334E+03  0.00000000000E+00 0. -1.
         11    1    1    2    0    0  0.44828837430E+01 -0.79454331983E+01 -0.48646623855E+03  0.48655177258E+03  0.00000000000E+00 0. -1.
        -15    1    1    2    0    0  0.51632732321E+01 -0.18207939016E+01  0.10027087509E+02  0.11561785926E+02  0.17770000000E+01 0.  1.
         15    1    1    2    0    0 -0.44296979531E+01  0.35348189680E+01 -0.11994901238E+02  0.13384788149E+02  0.17770000000E+01 0. -1.
</event>
<event>
 6    1  0.1599106E-003  0.5070070E+03  0.7546771E-02  0.9384266E-01
        -11   -1    0    0    0    0  0.00000000000E+00  0.00000000000E+00  0.50000000000E+03  0.50000000000E+03  0.00000000000E+00 0. -1.
         11   -1    0    0    0    0 -0.00000000000E+00 -0.00000000000E+00 -0.50000000000E+03  0.50000000000E+03  0.00000000000E+00 0. -1.
        -11    1    1    2    0    0  0.18301565727E+02  0.14412561398E+02  0.49244234123E+03  0.49299303106E+03  0.00000000000E+00 0. -1.
         11    1    1    2    0    0  0.18388775316E+00  0.20823254895E+01 -0.12152238878E+03  0.12154036724E+03  0.00000000000E+00 0. -1.
        -15    1    1    2    0    0 -0.21864774223E+02 -0.13077954048E+02 -0.15221704461E+02  0.29731452195E+02  0.17770000000E+01 0.  1.
         15    1    1    2    0    0  0.33793207424E+01 -0.34169328394E+01 -0.35569824799E+03  0.35573514950E+03  0.17770000000E+01 0. -1.
</event>
<event>
 6    1  0.1599106E-003  0.4757220E+03  0.7546771E-02  0.9455835E-01
        -11   -1    0    0    0    0  0.00000000000E+00  0.00000000000E+00  0.50000000000E+03  0.50000000000E+03  0.00000000000E+00 0. -1.
         11   -1    0    0    0    0 -0.00000000000E+00 -0.00000000000E+00 -0.50000000000E+03  0.50000000000E+03  0.00000000000E+00 0.  1.
        -11    1    1    2    0    0  0.30830893793E+01  0.14048347643E+02  0.47742174487E+03  0.47763834015E+03  0.00000000000E+00 0. -1.
         11    1    1    2    0    0  0.20238103339E+01 -0.86640775480E+01 -0.47375816723E+03  0.47384170676E+03  0.00000000000E+00 0.  1.
        -15    1    1    2    0    0 -0.15662749192E+01  0.74864880325E+01 -0.23368756112E+02  0.24652732331E+02  0.17770000000E+01 0. -1.
         15    1    1    2    0    0 -0.35406247940E+01 -0.12870758127E+02  0.19705178478E+02  0.23867220754E+02  0.17770000000E+01 0.  1.
</event>
<event>
 6    1  0.1599106E-003  0.4835362E+03  0.7546771E-02  0.9437421E-01
        -11   -1    0    0    0    0  0.00000000000E+00  0.00000000000E+00  0.50000000000E+03  0.50000000000E+03  0.00000000000E+00 0. -1.
         11   -1    0    0    0    0 -0.00000000000E+00 -0.00000000000E+00 -0.50000000000E+03  0.50000000000E+03  0.00000000000E+00 0.  1.
        -11    1    1    2    0    0 -0.94618734877E+01 -0.35318872899E+01  0.48225431497E+03  0.48236005803E+03  0.00000000000E+00 0. -1.
         11    1    1    2    0    0  0.10870038733E+01 -0.16733122869E+02 -0.48467395826E+03  0.48496394174E+03  0.00000000000E+00 0.  1.
        -15    1    1    2    0    0  0.83233503761E+01  0.13951727788E+02 -0.96213077055E+01  0.18964602836E+02  0.17770000000E+01 0.  1.
         15    1    1    2    0    0  0.51519238344E-01  0.63132823711E+01  0.12040950994E+02  0.13711397389E+02  0.17770000000E+01 0. -1.
</event>
<event>
 6    1  0.1599106E-003  0.5026804E+03  0.7546771E-02  0.9393832E-01
        -11   -1    0    0    0    0  0.00000000000E+00  0.00000000000E+00  0.50000000000E+03  0.50000000000E+03  0.00000000000E+00 0. -1.
         11   -1    0    0    0    0 -0.00000000000E+00 -0.00000000000E+00 -0.50000000000E+03  0.50000000000E+03  0.00000000000E+00 0.  1.
        -11    1    1    2    0    0  0.51758875283E+01 -0.15953348861E+01  0.38644676750E+03  0.38648472029E+03  0.00000000000E+00 0. -1.
         11    1    1    2    0    0  0.27306228286E+01  0.72080997061E+01 -0.49725984056E+03  0.49731957737E+03  0.00000000000E+00 0.  1.
        -15    1    1    2    0    0 -0.53420273949E+01 -0.38365557389E+01  0.11215590564E+03  0.11236263309E+03  0.17770000000E+01 0. -1.
         15    1    1    2    0    0 -0.25644829620E+01 -0.17762090811E+01 -0.13428325782E+01  0.38330692526E+01  0.17770000000E+01 0.  1.
</event>
<event>
 6    1  0.1599106E-003  0.5148753E+03  0.7546771E-02  0.9367127E-01
        -11   -1    0    0    0    0  0.00000000000E+00  0.00000000000E+00  0.50000000000E+03  0.50000000000E+03  0.00000000000E+00 0. -1.
         11   -1    0    0    0    0 -0.00000000000E+00 -0.00000000000E+00 -0.50000000000E+03  0.50000000000E+03  0.00000000000E+00 0.  1.
        -11    1    1    2    0    0  0.11394210663E+02  0.19299760010E+02  0.48460674947E+03  0.48512473695E+03  0.00000000000E+00 0. -1.
         11    1    1    2    0    0  0.32446184914E+01  0.62938191132E+01 -0.42457740803E+03  0.42463645053E+03  0.00000000000E+00 0.  1.
        -15    1    1    2    0    0 -0.20989752961E+01 -0.90717288354E+01 -0.67468993911E+02  0.68131672735E+02  0.17770000000E+01 0. -1.
         15    1    1    2    0    0 -0.12539853859E+02 -0.16521850287E+02  0.74396524692E+01  0.22107139787E+02  0.17770000000E+01 0.  1.
</event>
<event>
 6    1  0.1599106E-003  0.5041744E+03  0.7546771E-02  0.9390517E-01
        -11   -1    0    0    0    0  0.00000000000E+00  0.00000000000E+00  0.50000000000E+03  0.50000000000E+03  0.00000000000E+00 0. -1.
         11   -1    0    0    0    0 -0.00000000000E+00 -0.00000000000E+00 -0.50000000000E+03  0.50000000000E+03  0.00000000000E+00 0.  1.
        -11    1    1    2    0    0  0.45774413022E+01  0.78878444994E+01  0.36653299710E+03  0.36664643599E+03  0.00000000000E+00 0. -1.
         11    1    1    2    0    0  0.25174968111E+02  0.14199838449E+02 -0.49498245569E+03  0.49582562043E+03  0.00000000000E+00 0.  1.
        -15    1    1    2    0    0 -0.29283990519E+02 -0.17301927455E+02  0.12791711086E+03  0.13237391651E+03  0.17770000000E+01 0.  1.
         15    1    1    2    0    0 -0.46841889509E+00 -0.47857554934E+01  0.53234773932E+00  0.51540270682E+01  0.17770000000E+01 0. -1.
</event>
<event>
 6    1  0.1599106E-003  0.4719915E+03  0.7546771E-02  0.9464758E-01
        -11   -1    0    0    0    0  0.00000000000E+00  0.00000000000E+00  0.50000000000E+03  0.50000000000E+03  0.00000000000E+00 0.  1.
         11   -1    0    0    0    0 -0.00000000000E+00 -0.00000000000E+00 -0.50000000000E+03  0.50000000000E+03  0.00000000000E+00 0.  1.
        -11    1    1    2    0    0  0.71472290416E+01 -0.87221949750E+01  0.47440601629E+03  0.47454001713E+03  0.00000000000E+00 0.  1.
         11    1    1    2    0    0  0.13227182710E+01 -0.13450238720E+02 -0.46955925885E+03  0.46975371854E+03  0.00000000000E+00 0.  1.
        -15    1    1    2    0    0 -0.76172276399E+01  0.24655127824E+02  0.18718578320E+02  0.31928676582E+02  0.17770000000E+01 0. -1.
         15    1    1    2    0    0 -0.85271967266E+00 -0.24826941294E+01 -0.23565335756E+02  0.23777587752E+02  0.17770000000E+01 0.  1.
</event>
<event>
 6    1  0.1599106E-003  0.3449461E+03  0.7546771E-02  0.9834700E-01
        -11   -1    0    0    0    0  0.00000000000E+00  0.00000000000E+00  0.50000000000E+03  0.50000000000E+03  0.00000000000E+00 0.  1.
         11   -1    0    0    0    0 -0.00000000000E+00 -0.00000000000E+00 -0.50000000000E+03  0.50000000000E+03  0.00000000000E+00 0. -1.
        -11    1    1    2    0    0  0.27734886204E+02 -0.64217853130E+01  0.37237679672E+03  0.37346344128E+03  0.00000000000E+00 0.  1.
         11    1    1    2    0    0  0.24377743103E+00 -0.59945773786E+01 -0.17843391795E+03  0.17853475140E+03  0.00000000000E+00 0. -1.
        -15    1    1    2    0    0 -0.45834498995E+01  0.38150364597E+02 -0.31740244771E+03  0.31972477207E+03  0.17770000000E+01 0. -1.
         15    1    1    2    0    0 -0.23395213735E+02 -0.25734001905E+02  0.12345956894E+03  0.12827703525E+03  0.17770000000E+01 0.  1.
</event>
<event>
 6    1  0.1599106E-003  0.5084186E+03  0.7546771E-02  0.9381167E-01
        -11   -1    0    0    0    0  0.00000000000E+00  0.00000000000E+00  0.50000000000E+03  0.50000000000E+03  0.00000000000E+00 0. -1.
         11   -1    0    0    0    0 -0.00000000000E+00 -0.00000000000E+00 -0.50000000000E+03  0.50000000000E+03  0.00000000000E+00 0.  1.
        -11    1    1    2    0    0  0.80992162950E+01  0.66570303208E+00  0.47178639088E+03  0.47185637548E+03  0.00000000000E+00 0. -1.
         11    1    1    2    0    0 -0.13788162276E+02 -0.94124931325E+01 -0.49129778695E+03  0.49158135024E+03  0.00000000000E+00 0.  1.
        -15    1    1    2    0    0 -0.73106902614E+01  0.44754878202E+01  0.20934191750E+02  0.22690841689E+02  0.17770000000E+01 0. -1.
         15    1    1    2    0    0  0.12999636242E+02  0.42713022802E+01 -0.14227956797E+01  0.13871432592E+02  0.17770000000E+01 0.  1.
</event>
<event>
 6    1  0.1599106E-003  0.4704837E+03  0.7546771E-02  0.9468390E-01
        -11   -1    0    0    0    0  0.00000000000E+00  0.00000000000E+00  0.50000000000E+03  0.50000000000E+03  0.00000000000E+00 0.  1.
         11   -1    0    0    0    0 -0.00000000000E+00 -0.00000000000E+00 -0.50000000000E+03  0.50000000000E+03  0.00000000000E+00 0. -1.
        -11    1    1    2    0    0 -0.10337680523E+03 -0.29805187164E+01  0.46104662575E+03  0.47250358567E+03  0.00000000000E+00 0.  1.
         11    1    1    2    0    0 -0.13102061254E+02  0.59975797041E+01 -0.95602855598E+02  0.96682681851E+02  0.00000000000E+00 0. -1.
        -15    1    1    2    0    0 -0.81605205305E+01 -0.64150289306E+02 -0.22179937370E+03  0.23104106478E+03  0.17770000000E+01 0.  1.
         15    1    1    2    0    0  0.12463938701E+03  0.61133228318E+02 -0.14364439646E+03  0.19977266770E+03  0.17770000000E+01 0. -1.
</event>
<event>
 6    1  0.1599106E-003  0.4808103E+03  0.7546771E-02  0.9443802E-01
        -11   -1    0    0    0    0  0.00000000000E+00  0.00000000000E+00  0.50000000000E+03  0.50000000000E+03  0.00000000000E+00 0.  1.
         11   -1    0    0    0    0 -0.00000000000E+00 -0.00000000000E+00 -0.50000000000E+03  0.50000000000E+03  0.00000000000E+00 0. -1.
        -11    1    1    2    0    0  0.11312704130E+01 -0.14873374682E+02  0.48077127636E+03  0.48100261665E+03  0.00000000000E+00 0.  1.
         11    1    1    2    0    0  0.24009016720E+01 -0.65252467860E+01 -0.48081233674E+03  0.48086260650E+03  0.00000000000E+00 0. -1.
        -15    1    1    2    0    0 -0.19790252664E+01 -0.30338163599E+01  0.10654112016E+02  0.11392471837E+02  0.17770000000E+01 0. -1.
         15    1    1    2    0    0 -0.15531468186E+01  0.24432437828E+02 -0.10613051639E+02  0.26742305012E+02  0.17770000000E+01 0.  1.
</event>
<event>
 6    1  0.1599106E-003  0.5000564E+03  0.7546771E-02  0.9399684E-01
        -11   -1    0    0    0    0  0.00000000000E+00  0.00000000000E+00  0.50000000000E+03  0.50000000000E+03  0.00000000000E+00 0. -1.
         11   -1    0    0    0    0 -0.00000000000E+00 -0.00000000000E+00 -0.50000000000E+03  0.50000000000E+03  0.00000000000E+00 0. -1.
        -11    1    1    2    0    0 -0.66439933394E+00 -0.11383081040E+01  0.61515546380E+02  0.61529664538E+02  0.00000000000E+00 0. -1.
         11    1    1    2    0    0 -0.65711546417E+01 -0.57685258057E+01 -0.49986717487E+03  0.49994364530E+03  0.00000000000E+00 0. -1.
        -15    1    1    2    0    0 -0.38074677991E+00  0.75036127034E+00  0.12899654276E+03  0.12901152578E+03  0.17770000000E+01 0.  1.
         15    1    1    2    0    0  0.76163007555E+01  0.61564726393E+01  0.30935508573E+03  0.30951516439E+03  0.17770000000E+01 0. -1.
</event>
<event>
 6    1  0.1599106E-003  0.5166660E+03  0.7546771E-02  0.9363272E-01
        -11   -1    0    0    0    0  0.00000000000E+00  0.00000000000E+00  0.50000000000E+03  0.50000000000E+03  0.00000000000E+00 0. -1.
         11   -1    0    0    0    0 -0.00000000000E+00 -0.00000000000E+00 -0.50000000000E+03  0.50000000000E+03  0.00000000000E+00 0. -1.
        -11    1    1    2    0    0  0.19179542605E+02 -0.44236051194E+02  0.48092318612E+03  0.48333403980E+03  0.00000000000E+00 0. -1.
         11    1    1    2    0    0 -0.55823241006E+01  0.20592916604E+02 -0.46031060458E+03  0.46080482121E+03  0.00000000000E+00 0. -1.
        -15    1    1    2    0    0  0.72782503269E+01 -0.39059895984E+01  0.74799552777E+01  0.11284376036E+02  0.17770000000E+01 0. -1.
         15    1    1    2    0    0 -0.20875468831E+02  0.27549124189E+02 -0.28092536816E+02  0.44576762962E+02  0.17770000000E+01 0.  1.
</event>
<event>
 6    1  0.1599106E-003  0.5026937E+03  0.7546771E-02  0.9393802E-01
        -11   -1    0    0    0    0  0.00000000000E+00  0.00000000000E+00  0.50000000000E+03  0.50000000000E+03  0.00000000000E+00 0.  1.
         11   -1    0    0    0    0 -0.00000000000E+00 -0.00000000000E+00 -0.50000000000E+03  0.50000000000E+03  0.00000000000E+00 0. -1.
        -11    1    1    2    0    0 -0.32364435273E+02 -0.24327861857E+02  0.49565535255E+03  0.49730627389E+03  0.00000000000E+00 0.  1.
         11    1    1    2    0    0 -0.20509375844E+01 -0.27426412304E+01 -0.12512163097E+03  0.12516849030E+03  0.00000000000E+00 0. -1.
        -15    1    1    2    0    0  0.24596426034E+02  0.26107393890E+02 -0.91265754916E+02  0.98077397695E+02  0.17770000000E+01 0. -1.
         15    1    1    2    0    0  0.98189468234E+01  0.96310919759E+00 -0.27926796666E+03  0.27944783812E+03  0.17770000000E+01 0.  1.
</event>
<event>
 6    1  0.1599106E-003  0.5046375E+03  0.7546771E-02  0.9389492E-01
        -11   -1    0    0    0    0  0.00000000000E+00  0.00000000000E+00  0.50000000000E+03  0.50000000000E+03  0.00000000000E+00 0.  1.
         11   -1    0    0    0    0 -0.00000000000E+00 -0.00000000000E+00 -0.50000000000E+03  0.50000000000E+03  0.00000000000E+00 0. -1.
        -11    1    1    2    0    0  0.70113331616E+01  0.10975263346E+01  0.47230717924E+03  0.47236049255E+03  0.00000000000E+00 0.  1.
         11    1    1    2    0    0  0.87174467969E+01 -0.66888810803E+01 -0.49524062161E+03  0.49536250192E+03  0.00000000000E+00 0. -1.
        -15    1    1    2    0    0  0.13081532836E+00 -0.30156711921E+01  0.81896261987E+01  0.89072493882E+01  0.17770000000E+01 0.  1.
         15    1    1    2    0    0 -0.15859595287E+02  0.86070259378E+01  0.14743816175E+02  0.23369756151E+02  0.17770000000E+01 0. -1.
</event>
<event>
 6    1  0.1599106E-003  0.5053302E+03  0.7546771E-02  0.9387961E-01
        -11   -1    0    0    0    0  0.00000000000E+00  0.00000000000E+00  0.50000000000E+03  0.50000000000E+03  0.00000000000E+00 0. -1.
         11   -1    0    0    0    0 -0.00000000000E+00 -0.00000000000E+00 -0.50000000000E+03  0.50000000000E+03  0.00000000000E+00 0. -1.
        -11    1    1    2    0    0 -0.43996446908E+01 -0.43793417571E+01  0.44344698098E+03  0.44349042881E+03  0.00000000000E+00 0. -1.
         11    1    1    2    0    0 -0.82688956990E+01  0.27220644889E+01 -0.49459322625E+03  0.49466983305E+03  0.00000000000E+00 0. -1.
        -15    1    1    2    0    0  0.14811412004E+02 -0.75819728158E+01  0.98211831645E+01  0.19403030822E+02  0.17770000000E+01 0. -1.
         15    1    1    2    0    0 -0.21428716145E+01  0.92392500840E+01  0.41325062112E+02  0.42436707324E+02  0.17770000000E+01 0.  1.
</event>
<event>
 6    1  0.1599106E-003  0.4756085E+03  0.7546771E-02  0.9456105E-01
        -11   -1    0    0    0    0  0.00000000000E+00  0.00000000000E+00  0.50000000000E+03  0.50000000000E+03  0.00000000000E+00 0. -1.
         11   -1    0    0    0    0 -0.00000000000E+00 -0.00000000000E+00 -0.50000000000E+03  0.50000000000E+03  0.00000000000E+00 0. -1.
        -11    1    1    2    0    0  0.53530323712E+01 -0.62749568216E+01  0.47613344305E+03  0.47620487779E+03  0.00000000000E+00 0. -1.
         11    1    1    2    0    0  0.38852254699E+01 -0.17343165248E+02 -0.47501832132E+03  0.47535069785E+03  0.00000000000E+00 0. -1.
        -15    1    1    2    0    0 -0.28132112239E+01  0.48463393394E+01  0.19147589926E+02  0.20029705224E+02  0.17770000000E+01 0. -1.
         15    1    1    2    0    0 -0.64250466172E+01  0.18771782730E+02 -0.20262711655E+02  0.28414719135E+02  0.17770000000E+01 0.  1.
</event>
<event>
 6    1  0.1599106E-003  0.5004112E+03  0.7546771E-02  0.9398890E-01
        -11   -1    0    0    0    0  0.00000000000E+00  0.00000000000E+00  0.50000000000E+03  0.50000000000E+03  0.00000000000E+00 0. -1.
         11   -1    0    0    0    0 -0.00000000000E+00 -0.00000000000E+00 -0.50000000000E+03  0.50000000000E+03  0.00000000000E+00 0.  1.
        -11    1    1    2    0    0 -0.65774721066E+01 -0.42602120389E+01  0.49952730994E+03  0.49958877682E+03  0.00000000000E+00 0. -1.
         11    1    1    2    0    0 -0.27887666970E+01 -0.18208763609E+01 -0.20423669387E+03  0.20426384881E+03  0.00000000000E+00 0.  1.
        -15    1    1    2    0    0  0.67940250340E+01  0.74625006141E+01 -0.62715370073E+02  0.63547014595E+02  0.17770000000E+01 0.  1.
         15    1    1    2    0    0  0.25722137696E+01 -0.13814122143E+01 -0.23257524600E+03  0.23260035977E+03  0.17770000000E+01 0. -1.
</event>
<event>
 6    1  0.1941859E-003  0.5035461E+03  0.7546771E-02  0.9391910E-01
        -11   -1    0    0    0    0  0.00000000000E+00  0.00000000000E+00  0.50000000000E+03  0.50000000000E+03  0.00000000000E+00 0. -1.
         11   -1    0    0    0    0 -0.00000000000E+00 -0.00000000000E+00 -0.50000000000E+03  0.50000000000E+03  0.00000000000E+00 0.  1.
        -11    1    1    2    0    0 -0.21172904991E+01 -0.45981050815E+01  0.32437713038E+03  0.32441662751E+03  0.00000000000E+00 0. -1.
         11    1    1    2    0    0 -0.21792985562E+02  0.13945345342E+02 -0.49577930297E+03  0.49645394965E+03  0.00000000000E+00 0.  1.
        -15    1    1    2    0    0  0.20663169069E+02 -0.62922533581E+01  0.26886377859E+02  0.34533955054E+02  0.17770000000E+01 0.  1.
         15    1    1    2    0    0  0.32471069920E+01 -0.30549869028E+01  0.14451579473E+03  0.14459546778E+03  0.17770000000E+01 0. -1.
</event>
<event>
 6    1  0.1599106E-003  0.5003807E+03  0.7546771E-02  0.9398958E-01
        -11   -1    0    0    0    0  0.00000000000E+00  0.00000000000E+00  0.50000000000E+03  0.50000000000E+03  0.00000000000E+00 0. -1.
         11   -1    0    0    0    0 -0.00000000000E+00 -0.00000000000E+00 -0.50000000000E+03  0.50000000000E+03  0.00000000000E+00 0.  1.
        -11    1    1    2    0    0 -0.69476865749E+01  0.24109364581E+01  0.49956517882E+03  0.49961930593E+03  0.00000000000E+00 0. -1.
         11    1    1    2    0    0 -0.49823454397E+01  0.18968644266E+01 -0.25617293725E+03  0.25622840522E+03  0.00000000000E+00 0.  1.
        -15    1    1    2    0    0  0.82012991398E+01 -0.74783573496E+00 -0.21882656473E+03  0.21898868402E+03  0.17770000000E+01 0.  1.
         15    1    1    2    0    0  0.37287328748E+01 -0.35599651498E+01 -0.24565676838E+02  0.25163604834E+02  0.17770000000E+01 0. -1.
</event>
<event>
 6    1  0.1599106E-003  0.5007422E+03  0.7546771E-02  0.9398151E-01
        -11   -1    0    0    0    0  0.00000000000E+00  0.00000000000E+00  0.50000000000E+03  0.50000000000E+03  0.00000000000E+00 0.  1.
         11   -1    0    0    0    0 -0.00000000000E+00 -0.00000000000E+00 -0.50000000000E+03  0.50000000000E+03  0.00000000000E+00 0.  1.
        -11    1    1    2    0    0 -0.97853695942E+01  0.78483482242E+01  0.30319137546E+03  0.30345075413E+03  0.00000000000E+00 0.  1.
         11    1    1    2    0    0 -0.84496883603E+01 -0.41275202827E+01 -0.49916922323E+03  0.49925779622E+03  0.00000000000E+00 0.  1.
        -15    1    1    2    0    0  0.21678906278E+01  0.39214169414E+01  0.37748847723E+02  0.38055360910E+02  0.17770000000E+01 0. -1.
         15    1    1    2    0    0  0.16067167327E+02 -0.76422448828E+01  0.15822900005E+03  0.15923608874E+03  0.17770000000E+01 0.  1.
</event>
<event>
 6    1  0.1599106E-003  0.5103585E+03  0.7546771E-02  0.9376926E-01
        -11   -1    0    0    0    0  0.00000000000E+00  0.00000000000E+00  0.50000000000E+03  0.50000000000E+03  0.00000000000E+00 0.  1.
         11   -1    0    0    0    0 -0.00000000000E+00 -0.00000000000E+00 -0.50000000000E+03  0.50000000000E+03  0.00000000000E+00 0. -1.
        -11    1    1    2    0    0 -0.50844134669E+01 -0.11531173701E+02  0.42914893852E+03  0.42933393840E+03  0.00000000000E+00 0.  1.
         11    1    1    2    0    0  0.10769114875E+02 -0.16813638542E+02 -0.48923426973E+03  0.48964154537E+03  0.00000000000E+00 0. -1.
        -15    1    1    2    0    0 -0.20673135607E+02  0.27493976120E+02  0.24232722814E+02  0.42115078567E+02  0.17770000000E+01 0.  1.
         15    1    1    2    0    0  0.14988434199E+02  0.85083612280E+00  0.35852608394E+02  0.38909437666E+02  0.17770000000E+01 0. -1.
</event>
<event>
 6    1  0.1599106E-003  0.5068838E+03  0.7546771E-02  0.9384537E-01
        -11   -1    0    0    0    0  0.00000000000E+00  0.00000000000E+00  0.50000000000E+03  0.50000000000E+03  0.00000000000E+00 0. -1.
         11   -1    0    0    0    0 -0.00000000000E+00 -0.00000000000E+00 -0.50000000000E+03  0.50000000000E+03  0.00000000000E+00 0.  1.
        -11    1    1    2    0    0  0.33921113646E+01 -0.10047056232E+02  0.35747286487E+03  0.35763011461E+03  0.00000000000E+00 0. -1.
         11    1    1    2    0    0 -0.10092295838E+02  0.96535268606E+01 -0.49291841630E+03  0.49311622377E+03  0.00000000000E+00 0.  1.
        -15    1    1    2    0    0 -0.27698410888E+02 -0.43681928260E+00  0.51328884951E+02  0.58354133839E+02  0.17770000000E+01 0.  1.
         15    1    1    2    0    0  0.34398595361E+02  0.83034865394E+00  0.84116666484E+02  0.90899527782E+02  0.17770000000E+01 0. -1.
</event>
<event>
 6    1  0.1599106E-003  0.5045926E+03  0.7546771E-02  0.9389592E-01
        -11   -1    0    0    0    0  0.00000000000E+00  0.00000000000E+00  0.50000000000E+03  0.50000000000E+03  0.00000000000E+00 0.  1.
         11   -1    0    0    0    0 -0.00000000000E+00 -0.00000000000E+00 -0.50000000000E+03  0.50000000000E+03  0.00000000000E+00 0.  1.
        -11    1    1    2    0    0 -0.11105759297E+02 -0.96288906096E+01  0.49518932686E+03  0.49540743117E+03  0.00000000000E+00 0.  1.
         11    1    1    2    0    0  0.18956862982E+02  0.49393026652E+01 -0.19017720516E+03  0.19118349491E+03  0.00000000000E+00 0.  1.
        -15    1    1    2    0    0 -0.19887685187E+02  0.15402415978E+02 -0.29067729023E+03  0.29176908545E+03  0.17770000000E+01 0.  1.
         15    1    1    2    0    0  0.12036581502E+02 -0.10712828033E+02 -0.14334831468E+02  0.21639988469E+02  0.17770000000E+01 0. -1.
</event>
<event>
 6    1  0.1599106E-003  0.5056901E+03  0.7546771E-02  0.9387167E-01
        -11   -1    0    0    0    0  0.00000000000E+00  0.00000000000E+00  0.50000000000E+03  0.50000000000E+03  0.00000000000E+00 0.  1.
         11   -1    0    0    0    0 -0.00000000000E+00 -0.00000000000E+00 -0.50000000000E+03  0.50000000000E+03  0.00000000000E+00 0.  1.
        -11    1    1    2    0    0  0.18726447096E+02 -0.20110672545E+02  0.49354549505E+03  0.49430989738E+03  0.00000000000E+00 0.  1.
         11    1    1    2    0    0 -0.10155864773E+02  0.10490938059E+02 -0.32692574767E+03  0.32725165524E+03  0.00000000000E+00 0.  1.
        -15    1    1    2    0    0  0.62342464338E+01 -0.65942161923E+01 -0.15135765374E+03  0.15163985819E+03  0.17770000000E+01 0.  1.
         15    1    1    2    0    0 -0.14804828757E+02  0.16213950678E+02 -0.15262093634E+02  0.26798589183E+02  0.17770000000E+01 0.  1.
</event>
<event>
 6    1  0.1599106E-003  0.5059895E+03  0.7546771E-02  0.9386507E-01
        -11   -1    0    0    0    0  0.00000000000E+00  0.00000000000E+00  0.50000000000E+03  0.50000000000E+03  0.00000000000E+00 0.  1.
         11   -1    0    0    0    0 -0.00000000000E+00 -0.00000000000E+00 -0.50000000000E+03  0.50000000000E+03  0.00000000000E+00 0.  1.
        -11    1    1    2    0    0  0.48343846423E+01 -0.31673747935E+02  0.49297034041E+03  0.49401047975E+03  0.00000000000E+00 0.  1.
         11    1    1    2    0    0  0.43197282858E+01 -0.43894082137E+01 -0.18294735964E+03  0.18305098567E+03  0.00000000000E+00 0.  1.
        -15    1    1    2    0    0 -0.73867566729E+01 -0.16952289801E+02 -0.19917459572E+03  0.20003905022E+03  0.17770000000E+01 0.  1.
         15    1    1    2    0    0 -0.17673562552E+01  0.53015445951E+02 -0.11084838505E+03  0.12289948435E+03  0.17770000000E+01 0. -1.
</event>
<event>
 6    1  0.1599106E-003  0.5212372E+03  0.7546771E-02  0.9353505E-01
        -11   -1    0    0    0    0  0.00000000000E+00  0.00000000000E+00  0.50000000000E+03  0.50000000000E+03  0.00000000000E+00 0.  1.
         11   -1    0    0    0    0 -0.00000000000E+00 -0.00000000000E+00 -0.50000000000E+03  0.50000000000E+03  0.00000000000E+00 0.  1.
        -11    1    1    2    0    0 -0.15500286896E+02  0.45321372986E+01  0.45310031663E+03  0.45338801935E+03  0.00000000000E+00 0.  1.
         11    1    1    2    0    0 -0.12409784530E+02 -0.65354709640E+01 -0.47855727400E+03  0.47876275923E+03  0.00000000000E+00 0.  1.
        -15    1    1    2    0    0  0.34777990729E+02  0.21716503770E+02  0.11311551121E+02  0.42570225427E+02  0.17770000000E+01 0.  1.
         15    1    1    2    0    0 -0.68679193039E+01 -0.19713170104E+02  0.14145406245E+02  0.25278995984E+02  0.17770000000E+01 0. -1.
</event>
<event>
 6    1  0.1599106E-003  0.5016952E+03  0.7546771E-02  0.9396025E-01
        -11   -1    0    0    0    0  0.00000000000E+00  0.00000000000E+00  0.50000000000E+03  0.50000000000E+03  0.00000000000E+00 0. -1.
         11   -1    0    0    0    0 -0.00000000000E+00 -0.00000000000E+00 -0.50000000000E+03  0.50000000000E+03  0.00000000000E+00 0. -1.
        -11    1    1    2    0    0 -0.12107129722E+02  0.72615980074E+01  0.35300600285E+03  0.35328819885E+03  0.00000000000E+00 0. -1.
         11    1    1    2    0    0 -0.69039309719E+01  0.56863620167E+01 -0.49822456607E+03  0.49830484366E+03  0.00000000000E+00 0. -1.
        -15    1    1    2    0    0  0.17238368432E+02 -0.14863644329E+01  0.63058709044E+02  0.65413524142E+02  0.17770000000E+01 0.  1.
         15    1    1    2    0    0  0.17726922620E+01 -0.11461595591E+02  0.82159854177E+02  0.82993433347E+02  0.17770000000E+01 0. -1.
</event>
<event>
 6    1  0.1599106E-003  0.5179186E+03  0.7546771E-02  0.9360585E-01
        -11   -1    0    0    0    0  0.00000000000E+00  0.00000000000E+00  0.50000000000E+03  0.50000000000E+03  0.00000000000E+00 0. -1.
         11   -1    0    0    0    0 -0.00000000000E+00 -0.00000000000E+00 -0.50000000000E+03  0.50000000000E+03  0.00000000000E+00 0.  1.
        -11    1    1    2    0    0 -0.28792661538E+02 -0.64741762384E+01  0.14599470868E+03  0.14894759911E+03  0.00000000000E+00 0. -1.
         11    1    1    2    0    0  0.83606139634E+01 -0.37735066575E+01 -0.48199411364E+03  0.48208138815E+03  0.00000000000E+00 0.  1.
        -15    1    1    2    0    0  0.22541809591E+02 -0.65460238469E+01  0.34758618578E+03  0.34838240179E+03  0.17770000000E+01 0. -1.
         15    1    1    2    0    0 -0.21097620167E+01  0.16793706743E+02 -0.11586780820E+02  0.20588610946E+02  0.17770000000E+01 0.  1.
</event>
<event>
 6    1  0.1599106E-003  0.5014306E+03  0.7546771E-02  0.9396614E-01
        -11   -1    0    0    0    0  0.00000000000E+00  0.00000000000E+00  0.50000000000E+03  0.50000000000E+03  0.00000000000E+00 0.  1.
         11   -1    0    0    0    0 -0.00000000000E+00 -0.00000000000E+00 -0.50000000000E+03  0.50000000000E+03  0.00000000000E+00 0.  1.
        -11    1    1    2    0    0 -0.41062170993E+01  0.72148022366E+01  0.49850030697E+03  0.49856942389E+03  0.00000000000E+00 0.  1.
         11    1    1    2    0    0 -0.98631953680E+01 -0.81566578381E+01 -0.26237130838E+03  0.26268330201E+03  0.00000000000E+00 0.  1.
        -15    1    1    2    0    0  0.13653386752E+02  0.10298280313E+02 -0.21353465968E+03  0.21422576446E+03  0.17770000000E+01 0.  1.
         15    1    1    2    0    0  0.31602571532E+00 -0.93564247119E+01 -0.22594338905E+02  0.24521509643E+02  0.17770000000E+01 0. -1.
</event>
<event>
 6    1  0.1599106E-003  0.5002355E+03  0.7546771E-02  0.9399283E-01
        -11   -1    0    0    0    0  0.00000000000E+00  0.00000000000E+00  0.50000000000E+03  0.50000000000E+03  0.00000000000E+00 0. -1.
         11   -1    0    0    0    0 -0.00000000000E+00 -0.00000000000E+00 -0.50000000000E+03  0.50000000000E+03  0.00000000000E+00 0.  1.
        -11    1    1    2    0    0  0.54583844651E+01 -0.32726684780E+01  0.41164878666E+03  0.41169798138E+03  0.00000000000E+00 0. -1.
         11    1    1    2    0    0 -0.73835963996E+01 -0.13844855652E+01 -0.49970801307E+03  0.49976447715E+03  0.00000000000E+00 0.  1.
        -15    1    1    2    0    0  0.21438421548E+01  0.17812263609E+01  0.74079103112E+02  0.74152815681E+02  0.17770000000E+01 0. -1.
         15    1    1    2    0    0 -0.21863022026E+00  0.28759276822E+01  0.13980123305E+02  0.14384725783E+02  0.17770000000E+01 0.  1.
</event>
<event>
 6    1  0.1599106E-003  0.4901198E+03  0.7546771E-02  0.9422193E-01
        -11   -1    0    0    0    0  0.00000000000E+00  0.00000000000E+00  0.50000000000E+03  0.50000000000E+03  0.00000000000E+00 0. -1.
         11   -1    0    0    0    0 -0.00000000000E+00 -0.00000000000E+00 -0.50000000000E+03  0.50000000000E+03  0.00000000000E+00 0. -1.
        -11    1    1    2    0    0  0.72680252810E+01  0.24842175753E+01  0.49076795831E+03  0.49082805995E+03  0.00000000000E+00 0. -1.
         11    1    1    2    0    0 -0.15810974471E+02  0.61546625610E+01 -0.48919399873E+03  0.48948813589E+03  0.00000000000E+00 0. -1.
        -15    1    1    2    0    0  0.98114758977E+01 -0.11119297773E+02 -0.41418284704E+01  0.15498913328E+02  0.17770000000E+01 0. -1.
         15    1    1    2    0    0 -0.12685267078E+01  0.24804176370E+01  0.25678688858E+01  0.41848908322E+01  0.17770000000E+01 0. -1.
</event>
<event>
 6    1  0.1599106E-003  0.5002882E+03  0.7546771E-02  0.9399165E-01
        -11   -1    0    0    0    0  0.00000000000E+00  0.00000000000E+00  0.50000000000E+03  0.50000000000E+03  0.00000000000E+00 0. -1.
         11   -1    0    0    0    0 -0.00000000000E+00 -0.00000000000E+00 -0.50000000000E+03  0.50000000000E+03  0.00000000000E+00 0.  1.
        -11    1    1    2    0    0 -0.54373344546E+00 -0.12582689044E+01  0.65271670417E+02  0.65286061650E+02  0.00000000000E+00 0. -1.
         11    1    1    2    0    0 -0.50806167222E+01 -0.81913567397E+01 -0.49961886240E+03  0.49971183562E+03  0.00000000000E+00 0.  1.
        -15    1    1    2    0    0  0.11080679923E+01 -0.64765144627E+01  0.92757156550E+02  0.93006563610E+02  0.17770000000E+01 0.  1.
         15    1    1    2    0    0  0.45162821753E+01  0.15926140107E+02  0.34159003543E+03  0.34199553912E+03  0.17770000000E+01 0. -1.
</event>
<event>
 6    1  0.1599106E-003  0.5112335E+03  0.7546771E-02  0.9375019E-01
        -11   -1    0    0    0    0  0.00000000000E+00  0.00000000000E+00  0.50000000000E+03  0.50000000000E+03  0.00000000000E+00 0. -1.
         11   -1    0    0    0    0 -0.00000000000E+00 -0.00000000000E+00 -0.50000000000E+03  0.50000000000E+03  0.00000000000E+00 0. -1.
        -11    1    1    2    0    0  0.13859816093E+02 -0.29245093035E+01  0.33620754909E+03  0.33650581469E+03  0.00000000000E+00 0. -1.
         11    1    1    2    0    0  0.11715710594E+02 -0.99855470227E+01 -0.48852403759E+03  0.48876651310E+03  0.00000000000E+00 0. -1.
        -15    1    1    2    0    0  0.49695799889E+01 -0.78982114652E+01 -0.65956334800E+01  0.11564539750E+02  0.17770000000E+01 0.  1.
         15    1    1    2    0    0 -0.30545106676E+02  0.20808267791E+02  0.15891212198E+03  0.16316313246E+03  0.17770000000E+01 0. -1.
</event>
<event>
 6    1  0.1599106E-003  0.5009925E+03  0.7546771E-02  0.9397592E-01
        -11   -1    0    0    0    0  0.00000000000E+00  0.00000000000E+00  0.50000000000E+03  0.50000000000E+03  0.00000000000E+00 0. -1.
         11   -1    0    0    0    0 -0.00000000000E+00 -0.00000000000E+00 -0.50000000000E+03  0.50000000000E+03  0.00000000000E+00 0.  1.
        -11    1    1    2    0    0 -0.74188579030E+01  0.87521950740E+01  0.49887553406E+03  0.49900745371E+03  0.00000000000E+00 0. -1.
         11    1    1    2    0    0 -0.43331123330E+01  0.73838643636E+01 -0.15602440562E+03  0.15625911962E+03  0.00000000000E+00 0.  1.
        -15    1    1    2    0    0  0.14296464196E+01 -0.13471457817E+02 -0.54731415847E+02  0.56411077585E+02  0.17770000000E+01 0.  1.
         15    1    1    2    0    0  0.10322323816E+02 -0.26646016203E+01 -0.28811971260E+03  0.28832234909E+03  0.17770000000E+01 0. -1.
</event>
<event>
 6    1  0.1599106E-003  0.5039820E+03  0.7546771E-02  0.9390944E-01
        -11   -1    0    0    0    0  0.00000000000E+00  0.00000000000E+00  0.50000000000E+03  0.50000000000E+03  0.00000000000E+00 0. -1.
         11   -1    0    0    0    0 -0.00000000000E+00 -0.00000000000E+00 -0.50000000000E+03  0.50000000000E+03  0.00000000000E+00 0. -1.
        -11    1    1    2    0    0 -0.76831042409E-01 -0.10302275966E+02  0.49591102471E+03  0.49601803114E+03  0.00000000000E+00 0. -1.
         11    1    1    2    0    0  0.68119844326E+01  0.51698113346E+01 -0.44426498703E+03  0.44434728398E+03  0.00000000000E+00 0. -1.
        -15    1    1    2    0    0 -0.30805318731E+01 -0.47556391396E+01 -0.47960368400E+02  0.48326601849E+02  0.17770000000E+01 0. -1.
         15    1    1    2    0    0 -0.36546215171E+01  0.98881037708E+01 -0.36856692770E+01  0.11308083022E+02  0.17770000000E+01 0.  1.
</event>
<event>
 6    1  0.1599106E-003  0.5082801E+03  0.7546771E-02  0.9381471E-01
        -11   -1    0    0    0    0  0.00000000000E+00  0.00000000000E+00  0.50000000000E+03  0.50000000000E+03  0.00000000000E+00 0. -1.
         11   -1    0    0    0    0 -0.00000000000E+00 -0.00000000000E+00 -0.50000000000E+03  0.50000000000E+03  0.00000000000E+00 0.  1.
        -11    1    1    2    0    0 -0.45022229738E+01 -0.28020046626E+02  0.42683917816E+03  0.42778157632E+03  0.00000000000E+00 0. -1.
         11    1    1    2    0    0  0.89981934126E+01 -0.11230616017E+02 -0.49150931867E+03  0.49171994526E+03  0.00000000000E+00 0.  1.
        -15    1    1    2    0    0 -0.30832267939E+01  0.17122405584E+02  0.72706808341E+01  0.18939471725E+02  0.17770000000E+01 0. -1.
         15    1    1    2    0    0 -0.14127436449E+01  0.22128257059E+02  0.57399459682E+02  0.61559006700E+02  0.17770000000E+01 0.  1.
</event>
<event>
 6    1  0.1599106E-003  0.5006159E+03  0.7546771E-02  0.9398433E-01
        -11   -1    0    0    0    0  0.00000000000E+00  0.00000000000E+00  0.50000000000E+03  0.50000000000E+03  0.00000000000E+00 0.  1.
         11   -1    0    0    0    0 -0.00000000000E+00 -0.00000000000E+00 -0.50000000000E+03  0.50000000000E+03  0.00000000000E+00 0. -1.
        -11    1    1    2    0    0  0.13687287625E+01 -0.75124111693E+01  0.49932566736E+03  0.49938405243E+03  0.00000000000E+00 0.  1.
         11    1    1    2    0    0 -0.41586372408E+01 -0.11298534634E+01 -0.13371957495E+03  0.13378899640E+03  0.00000000000E+00 0. -1.
        -15    1    1    2    0    0 -0.16772591155E+01  0.15081002748E+02 -0.32876114510E+03  0.32911593413E+03  0.17770000000E+01 0. -1.
         15    1    1    2    0    0  0.44671675938E+01 -0.64387381150E+01 -0.36844947311E+02  0.37711017040E+02  0.17770000000E+01 0.  1.
</event>
<event>
 6    1  0.1599106E-003  0.4830519E+03  0.7546771E-02  0.9438552E-01
        -11   -1    0    0    0    0  0.00000000000E+00  0.00000000000E+00  0.50000000000E+03  0.50000000000E+03  0.00000000000E+00 0. -1.
         11   -1    0    0    0    0 -0.00000000000E+00 -0.00000000000E+00 -0.50000000000E+03  0.50000000000E+03  0.00000000000E+00 0.  1.
        -11    1    1    2    0    0 -0.38942821756E+01 -0.18287378557E+02  0.48300507815E+03  0.48336683706E+03  0.00000000000E+00 0. -1.
         11    1    1    2    0    0 -0.57304261562E+01  0.52764454060E+01 -0.48280959744E+03  0.48287243247E+03  0.00000000000E+00 0.  1.
        -15    1    1    2    0    0  0.14308510700E+02  0.19293751698E+02  0.44284121407E+01  0.24489812088E+02  0.17770000000E+01 0. -1.
         15    1    1    2    0    0 -0.46838023678E+01 -0.62828185473E+01 -0.46238928500E+01  0.92709183799E+01  0.17770000000E+01 0.  1.
</event>
<event>
 6    1  0.1599106E-003  0.5040924E+03  0.7546771E-02  0.9390699E-01
        -11   -1    0    0    0    0  0.00000000000E+00  0.00000000000E+00  0.50000000000E+03  0.50000000000E+03  0.00000000000E+00 0. -1.
         11   -1    0    0    0    0 -0.00000000000E+00 -0.00000000000E+00 -0.50000000000E+03  0.50000000000E+03  0.00000000000E+00 0. -1.
        -11    1    1    2    0    0  0.80128100083E+01  0.23715760649E+01  0.49583721282E+03  0.49590762357E+03  0.00000000000E+00 0. -1.
         11    1    1    2    0    0  0.73502429236E+01 -0.64665857118E+01 -0.46296018791E+03  0.46306368719E+03  0.00000000000E+00 0. -1.
        -15    1    1    2    0    0 -0.66535111509E+01  0.14007002239E+01 -0.17151769743E+00  0.70298164323E+01  0.17770000000E+01 0. -1.
         15    1    1    2    0    0 -0.87095417811E+01  0.26943094230E+01 -0.32705507212E+02  0.33998872809E+02  0.17770000000E+01 0.  1.
</event>
<event>
 6    1  0.1599106E-003  0.4765543E+03  0.7546771E-02  0.9453856E-01
        -11   -1    0    0    0    0  0.00000000000E+00  0.00000000000E+00  0.50000000000E+03  0.50000000000E+03  0.00000000000E+00 0. -1.
         11   -1    0    0    0    0 -0.00000000000E+00 -0.00000000000E+00 -0.50000000000E+03  0.50000000000E+03  0.00000000000E+00 0.  1.
        -11    1    1    2    0    0  0.31120814177E+01  0.79556265789E+01  0.47681840136E+03  0.47689492021E+03  0.00000000000E+00 0. -1.
         11    1    1    2    0    0  0.73333378077E+01 -0.77494878491E+00 -0.47624106906E+03  0.47629815688E+03  0.00000000000E+00 0.  1.
        -15    1    1    2    0    0 -0.87253811121E+01  0.17946602736E+01  0.21232087536E+02  0.23093556487E+02  0.17770000000E+01 0.  1.
         15    1    1    2    0    0 -0.17200381133E+01 -0.89753380675E+01 -0.21809419840E+02  0.23713366427E+02  0.17770000000E+01 0. -1.
</event>
<event>
 6    1  0.1599106E-003  0.5043638E+03  0.7546771E-02  0.9390098E-01
        -11   -1    0    0    0    0  0.00000000000E+00  0.00000000000E+00  0.50000000000E+03  0.50000000000E+03  0.00000000000E+00 0. -1.
         11   -1    0    0    0    0 -0.00000000000E+00 -0.00000000000E+00 -0.50000000000E+03  0.50000000000E+03  0.00000000000E+00 0.  1.
        -11    1    1    2    0    0  0.23006119199E+01 -0.79606388330E+01  0.49556692685E+03  0.49563620083E+03  0.00000000000E+00 0. -1.
         11    1    1    2    0    0  0.32187389831E+01 -0.57179400455E+01 -0.37068355237E+03  0.37074162312E+03  0.00000000000E+00 0.  1.
        -15    1    1    2    0    0 -0.10059289849E+02  0.40473770489E+01 -0.31766078961E+01  0.11437619506E+02  0.17770000000E+01 0. -1.
         15    1    1    2    0    0  0.45399389462E+01  0.96312018297E+01 -0.12170676659E+03  0.12218455654E+03  0.17770000000E+01 0.  1.
</event>
<event>
 6    1  0.1599106E-003  0.5026058E+03  0.7546771E-02  0.9393998E-01
        -11   -1    0    0    0    0  0.00000000000E+00  0.00000000000E+00  0.50000000000E+03  0.50000000000E+03  0.00000000000E+00 0.  1.
         11   -1    0    0    0    0 -0.00000000000E+00 -0.00000000000E+00 -0.50000000000E+03  0.50000000000E+03  0.00000000000E+00 0. -1.
        -11    1    1    2    0    0 -0.96392249560E+01 -0.70835420303E+00  0.49730024690E+03  0.49739416160E+03  0.00000000000E+00 0.  1.
         11    1    1    2    0    0  0.39614851622E+01  0.68771296678E+01 -0.40689516204E+03  0.40697255579E+03  0.00000000000E+00 0. -1.
        -15    1    1    2    0    0  0.40829010996E+01  0.29468597540E+01 -0.84158480556E+02  0.84327703884E+02  0.17770000000E+01 0. -1.
         15    1    1    2    0    0  0.15948386942E+01 -0.91156352188E+01 -0.62466043103E+01  0.11305578725E+02  0.17770000000E+01 0.  1.
</event>
<event>
 6    1  0.1599106E-003  0.5289046E+03  0.7546771E-02  0.9337359E-01
        -11   -1    0    0    0    0  0.00000000000E+00  0.00000000000E+00  0.50000000000E+03  0.50000000000E+03  0.00000000000E+00 0. -1.
         11   -1    0    0    0    0 -0.00000000000E+00 -0.00000000000E+00 -0.50000000000E+03  0.50000000000E+03  0.00000000000E+00 0. -1.
        -11    1    1    2    0    0 -0.46376664857E+01  0.13725441909E+02  0.42724504814E+03  0.42749061612E+03  0.00000000000E+00 0. -1.
         11    1    1    2    0    0  0.71692298745E+01  0.16893383244E+01 -0.47103781260E+03  0.47109539652E+03  0.00000000000E+00 0. -1.
        -15    1    1    2    0    0 -0.73337346085E+00 -0.15730589914E+02 -0.26606531366E+02  0.30968605652E+02  0.17770000000E+01 0. -1.
         15    1    1    2    0    0 -0.17981899279E+01  0.31580968050E+00  0.70399295827E+02  0.70445381713E+02  0.17770000000E+01 0.  1.
</event>
<event>
 6    1  0.1599106E-003  0.5050720E+03  0.7546771E-02  0.9388532E-01
        -11   -1    0    0    0    0  0.00000000000E+00  0.00000000000E+00  0.50000000000E+03  0.50000000000E+03  0.00000000000E+00 0.  1.
         11   -1    0    0    0    0 -0.00000000000E+00 -0.00000000000E+00 -0.50000000000E+03  0.50000000000E+03  0.00000000000E+00 0. -1.
        -11    1    1    2    0    0 -0.96372810072E+01 -0.52162742778E+01  0.47691235875E+03  0.47703824232E+03  0.00000000000E+00 0.  1.
         11    1    1    2    0    0 -0.18440009581E+01  0.91159999004E+01 -0.49484059355E+03  0.49492798953E+03  0.00000000000E+00 0. -1.
        -15    1    1    2    0    0  0.85132621139E+01 -0.84319099455E+01  0.18699728827E+02  0.22280267600E+02  0.17770000000E+01 0. -1.
         15    1    1    2    0    0  0.29680198514E+01  0.45321843229E+01 -0.77149402337E+00  0.57535005521E+01  0.17770000000E+01 0.  1.
</event>
<event>
 6    1  0.1599106E-003  0.5009224E+03  0.7546771E-02  0.9397748E-01
        -11   -1    0    0    0    0  0.00000000000E+00  0.00000000000E+00  0.50000000000E+03  0.50000000000E+03  0.00000000000E+00 0.  1.
         11   -1    0    0    0    0 -0.00000000000E+00 -0.00000000000E+00 -0.50000000000E+03  0.50000000000E+03  0.00000000000E+00 0.  1.
        -11    1    1    2    0    0  0.64761033930E+01  0.11323575796E+02  0.49890712255E+03  0.49907762945E+03  0.00000000000E+00 0.  1.
         11    1    1    2    0    0 -0.40855440966E+01  0.82811901157E+01 -0.35598581331E+03  0.35610555887E+03  0.00000000000E+00 0.  1.
        -15    1    1    2    0    0 -0.46801336951E-01 -0.16396043691E+02 -0.76722026943E+02  0.78474579236E+02  0.17770000000E+01 0. -1.
         15    1    1    2    0    0 -0.23437579594E+01 -0.32087222212E+01 -0.66199282303E+02  0.66342232447E+02  0.17770000000E+01 0.  1.
</event>
<event>
 6    1  0.1599106E-003  0.5094361E+03  0.7546771E-02  0.9378940E-01
        -11   -1    0    0    0    0  0.00000000000E+00  0.00000000000E+00  0.50000000000E+03  0.50000000000E+03  0.00000000000E+00 0. -1.
         11   -1    0    0    0    0 -0.00000000000E+00 -0.00000000000E+00 -0.50000000000E+03  0.50000000000E+03  0.00000000000E+00 0.  1.
        -11    1    1    2    0    0 -0.82904505250E+01  0.43364532378E+01  0.49047470745E+03  0.49056393574E+03  0.00000000000E+00 0. -1.
         11    1    1    2    0    0 -0.19886850155E+02 -0.22481020009E+01 -0.38041430253E+03  0.38094039211E+03  0.00000000000E+00 0.  1.
        -15    1    1    2    0    0 -0.22331045582E+01  0.12904860719E+02  0.10496752924E+00  0.13217069771E+02  0.17770000000E+01 0.  1.
         15    1    1    2    0    0  0.30410405238E+02 -0.14993211956E+02 -0.11016537245E+03  0.11527860238E+03  0.17770000000E+01 0. -1.
</event>
<event>
 6    1  0.1599106E-003  0.5035140E+03  0.7546771E-02  0.9391981E-01
        -11   -1    0    0    0    0  0.00000000000E+00  0.00000000000E+00  0.50000000000E+03  0.50000000000E+03  0.00000000000E+00 0. -1.
         11   -1    0    0    0    0 -0.00000000000E+00 -0.00000000000E+00 -0.50000000000E+03  0.50000000000E+03  0.00000000000E+00 0. -1.
        -11    1    1    2    0    0 -0.10829432404E+02  0.66454360458E+01  0.49632334641E+03  0.49648595410E+03  0.00000000000E+00 0. -1.
         11    1    1    2    0    0 -0.10112112258E+02  0.58859940061E+00 -0.33628918009E+03  0.33644169467E+03  0.00000000000E+00 0. -1.
        -15    1    1    2    0    0  0.25265818490E+01 -0.67422473986E+01 -0.16331388835E+01  0.75938387813E+01  0.17770000000E+01 0.  1.
         15    1    1    2    0    0  0.18414962813E+02 -0.49178804783E+00 -0.15840102743E+03  0.15947851245E+03  0.17770000000E+01 0. -1.
</event>
<event>
 6    1  0.1599106E-003  0.5090662E+03  0.7546771E-02  0.9379749E-01
        -11   -1    0    0    0    0  0.00000000000E+00  0.00000000000E+00  0.50000000000E+03  0.50000000000E+03  0.00000000000E+00 0. -1.
         11   -1    0    0    0    0 -0.00000000000E+00 -0.00000000000E+00 -0.50000000000E+03  0.50000000000E+03  0.00000000000E+00 0.  1.
        -11    1    1    2    0    0 -0.78073346798E+01  0.44541525224E+01  0.26347122007E+03  0.26362450143E+03  0.00000000000E+00 0. -1.
         11    1    1    2    0    0  0.60986519134E+01  0.33505012098E+01 -0.49088444262E+03  0.49093375869E+03  0.00000000000E+00 0.  1.
        -15    1    1    2    0    0 -0.11766091646E+02  0.12365818822E+01 -0.46276185546E+01  0.12827417115E+02  0.17770000000E+01 0.  1.
         15    1    1    2    0    0  0.13474774412E+02 -0.90412356145E+01  0.23204084110E+03  0.23261432276E+03  0.17770000000E+01 0. -1.
</event>
<event>
 6    1  0.1599106E-003  0.5040212E+03  0.7546771E-02  0.9390857E-01
        -11   -1    0    0    0    0  0.00000000000E+00  0.00000000000E+00  0.50000000000E+03  0.50000000000E+03  0.00000000000E+00 0.  1.
         11   -1    0    0    0    0 -0.00000000000E+00 -0.00000000000E+00 -0.50000000000E+03  0.50000000000E+03  0.00000000000E+00 0.  1.
        -11    1    1    2    0    0  0.65644140092E+01 -0.21711169591E+02  0.30009594959E+03  0.30095189878E+03  0.00000000000E+00 0.  1.
         11    1    1    2    0    0  0.94695098203E+01  0.15539702585E+02 -0.49564485099E+03  0.49597880225E+03  0.00000000000E+00 0.  1.
        -15    1    1    2    0    0 -0.24512255915E+02 -0.15653139876E+02  0.79570269145E+02  0.84737576899E+02  0.17770000000E+01 0. -1.
         15    1    1    2    0    0  0.84783320851E+01  0.21824606882E+02  0.11597863225E+03  0.11833172207E+03  0.17770000000E+01 0.  1.
</event>
<event>
 6    1  0.1599106E-003  0.5004034E+03  0.7546771E-02  0.9398908E-01
        -11   -1    0    0    0    0  0.00000000000E+00  0.00000000000E+00  0.50000000000E+03  0.50000000000E+03  0.00000000000E+00 0.  1.
         11   -1    0    0    0    0 -0.00000000000E+00 -0.00000000000E+00 -0.50000000000E+03  0.50000000000E+03  0.00000000000E+00 0.  1.
        -11    1    1    2    0    0 -0.40417286364E+01 -0.36504523309E+01  0.28860187336E+03  0.28865325683E+03  0.00000000000E+00 0.  1.
         11    1    1    2    0    0 -0.21292736010E+01 -0.90449666095E+01 -0.49951020282E+03  0.49959662524E+03  0.00000000000E+00 0.  1.
        -15    1    1    2    0    0 -0.19143687735E+01  0.57440849013E+01  0.39459242854E+02  0.39960591772E+02  0.17770000000E+01 0. -1.
         15    1    1    2    0    0  0.80853710109E+01  0.69513340390E+01  0.17144908661E+03  0.17178952616E+03  0.17770000000E+01 0.  1.
</event>
<event>
 6    1  0.1599106E-003  0.5001960E+03  0.7546771E-02  0.9399371E-01
        -11   -1    0    0    0    0  0.00000000000E+00  0.00000000000E+00  0.50000000000E+03  0.50000000000E+03  0.00000000000E+00 0.  1.
         11   -1    0    0    0    0 -0.00000000000E+00 -0.00000000000E+00 -0.50000000000E+03  0.50000000000E+03  0.00000000000E+00 0. -1.
        -11    1    1    2    0    0 -0.13321150280E+01 -0.33700227448E+01  0.20524777774E+03  0.20527976483E+03  0.00000000000E+00 0.  1.
         11    1    1    2    0    0 -0.98062129006E+01 -0.47006956526E+01 -0.49968564899E+03  0.49980396773E+03  0.00000000000E+00 0. -1.
        -15    1    1    2    0    0  0.59689023195E+00  0.32303241723E+01  0.13300924353E+03  0.13306166941E+03  0.17770000000E+01 0. -1.
         15    1    1    2    0    0  0.10541437697E+02  0.48403942251E+01  0.16142862773E+03  0.16185459803E+03  0.17770000000E+01 0.  1.
</event>
<event>
 6    1  0.1599106E-003  0.5046234E+03  0.7546771E-02  0.9389523E-01
        -11   -1    0    0    0    0  0.00000000000E+00  0.00000000000E+00  0.50000000000E+03  0.50000000000E+03  0.00000000000E+00 0.  1.
         11   -1    0    0    0    0 -0.00000000000E+00 -0.00000000000E+00 -0.50000000000E+03  0.50000000000E+03  0.00000000000E+00 0. -1.
        -11    1    1    2    0    0  0.46130407712E+01  0.79853437036E+01  0.49529071527E+03  0.49537656231E+03  0.00000000000E+00 0.  1.
         11    1    1    2    0    0  0.22602868161E+01 -0.23080238945E+01 -0.96265683661E+02  0.96319871893E+02  0.00000000000E+00 0. -1.
        -15    1    1    2    0    0 -0.23017848020E+02  0.63001459905E+01 -0.37939974394E+03  0.38015370128E+03  0.17770000000E+01 0. -1.
         15    1    1    2    0    0  0.16144520433E+02 -0.11977465800E+02 -0.19625287667E+02  0.28149864511E+02  0.17770000000E+01 0.  1.
</event>
<event>
 6    1  0.1599106E-003  0.5140116E+03  0.7546771E-02  0.9368992E-01
        -11   -1    0    0    0    0  0.00000000000E+00  0.00000000000E+00  0.50000000000E+03  0.50000000000E+03  0.00000000000E+00 0. -1.
         11   -1    0    0    0    0 -0.00000000000E+00 -0.00000000000E+00 -0.50000000000E+03  0.50000000000E+03  0.00000000000E+00 0.  1.
        -11    1    1    2    0    0 -0.58995365273E+01 -0.64932729318E+01  0.48590921844E+03  0.48598841107E+03  0.00000000000E+00 0. -1.
         11    1    1    2    0    0 -0.23852605532E+00  0.12998377907E+02 -0.46773399023E+03  0.46791462933E+03  0.00000000000E+00 0.  1.
        -15    1    1    2    0    0 -0.84233097299E+01 -0.17484657016E+02 -0.19698893847E+02  0.27710458775E+02  0.17770000000E+01 0. -1.
         15    1    1    2    0    0  0.14561372312E+02  0.10979552040E+02  0.15236656387E+01  0.18386500826E+02  0.17770000000E+01 0.  1.
</event>
<event>
 6    1  0.1599106E-003  0.5090793E+03  0.7546771E-02  0.9379720E-01
        -11   -1    0    0    0    0  0.00000000000E+00  0.00000000000E+00  0.50000000000E+03  0.50000000000E+03  0.00000000000E+00 0.  1.
         11   -1    0    0    0    0 -0.00000000000E+00 -0.00000000000E+00 -0.50000000000E+03  0.50000000000E+03  0.00000000000E+00 0. -1.
        -11    1    1    2    0    0 -0.16182729749E+01  0.16134282339E+02  0.43322516646E+03  0.43352852124E+03  0.00000000000E+00 0.  1.
         11    1    1    2    0    0 -0.67728369340E+01 -0.25585330336E+01 -0.49086733824E+03  0.49092072798E+03  0.00000000000E+00 0. -1.
        -15    1    1    2    0    0  0.17327433844E+02 -0.26587171324E+01  0.15543408333E+01  0.17688483396E+02  0.17770000000E+01 0. -1.
         15    1    1    2    0    0 -0.89363239355E+01 -0.10917032173E+02  0.56087830951E+02  0.57862267383E+02  0.17770000000E+01 0.  1.
</event>
<event>
 6    1  0.1599106E-003  0.5197901E+03  0.7546771E-02  0.9356585E-01
        -11   -1    0    0    0    0  0.00000000000E+00  0.00000000000E+00  0.50000000000E+03  0.50000000000E+03  0.00000000000E+00 0.  1.
         11   -1    0    0    0    0 -0.00000000000E+00 -0.00000000000E+00 -0.50000000000E+03  0.50000000000E+03  0.00000000000E+00 0. -1.
        -11    1    1    2    0    0 -0.26048627522E+02 -0.46938110729E+01  0.47947990919E+03  0.48020989804E+03  0.00000000000E+00 0.  1.
         11    1    1    2    0    0 -0.89089668123E+01  0.20545892910E+02 -0.28128173107E+03  0.28217178392E+03  0.00000000000E+00 0. -1.
        -15    1    1    2    0    0  0.42250328081E+02 -0.45335919231E+02 -0.19769687412E+03  0.20718988286E+03  0.17770000000E+01 0. -1.
         15    1    1    2    0    0 -0.72927337471E+01  0.29483837394E+02 -0.50130400378E+00  0.30428435183E+02  0.17770000000E+01 0.  1.
</event>
<event>
 6    1  0.1599106E-003  0.5006087E+03  0.7546771E-02  0.9398449E-01
        -11   -1    0    0    0    0  0.00000000000E+00  0.00000000000E+00  0.50000000000E+03  0.50000000000E+03  0.00000000000E+00 0. -1.
         11   -1    0    0    0    0 -0.00000000000E+00 -0.00000000000E+00 -0.50000000000E+03  0.50000000000E+03  0.00000000000E+00 0. -1.
        -11    1    1    2    0    0  0.22752800045E+01 -0.10878236520E+02  0.49926759886E+03  0.49939127766E+03  0.00000000000E+00 0. -1.
         11    1    1    2    0    0  0.47337149911E+01 -0.71545268781E+01 -0.18260536565E+03  0.18280676924E+03  0.00000000000E+00 0. -1.
        -15    1    1    2    0    0 -0.28113897345E+01  0.19498569503E+02 -0.18535221303E+03  0.18640466392E+03  0.17770000000E+01 0. -1.
         15    1    1    2    0    0 -0.41976052611E+01 -0.14658061052E+01 -0.13131002018E+03  0.13139728919E+03  0.17770000000E+01 0.  1.
</event>
<event>
 6    1  0.1881686E-003  0.5001509E+03  0.7546771E-02  0.9399472E-01
        -11   -1    0    0    0    0  0.00000000000E+00  0.00000000000E+00  0.50000000000E+03  0.50000000000E+03  0.00000000000E+00 0. -1.
         11   -1    0    0    0    0 -0.00000000000E+00 -0.00000000000E+00 -0.50000000000E+03  0.50000000000E+03  0.00000000000E+00 0.  1.
        -11    1    1    2    0    0 -0.39917511587E+01  0.62165106322E+01  0.49979446738E+03  0.49984906592E+03  0.00000000000E+00 0. -1.
         11    1    1    2    0    0  0.24932329981E+01 -0.16640016619E+01 -0.12076440590E+03  0.12080160117E+03  0.00000000000E+00 0.  1.
        -15    1    1    2    0    0 -0.20027337769E+01 -0.14576204454E+01 -0.16171313566E+02  0.16456145095E+02  0.17770000000E+01 0. -1.
         15    1    1    2    0    0  0.35012519374E+01 -0.30948885250E+01 -0.36285874791E+03  0.36289318782E+03  0.17770000000E+01 0.  1.
</event>
<event>
 6    1  0.1599106E-003  0.5062295E+03  0.7546771E-02  0.9385978E-01
        -11   -1    0    0    0    0  0.00000000000E+00  0.00000000000E+00  0.50000000000E+03  0.50000000000E+03  0.00000000000E+00 0.  1.
         11   -1    0    0    0    0 -0.00000000000E+00 -0.00000000000E+00 -0.50000000000E+03  0.50000000000E+03  0.00000000000E+00 0. -1.
        -11    1    1    2    0    0 -0.39595523431E+01  0.76808130237E+01  0.49369491083E+03  0.49377053164E+03  0.00000000000E+00 0.  1.
         11    1    1    2    0    0  0.17387426818E+01  0.96338315726E+01 -0.25054509223E+03  0.25073627016E+03  0.00000000000E+00 0. -1.
        -15    1    1    2    0    0 -0.48339295142E+01  0.70091796426E+00  0.46251881362E+01  0.69576041017E+01  0.17770000000E+01 0.  1.
         15    1    1    2    0    0  0.70547391755E+01 -0.18015562561E+02 -0.24777500673E+03  0.24853559409E+03  0.17770000000E+01 0. -1.
</event>
<event>
 6    1  0.1599106E-003  0.5086858E+03  0.7546771E-02  0.9380582E-01
        -11   -1    0    0    0    0  0.00000000000E+00  0.00000000000E+00  0.50000000000E+03  0.50000000000E+03  0.00000000000E+00 0. -1.
         11   -1    0    0    0    0 -0.00000000000E+00 -0.00000000000E+00 -0.50000000000E+03  0.50000000000E+03  0.00000000000E+00 0. -1.
        -11    1    1    2    0    0  0.55053107184E+01 -0.11815042583E+01  0.38257064773E+03  0.38261208149E+03  0.00000000000E+00 0. -1.
         11    1    1    2    0    0  0.44073819640E+01 -0.67270396563E+01 -0.49124842296E+03  0.49131424886E+03  0.00000000000E+00 0. -1.
        -15    1    1    2    0    0 -0.32990395030E+01  0.17793153660E+02  0.15239362906E+01  0.18247194021E+02  0.17770000000E+01 0. -1.
         15    1    1    2    0    0 -0.66136531793E+01 -0.98846097457E+01  0.10715383894E+03  0.10782647563E+03  0.17770000000E+01 0.  1.
</event>
<event>
 6    1  0.1599106E-003  0.5002574E+03  0.7546771E-02  0.9399234E-01
        -11   -1    0    0    0    0  0.00000000000E+00  0.00000000000E+00  0.50000000000E+03  0.50000000000E+03  0.00000000000E+00 0. -1.
         11   -1    0    0    0    0 -0.00000000000E+00 -0.00000000000E+00 -0.50000000000E+03  0.50000000000E+03  0.00000000000E+00 0. -1.
        -11    1    1    2    0    0  0.19592428473E+01 -0.20030548035E+01  0.12128774413E+03  0.12132010443E+03  0.00000000000E+00 0. -1.
         11    1    1    2    0    0 -0.65038425588E+01 -0.62169209485E+01 -0.49966159350E+03  0.49974259183E+03  0.00000000000E+00 0. -1.
        -15    1    1    2    0    0  0.11231354448E+02  0.38013213228E+01  0.18403817588E+03  0.18442830932E+03  0.17770000000E+01 0. -1.
         15    1    1    2    0    0 -0.66867547362E+01  0.44186544291E+01  0.19433567348E+03  0.19450899443E+03  0.17770000000E+01 0.  1.
</event>
<event>
 6    1  0.1599106E-003  0.5047381E+03  0.7546771E-02  0.9389270E-01
        -11   -1    0    0    0    0  0.00000000000E+00  0.00000000000E+00  0.50000000000E+03  0.50000000000E+03  0.00000000000E+00 0.  1.
         11   -1    0    0    0    0 -0.00000000000E+00 -0.00000000000E+00 -0.50000000000E+03  0.50000000000E+03  0.00000000000E+00 0.  1.
        -11    1    1    2    0    0  0.11663750945E+02  0.26674963235E+02  0.49440545763E+03  0.49526190372E+03  0.00000000000E+00 0.  1.
         11    1    1    2    0    0 -0.14205973841E+02 -0.15788988038E+02 -0.43150435511E+03  0.43202674722E+03  0.00000000000E+00 0.  1.
        -15    1    1    2    0    0 -0.93907300885E+00 -0.12794198603E+02 -0.66071582534E+02  0.67328932292E+02  0.17770000000E+01 0.  1.
         15    1    1    2    0    0  0.34812959048E+01  0.19082234055E+01  0.31704800139E+01  0.53824167676E+01  0.17770000000E+01 0. -1.
</event>
<event>
 6    1  0.1599106E-003  0.5001188E+03  0.7546771E-02  0.9399544E-01
        -11   -1    0    0    0    0  0.00000000000E+00  0.00000000000E+00  0.50000000000E+03  0.50000000000E+03  0.00000000000E+00 0. -1.
         11   -1    0    0    0    0 -0.00000000000E+00 -0.00000000000E+00 -0.50000000000E+03  0.50000000000E+03  0.00000000000E+00 0.  1.
        -11    1    1    2    0    0 -0.70872143726E+01  0.23569207080E+01  0.49982541939E+03  0.49988121945E+03  0.00000000000E+00 0. -1.
         11    1    1    2    0    0  0.46871742558E+01 -0.31423040402E+01 -0.20749486761E+03  0.20757158708E+03  0.00000000000E+00 0.  1.
        -15    1    1    2    0    0  0.14210490000E+01 -0.29975379960E+01 -0.39195720704E+02  0.39375968112E+02  0.17770000000E+01 0. -1.
         15    1    1    2    0    0  0.97899111675E+00  0.37829213283E+01 -0.25313483108E+03  0.25317122536E+03  0.17770000000E+01 0.  1.
</event>
<event>
 6    1  0.1599106E-003  0.5004777E+03  0.7546771E-02  0.9398741E-01
        -11   -1    0    0    0    0  0.00000000000E+00  0.00000000000E+00  0.50000000000E+03  0.50000000000E+03  0.00000000000E+00 0.  1.
         11   -1    0    0    0    0 -0.00000000000E+00 -0.00000000000E+00 -0.50000000000E+03  0.50000000000E+03  0.00000000000E+00 0. -1.
        -11    1    1    2    0    0 -0.65269721229E+01  0.85605520016E+01  0.49940628589E+03  0.49952229460E+03  0.00000000000E+00 0.  1.
         11    1    1    2    0    0  0.15697939480E+01  0.27622144133E+01 -0.20499672466E+03  0.20502134329E+03  0.00000000000E+00 0. -1.
        -15    1    1    2    0    0  0.10903929617E+02 -0.18492579810E+01 -0.20889053138E+03  0.20919064813E+03  0.17770000000E+01 0. -1.
         15    1    1    2    0    0 -0.59467514419E+01 -0.94735084339E+01 -0.85519029844E+02  0.86265713985E+02  0.17770000000E+01 0.  1.
</event>
<event>
 6    1  0.1599106E-003  0.5059297E+03  0.7546771E-02  0.9386638E-01
        -11   -1    0    0    0    0  0.00000000000E+00  0.00000000000E+00  0.50000000000E+03  0.50000000000E+03  0.00000000000E+00 0. -1.
         11   -1    0    0    0    0 -0.00000000000E+00 -0.00000000000E+00 -0.50000000000E+03  0.50000000000E+03  0.00000000000E+00 0.  1.
        -11    1    1    2    0    0 -0.94516540100E+01  0.20088553533E+01  0.43388901812E+03  0.43399660058E+03  0.00000000000E+00 0. -1.
         11    1    1    2    0    0  0.68965695648E+01  0.95089737953E+01 -0.49393064936E+03  0.49407030839E+03  0.00000000000E+00 0.  1.
        -15    1    1    2    0    0  0.14767240118E+02 -0.42466936522E+01  0.54370019623E+02  0.56527537984E+02  0.17770000000E+01 0.  1.
         15    1    1    2    0    0 -0.12212155673E+02 -0.72711354964E+01  0.56716116097E+01  0.15405553052E+02  0.17770000000E+01 0. -1.
</event>
<event>
 6    1  0.1599106E-003  0.5115472E+03  0.7546771E-02  0.9374336E-01
        -11   -1    0    0    0    0  0.00000000000E+00  0.00000000000E+00  0.50000000000E+03  0.50000000000E+03  0.00000000000E+00 0.  1.
         11   -1    0    0    0    0 -0.00000000000E+00 -0.00000000000E+00 -0.50000000000E+03  0.50000000000E+03  0.00000000000E+00 0.  1.
        -11    1    1    2    0    0 -0.18457453320E+02 -0.70902866711E+01  0.48805243014E+03  0.48845278616E+03  0.00000000000E+00 0.  1.
         11    1    1    2    0    0  0.11134249140E+02  0.10385541714E+02 -0.37791183211E+03  0.37821843402E+03  0.00000000000E+00 0.  1.
        -15    1    1    2    0    0  0.31080374994E+02 -0.23074710441E+02 -0.85097211508E+02  0.93504679601E+02  0.17770000000E+01 0.  1.
         15    1    1    2    0    0 -0.23757170814E+02  0.19779455398E+02 -0.25043386520E+02  0.39824100220E+02  0.17770000000E+01 0. -1.
</event>
<event>
 6    1  0.1599106E-003  0.5055188E+03  0.7546771E-02  0.9387545E-01
        -11   -1    0    0    0    0  0.00000000000E+00  0.00000000000E+00  0.50000000000E+03  0.50000000000E+03  0.00000000000E+00 0.  1.
         11   -1    0    0    0    0 -0.00000000000E+00 -0.00000000000E+00 -0.50000000000E+03  0.50000000000E+03  0.00000000000E+00 0.  1.
        -11    1    1    2    0    0  0.58771195493E+01  0.66833150255E+01  0.22642827470E+03  0.22660311299E+03  0.00000000000E+00 0.  1.
         11    1    1    2    0    0  0.24577570049E+01 -0.16323038631E+02 -0.49420555200E+03  0.49448115210E+03  0.00000000000E+00 0.  1.
        -15    1    1    2    0    0 -0.69243867604E+01  0.20724058889E+01  0.27046769176E+03  0.27057008706E+03  0.17770000000E+01 0.  1.
         15    1    1    2    0    0 -0.14104897938E+01  0.75673177163E+01 -0.26904144631E+01  0.83456478395E+01  0.17770000000E+01 0. -1.
</event>
<event>
 6    1  0.1599106E-003  0.5125863E+03  0.7546771E-02  0.9372079E-01
        -11   -1    0    0    0    0  0.00000000000E+00  0.00000000000E+00  0.50000000000E+03  0.50000000000E+03  0.00000000000E+00 0. -1.
         11   -1    0    0    0    0 -0.00000000000E+00 -0.00000000000E+00 -0.50000000000E+03  0.50000000000E+03  0.00000000000E+00 0. -1.
        -11    1    1    2    0    0 -0.22479019853E+02 -0.11008631614E+02  0.48677059875E+03  0.48741369709E+03  0.00000000000E+00 0. -1.
         11    1    1    2    0    0  0.86336535827E+00 -0.23332875170E+01 -0.13342992953E+03  0.13345312182E+03  0.00000000000E+00 0. -1.
        -15    1    1    2    0    0  0.40101389747E+02 -0.10454387547E+02 -0.23026213342E+02  0.47442385148E+02  0.17770000000E+01 0.  1.
         15    1    1    2    0    0 -0.18485735252E+02  0.23796306678E+02 -0.33031445588E+03  0.33169079594E+03  0.17770000000E+01 0. -1.
</event>
<event>
 6    1  0.1599106E-003  0.5019447E+03  0.7546771E-02  0.9395469E-01
        -11   -1    0    0    0    0  0.00000000000E+00  0.00000000000E+00  0.50000000000E+03  0.50000000000E+03  0.00000000000E+00 0. -1.
         11   -1    0    0    0    0 -0.00000000000E+00 -0.00000000000E+00 -0.50000000000E+03  0.50000000000E+03  0.00000000000E+00 0.  1.
        -11    1    1    2    0    0 -0.27482434604E+01 -0.67302834238E+01  0.49800228582E+03  0.49805534456E+03  0.00000000000E+00 0. -1.
         11    1    1    2    0    0  0.15933540570E+02  0.46534754459E+01 -0.18153903443E+03  0.18229633449E+03  0.00000000000E+00 0.  1.
        -15    1    1    2    0    0 -0.60056616699E+01 -0.21491098865E+01 -0.56103717255E+01  0.86787467583E+01  0.17770000000E+01 0. -1.
         15    1    1    2    0    0 -0.71796354397E+01  0.42259178645E+01 -0.31085287967E+03  0.31096957419E+03  0.17770000000E+01 0.  1.
</event>
<event>
 6    1  0.1599106E-003  0.4995804E+03  0.7546771E-02  0.9400749E-01
        -11   -1    0    0    0    0  0.00000000000E+00  0.00000000000E+00  0.50000000000E+03  0.50000000000E+03  0.00000000000E+00 0. -1.
         11   -1    0    0    0    0 -0.00000000000E+00 -0.00000000000E+00 -0.50000000000E+03  0.50000000000E+03  0.00000000000E+00 0.  1.
        -11    1    1    2    0    0 -0.18132664856E+01 -0.11026771135E+01  0.19129124111E+01  0.28571079883E+01  0.00000000000E+00 0. -1.
         11    1    1    2    0    0  0.84678167749E+01 -0.24113574599E+01 -0.49844751858E+03  0.49852527252E+03  0.00000000000E+00 0.  1.
        -15    1    1    2    0    0 -0.10154351905E+02  0.18097222063E+02  0.42481326835E+03  0.42532351334E+03  0.17770000000E+01 0. -1.
         15    1    1    2    0    0  0.34998016156E+01 -0.14583187490E+02  0.71721337819E+02  0.73294106149E+02  0.17770000000E+01 0.  1.
</event>
<event>
 6    1  0.1599106E-003  0.5034150E+03  0.7546771E-02  0.9392201E-01
        -11   -1    0    0    0    0  0.00000000000E+00  0.00000000000E+00  0.50000000000E+03  0.50000000000E+03  0.00000000000E+00 0. -1.
         11   -1    0    0    0    0 -0.00000000000E+00 -0.00000000000E+00 -0.50000000000E+03  0.50000000000E+03  0.00000000000E+00 0.  1.
        -11    1    1    2    0    0  0.13194633694E+02  0.16515479578E+01  0.37113952271E+03  0.37137766665E+03  0.00000000000E+00 0. -1.
         11    1    1    2    0    0  0.67940026725E+01 -0.80722116451E+01 -0.49647287738E+03  0.49658497464E+03  0.00000000000E+00 0.  1.
        -15    1    1    2    0    0 -0.25961640349E+02 -0.38848476961E+01  0.58734308818E+02  0.64358181862E+02  0.17770000000E+01 0.  1.
         15    1    1    2    0    0  0.59730039818E+01  0.10305511383E+02  0.66599045848E+02  0.67679176844E+02  0.17770000000E+01 0. -1.
</event>
<event>
 6    1  0.1599106E-003  0.5024579E+03  0.7546771E-02  0.9394327E-01
        -11   -1    0    0    0    0  0.00000000000E+00  0.00000000000E+00  0.50000000000E+03  0.50000000000E+03  0.00000000000E+00 0.  1.
         11   -1    0    0    0    0 -0.00000000000E+00 -0.00000000000E+00 -0.50000000000E+03  0.50000000000E+03  0.00000000000E+00 0.  1.
        -11    1    1    2    0    0 -0.40777056720E+01 -0.13592508591E+01  0.24066088107E+03  0.24069926241E+03  0.00000000000E+00 0.  1.
         11    1    1    2    0    0  0.56664486226E+01 -0.10616412882E+02 -0.49739656547E+03  0.49754211902E+03  0.00000000000E+00 0.  1.
        -15    1    1    2    0    0  0.20854709596E+02 -0.55656785308E+01  0.87978188109E+02  0.90604718430E+02  0.17770000000E+01 0. -1.
         15    1    1    2    0    0 -0.22443452546E+02  0.17541342272E+02  0.16875749629E+03  0.17115390014E+03  0.17770000000E+01 0.  1.
</event>
<event>
 6    1  0.1599106E-003  0.4898015E+03  0.7546771E-02  0.9422923E-01
        -11   -1    0    0    0    0  0.00000000000E+00  0.00000000000E+00  0.50000000000E+03  0.50000000000E+03  0.00000000000E+00 0. -1.
         11   -1    0    0    0    0 -0.00000000000E+00 -0.00000000000E+00 -0.50000000000E+03  0.50000000000E+03  0.00000000000E+00 0. -1.
        -11    1    1    2    0    0 -0.73912899210E+00  0.91150092269E+01  0.48781467127E+03  0.48790038246E+03  0.00000000000E+00 0. -1.
         11    1    1    2    0    0 -0.64930219151E+01 -0.17435267926E+01 -0.49171894084E+03  0.49176489911E+03  0.00000000000E+00 0. -1.
        -15    1    1    2    0    0 -0.51371585362E+01 -0.46535678438E+01  0.17431607921E+01  0.73649460317E+01  0.17770000000E+01 0. -1.
         15    1    1    2    0    0  0.12369309443E+02 -0.27179145904E+01  0.21611087754E+01  0.12969772395E+02  0.17770000000E+01 0.  1.
</event>
<event>
 6    1  0.1599106E-003  0.5004285E+03  0.7546771E-02  0.9398851E-01
        -11   -1    0    0    0    0  0.00000000000E+00  0.00000000000E+00  0.50000000000E+03  0.50000000000E+03  0.00000000000E+00 0.  1.
         11   -1    0    0    0    0 -0.00000000000E+00 -0.00000000000E+00 -0.50000000000E+03  0.50000000000E+03  0.00000000000E+00 0.  1.
        -11    1    1    2    0    0  0.81785876931E+01  0.52189642199E+00  0.49950430907E+03  0.49957153287E+03  0.00000000000E+00 0.  1.
         11    1    1    2    0    0  0.22004702027E+00  0.68879666717E+01 -0.37455899219E+03  0.37462238472E+03  0.00000000000E+00 0.  1.
        -15    1    1    2    0    0 -0.57946605685E+01 -0.24696764057E+01 -0.31267462329E+02  0.31945098562E+02  0.17770000000E+01 0. -1.
         15    1    1    2    0    0 -0.26039741448E+01 -0.49401866880E+01 -0.93677854557E+02  0.93860983850E+02  0.17770000000E+01 0.  1.
</event>
<event>
 6    1  0.1599106E-003  0.5104934E+03  0.7546771E-02  0.9376631E-01
        -11   -1    0    0    0    0  0.00000000000E+00  0.00000000000E+00  0.50000000000E+03  0.50000000000E+03  0.00000000000E+00 0. -1.
         11   -1    0    0    0    0 -0.00000000000E+00 -0.00000000000E+00 -0.50000000000E+03  0.50000000000E+03  0.00000000000E+00 0. -1.
        -11    1    1    2    0    0  0.77584932639E+01  0.57921562068E+01  0.46759710127E+03  0.46769732991E+03  0.00000000000E+00 0. -1.
         11    1    1    2    0    0 -0.58341764655E+01  0.11878382814E+02 -0.48932772159E+03  0.48950664215E+03  0.00000000000E+00 0. -1.
        -15    1    1    2    0    0 -0.39876263860E+00 -0.10579979140E+02  0.29875676860E+02  0.31746003954E+02  0.17770000000E+01 0. -1.
         15    1    1    2    0    0 -0.15255541599E+01 -0.70905598814E+01 -0.81450565388E+01  0.11050023979E+02  0.17770000000E+01 0.  1.
</event>
<event>
 6    1  0.1599106E-003  0.5138224E+03  0.7546771E-02  0.9369401E-01
        -11   -1    0    0    0    0  0.00000000000E+00  0.00000000000E+00  0.50000000000E+03  0.50000000000E+03  0.00000000000E+00 0.  1.
         11   -1    0    0    0    0 -0.00000000000E+00 -0.00000000000E+00 -0.50000000000E+03  0.50000000000E+03  0.00000000000E+00 0.  1.
        -11    1    1    2    0    0 -0.72651153936E+01 -0.11234742108E+02  0.47394142623E+03  0.47413023193E+03  0.00000000000E+00 0.  1.
         11    1    1    2    0    0 -0.32068623585E+01  0.77030392907E+01 -0.48610602767E+03  0.48617763309E+03  0.00000000000E+00 0.  1.
        -15    1    1    2    0    0  0.15345178726E+01 -0.43638320849E+01 -0.11836938219E+02  0.12832326795E+02  0.17770000000E+01 0. -1.
         15    1    1    2    0    0  0.89374598795E+01  0.78955349024E+01  0.24001539657E+02  0.26859808179E+02  0.17770000000E+01 0. -1.
</event>
<event>
 6    1  0.1599106E-003  0.5038509E+03  0.7546771E-02  0.9391234E-01
        -11   -1    0    0    0    0  0.00000000000E+00  0.00000000000E+00  0.50000000000E+03  0.50000000000E+03  0.00000000000E+00 0. -1.
         11   -1    0    0    0    0 -0.00000000000E+00 -0.00000000000E+00 -0.50000000000E+03  0.50000000000E+03  0.00000000000E+00 0. -1.
        -11    1    1    2    0    0  0.11079536714E+02  0.21309268842E+02  0.49556744191E+03  0.49614910113E+03  0.00000000000E+00 0. -1.
         11    1    1    2    0    0 -0.73324829048E+01 -0.14624190735E+00 -0.42343543045E+03  0.42349893796E+03  0.00000000000E+00 0. -1.
        -15    1    1    2    0    0  0.58831917533E+01 -0.32844203625E+01 -0.49110597060E+02  0.49602498273E+02  0.17770000000E+01 0.  1.
         15    1    1    2    0    0 -0.96302455629E+01 -0.17878606572E+02 -0.23021414393E+02  0.30749462633E+02  0.17770000000E+01 0. -1.
</event>
<event>
 6    1  0.1599106E-003  0.5199844E+03  0.7546771E-02  0.9356171E-01
        -11   -1    0    0    0    0  0.00000000000E+00  0.00000000000E+00  0.50000000000E+03  0.50000000000E+03  0.00000000000E+00 0. -1.
         11   -1    0    0    0    0 -0.00000000000E+00 -0.00000000000E+00 -0.50000000000E+03  0.50000000000E+03  0.00000000000E+00 0.  1.
        -11    1    1    2    0    0 -0.53026076692E+01  0.84087158766E+01  0.47991264154E+03  0.48001559106E+03  0.00000000000E+00 0. -1.
         11    1    1    2    0    0  0.78152450139E+01  0.37858510098E+00 -0.27124409233E+03  0.27135692179E+03  0.00000000000E+00 0.  1.
        -15    1    1    2    0    0  0.20770430769E+01 -0.16374465947E+02  0.16424446469E+02  0.23352888768E+02  0.17770000000E+01 0. -1.
         15    1    1    2    0    0 -0.45896804216E+01  0.75871649690E+01 -0.22509299568E+03  0.22527459837E+03  0.17770000000E+01 0.  1.
</event>
<event>
 6    1  0.1599106E-003  0.5023710E+03  0.7546771E-02  0.9394520E-01
        -11   -1    0    0    0    0  0.00000000000E+00  0.00000000000E+00  0.50000000000E+03  0.50000000000E+03  0.00000000000E+00 0.  1.
         11   -1    0    0    0    0 -0.00000000000E+00 -0.00000000000E+00 -0.50000000000E+03  0.50000000000E+03  0.00000000000E+00 0. -1.
        -11    1    1    2    0    0 -0.45194958445E+01  0.24630566375E+01  0.11984712906E+03  0.11995760432E+03  0.00000000000E+00 0.  1.
         11    1    1    2    0    0  0.31847166169E+01 -0.19027885795E+02 -0.49725483446E+03  0.49762895138E+03  0.00000000000E+00 0. -1.
        -15    1    1    2    0    0  0.84340351451E+01  0.32558953919E+01  0.35624724584E+03  0.35636637285E+03  0.17770000000E+01 0.  1.
         15    1    1    2    0    0 -0.70992559174E+01  0.13308933766E+02  0.21160459564E+02  0.26047071439E+02  0.17770000000E+01 0. -1.
</event>
<event>
 6    1  0.1599106E-003  0.5079270E+03  0.7546771E-02  0.9382245E-01
        -11   -1    0    0    0    0  0.00000000000E+00  0.00000000000E+00  0.50000000000E+03  0.50000000000E+03  0.00000000000E+00 0. -1.
         11   -1    0    0    0    0 -0.00000000000E+00 -0.00000000000E+00 -0.50000000000E+03  0.50000000000E+03  0.00000000000E+00 0. -1.
        -11    1    1    2    0    0 -0.20650618967E+01  0.17806686105E+02  0.45011430396E+03  0.45047111914E+03  0.00000000000E+00 0. -1.
         11    1    1    2    0    0 -0.14078719136E+02  0.11013572559E+01 -0.49187028307E+03  0.49207296073E+03  0.00000000000E+00 0. -1.
        -15    1    1    2    0    0  0.28659360031E+01 -0.18696690842E+02  0.39551642476E+02  0.43877898641E+02  0.17770000000E+01 0.  1.
         15    1    1    2    0    0  0.13277845030E+02 -0.21135251914E+00  0.22043366338E+01  0.13578021487E+02  0.17770000000E+01 0. -1.
</event>
<event>
 6    1  0.1599106E-003  0.5046188E+03  0.7546771E-02  0.9389534E-01
        -11   -1    0    0    0    0  0.00000000000E+00  0.00000000000E+00  0.50000000000E+03  0.50000000000E+03  0.00000000000E+00 0.  1.
         11   -1    0    0    0    0 -0.00000000000E+00 -0.00000000000E+00 -0.50000000000E+03  0.50000000000E+03  0.00000000000E+00 0. -1.
        -11    1    1    2    0    0  0.10875587852E+02 -0.72083991463E+01  0.49520936333E+03  0.49538121983E+03  0.00000000000E+00 0.  1.
         11    1    1    2    0    0 -0.69727808378E+01  0.22645155012E+01 -0.35008328813E+03  0.35016004388E+03  0.00000000000E+00 0. -1.
        -15    1    1    2    0    0  0.63302738402E+01 -0.39836660959E+01 -0.13940374970E+03  0.13961556189E+03  0.17770000000E+01 0. -1.
         15    1    1    2    0    0 -0.10233080855E+02  0.89275497409E+01 -0.57223255051E+01  0.14843174402E+02  0.17770000000E+01 0.  1.
</event>
<event>
 6    1  0.1599106E-003  0.3587761E+03  0.7546771E-02  0.9786716E-01
        -11   -1    0    0    0    0  0.00000000000E+00  0.00000000000E+00  0.50000000000E+03  0.50000000000E+03  0.00000000000E+00 0.  1.
         11   -1    0    0    0    0 -0.00000000000E+00 -0.00000000000E+00 -0.50000000000E+03  0.50000000000E+03  0.00000000000E+00 0. -1.
        -11    1    1    2    0    0  0.10405450522E+03 -0.20055890267E+02  0.31696584450E+03  0.33421089953E+03  0.00000000000E+00 0.  1.
         11    1    1    2    0    0 -0.34457978154E+01  0.56299143651E+01 -0.39459443560E+03  0.39464963963E+03  0.00000000000E+00 0. -1.
        -15    1    1    2    0    0  0.25279504785E+01 -0.98536251582E+01 -0.80294900919E+02  0.80956243150E+02  0.17770000000E+01 0. -1.
         15    1    1    2    0    0 -0.10313665788E+03  0.24279601060E+02  0.15792349202E+03  0.19018321768E+03  0.17770000000E+01 0.  1.
</event>
<event>
 6    1  0.1599106E-003  0.5225904E+03  0.7546771E-02  0.9350634E-01
        -11   -1    0    0    0    0  0.00000000000E+00  0.00000000000E+00  0.50000000000E+03  0.50000000000E+03  0.00000000000E+00 0. -1.
         11   -1    0    0    0    0 -0.00000000000E+00 -0.00000000000E+00 -0.50000000000E+03  0.50000000000E+03  0.00000000000E+00 0. -1.
        -11    1    1    2    0    0 -0.55879341433E+01  0.54183017794E+01  0.47734611568E+03  0.47740956962E+03  0.00000000000E+00 0. -1.
         11    1    1    2    0    0  0.95265359303E+01 -0.12507568111E+02 -0.44862057769E+03  0.44889599784E+03  0.00000000000E+00 0. -1.
        -15    1    1    2    0    0  0.22878742395E+01  0.12428733042E+02 -0.49589722533E+02  0.51205527860E+02  0.17770000000E+01 0. -1.
         15    1    1    2    0    0 -0.62264760264E+01 -0.53394667108E+01  0.20864184540E+02  0.22488904686E+02  0.17770000000E+01 0.  1.
</event>
<event>
 6    1  0.1599106E-003  0.5056964E+03  0.7546771E-02  0.9387153E-01
        -11   -1    0    0    0    0  0.00000000000E+00  0.00000000000E+00  0.50000000000E+03  0.50000000000E+03  0.00000000000E+00 0. -1.
         11   -1    0    0    0    0 -0.00000000000E+00 -0.00000000000E+00 -0.50000000000E+03  0.50000000000E+03  0.00000000000E+00 0. -1.
        -11    1    1    2    0    0 -0.13399506941E+02  0.54471110681E+01  0.49409189809E+03  0.49430357228E+03  0.00000000000E+00 0. -1.
         11    1    1    2    0    0 -0.34978780489E+01  0.15355376270E+02 -0.44520501486E+03  0.44548347667E+03  0.00000000000E+00 0. -1.
        -15    1    1    2    0    0 -0.22982766302E+01 -0.86472800506E+01 -0.27446879662E+02  0.28923112902E+02  0.17770000000E+01 0. -1.
         15    1    1    2    0    0  0.19195661620E+02 -0.12155207288E+02 -0.21440003574E+02  0.31289838151E+02  0.17770000000E+01 0.  1.
</event>
<event>
 6    1  0.1599106E-003  0.4811516E+03  0.7546771E-02  0.9443001E-01
        -11   -1    0    0    0    0  0.00000000000E+00  0.00000000000E+00  0.50000000000E+03  0.50000000000E+03  0.00000000000E+00 0. -1.
         11   -1    0    0    0    0 -0.00000000000E+00 -0.00000000000E+00 -0.50000000000E+03  0.50000000000E+03  0.00000000000E+00 0.  1.
        -11    1    1    2    0    0 -0.68037516490E+01  0.36841370313E+01  0.48485053301E+03  0.48491226347E+03  0.00000000000E+00 0. -1.
         11    1    1    2    0    0 -0.11864414897E+02  0.44986013039E+01 -0.47746647116E+03  0.47763504147E+03  0.00000000000E+00 0.  1.
        -15    1    1    2    0    0  0.76182200523E+01  0.52034315639E+01 -0.15565633107E+02  0.18181299179E+02  0.17770000000E+01 0. -1.
         15    1    1    2    0    0  0.11049946494E+02 -0.13386169899E+02  0.81815712529E+01  0.19271395882E+02  0.17770000000E+01 0.  1.
</event>
<event>
 6    1  0.1599106E-003  0.5506478E+03  0.7546771E-02  0.9293108E-01
        -11   -1    0    0    0    0  0.00000000000E+00  0.00000000000E+00  0.50000000000E+03  0.50000000000E+03  0.00000000000E+00 0.  1.
         11   -1    0    0    0    0 -0.00000000000E+00 -0.00000000000E+00 -0.50000000000E+03  0.50000000000E+03  0.00000000000E+00 0.  1.
        -11    1    1    2    0    0 -0.10873068879E+02  0.13186415409E+02  0.37406105307E+03  0.37445130071E+03  0.00000000000E+00 0.  1.
         11    1    1    2    0    0 -0.25288710453E+02 -0.20354746623E+02 -0.44817801016E+03  0.44935215965E+03  0.00000000000E+00 0.  1.
        -15    1    1    2    0    0  0.43872746524E+02 -0.42109729619E+02  0.10219376788E+03  0.11893179196E+03  0.17770000000E+01 0.  1.
         15    1    1    2    0    0 -0.77109671910E+01  0.49278060834E+02 -0.28076810784E+02  0.57264747685E+02  0.17770000000E+01 0. -1.
</event>
<event>
 6    1  0.1599106E-003  0.5120418E+03  0.7546771E-02  0.9373261E-01
        -11   -1    0    0    0    0  0.00000000000E+00  0.00000000000E+00  0.50000000000E+03  0.50000000000E+03  0.00000000000E+00 0.  1.
         11   -1    0    0    0    0 -0.00000000000E+00 -0.00000000000E+00 -0.50000000000E+03  0.50000000000E+03  0.00000000000E+00 0. -1.
        -11    1    1    2    0    0  0.13740391349E+02 -0.76758575173E+00  0.48776406315E+03  0.48795816301E+03  0.00000000000E+00 0.  1.
         11    1    1    2    0    0 -0.15373982475E+01 -0.14372755468E+02 -0.36911564131E+03  0.36939856030E+03  0.00000000000E+00 0. -1.
        -15    1    1    2    0    0 -0.76648756382E+01 -0.24194394850E+00  0.10146201015E+02  0.12841805927E+02  0.17770000000E+01 0. -1.
         15    1    1    2    0    0 -0.45381174631E+01  0.15382285168E+02 -0.12879462286E+03  0.12980147077E+03  0.17770000000E+01 0.  1.
</event>
<event>
 6    1  0.1599106E-003  0.5222029E+03  0.7546771E-02  0.9351455E-01
        -11   -1    0    0    0    0  0.00000000000E+00  0.00000000000E+00  0.50000000000E+03  0.50000000000E+03  0.00000000000E+00 0. -1.
         11   -1    0    0    0    0 -0.00000000000E+00 -0.00000000000E+00 -0.50000000000E+03  0.50000000000E+03  0.00000000000E+00 0. -1.
        -11    1    1    2    0    0  0.10366392053E+02  0.21642728246E+02  0.47719404943E+03  0.47779706004E+03  0.00000000000E+00 0. -1.
         11    1    1    2    0    0 -0.56651654657E+01 -0.28176541784E+01 -0.44663422702E+03  0.44667904140E+03  0.00000000000E+00 0. -1.
        -15    1    1    2    0    0  0.33387715275E+01  0.68961848178E+01 -0.44459487192E+02  0.45149844858E+02  0.17770000000E+01 0. -1.
         15    1    1    2    0    0 -0.80399981146E+01 -0.25721258886E+02  0.13899664787E+02  0.30374053706E+02  0.17770000000E+01 0.  1.
</event>
<event>
 6    1  0.1599106E-003  0.5023046E+03  0.7546771E-02  0.9394668E-01
        -11   -1    0    0    0    0  0.00000000000E+00  0.00000000000E+00  0.50000000000E+03  0.50000000000E+03  0.00000000000E+00 0. -1.
         11   -1    0    0    0    0 -0.00000000000E+00 -0.00000000000E+00 -0.50000000000E+03  0.50000000000E+03  0.00000000000E+00 0. -1.
        -11    1    1    2    0    0  0.68513961370E+01 -0.79155718409E+01  0.49758525759E+03  0.49769537519E+03  0.00000000000E+00 0. -1.
         11    1    1    2    0    0 -0.59075562057E+01  0.73969755115E+01 -0.43914477721E+03  0.43924679830E+03  0.00000000000E+00 0. -1.
        -15    1    1    2    0    0  0.75986391568E+01 -0.18970961960E+01 -0.50127215295E+02  0.50766462682E+02  0.17770000000E+01 0.  1.
         15    1    1    2    0    0 -0.85424790882E+01  0.24156925253E+01 -0.83132650899E+01  0.12291363830E+02  0.17770000000E+01 0. -1.
</event>
<event>
 6    1  0.1599106E-003  0.5087723E+03  0.7546771E-02  0.9380392E-01
        -11   -1    0    0    0    0  0.00000000000E+00  0.00000000000E+00  0.50000000000E+03  0.50000000000E+03  0.00000000000E+00 0. -1.
         11   -1    0    0    0    0 -0.00000000000E+00 -0.00000000000E+00 -0.50000000000E+03  0.50000000000E+03  0.00000000000E+00 0.  1.
        -11    1    1    2    0    0  0.21309840760E+02  0.93667251667E+01  0.33121005705E+03  0.33202702713E+03  0.00000000000E+00 0. -1.
         11    1    1    2    0    0  0.43859482325E+01 -0.72861888174E+01 -0.49115408136E+03  0.49122770354E+03  0.00000000000E+00 0.  1.
        -15    1    1    2    0    0  0.22395466553E+01  0.31376392911E+02  0.63006891177E+02  0.70445153602E+02  0.17770000000E+01 0. -1.
         15    1    1    2    0    0 -0.27935335648E+02 -0.33456929260E+02  0.96937133134E+02  0.10630011572E+03  0.17770000000E+01 0.  1.
</event>
<event>
 6    1  0.1599106E-003  0.5013958E+03  0.7546771E-02  0.9396692E-01
        -11   -1    0    0    0    0  0.00000000000E+00  0.00000000000E+00  0.50000000000E+03  0.50000000000E+03  0.00000000000E+00 0. -1.
         11   -1    0    0    0    0 -0.00000000000E+00 -0.00000000000E+00 -0.50000000000E+03  0.50000000000E+03  0.00000000000E+00 0.  1.
        -11    1    1    2    0    0 -0.81828462214E+01  0.13857839446E+01  0.49853509872E+03  0.49860417570E+03  0.00000000000E+00 0. -1.
         11    1    1    2    0    0  0.79352815144E+01 -0.11251506056E+02 -0.20606424524E+03  0.20652369900E+03  0.00000000000E+00 0.  1.
        -15    1    1    2    0    0 -0.53143362756E+00 -0.36193833213E+01 -0.29337750518E+01  0.50146906566E+01  0.17770000000E+01 0. -1.
         15    1    1    2    0    0  0.77899833458E+00  0.13485105433E+02 -0.28953707843E+03  0.28985743465E+03  0.17770000000E+01 0.  1.
</event>
<event>
 6    1  0.1599106E-003  0.5017481E+03  0.7546771E-02  0.9395907E-01
        -11   -1    0    0    0    0  0.00000000000E+00  0.00000000000E+00  0.50000000000E+03  0.50000000000E+03  0.00000000000E+00 0. -1.
         11   -1    0    0    0    0 -0.00000000000E+00 -0.00000000000E+00 -0.50000000000E+03  0.50000000000E+03  0.00000000000E+00 0.  1.
        -11    1    1    2    0    0 -0.23244270359E+01  0.11105474142E+02  0.49812266320E+03  0.49825186614E+03  0.00000000000E+00 0. -1.
         11    1    1    2    0    0 -0.25193936820E+01 -0.12067953527E+02 -0.35764287526E+03  0.35785529068E+03  0.00000000000E+00 0.  1.
        -15    1    1    2    0    0 -0.45922986213E+01 -0.13162847485E+02 -0.60824968542E+02  0.62427432173E+02  0.17770000000E+01 0. -1.
         15    1    1    2    0    0  0.94361193392E+01  0.14125326870E+02 -0.79654819403E+02  0.81465411007E+02  0.17770000000E+01 0.  1.
</event>
<event>
 6    1  0.1599106E-003  0.5033449E+03  0.7546771E-02  0.9392356E-01
        -11   -1    0    0    0    0  0.00000000000E+00  0.00000000000E+00  0.50000000000E+03  0.50000000000E+03  0.00000000000E+00 0. -1.
         11   -1    0    0    0    0 -0.00000000000E+00 -0.00000000000E+00 -0.50000000000E+03  0.50000000000E+03  0.00000000000E+00 0.  1.
        -11    1    1    2    0    0  0.28309188361E+01  0.16127649027E+02  0.49638511233E+03  0.49665510660E+03  0.00000000000E+00 0. -1.
         11    1    1    2    0    0  0.53891492134E+01 -0.13875892299E+01 -0.29319649307E+03  0.29324929988E+03  0.00000000000E+00 0.  1.
        -15    1    1    2    0    0 -0.76284467537E+01 -0.49936751905E+01 -0.19917266609E+03  0.19938916379E+03  0.17770000000E+01 0.  1.
         15    1    1    2    0    0 -0.59162129579E+00 -0.97463846065E+01 -0.40159531721E+01  0.10706429729E+02  0.17770000000E+01 0. -1.
</event>
<event>
 6    1  0.1599106E-003  0.5047315E+03  0.7546771E-02  0.9389285E-01
        -11   -1    0    0    0    0  0.00000000000E+00  0.00000000000E+00  0.50000000000E+03  0.50000000000E+03  0.00000000000E+00 0.  1.
         11   -1    0    0    0    0 -0.00000000000E+00 -0.00000000000E+00 -0.50000000000E+03  0.50000000000E+03  0.00000000000E+00 0.  1.
        -11    1    1    2    0    0  0.15579250505E+01  0.92871700909E+01  0.49517900875E+03  0.49526854268E+03  0.00000000000E+00 0.  1.
         11    1    1    2    0    0  0.28970731947E+01  0.12499117503E+01 -0.18815584621E+03  0.18818229932E+03  0.00000000000E+00 0.  1.
        -15    1    1    2    0    0  0.14370681632E+01  0.35427967031E+01 -0.29933926583E+03  0.29936895358E+03  0.17770000000E+01 0.  1.
         15    1    1    2    0    0 -0.58920664085E+01 -0.14079878544E+02 -0.76838967073E+01  0.17180204422E+02  0.17770000000E+01 0. -1.
</event>
<event>
 6    1  0.1599106E-003  0.5012398E+03  0.7546771E-02  0.9397040E-01
        -11   -1    0    0    0    0  0.00000000000E+00  0.00000000000E+00  0.50000000000E+03  0.50000000000E+03  0.00000000000E+00 0.  1.
         11   -1    0    0    0    0 -0.00000000000E+00 -0.00000000000E+00 -0.50000000000E+03  0.50000000000E+03  0.00000000000E+00 0.  1.
        -11    1    1    2    0    0  0.77249532788E+01  0.78895793463E+00  0.49869979082E+03  0.49876024172E+03  0.00000000000E+00 0.  1.
         11    1    1    2    0    0  0.62296101488E+01 -0.54710801268E+01 -0.37158851590E+03  0.37168100020E+03  0.00000000000E+00 0.  1.
        -15    1    1    2    0    0 -0.36851119955E+01  0.21961172207E+01 -0.44533039302E+01  0.64337101397E+01  0.17770000000E+01 0. -1.
         15    1    1    2    0    0 -0.10269451432E+02  0.24860049714E+01 -0.12265797099E+03  0.12312504794E+03  0.17770000000E+01 0.  1.
</event>
<event>
 6    1  0.1599106E-003  0.5006789E+03  0.7546771E-02  0.9398292E-01
        -11   -1    0    0    0    0  0.00000000000E+00  0.00000000000E+00  0.50000000000E+03  0.50000000000E+03  0.00000000000E+00 0.  1.
         11   -1    0    0    0    0 -0.00000000000E+00 -0.00000000000E+00 -0.50000000000E+03  0.50000000000E+03  0.00000000000E+00 0.  1.
        -11    1    1    2    0    0  0.62948974704E+01 -0.26541454961E+01  0.45754574496E+03  0.45759674273E+03  0.00000000000E+00 0.  1.
         11    1    1    2    0    0 -0.91126254220E+01 -0.25302881522E+01 -0.49923155327E+03  0.49932112521E+03  0.00000000000E+00 0.  1.
        -15    1    1    2    0    0 -0.41055645339E+00  0.48236053678E+01  0.10721473373E+02  0.11897203269E+02  0.17770000000E+01 0. -1.
         15    1    1    2    0    0  0.32282844050E+01  0.36082828051E+00  0.30964334932E+02  0.31184928797E+02  0.17770000000E+01 0.  1.
</event>
<event>
 6    1  0.1599106E-003  0.5076834E+03  0.7546771E-02  0.9382780E-01
        -11   -1    0    0    0    0  0.00000000000E+00  0.00000000000E+00  0.50000000000E+03  0.50000000000E+03  0.00000000000E+00 0.  1.
         11   -1    0    0    0    0 -0.00000000000E+00 -0.00000000000E+00 -0.50000000000E+03  0.50000000000E+03  0.00000000000E+00 0.  1.
        -11    1    1    2    0    0 -0.41312537821E+01  0.17107691667E+02  0.49200194981E+03  0.49231662474E+03  0.00000000000E+00 0.  1.
         11    1    1    2    0    0  0.63490326241E+01  0.37596296922E+01 -0.43127219221E+03  0.43133530902E+03  0.00000000000E+00 0.  1.
        -15    1    1    2    0    0  0.16525516048E+02 -0.13560000340E+02 -0.14477756898E+02  0.25879131818E+02  0.17770000000E+01 0.  1.
         15    1    1    2    0    0 -0.18743294891E+02 -0.73073210190E+01 -0.46252000707E+02  0.50468934427E+02  0.17770000000E+01 0. -1.
</event>
<event>
 6    1  0.1599106E-003  0.5057475E+03  0.7546771E-02  0.9387040E-01
        -11   -1    0    0    0    0  0.00000000000E+00  0.00000000000E+00  0.50000000000E+03  0.50000000000E+03  0.00000000000E+00 0. -1.
         11   -1    0    0    0    0 -0.00000000000E+00 -0.00000000000E+00 -0.50000000000E+03  0.50000000000E+03  0.00000000000E+00 0.  1.
        -11    1    1    2    0    0  0.24273259205E+02 -0.14170315310E+01  0.49365409273E+03  0.49425252893E+03  0.00000000000E+00 0. -1.
         11    1    1    2    0    0 -0.10001708968E+02  0.34341648360E+01 -0.32721862046E+03  0.32738945194E+03  0.00000000000E+00 0.  1.
        -15    1    1    2    0    0 -0.47669559466E+00  0.39189105320E+01 -0.16273066340E+03  0.16278824171E+03  0.17770000000E+01 0.  1.
         15    1    1    2    0    0 -0.13794854642E+02 -0.59360438370E+01 -0.37048088716E+01  0.15569777417E+02  0.17770000000E+01 0. -1.
</event>
<event>
 6    1  0.1599106E-003  0.5088173E+03  0.7546771E-02  0.9380294E-01
        -11   -1    0    0    0    0  0.00000000000E+00  0.00000000000E+00  0.50000000000E+03  0.50000000000E+03  0.00000000000E+00 0. -1.
         11   -1    0    0    0    0 -0.00000000000E+00 -0.00000000000E+00 -0.50000000000E+03  0.50000000000E+03  0.00000000000E+00 0.  1.
        -11    1    1    2    0    0 -0.31045187021E+00 -0.66255266793E+01  0.45262339515E+03  0.45267199142E+03  0.00000000000E+00 0. -1.
         11    1    1    2    0    0 -0.73300185014E+01  0.12116154677E+02 -0.49097850002E+03  0.49118267260E+03  0.00000000000E+00 0.  1.
        -15    1    1    2    0    0  0.32725172693E+01 -0.58586480926E+01 -0.73999612664E+01  0.10146441864E+02  0.17770000000E+01 0. -1.
         15    1    1    2    0    0  0.43679531023E+01  0.36802009541E+00  0.45755066142E+02  0.45998894114E+02  0.17770000000E+01 0.  1.
</event>
<event>
 6    1  0.1599106E-003  0.5005458E+03  0.7546771E-02  0.9398589E-01
        -11   -1    0    0    0    0  0.00000000000E+00  0.00000000000E+00  0.50000000000E+03  0.50000000000E+03  0.00000000000E+00 0. -1.
         11   -1    0    0    0    0 -0.00000000000E+00 -0.00000000000E+00 -0.50000000000E+03  0.50000000000E+03  0.00000000000E+00 0. -1.
        -11    1    1    2    0    0  0.58610861421E+01  0.35576976789E+01  0.49940710550E+03  0.49945416864E+03  0.00000000000E+00 0. -1.
         11    1    1    2    0    0 -0.46922798428E+01 -0.22383402806E+01 -0.73901413583E+02  0.74084050826E+02  0.00000000000E+00 0. -1.
        -15    1    1    2    0    0  0.51485783135E+01 -0.30959595575E+01 -0.40048021328E+03  0.40052921464E+03  0.17770000000E+01 0. -1.
         15    1    1    2    0    0 -0.63173846128E+01  0.17766021593E+01 -0.25025478638E+02  0.25932565890E+02  0.17770000000E+01 0.  1.
</event>
<event>
 6    1  0.1599106E-003  0.5008709E+03  0.7546771E-02  0.9397863E-01
        -11   -1    0    0    0    0  0.00000000000E+00  0.00000000000E+00  0.50000000000E+03  0.50000000000E+03  0.00000000000E+00 0. -1.
         11   -1    0    0    0    0 -0.00000000000E+00 -0.00000000000E+00 -0.50000000000E+03  0.50000000000E+03  0.00000000000E+00 0.  1.
        -11    1    1    2    0    0 -0.15845374261E+02  0.34829608094E+00  0.49887737566E+03  0.49912907463E+03  0.00000000000E+00 0. -1.
         11    1    1    2    0    0 -0.56523472185E+01  0.10832490198E+02 -0.15306705313E+03  0.15355394696E+03  0.00000000000E+00 0.  1.
        -15    1    1    2    0    0  0.20251508878E+02 -0.19641804989E+01 -0.28919509010E+03  0.28991540056E+03  0.17770000000E+01 0.  1.
         15    1    1    2    0    0  0.12462126016E+01 -0.92166057799E+01 -0.56615232429E+02  0.57401577852E+02  0.17770000000E+01 0. -1.
</event>
<event>
 6    1  0.1599106E-003  0.5344379E+03  0.7546771E-02  0.9325887E-01
        -11   -1    0    0    0    0  0.00000000000E+00  0.00000000000E+00  0.50000000000E+03  0.50000000000E+03  0.00000000000E+00 0.  1.
         11   -1    0    0    0    0 -0.00000000000E+00 -0.00000000000E+00 -0.50000000000E+03  0.50000000000E+03  0.00000000000E+00 0.  1.
        -11    1    1    2    0    0 -0.37276138624E+01  0.59765629077E+01  0.46550881655E+03  0.46556210401E+03  0.00000000000E+00 0.  1.
         11    1    1    2    0    0 -0.73032444880E+01 -0.10429514083E+02 -0.40296731868E+03  0.40316841651E+03  0.00000000000E+00 0.  1.
        -15    1    1    2    0    0  0.19445397818E+02  0.87234395848E+01 -0.95022220208E+02  0.97399188686E+02  0.17770000000E+01 0. -1.
         15    1    1    2    0    0 -0.84145394676E+01 -0.42704884095E+01  0.32480722342E+02  0.33870290795E+02  0.17770000000E+01 0.  1.
</event>
<event>
 6    1  0.1599106E-003  0.5021971E+03  0.7546771E-02  0.9394907E-01
        -11   -1    0    0    0    0  0.00000000000E+00  0.00000000000E+00  0.50000000000E+03  0.50000000000E+03  0.00000000000E+00 0. -1.
         11   -1    0    0    0    0 -0.00000000000E+00 -0.00000000000E+00 -0.50000000000E+03  0.50000000000E+03  0.00000000000E+00 0. -1.
        -11    1    1    2    0    0 -0.39664917231E+01  0.13510943687E+02  0.32736902190E+03  0.32767171858E+03  0.00000000000E+00 0. -1.
         11    1    1    2    0    0  0.54316717026E+01 -0.13977321415E+02 -0.49757701000E+03  0.49780292230E+03  0.00000000000E+00 0. -1.
        -15    1    1    2    0    0 -0.47640832847E+01  0.12972648821E+02  0.24121151585E+02  0.27856306104E+02  0.17770000000E+01 0.  1.
         15    1    1    2    0    0  0.32989033052E+01 -0.12506271092E+02  0.14608683652E+03  0.14666905301E+03  0.17770000000E+01 0. -1.
</event>
<event>
 6    1  0.1599106E-003  0.5095841E+03  0.7546771E-02  0.9378616E-01
        -11   -1    0    0    0    0  0.00000000000E+00  0.00000000000E+00  0.50000000000E+03  0.50000000000E+03  0.00000000000E+00 0.  1.
         11   -1    0    0    0    0 -0.00000000000E+00 -0.00000000000E+00 -0.50000000000E+03  0.50000000000E+03  0.00000000000E+00 0.  1.
        -11    1    1    2    0    0  0.66363849144E+01  0.65150045543E+01  0.49032772610E+03  0.49041591111E+03  0.00000000000E+00 0.  1.
         11    1    1    2    0    0  0.42069980498E+01  0.94461068153E+01 -0.47456112634E+03  0.47467377261E+03  0.00000000000E+00 0.  1.
        -15    1    1    2    0    0 -0.23500997862E+01 -0.63572535879E+01 -0.20079895650E+02  0.21267288979E+02  0.17770000000E+01 0.  1.
         15    1    1    2    0    0 -0.84932831779E+01 -0.96038577816E+01  0.43132958973E+01  0.13643027301E+02  0.17770000000E+01 0.  1.
</event>
<event>
 6    1  0.1599106E-003  0.5097884E+03  0.7546771E-02  0.9378170E-01
        -11   -1    0    0    0    0  0.00000000000E+00  0.00000000000E+00  0.50000000000E+03  0.50000000000E+03  0.00000000000E+00 0.  1.
         11   -1    0    0    0    0 -0.00000000000E+00 -0.00000000000E+00 -0.50000000000E+03  0.50000000000E+03  0.00000000000E+00 0.  1.
        -11    1    1    2    0    0  0.20970696950E+01  0.22034873212E+01  0.95506692605E+02  0.95555122259E+02  0.00000000000E+00 0.  1.
         11    1    1    2    0    0 -0.20703637472E+02  0.62875838835E+01 -0.48973383902E+03  0.49021159451E+03  0.00000000000E+00 0.  1.
        -15    1    1    2    0    0  0.41956699582E+02 -0.23051860016E+02  0.51264358966E+02  0.70163702291E+02  0.17770000000E+01 0. -1.
         15    1    1    2    0    0 -0.23350131805E+02  0.14560788811E+02  0.34296278745E+03  0.34406958094E+03  0.17770000000E+01 0.  1.
</event>
<event>
 6    1  0.1599106E-003  0.5248733E+03  0.7546771E-02  0.9345812E-01
        -11   -1    0    0    0    0  0.00000000000E+00  0.00000000000E+00  0.50000000000E+03  0.50000000000E+03  0.00000000000E+00 0. -1.
         11   -1    0    0    0    0 -0.00000000000E+00 -0.00000000000E+00 -0.50000000000E+03  0.50000000000E+03  0.00000000000E+00 0. -1.
        -11    1    1    2    0    0  0.50550412860E+01 -0.47477675340E+01  0.33387815944E+03  0.33395017606E+03  0.00000000000E+00 0. -1.
         11    1    1    2    0    0 -0.67818416122E+01 -0.46483406395E+01 -0.47505556402E+03  0.47512670873E+03  0.00000000000E+00 0. -1.
        -15    1    1    2    0    0  0.12291363851E+02  0.10099809640E+02 -0.22102667010E+02  0.27290463500E+02  0.17770000000E+01 0.  1.
         15    1    1    2    0    0 -0.10564563525E+02 -0.70370146623E+00  0.16328007159E+03  0.16363265171E+03  0.17770000000E+01 0. -1.
</event>
<event>
 6    1  0.1599106E-003  0.5052778E+03  0.7546771E-02  0.9388077E-01
        -11   -1    0    0    0    0  0.00000000000E+00  0.00000000000E+00  0.50000000000E+03  0.50000000000E+03  0.00000000000E+00 0. -1.
         11   -1    0    0    0    0 -0.00000000000E+00 -0.00000000000E+00 -0.50000000000E+03  0.50000000000E+03  0.00000000000E+00 0.  1.
        -11    1    1    2    0    0  0.15343567269E+02  0.20154194420E+01  0.49448008012E+03  0.49472218123E+03  0.00000000000E+00 0. -1.
         11    1    1    2    0    0 -0.64836196194E+01  0.13192739138E+02 -0.47278013201E+03  0.47300860343E+03  0.00000000000E+00 0.  1.
        -15    1    1    2    0    0 -0.10147110933E+02 -0.31563934232E+01 -0.59231022164E+01  0.12295021293E+02  0.17770000000E+01 0.  1.
         15    1    1    2    0    0  0.12871632838E+01 -0.12051765157E+02 -0.15776845885E+02  0.19974194046E+02  0.17770000000E+01 0. -1.
</event>
<event>
 6    1  0.1599106E-003  0.5002554E+03  0.7546771E-02  0.9399238E-01
        -11   -1    0    0    0    0  0.00000000000E+00  0.00000000000E+00  0.50000000000E+03  0.50000000000E+03  0.00000000000E+00 0. -1.
         11   -1    0    0    0    0 -0.00000000000E+00 -0.00000000000E+00 -0.50000000000E+03  0.50000000000E+03  0.00000000000E+00 0. -1.
        -11    1    1    2    0    0 -0.77259573028E+01 -0.20884827792E+01  0.49968050889E+03  0.49974459791E+03  0.00000000000E+00 0. -1.
         11    1    1    2    0    0 -0.57917978330E+01  0.66485819550E+00 -0.82337795073E+02  0.82543924404E+02  0.00000000000E+00 0. -1.
        -15    1    1    2    0    0  0.37981151342E+01  0.53814035574E+01 -0.18312115987E+03  0.18324819809E+03  0.17770000000E+01 0. -1.
         15    1    1    2    0    0  0.97196400017E+01 -0.39577789737E+01 -0.23422155394E+03  0.23446327959E+03  0.17770000000E+01 0.  1.
</event>
<event>
 6    1  0.1599106E-003  0.5131911E+03  0.7546771E-02  0.9370768E-01
        -11   -1    0    0    0    0  0.00000000000E+00  0.00000000000E+00  0.50000000000E+03  0.50000000000E+03  0.00000000000E+00 0.  1.
         11   -1    0    0    0    0 -0.00000000000E+00 -0.00000000000E+00 -0.50000000000E+03  0.50000000000E+03  0.00000000000E+00 0.  1.
        -11    1    1    2    0    0  0.20439259582E+01  0.14469470221E+02  0.48658951700E+03  0.48680889603E+03  0.00000000000E+00 0.  1.
         11    1    1    2    0    0  0.10809679894E+01  0.90413800981E+01 -0.41547061967E+03  0.41557039218E+03  0.00000000000E+00 0.  1.
        -15    1    1    2    0    0  0.11576083901E+02  0.27470237925E+01  0.69785131266E+01  0.13907164796E+02  0.17770000000E+01 0. -1.
         15    1    1    2    0    0 -0.14700977849E+02 -0.26257874112E+02 -0.78097410449E+02  0.83713546995E+02  0.17770000000E+01 0.  1.
</event>
<event>
 6    1  0.1599106E-003  0.5007535E+03  0.7546771E-02  0.9398125E-01
        -11   -1    0    0    0    0  0.00000000000E+00  0.00000000000E+00  0.50000000000E+03  0.50000000000E+03  0.00000000000E+00 0.  1.
         11   -1    0    0    0    0 -0.00000000000E+00 -0.00000000000E+00 -0.50000000000E+03  0.50000000000E+03  0.00000000000E+00 0.  1.
        -11    1    1    2    0    0 -0.78959546914E+01 -0.80119484858E+00  0.49918337924E+03  0.49924646631E+03  0.00000000000E+00 0.  1.
         11    1    1    2    0    0 -0.58718090806E+01  0.52874428421E+01 -0.29359800271E+03  0.29370431116E+03  0.00000000000E+00 0.  1.
        -15    1    1    2    0    0  0.34869406643E+01 -0.35677042728E+01 -0.11274694011E+02  0.12456473137E+02  0.17770000000E+01 0.  1.
         15    1    1    2    0    0  0.10280823108E+02 -0.91854372073E+00 -0.19431068252E+03  0.19459274939E+03  0.17770000000E+01 0. -1.
</event>
<event>
 6    1  0.1599106E-003  0.4961001E+03  0.7546771E-02  0.9408579E-01
        -11   -1    0    0    0    0  0.00000000000E+00  0.00000000000E+00  0.50000000000E+03  0.50000000000E+03  0.00000000000E+00 0.  1.
         11   -1    0    0    0    0 -0.00000000000E+00 -0.00000000000E+00 -0.50000000000E+03  0.50000000000E+03  0.00000000000E+00 0.  1.
        -11    1    1    2    0    0  0.86615327166E+00 -0.32033773902E+00  0.81715824230E+01  0.82236000057E+01  0.00000000000E+00 0.  1.
         11    1    1    2    0    0 -0.90524697618E+01 -0.32602267862E+01 -0.49965625406E+03  0.49974888545E+03  0.00000000000E+00 0.  1.
        -15    1    1    2    0    0 -0.63834621991E+01 -0.24190037171E+01  0.18245039636E+03  0.18258670551E+03  0.17770000000E+01 0.  1.
         15    1    1    2    0    0  0.14569778689E+02  0.59995682423E+01  0.30903427528E+03  0.30944080903E+03  0.17770000000E+01 0.  1.
</event>
<event>
 6    1  0.1599106E-003  0.5037311E+03  0.7546771E-02  0.9391500E-01
        -11   -1    0    0    0    0  0.00000000000E+00  0.00000000000E+00  0.50000000000E+03  0.50000000000E+03  0.00000000000E+00 0. -1.
         11   -1    0    0    0    0 -0.00000000000E+00 -0.00000000000E+00 -0.50000000000E+03  0.50000000000E+03  0.00000000000E+00 0. -1.
        -11    1    1    2    0    0  0.97725465677E+01 -0.41720743902E+01  0.30663997985E+03  0.30682403118E+03  0.00000000000E+00 0. -1.
         11    1    1    2    0    0 -0.73681701841E+01  0.25754545576E+01 -0.49620752955E+03  0.49626891428E+03  0.00000000000E+00 0. -1.
        -15    1    1    2    0    0 -0.69586076714E+01  0.21851248944E+02  0.15382061349E+03  0.15553082705E+03  0.17770000000E+01 0. -1.
         15    1    1    2    0    0  0.45542312878E+01 -0.20254629112E+02  0.35746936216E+02  0.41376227486E+02  0.17770000000E+01 0.  1.
</event>
<event>
 6    1  0.1599106E-003  0.5065571E+03  0.7546771E-02  0.9385256E-01
        -11   -1    0    0    0    0  0.00000000000E+00  0.00000000000E+00  0.50000000000E+03  0.50000000000E+03  0.00000000000E+00 0.  1.
         11   -1    0    0    0    0 -0.00000000000E+00 -0.00000000000E+00 -0.50000000000E+03  0.50000000000E+03  0.00000000000E+00 0.  1.
        -11    1    1    2    0    0 -0.64473034759E+01  0.32646459937E+01  0.19049275206E+03  0.19062978315E+03  0.00000000000E+00 0.  1.
         11    1    1    2    0    0  0.22111473158E+02 -0.67973295847E+02 -0.48823824506E+03  0.49344287424E+03  0.00000000000E+00 0.  1.
        -15    1    1    2    0    0 -0.25194901441E+02  0.62887599941E+02  0.11926783620E+03  0.13717728589E+03  0.17770000000E+01 0. -1.
         15    1    1    2    0    0  0.95307317584E+01  0.18210499119E+01  0.17847765681E+03  0.17875005672E+03  0.17770000000E+01 0.  1.
</event>
<event>
 6    1  0.1599106E-003  0.5044373E+03  0.7546771E-02  0.9389935E-01
        -11   -1    0    0    0    0  0.00000000000E+00  0.00000000000E+00  0.50000000000E+03  0.50000000000E+03  0.00000000000E+00 0. -1.
         11   -1    0    0    0    0 -0.00000000000E+00 -0.00000000000E+00 -0.50000000000E+03  0.50000000000E+03  0.00000000000E+00 0. -1.
        -11    1    1    2    0    0 -0.30948286490E+02 -0.11559782843E+02  0.49446029650E+03  0.49556272038E+03  0.00000000000E+00 0. -1.
         11    1    1    2    0    0  0.90682741434E+01  0.29126244694E+01 -0.39704737027E+03  0.39716159333E+03  0.00000000000E+00 0. -1.
        -15    1    1    2    0    0 -0.39152654876E+01 -0.80621749827E+01 -0.49419388262E+02  0.50256956081E+02  0.17770000000E+01 0. -1.
         15    1    1    2    0    0  0.25795277834E+02  0.16709333356E+02 -0.47993537960E+02  0.57018730209E+02  0.17770000000E+01 0.  1.
</event>
<event>
 6    1  0.1599106E-003  0.5006378E+03  0.7546771E-02  0.9398384E-01
        -11   -1    0    0    0    0  0.00000000000E+00  0.00000000000E+00  0.50000000000E+03  0.50000000000E+03  0.00000000000E+00 0.  1.
         11   -1    0    0    0    0 -0.00000000000E+00 -0.00000000000E+00 -0.50000000000E+03  0.50000000000E+03  0.00000000000E+00 0. -1.
        -11    1    1    2    0    0  0.71118644621E+01 -0.10096135312E+00  0.29586649441E+03  0.29595197469E+03  0.00000000000E+00 0.  1.
         11    1    1    2    0    0 -0.66464488245E+01  0.14025589099E+01 -0.49931603594E+03  0.49936223946E+03  0.00000000000E+00 0. -1.
        -15    1    1    2    0    0 -0.88561248605E+01 -0.12757901475E+01  0.16666919542E+03  0.16691865389E+03  0.17770000000E+01 0.  1.
         15    1    1    2    0    0  0.83907092229E+01 -0.25807409231E-01  0.36780346111E+02  0.37767131958E+02  0.17770000000E+01 0. -1.
</event>
<event>
 6    1  0.1599106E-003  0.5009780E+03  0.7546771E-02  0.9397624E-01
        -11   -1    0    0    0    0  0.00000000000E+00  0.00000000000E+00  0.50000000000E+03  0.50000000000E+03  0.00000000000E+00 0. -1.
         11   -1    0    0    0    0 -0.00000000000E+00 -0.00000000000E+00 -0.50000000000E+03  0.50000000000E+03  0.00000000000E+00 0. -1.
        -11    1    1    2    0    0  0.69976719443E+01 -0.23953712482E+01  0.49896716199E+03  0.49902197744E+03  0.00000000000E+00 0. -1.
         11    1    1    2    0    0  0.71390770442E+01  0.29401798239E+01 -0.31659459400E+03  0.31668872419E+03  0.00000000000E+00 0. -1.
        -15    1    1    2    0    0 -0.13267426918E+02  0.94017348793E+01 -0.10996239309E+03  0.11117240151E+03  0.17770000000E+01 0. -1.
         15    1    1    2    0    0 -0.86932207053E+00 -0.99465434550E+01 -0.72410174903E+02  0.73116896858E+02  0.17770000000E+01 0.  1.
</event>
<event>
 6    1  0.2118682E-003  0.5032522E+03  0.7546771E-02  0.9392562E-01
        -11   -1    0    0    0    0  0.00000000000E+00  0.00000000000E+00  0.50000000000E+03  0.50000000000E+03  0.00000000000E+00 0. -1.
         11   -1    0    0    0    0 -0.00000000000E+00 -0.00000000000E+00 -0.50000000000E+03  0.50000000000E+03  0.00000000000E+00 0.  1.
        -11    1    1    2    0    0 -0.67095116321E+01 -0.28180843996E+01  0.49669452760E+03  0.49674783632E+03  0.00000000000E+00 0. -1.
         11    1    1    2    0    0  0.38895133551E+01 -0.85610050826E+00 -0.26597222205E+03  0.26600203782E+03  0.00000000000E+00 0.  1.
        -15    1    1    2    0    0 -0.25734753821E+01 -0.32739324460E+01 -0.22775317846E+03  0.22779817698E+03  0.17770000000E+01 0.  1.
         15    1    1    2    0    0  0.53934736591E+01  0.69481173539E+01 -0.29691270850E+01  0.94519488743E+01  0.17770000000E+01 0. -1.
</event>
<event>
 6    1  0.1599106E-003  0.4309999E+03  0.7546771E-02  0.9568995E-01
        -11   -1    0    0    0    0  0.00000000000E+00  0.00000000000E+00  0.50000000000E+03  0.50000000000E+03  0.00000000000E+00 0. -1.
         11   -1    0    0    0    0 -0.00000000000E+00 -0.00000000000E+00 -0.50000000000E+03  0.50000000000E+03  0.00000000000E+00 0.  1.
        -11    1    1    2    0    0 -0.13805392202E+02 -0.14066063285E+02  0.42947229266E+03  0.42992428770E+03  0.00000000000E+00 0. -1.
         11    1    1    2    0    0 -0.68698910855E+01 -0.20095105940E+01 -0.43241906263E+03  0.43247829918E+03  0.00000000000E+00 0.  1.
        -15    1    1    2    0    0 -0.55808703108E+02 -0.70428410764E+01  0.10747052151E+02  0.57296333321E+02  0.17770000000E+01 0. -1.
         15    1    1    2    0    0  0.76483986396E+02  0.23118414955E+02 -0.78002821861E+01  0.80301079795E+02  0.17770000000E+01 0.  1.
</event>
<event>
 6    1  0.1599106E-003  0.5068741E+03  0.7546771E-02  0.9384559E-01
        -11   -1    0    0    0    0  0.00000000000E+00  0.00000000000E+00  0.50000000000E+03  0.50000000000E+03  0.00000000000E+00 0.  1.
         11   -1    0    0    0    0 -0.00000000000E+00 -0.00000000000E+00 -0.50000000000E+03  0.50000000000E+03  0.00000000000E+00 0.  1.
        -11    1    1    2    0    0 -0.26775443872E+01 -0.86354632100E+01  0.46667441257E+03  0.46676198198E+03  0.00000000000E+00 0.  1.
         11    1    1    2    0    0  0.75878478424E+01  0.75045424095E+01 -0.49301044704E+03  0.49312594181E+03  0.00000000000E+00 0.  1.
        -15    1    1    2    0    0 -0.41734094970E+01  0.65398435815E+01  0.31439195237E+02  0.32430967100E+02  0.17770000000E+01 0. -1.
         15    1    1    2    0    0 -0.73689395820E+00 -0.54089227810E+01 -0.51031607713E+01  0.76811091135E+01  0.17770000000E+01 0.  1.
</event>
<event>
 6    1  0.1599106E-003  0.5004220E+03  0.7546771E-02  0.9398866E-01
        -11   -1    0    0    0    0  0.00000000000E+00  0.00000000000E+00  0.50000000000E+03  0.50000000000E+03  0.00000000000E+00 0. -1.
         11   -1    0    0    0    0 -0.00000000000E+00 -0.00000000000E+00 -0.50000000000E+03  0.50000000000E+03  0.00000000000E+00 0. -1.
        -11    1    1    2    0    0 -0.23019002275E+01 -0.72765276080E+01  0.49951972785E+03  0.49957802705E+03  0.00000000000E+00 0. -1.
         11    1    1    2    0    0 -0.28839094342E+01  0.30780645334E+01 -0.28747798603E+03  0.28750892832E+03  0.00000000000E+00 0. -1.
        -15    1    1    2    0    0 -0.10047621423E+01  0.54416622941E+01 -0.18484911764E+03  0.18494046409E+03  0.17770000000E+01 0. -1.
         15    1    1    2    0    0  0.61905718040E+01 -0.12431992195E+01 -0.27192624178E+02  0.27972580543E+02  0.17770000000E+01 0.  1.
</event>
<event>
 6    1  0.1599106E-003  0.5072658E+03  0.7546771E-02  0.9383697E-01
        -11   -1    0    0    0    0  0.00000000000E+00  0.00000000000E+00  0.50000000000E+03  0.50000000000E+03  0.00000000000E+00 0. -1.
         11   -1    0    0    0    0 -0.00000000000E+00 -0.00000000000E+00 -0.50000000000E+03  0.50000000000E+03  0.00000000000E+00 0.  1.
        -11    1    1    2    0    0 -0.77096467013E+01  0.45751551623E+00  0.44936014138E+03  0.44942650638E+03  0.00000000000E+00 0. -1.
         11    1    1    2    0    0  0.33182841735E+01 -0.70465419150E+01 -0.49267266999E+03  0.49273423315E+03  0.00000000000E+00 0.  1.
        -15    1    1    2    0    0 -0.11871587511E+01 -0.14642327105E+00 -0.67013604433E+01  0.70353924173E+01  0.17770000000E+01 0.  1.
         15    1    1    2    0    0  0.55785212790E+01  0.67354496698E+01  0.50013889055E+02  0.50803868055E+02  0.17770000000E+01 0. -1.
</event>
<event>
 6    1  0.1599106E-003  0.5004488E+03  0.7546771E-02  0.9398806E-01
        -11   -1    0    0    0    0  0.00000000000E+00  0.00000000000E+00  0.50000000000E+03  0.50000000000E+03  0.00000000000E+00 0. -1.
         11   -1    0    0    0    0 -0.00000000000E+00 -0.00000000000E+00 -0.50000000000E+03  0.50000000000E+03  0.00000000000E+00 0. -1.
        -11    1    1    2    0    0 -0.30814604813E+00  0.75288285452E+01  0.77210959711E+02  0.77577770738E+02  0.00000000000E+00 0. -1.
         11    1    1    2    0    0 -0.84624928609E+01  0.15862532429E+02 -0.49922757576E+03  0.49955120471E+03  0.00000000000E+00 0. -1.
        -15    1    1    2    0    0  0.31022910311E+01 -0.19298432324E+02  0.29997054731E+03  0.30061194367E+03  0.17770000000E+01 0. -1.
         15    1    1    2    0    0  0.56683478779E+01 -0.40929286507E+01  0.12204606875E+03  0.12225908088E+03  0.17770000000E+01 0.  1.
</event>
<event>
 6    1  0.1599106E-003  0.5075365E+03  0.7546771E-02  0.9383102E-01
        -11   -1    0    0    0    0  0.00000000000E+00  0.00000000000E+00  0.50000000000E+03  0.50000000000E+03  0.00000000000E+00 0. -1.
         11   -1    0    0    0    0 -0.00000000000E+00 -0.00000000000E+00 -0.50000000000E+03  0.50000000000E+03  0.00000000000E+00 0. -1.
        -11    1    1    2    0    0  0.17749908394E+02  0.14048514397E+02  0.30307250059E+03  0.30391670013E+03  0.00000000000E+00 0. -1.
         11    1    1    2    0    0  0.40732573870E+02 -0.81387372454E+01 -0.49070860801E+03  0.49246352108E+03  0.00000000000E+00 0. -1.
        -15    1    1    2    0    0 -0.49051528884E+02 -0.25739038250E+02  0.15124809795E+03  0.16108288375E+03  0.17770000000E+01 0. -1.
         15    1    1    2    0    0 -0.94309533801E+01  0.19829261098E+02  0.36388009469E+02  0.42536895038E+02  0.17770000000E+01 0.  1.
</event>
<event>
 6    1  0.1599106E-003  0.4897420E+03  0.7546771E-02  0.9423060E-01
        -11   -1    0    0    0    0  0.00000000000E+00  0.00000000000E+00  0.50000000000E+03  0.50000000000E+03  0.00000000000E+00 0.  1.
         11   -1    0    0    0    0 -0.00000000000E+00 -0.00000000000E+00 -0.50000000000E+03  0.50000000000E+03  0.00000000000E+00 0. -1.
        -11    1    1    2    0    0 -0.77454093380E+01 -0.79733549815E+00  0.49241814963E+03  0.49247970638E+03  0.00000000000E+00 0.  1.
         11    1    1    2    0    0 -0.35647770089E+01  0.11164635212E+02 -0.48699838832E+03  0.48713939170E+03  0.00000000000E+00 0. -1.
        -15    1    1    2    0    0 -0.15442610023E+01 -0.52044070089E+00 -0.30993454872E+01  0.39267380884E+01  0.17770000000E+01 0. -1.
         15    1    1    2    0    0  0.12854447349E+02 -0.98468590126E+01 -0.23204158195E+01  0.16454163839E+02  0.17770000000E+01 0. -1.
</event>
<event>
 6    1  0.1599106E-003  0.5015255E+03  0.7546771E-02  0.9396403E-01
        -11   -1    0    0    0    0  0.00000000000E+00  0.00000000000E+00  0.50000000000E+03  0.50000000000E+03  0.00000000000E+00 0. -1.
         11   -1    0    0    0    0 -0.00000000000E+00 -0.00000000000E+00 -0.50000000000E+03  0.50000000000E+03  0.00000000000E+00 0. -1.
        -11    1    1    2    0    0  0.14708641679E+01 -0.76652355534E+01  0.49841340591E+03  0.49847451537E+03  0.00000000000E+00 0. -1.
         11    1    1    2    0    0  0.40286131498E+01 -0.85981518054E+01 -0.26247592797E+03  0.26264761697E+03  0.00000000000E+00 0. -1.
        -15    1    1    2    0    0 -0.84272608232E+01  0.18532170072E+02 -0.70825324426E+02  0.73714614302E+02  0.17770000000E+01 0.  1.
         15    1    1    2    0    0  0.29277835055E+01 -0.22687827136E+01 -0.16511215352E+03  0.16516325336E+03  0.17770000000E+01 0. -1.
</event>
<event>
 6    1  0.1599106E-003  0.5010750E+03  0.7546771E-02  0.9397408E-01
        -11   -1    0    0    0    0  0.00000000000E+00  0.00000000000E+00  0.50000000000E+03  0.50000000000E+03  0.00000000000E+00 0. -1.
         11   -1    0    0    0    0 -0.00000000000E+00 -0.00000000000E+00 -0.50000000000E+03  0.50000000000E+03  0.00000000000E+00 0. -1.
        -11    1    1    2    0    0  0.93826807410E+01  0.23957633728E+01  0.39215772011E+03  0.39227726396E+03  0.00000000000E+00 0. -1.
         11    1    1    2    0    0 -0.77981421463E+01  0.64734135109E+01 -0.49882207620E+03  0.49892502424E+03  0.00000000000E+00 0. -1.
        -15    1    1    2    0    0 -0.87467113047E+00  0.40592252765E+01  0.64414500119E+02  0.64572656086E+02  0.17770000000E+01 0.  1.
         15    1    1    2    0    0 -0.70986746420E+00 -0.12928402160E+02  0.42249855975E+02  0.44225055717E+02  0.17770000000E+01 0. -1.
</event>
<event>
 6    1  0.1599106E-003  0.5036000E+03  0.7546771E-02  0.9391790E-01
        -11   -1    0    0    0    0  0.00000000000E+00  0.00000000000E+00  0.50000000000E+03  0.50000000000E+03  0.00000000000E+00 0. -1.
         11   -1    0    0    0    0 -0.00000000000E+00 -0.00000000000E+00 -0.50000000000E+03  0.50000000000E+03  0.00000000000E+00 0. -1.
        -11    1    1    2    0    0 -0.95150691838E+01  0.13215826957E+02  0.19754311845E+03  0.19821321417E+03  0.00000000000E+00 0. -1.
         11    1    1    2    0    0  0.17475427036E+02 -0.33422588248E+00 -0.49609222998E+03  0.49640004321E+03  0.00000000000E+00 0. -1.
        -15    1    1    2    0    0 -0.95298510714E+01  0.17383367400E+02  0.36405374472E+02  0.41491065822E+02  0.17770000000E+01 0.  1.
         15    1    1    2    0    0  0.15694932193E+01 -0.30264968474E+02  0.26214373706E+03  0.26389567680E+03  0.17770000000E+01 0. -1.
</event>
<event>
 6    1  0.1599106E-003  0.5161781E+03  0.7546771E-02  0.9364320E-01
        -11   -1    0    0    0    0  0.00000000000E+00  0.00000000000E+00  0.50000000000E+03  0.50000000000E+03  0.00000000000E+00 0. -1.
         11   -1    0    0    0    0 -0.00000000000E+00 -0.00000000000E+00 -0.50000000000E+03  0.50000000000E+03  0.00000000000E+00 0. -1.
        -11    1    1    2    0    0 -0.12120144454E+01  0.22212880577E+02  0.21735395454E+03  0.21848941072E+03  0.00000000000E+00 0. -1.
         11    1    1    2    0    0  0.68772749218E+01  0.82867387934E+01 -0.48370201287E+03  0.48382187239E+03  0.00000000000E+00 0. -1.
        -15    1    1    2    0    0 -0.16241195373E+01 -0.19290079296E+02  0.27931397403E+03  0.27998964042E+03  0.17770000000E+01 0. -1.
         15    1    1    2    0    0 -0.40411409391E+01 -0.11209540074E+02 -0.12965915707E+02  0.17699076470E+02  0.17770000000E+01 0.  1.
</event>
<event>
 6    1  0.1599106E-003  0.5030661E+03  0.7546771E-02  0.9392975E-01
        -11   -1    0    0    0    0  0.00000000000E+00  0.00000000000E+00  0.50000000000E+03  0.50000000000E+03  0.00000000000E+00 0. -1.
         11   -1    0    0    0    0 -0.00000000000E+00 -0.00000000000E+00 -0.50000000000E+03  0.50000000000E+03  0.00000000000E+00 0.  1.
        -11    1    1    2    0    0  0.27622564338E+01  0.10527832935E+02  0.42333943628E+03  0.42347933083E+03  0.00000000000E+00 0. -1.
         11    1    1    2    0    0  0.10260483252E+02 -0.51212271751E+01 -0.49680158424E+03  0.49693391772E+03  0.00000000000E+00 0.  1.
        -15    1    1    2    0    0 -0.73480469101E+01 -0.11514030528E+00  0.21900448668E+01  0.78715358223E+01  0.17770000000E+01 0.  1.
         15    1    1    2    0    0 -0.56746927758E+01 -0.52914654545E+01  0.71272103085E+02  0.71715215624E+02  0.17770000000E+01 0. -1.
</event>
<event>
 6    1  0.1599106E-003  0.5017337E+03  0.7546771E-02  0.9395939E-01
        -11   -1    0    0    0    0  0.00000000000E+00  0.00000000000E+00  0.50000000000E+03  0.50000000000E+03  0.00000000000E+00 0. -1.
         11   -1    0    0    0    0 -0.00000000000E+00 -0.00000000000E+00 -0.50000000000E+03  0.50000000000E+03  0.00000000000E+00 0. -1.
        -11    1    1    2    0    0 -0.11822606012E+02  0.31329025965E+00  0.49812588470E+03  0.49826626333E+03  0.00000000000E+00 0. -1.
         11    1    1    2    0    0  0.12217734956E+01  0.44071936869E+01 -0.76093766829E+02  0.76231079206E+02  0.00000000000E+00 0. -1.
        -15    1    1    2    0    0  0.88630471918E+01  0.62892069749E+00 -0.10260745808E+02  0.13689038691E+02  0.17770000000E+01 0.  1.
         15    1    1    2    0    0  0.17377853249E+01 -0.53494046441E+01 -0.41177137206E+03  0.41181361877E+03  0.17770000000E+01 0. -1.
</event>
<event>
 6    1  0.1599106E-003  0.5009194E+03  0.7546771E-02  0.9397755E-01
        -11   -1    0    0    0    0  0.00000000000E+00  0.00000000000E+00  0.50000000000E+03  0.50000000000E+03  0.00000000000E+00 0.  1.
         11   -1    0    0    0    0 -0.00000000000E+00 -0.00000000000E+00 -0.50000000000E+03  0.50000000000E+03  0.00000000000E+00 0.  1.
        -11    1    1    2    0    0  0.57987496518E+00 -0.32298226768E+01  0.13598897945E+03  0.13602856516E+03  0.00000000000E+00 0.  1.
         11    1    1    2    0    0  0.35084002387E+01  0.73195042162E+01 -0.49901459331E+03  0.49908060306E+03  0.00000000000E+00 0.  1.
        -15    1    1    2    0    0 -0.15547598553E+01 -0.10002207067E+02  0.28461033165E+02  0.30259701952E+02  0.17770000000E+01 0. -1.
         15    1    1    2    0    0 -0.25335153485E+01  0.59125255272E+01  0.33456458070E+03  0.33463112982E+03  0.17770000000E+01 0.  1.
</event>
<event>
 6    1  0.1599106E-003  0.4818568E+03  0.7546771E-02  0.9441347E-01
        -11   -1    0    0    0    0  0.00000000000E+00  0.00000000000E+00  0.50000000000E+03  0.50000000000E+03  0.00000000000E+00 0. -1.
         11   -1    0    0    0    0 -0.00000000000E+00 -0.00000000000E+00 -0.50000000000E+03  0.50000000000E+03  0.00000000000E+00 0.  1.
        -11    1    1    2    0    0 -0.14864348161E+02  0.20340821557E+02  0.48795701659E+03  0.48860694623E+03  0.00000000000E+00 0. -1.
         11    1    1    2    0    0  0.10603821174E+02  0.45137182152E+01 -0.47537884894E+03  0.47551852192E+03  0.00000000000E+00 0.  1.
        -15    1    1    2    0    0  0.88404232525E+01 -0.17751367754E+02  0.82773358653E+00  0.19927544061E+02  0.17770000000E+01 0. -1.
         15    1    1    2    0    0 -0.45798962659E+01 -0.71031720184E+01 -0.13405901236E+02  0.15946987787E+02  0.17770000000E+01 0.  1.
</event>
<event>
 6    1  0.1599106E-003  0.5008285E+03  0.7546771E-02  0.9397958E-01
        -11   -1    0    0    0    0  0.00000000000E+00  0.00000000000E+00  0.50000000000E+03  0.50000000000E+03  0.00000000000E+00 0.  1.
         11   -1    0    0    0    0 -0.00000000000E+00 -0.00000000000E+00 -0.50000000000E+03  0.50000000000E+03  0.00000000000E+00 0.  1.
        -11    1    1    2    0    0 -0.72141496110E+00 -0.16082791256E+01  0.71215072775E+02  0.71236883646E+02  0.00000000000E+00 0.  1.
         11    1    1    2    0    0  0.54896897626E+01  0.21475341593E+02 -0.49867907942E+03  0.49917146477E+03  0.00000000000E+00 0.  1.
        -15    1    1    2    0    0 -0.90855845380E+01 -0.27948528487E+02  0.38450227790E+03  0.38562783552E+03  0.17770000000E+01 0.  1.
         15    1    1    2    0    0  0.43173097365E+01  0.80814660188E+01  0.42961728751E+02  0.43963816061E+02  0.17770000000E+01 0. -1.
</event>
<event>
 6    1  0.1599106E-003  0.5088977E+03  0.7546771E-02  0.9380118E-01
        -11   -1    0    0    0    0  0.00000000000E+00  0.00000000000E+00  0.50000000000E+03  0.50000000000E+03  0.00000000000E+00 0.  1.
         11   -1    0    0    0    0 -0.00000000000E+00 -0.00000000000E+00 -0.50000000000E+03  0.50000000000E+03  0.00000000000E+00 0. -1.
        -11    1    1    2    0    0 -0.28348293743E+01 -0.59939606172E+01  0.47791502762E+03  0.47796102084E+03  0.00000000000E+00 0.  1.
         11    1    1    2    0    0  0.10363301153E+02 -0.12654259466E+01 -0.49099127760E+03  0.49110226429E+03  0.00000000000E+00 0. -1.
        -15    1    1    2    0    0 -0.43876862180E+01 -0.64971151480E+01  0.14565941544E+02  0.16636967201E+02  0.17770000000E+01 0. -1.
         15    1    1    2    0    0 -0.31407855603E+01  0.13756501712E+02 -0.14896915601E+01  0.14299747663E+02  0.17770000000E+01 0.  1.
</event>
<event>
 6    1  0.1599106E-003  0.5009525E+03  0.7546771E-02  0.9397681E-01
        -11   -1    0    0    0    0  0.00000000000E+00  0.00000000000E+00  0.50000000000E+03  0.50000000000E+03  0.00000000000E+00 0. -1.
         11   -1    0    0    0    0 -0.00000000000E+00 -0.00000000000E+00 -0.50000000000E+03  0.50000000000E+03  0.00000000000E+00 0.  1.
        -11    1    1    2    0    0  0.67857684832E+01 -0.15176161355E+00  0.49900132982E+03  0.49904748957E+03  0.00000000000E+00 0. -1.
         11    1    1    2    0    0 -0.91062324861E+01 -0.13342876278E+01 -0.45693971448E+03  0.45703239105E+03  0.00000000000E+00 0.  1.
        -15    1    1    2    0    0 -0.31573742670E+01  0.44647131135E+01 -0.14326593144E+02  0.15437346778E+02  0.17770000000E+01 0. -1.
         15    1    1    2    0    0  0.54778382699E+01 -0.29786638721E+01 -0.27735022189E+02  0.28482772607E+02  0.17770000000E+01 0. -1.
</event>
<event>
 6    1  0.1599106E-003  0.5123586E+03  0.7546771E-02  0.9372573E-01
        -11   -1    0    0    0    0  0.00000000000E+00  0.00000000000E+00  0.50000000000E+03  0.50000000000E+03  0.00000000000E+00 0. -1.
         11   -1    0    0    0    0 -0.00000000000E+00 -0.00000000000E+00 -0.50000000000E+03  0.50000000000E+03  0.00000000000E+00 0. -1.
        -11    1    1    2    0    0 -0.10426387821E+00 -0.12939003086E+02  0.44811907318E+03  0.44830584697E+03  0.00000000000E+00 0. -1.
         11    1    1    2    0    0  0.25263846727E+00 -0.95458911276E+01 -0.48754784675E+03  0.48764135462E+03  0.00000000000E+00 0. -1.
        -15    1    1    2    0    0  0.13679678418E+02  0.21366768588E+02  0.37211397480E+01  0.25703638099E+02  0.17770000000E+01 0.  1.
         15    1    1    2    0    0 -0.13828053007E+02  0.11181256251E+01  0.35707633819E+02  0.38349160315E+02  0.17770000000E+01 0.  1.
</event>
<event>
 6    1  0.1599106E-003  0.5063841E+03  0.7546771E-02  0.9385637E-01
        -11   -1    0    0    0    0  0.00000000000E+00  0.00000000000E+00  0.50000000000E+03  0.50000000000E+03  0.00000000000E+00 0. -1.
         11   -1    0    0    0    0 -0.00000000000E+00 -0.00000000000E+00 -0.50000000000E+03  0.50000000000E+03  0.00000000000E+00 0.  1.
        -11    1    1    2    0    0  0.90828351054E+01  0.18558296996E+02  0.40785762411E+03  0.40838064330E+03  0.00000000000E+00 0. -1.
         11    1    1    2    0    0 -0.27039680824E+01 -0.12219522290E+02 -0.49345726714E+03  0.49361594653E+03  0.00000000000E+00 0.  1.
        -15    1    1    2    0    0  0.24780267392E+01 -0.35426625162E+01 -0.50388043822E+01  0.68730162830E+01  0.17770000000E+01 0.  1.
         15    1    1    2    0    0 -0.88568937623E+01 -0.27961121896E+01  0.90638447418E+02  0.91130393886E+02  0.17770000000E+01 0. -1.
</event>
<event>
 6    1  0.1599106E-003  0.5026204E+03  0.7546771E-02  0.9393965E-01
        -11   -1    0    0    0    0  0.00000000000E+00  0.00000000000E+00  0.50000000000E+03  0.50000000000E+03  0.00000000000E+00 0. -1.
         11   -1    0    0    0    0 -0.00000000000E+00 -0.00000000000E+00 -0.50000000000E+03  0.50000000000E+03  0.00000000000E+00 0.  1.
        -11    1    1    2    0    0 -0.63588127404E+01 -0.65576118794E+01  0.45414879496E+03  0.45424064628E+03  0.00000000000E+00 0. -1.
         11    1    1    2    0    0  0.17139550383E+01 -0.81182093125E+01 -0.49731038283E+03  0.49737959330E+03  0.00000000000E+00 0.  1.
        -15    1    1    2    0    0  0.42230886281E+01  0.34948255799E+01  0.31861619973E+02  0.32378524359E+02  0.17770000000E+01 0. -1.
         15    1    1    2    0    0  0.42176907404E+00  0.11180995612E+02  0.11299967895E+02  0.16001236060E+02  0.17770000000E+01 0.  1.
</event>
<event>
 6    1  0.1599106E-003  0.5002193E+03  0.7546771E-02  0.9399319E-01
        -11   -1    0    0    0    0  0.00000000000E+00  0.00000000000E+00  0.50000000000E+03  0.50000000000E+03  0.00000000000E+00 0. -1.
         11   -1    0    0    0    0 -0.00000000000E+00 -0.00000000000E+00 -0.50000000000E+03  0.50000000000E+03  0.00000000000E+00 0. -1.
        -11    1    1    2    0    0 -0.96298037550E+01 -0.46318944385E+01  0.49966642656E+03  0.49978067729E+03  0.00000000000E+00 0. -1.
         11    1    1    2    0    0 -0.63716851568E+00 -0.12975716646E+01 -0.74572115681E+02  0.74586125473E+02  0.00000000000E+00 0. -1.
        -15    1    1    2    0    0  0.71985954668E+01  0.12095410246E+02 -0.30286934630E+03  0.30320144686E+03  0.17770000000E+01 0. -1.
         15    1    1    2    0    0  0.30683768039E+01 -0.61659441424E+01 -0.12222496458E+03  0.12243175037E+03  0.17770000000E+01 0.  1.
</event>
<event>
 6    1  0.1599106E-003  0.5099691E+03  0.7546771E-02  0.9377775E-01
        -11   -1    0    0    0    0  0.00000000000E+00  0.00000000000E+00  0.50000000000E+03  0.50000000000E+03  0.00000000000E+00 0. -1.
         11   -1    0    0    0    0 -0.00000000000E+00 -0.00000000000E+00 -0.50000000000E+03  0.50000000000E+03  0.00000000000E+00 0. -1.
        -11    1    1    2    0    0  0.44459616643E+01 -0.76235904134E+01  0.46166206579E+03  0.46174641168E+03  0.00000000000E+00 0. -1.
         11    1    1    2    0    0  0.60159430425E+01  0.28650346621E+01 -0.48998561045E+03  0.49003091580E+03  0.00000000000E+00 0. -1.
        -15    1    1    2    0    0  0.44350060035E+01  0.47389513758E+01 -0.70822570959E+01  0.97694950210E+01  0.17770000000E+01 0. -1.
         15    1    1    2    0    0 -0.14896910710E+02  0.19604375485E-01  0.35405801754E+02  0.38453177500E+02  0.17770000000E+01 0.  1.
</event>
<event>
 6    1  0.1599106E-003  0.6005023E+03  0.7546771E-02  0.9199343E-01
        -11   -1    0    0    0    0  0.00000000000E+00  0.00000000000E+00  0.50000000000E+03  0.50000000000E+03  0.00000000000E+00 0.  1.
         11   -1    0    0    0    0 -0.00000000000E+00 -0.00000000000E+00 -0.50000000000E+03  0.50000000000E+03  0.00000000000E+00 0. -1.
        -11    1    1    2    0    0 -0.17202744574E+01 -0.40106422063E+01  0.26980447018E+03  0.26983976120E+03  0.00000000000E+00 0.  1.
         11    1    1    2    0    0  0.18281795673E+02  0.32296358343E+02 -0.39777021276E+03  0.39949771085E+03  0.00000000000E+00 0. -1.
        -15    1    1    2    0    0  0.17432279123E+01  0.90472370253E+01  0.22493987220E+03  0.22513550403E+03  0.17770000000E+01 0. -1.
         15    1    1    2    0    0 -0.18304749127E+02 -0.37332953162E+02 -0.96974129619E+02  0.10552702392E+03  0.17770000000E+01 0. -1.
</event>
<event>
 6    1  0.1599106E-003  0.5031742E+03  0.7546771E-02  0.9392735E-01
        -11   -1    0    0    0    0  0.00000000000E+00  0.00000000000E+00  0.50000000000E+03  0.50000000000E+03  0.00000000000E+00 0.  1.
         11   -1    0    0    0    0 -0.00000000000E+00 -0.00000000000E+00 -0.50000000000E+03  0.50000000000E+03  0.00000000000E+00 0.  1.
        -11    1    1    2    0    0  0.74677024485E+01  0.28614822537E+00  0.49676958307E+03  0.49682579152E+03  0.00000000000E+00 0.  1.
         11    1    1    2    0    0 -0.47967337043E+01 -0.10530967538E+01 -0.33946856251E+03  0.33950408334E+03  0.00000000000E+00 0.  1.
        -15    1    1    2    0    0 -0.81633863741E+01  0.27641376888E+01 -0.30728326617E+01  0.93210173169E+01  0.17770000000E+01 0. -1.
         15    1    1    2    0    0  0.54924176298E+01 -0.19971891604E+01 -0.15422818789E+03  0.15434910782E+03  0.17770000000E+01 0.  1.
</event>
<event>
 6    1  0.1599106E-003  0.5100142E+03  0.7546771E-02  0.9377677E-01
        -11   -1    0    0    0    0  0.00000000000E+00  0.00000000000E+00  0.50000000000E+03  0.50000000000E+03  0.00000000000E+00 0.  1.
         11   -1    0    0    0    0 -0.00000000000E+00 -0.00000000000E+00 -0.50000000000E+03  0.50000000000E+03  0.00000000000E+00 0.  1.
        -11    1    1    2    0    0 -0.17996341952E+02 -0.73864972296E+01  0.48959944464E+03  0.48998575985E+03  0.00000000000E+00 0.  1.
         11    1    1    2    0    0  0.35500304830E+02  0.22357647262E+01 -0.41905158397E+03  0.42055855753E+03  0.00000000000E+00 0.  1.
        -15    1    1    2    0    0 -0.34563789524E+02  0.44434224891E+01 -0.59697834276E+02  0.69147586335E+02  0.17770000000E+01 0.  1.
         15    1    1    2    0    0  0.17059826646E+02  0.70731001436E+00 -0.10850026397E+02  0.20308096279E+02  0.17770000000E+01 0. -1.
</event>
<event>
 6    1  0.1599106E-003  0.5003260E+03  0.7546771E-02  0.9399081E-01
        -11   -1    0    0    0    0  0.00000000000E+00  0.00000000000E+00  0.50000000000E+03  0.50000000000E+03  0.00000000000E+00 0.  1.
         11   -1    0    0    0    0 -0.00000000000E+00 -0.00000000000E+00 -0.50000000000E+03  0.50000000000E+03  0.00000000000E+00 0. -1.
        -11    1    1    2    0    0 -0.66296106454E+01  0.27226715551E+01  0.49962258409E+03  0.49967398493E+03  0.00000000000E+00 0.  1.
         11    1    1    2    0    0  0.28748137861E+01  0.17022752750E+01 -0.14732097569E+03  0.14735885509E+03  0.00000000000E+00 0. -1.
        -15    1    1    2    0    0 -0.37581391013E+01 -0.34891385644E+01 -0.30360431644E+03  0.30365282213E+03  0.17770000000E+01 0. -1.
         15    1    1    2    0    0  0.75129359606E+01 -0.93580826567E+00 -0.48697291972E+02  0.49314337857E+02  0.17770000000E+01 0. -1.
</event>
<event>
 6    1  0.1599106E-003  0.5005687E+03  0.7546771E-02  0.9398538E-01
        -11   -1    0    0    0    0  0.00000000000E+00  0.00000000000E+00  0.50000000000E+03  0.50000000000E+03  0.00000000000E+00 0. -1.
         11   -1    0    0    0    0 -0.00000000000E+00 -0.00000000000E+00 -0.50000000000E+03  0.50000000000E+03  0.00000000000E+00 0.  1.
        -11    1    1    2    0    0  0.18421581898E+01  0.11648015597E+02  0.49929209978E+03  0.49943134735E+03  0.00000000000E+00 0. -1.
         11    1    1    2    0    0  0.11406881153E+02 -0.28625466554E+01 -0.81029610140E+02  0.81878622548E+02  0.00000000000E+00 0.  1.
        -15    1    1    2    0    0 -0.12351949363E+02 -0.60316148107E+01 -0.24325175634E+03  0.24364631276E+03  0.17770000000E+01 0.  1.
         15    1    1    2    0    0 -0.89708997960E+00 -0.27538541304E+01 -0.17501073330E+03  0.17504371735E+03  0.17770000000E+01 0. -1.
</event>
<event>
 6    1  0.1599106E-003  0.5035244E+03  0.7546771E-02  0.9391958E-01
        -11   -1    0    0    0    0  0.00000000000E+00  0.00000000000E+00  0.50000000000E+03  0.50000000000E+03  0.00000000000E+00 0.  1.
         11   -1    0    0    0    0 -0.00000000000E+00 -0.00000000000E+00 -0.50000000000E+03  0.50000000000E+03  0.00000000000E+00 0.  1.
        -11    1    1    2    0    0  0.70031128029E+01 -0.15003299040E+01  0.40190066069E+03  0.40196447062E+03  0.00000000000E+00 0.  1.
         11    1    1    2    0    0  0.41505510891E+00  0.76284728562E+01 -0.49641681928E+03  0.49647560296E+03  0.00000000000E+00 0.  1.
        -15    1    1    2    0    0 -0.10010731644E+02 -0.19251140040E+01  0.95635416462E+02  0.96193614252E+02  0.17770000000E+01 0.  1.
         15    1    1    2    0    0  0.25925637320E+01 -0.42030289482E+01 -0.11192578747E+01  0.53663121633E+01  0.17770000000E+01 0. -1.
</event>
<event>
 6    1  0.1599106E-003  0.5006092E+03  0.7546771E-02  0.9398448E-01
        -11   -1    0    0    0    0  0.00000000000E+00  0.00000000000E+00  0.50000000000E+03  0.50000000000E+03  0.00000000000E+00 0. -1.
         11   -1    0    0    0    0 -0.00000000000E+00 -0.00000000000E+00 -0.50000000000E+03  0.50000000000E+03  0.00000000000E+00 0.  1.
        -11    1    1    2    0    0 -0.29273222630E+00 -0.53450987363E+01  0.38926607570E+03  0.38930288139E+03  0.00000000000E+00 0. -1.
         11    1    1    2    0    0 -0.77357437765E+01  0.31864248438E+00 -0.49933077850E+03  0.49939079850E+03  0.00000000000E+00 0.  1.
        -15    1    1    2    0    0  0.16973926105E+00  0.50328761965E+00  0.75651787638E+02  0.75674518906E+02  0.17770000000E+01 0.  1.
         15    1    1    2    0    0  0.78587367418E+01  0.45231686323E+01  0.34412915169E+02  0.35631801204E+02  0.17770000000E+01 0.  1.
</event>
<event>
 6    1  0.1599106E-003  0.5089460E+03  0.7546771E-02  0.9380012E-01
        -11   -1    0    0    0    0  0.00000000000E+00  0.00000000000E+00  0.50000000000E+03  0.50000000000E+03  0.00000000000E+00 0. -1.
         11   -1    0    0    0    0 -0.00000000000E+00 -0.00000000000E+00 -0.50000000000E+03  0.50000000000E+03  0.00000000000E+00 0.  1.
        -11    1    1    2    0    0  0.55659097044E+01 -0.83719400003E+01  0.49095106329E+03  0.49105398407E+03  0.00000000000E+00 0. -1.
         11    1    1    2    0    0 -0.11831829028E+01  0.12870068655E+02 -0.44746477103E+03  0.44765138210E+03  0.00000000000E+00 0.  1.
        -15    1    1    2    0    0  0.69288156184E+01  0.17000053858E+02 -0.14692816481E+02  0.23580646772E+02  0.17770000000E+01 0.  1.
         15    1    1    2    0    0 -0.11311542420E+02 -0.21498182512E+02 -0.28793475779E+02  0.37713987056E+02  0.17770000000E+01 0. -1.
</event>
<event>
 6    1  0.1599106E-003  0.5104516E+03  0.7546771E-02  0.9376722E-01
        -11   -1    0    0    0    0  0.00000000000E+00  0.00000000000E+00  0.50000000000E+03  0.50000000000E+03  0.00000000000E+00 0. -1.
         11   -1    0    0    0    0 -0.00000000000E+00 -0.00000000000E+00 -0.50000000000E+03  0.50000000000E+03  0.00000000000E+00 0.  1.
        -11    1    1    2    0    0 -0.50654659265E+01 -0.10287554911E+02  0.48941405080E+03  0.48954836926E+03  0.00000000000E+00 0. -1.
         11    1    1    2    0    0 -0.15841619366E+02 -0.18742969498E+02 -0.41782203370E+03  0.41854212172E+03  0.00000000000E+00 0.  1.
        -15    1    1    2    0    0  0.15187914321E+02  0.21166154385E+02 -0.76528273589E+02  0.80860455232E+02  0.17770000000E+01 0. -1.
         15    1    1    2    0    0  0.57191709718E+01  0.78643700235E+01  0.49362564905E+01  0.11049053788E+02  0.17770000000E+01 0.  1.
</event>
<event>
 6    1  0.1888512E-003  0.5055225E+03  0.7546771E-02  0.9387537E-01
        -11   -1    0    0    0    0  0.00000000000E+00  0.00000000000E+00  0.50000000000E+03  0.50000000000E+03  0.00000000000E+00 0. -1.
         11   -1    0    0    0    0 -0.00000000000E+00 -0.00000000000E+00 -0.50000000000E+03  0.50000000000E+03  0.00000000000E+00 0. -1.
        -11    1    1    2    0    0  0.11140448435E+02 -0.10198124502E+02  0.49424679991E+03  0.49447751269E+03  0.00000000000E+00 0. -1.
         11    1    1    2    0    0 -0.23227587538E+02 -0.59508836161E+01 -0.28053839117E+03  0.28156122382E+03  0.00000000000E+00 0. -1.
        -15    1    1    2    0    0 -0.24415978474E+01  0.11002047043E+02 -0.18769116173E+01  0.11562307961E+02  0.17770000000E+01 0.  1.
         15    1    1    2    0    0  0.14528736950E+02  0.51469610751E+01 -0.21183149713E+03  0.21239895553E+03  0.17770000000E+01 0. -1.
</event>
<event>
 6    1  0.1599106E-003  0.5058427E+03  0.7546771E-02  0.9386830E-01
        -11   -1    0    0    0    0  0.00000000000E+00  0.00000000000E+00  0.50000000000E+03  0.50000000000E+03  0.00000000000E+00 0. -1.
         11   -1    0    0    0    0 -0.00000000000E+00 -0.00000000000E+00 -0.50000000000E+03  0.50000000000E+03  0.00000000000E+00 0. -1.
        -11    1    1    2    0    0 -0.70246676559E+01  0.80525085554E+01  0.49404175823E+03  0.49415731071E+03  0.00000000000E+00 0. -1.
         11    1    1    2    0    0 -0.81468532869E+01 -0.46711807267E+01 -0.45919571605E+03  0.45929173385E+03  0.00000000000E+00 0. -1.
        -15    1    1    2    0    0  0.31000056108E+00  0.26098847240E+01 -0.29345482759E+02  0.29516481599E+02  0.17770000000E+01 0. -1.
         15    1    1    2    0    0  0.14861520382E+02 -0.59912125527E+01 -0.55005594248E+01  0.17034473837E+02  0.17770000000E+01 0.  1.
</event>
<event>
 6    1  0.1599106E-003  0.5197224E+03  0.7546771E-02  0.9356729E-01
        -11   -1    0    0    0    0  0.00000000000E+00  0.00000000000E+00  0.50000000000E+03  0.50000000000E+03  0.00000000000E+00 0.  1.
         11   -1    0    0    0    0 -0.00000000000E+00 -0.00000000000E+00 -0.50000000000E+03  0.50000000000E+03  0.00000000000E+00 0.  1.
        -11    1    1    2    0    0  0.52044835328E+01  0.36184228980E+01  0.15215905680E+03  0.15229103125E+03  0.00000000000E+00 0.  1.
         11    1    1    2    0    0  0.63391958107E+02 -0.48317910963E+02 -0.47361736715E+03  0.48027759821E+03  0.00000000000E+00 0.  1.
        -15    1    1    2    0    0  0.49604718322E+02 -0.34807948786E+01  0.77644986110E+02  0.92220635488E+02  0.17770000000E+01 0. -1.
         15    1    1    2    0    0 -0.11820115996E+03  0.48180282943E+02  0.24381332424E+03  0.27521073505E+03  0.17770000000E+01 0.  1.
</event>
<event>
 6    1  0.1599106E-003  0.5006043E+03  0.7546771E-02  0.9398458E-01
        -11   -1    0    0    0    0  0.00000000000E+00  0.00000000000E+00  0.50000000000E+03  0.50000000000E+03  0.00000000000E+00 0. -1.
         11   -1    0    0    0    0 -0.00000000000E+00 -0.00000000000E+00 -0.50000000000E+03  0.50000000000E+03  0.00000000000E+00 0.  1.
        -11    1    1    2    0    0 -0.24201515028E+01  0.78724772148E+01  0.49932774040E+03  0.49939566014E+03  0.00000000000E+00 0. -1.
         11    1    1    2    0    0 -0.59110718632E+01  0.49600120428E+01 -0.28130318945E+03  0.28140900285E+03  0.00000000000E+00 0.  1.
        -15    1    1    2    0    0 -0.12436392903E+01  0.28316267241E+01 -0.58372451075E+02  0.58481326268E+02  0.17770000000E+01 0. -1.
         15    1    1    2    0    0  0.95748626563E+01 -0.15664115982E+02 -0.15965209988E+03  0.16071401074E+03  0.17770000000E+01 0.  1.
</event>
<event>
 6    1  0.1599106E-003  0.5141178E+03  0.7546771E-02  0.9368763E-01
        -11   -1    0    0    0    0  0.00000000000E+00  0.00000000000E+00  0.50000000000E+03  0.50000000000E+03  0.00000000000E+00 0.  1.
         11   -1    0    0    0    0 -0.00000000000E+00 -0.00000000000E+00 -0.50000000000E+03  0.50000000000E+03  0.00000000000E+00 0. -1.
        -11    1    1    2    0    0 -0.27823833774E+01  0.38182248903E+02  0.48437165446E+03  0.48588221354E+03  0.00000000000E+00 0.  1.
         11    1    1    2    0    0  0.62720167756E+01  0.49383707553E+01 -0.43777706744E+03  0.43784984467E+03  0.00000000000E+00 0. -1.
        -15    1    1    2    0    0 -0.91577543973E+01 -0.15690014163E+02 -0.44529549230E+02  0.48125663566E+02  0.17770000000E+01 0. -1.
         15    1    1    2    0    0  0.56681209990E+01 -0.27430605496E+02 -0.20650377892E+01  0.28142278223E+02  0.17770000000E+01 0.  1.
</event>
<event>
 6    1  0.1599106E-003  0.5002653E+03  0.7546771E-02  0.9399216E-01
        -11   -1    0    0    0    0  0.00000000000E+00  0.00000000000E+00  0.50000000000E+03  0.50000000000E+03  0.00000000000E+00 0. -1.
         11   -1    0    0    0    0 -0.00000000000E+00 -0.00000000000E+00 -0.50000000000E+03  0.50000000000E+03  0.00000000000E+00 0. -1.
        -11    1    1    2    0    0  0.28540581748E+01 -0.30981464415E+01  0.88777408606E+02  0.88877288652E+02  0.00000000000E+00 0. -1.
         11    1    1    2    0    0  0.12341827981E+02  0.16110915115E+01 -0.49957967342E+03  0.49973469604E+03  0.00000000000E+00 0. -1.
        -15    1    1    2    0    0 -0.85890993251E+01  0.65967971773E+01  0.31919666147E+03  0.31938527953E+03  0.17770000000E+01 0. -1.
         15    1    1    2    0    0 -0.66067868312E+01 -0.51097422473E+01  0.91605603345E+02  0.92002735781E+02  0.17770000000E+01 0.  1.
</event>
<event>
 6    1  0.1599106E-003  0.5036576E+03  0.7546771E-02  0.9391663E-01
        -11   -1    0    0    0    0  0.00000000000E+00  0.00000000000E+00  0.50000000000E+03  0.50000000000E+03  0.00000000000E+00 0. -1.
         11   -1    0    0    0    0 -0.00000000000E+00 -0.00000000000E+00 -0.50000000000E+03  0.50000000000E+03  0.00000000000E+00 0. -1.
        -11    1    1    2    0    0  0.14672832756E+02  0.46546494928E+01  0.40381344292E+03  0.40410673647E+03  0.00000000000E+00 0. -1.
         11    1    1    2    0    0  0.12922416108E+02  0.81964086837E+01 -0.49610648317E+03  0.49634243481E+03  0.00000000000E+00 0. -1.
        -15    1    1    2    0    0 -0.21464292208E+02 -0.87655151168E+01  0.36719998942E+02  0.43463388576E+02  0.17770000000E+01 0. -1.
         15    1    1    2    0    0 -0.61309566564E+01 -0.40855430598E+01  0.55573041311E+02  0.56087440137E+02  0.17770000000E+01 0.  1.
</event>
<event>
 6    1  0.1599106E-003  0.5244135E+03  0.7546771E-02  0.9346781E-01
        -11   -1    0    0    0    0  0.00000000000E+00  0.00000000000E+00  0.50000000000E+03  0.50000000000E+03  0.00000000000E+00 0. -1.
         11   -1    0    0    0    0 -0.00000000000E+00 -0.00000000000E+00 -0.50000000000E+03  0.50000000000E+03  0.00000000000E+00 0.  1.
        -11    1    1    2    0    0 -0.60423697294E+01 -0.45895347890E+01  0.47552597275E+03  0.47558650614E+03  0.00000000000E+00 0. -1.
         11    1    1    2    0    0  0.65799756482E+01  0.18962056725E+02 -0.45786182102E+03  0.45830154137E+03  0.00000000000E+00 0.  1.
        -15    1    1    2    0    0 -0.10077886911E+02 -0.10821190671E+02 -0.39358475140E+02  0.42082172787E+02  0.17770000000E+01 0.  1.
         15    1    1    2    0    0  0.95402809926E+01 -0.35513312652E+01  0.21694323414E+02  0.24029779703E+02  0.17770000000E+01 0. -1.
</event>
<event>
 6    1  0.1599106E-003  0.5118014E+03  0.7546771E-02  0.9373784E-01
        -11   -1    0    0    0    0  0.00000000000E+00  0.00000000000E+00  0.50000000000E+03  0.50000000000E+03  0.00000000000E+00 0. -1.
         11   -1    0    0    0    0 -0.00000000000E+00 -0.00000000000E+00 -0.50000000000E+03  0.50000000000E+03  0.00000000000E+00 0.  1.
        -11    1    1    2    0    0 -0.30750754977E+01 -0.54105879895E+01  0.45272812571E+03  0.45277089831E+03  0.00000000000E+00 0. -1.
         11    1    1    2    0    0  0.21792155212E+02 -0.38416084656E+01 -0.48769685999E+03  0.48819861043E+03  0.00000000000E+00 0.  1.
        -15    1    1    2    0    0 -0.23356380926E+02  0.47559291803E+01  0.49014561348E+00  0.23906847639E+02  0.17770000000E+01 0. -1.
         15    1    1    2    0    0  0.46393012114E+01  0.44962672748E+01  0.34478588671E+02  0.35123643616E+02  0.17770000000E+01 0. -1.
</event>
<event>
 6    1  0.1599106E-003  0.5100809E+03  0.7546771E-02  0.9377531E-01
        -11   -1    0    0    0    0  0.00000000000E+00  0.00000000000E+00  0.50000000000E+03  0.50000000000E+03  0.00000000000E+00 0. -1.
         11   -1    0    0    0    0 -0.00000000000E+00 -0.00000000000E+00 -0.50000000000E+03  0.50000000000E+03  0.00000000000E+00 0. -1.
        -11    1    1    2    0    0 -0.69078613156E+01 -0.23105129973E+01  0.30235860536E+03  0.30244633119E+03  0.00000000000E+00 0. -1.
         11    1    1    2    0    0 -0.22680524345E+02  0.42749372923E+00 -0.48939362284E+03  0.48991908211E+03  0.00000000000E+00 0. -1.
        -15    1    1    2    0    0  0.24277890703E+02 -0.18149337007E+01  0.43119320261E+01  0.24788312732E+02  0.17770000000E+01 0.  1.
         15    1    1    2    0    0  0.53104949574E+01  0.36979529687E+01  0.18272308546E+03  0.18284627397E+03  0.17770000000E+01 0. -1.
</event>
<event>
 6    1  0.1599106E-003  0.5119094E+03  0.7546771E-02  0.9373549E-01
        -11   -1    0    0    0    0  0.00000000000E+00  0.00000000000E+00  0.50000000000E+03  0.50000000000E+03  0.00000000000E+00 0.  1.
         11   -1    0    0    0    0 -0.00000000000E+00 -0.00000000000E+00 -0.50000000000E+03  0.50000000000E+03  0.00000000000E+00 0.  1.
        -11    1    1    2    0    0 -0.37194496753E+02 -0.69332984368E+01  0.48662191303E+03  0.48809055252E+03  0.00000000000E+00 0.  1.
         11    1    1    2    0    0 -0.86781207194E+01  0.56317877896E+01 -0.38887297044E+03  0.38901055763E+03  0.00000000000E+00 0.  1.
        -15    1    1    2    0    0 -0.90472512797E+01  0.12827570518E+02 -0.36713944724E+02  0.39968372338E+02  0.17770000000E+01 0.  1.
         15    1    1    2    0    0  0.54919868752E+02 -0.11526059871E+02 -0.61034997874E+02  0.82930517509E+02  0.17770000000E+01 0. -1.
</event>
<event>
 6    1  0.1599106E-003  0.5012546E+03  0.7546771E-02  0.9397007E-01
        -11   -1    0    0    0    0  0.00000000000E+00  0.00000000000E+00  0.50000000000E+03  0.50000000000E+03  0.00000000000E+00 0.  1.
         11   -1    0    0    0    0 -0.00000000000E+00 -0.00000000000E+00 -0.50000000000E+03  0.50000000000E+03  0.00000000000E+00 0.  1.
        -11    1    1    2    0    0 -0.54217543162E+01  0.12843748959E+02  0.49855055253E+03  0.49874543681E+03  0.00000000000E+00 0.  1.
         11    1    1    2    0    0  0.23454027745E+01 -0.57205288312E+01 -0.41195137695E+03  0.41199776982E+03  0.00000000000E+00 0.  1.
        -15    1    1    2    0    0 -0.40924322396E+01  0.22571956395E+01 -0.61479997441E+01  0.79245544761E+01  0.17770000000E+01 0.  1.
         15    1    1    2    0    0  0.71687837812E+01 -0.93804157676E+01 -0.80451175835E+02  0.81332238892E+02  0.17770000000E+01 0. -1.
</event>
<event>
 6    1  0.1599106E-003  0.5073335E+03  0.7546771E-02  0.9383548E-01
        -11   -1    0    0    0    0  0.00000000000E+00  0.00000000000E+00  0.50000000000E+03  0.50000000000E+03  0.00000000000E+00 0.  1.
         11   -1    0    0    0    0 -0.00000000000E+00 -0.00000000000E+00 -0.50000000000E+03  0.50000000000E+03  0.00000000000E+00 0. -1.
        -11    1    1    2    0    0 -0.56810028188E+01 -0.41941358533E+01  0.49261589028E+03  0.49266649970E+03  0.00000000000E+00 0.  1.
         11    1    1    2    0    0 -0.18930981717E+02  0.57215574786E+01 -0.40818758860E+03  0.40866639913E+03  0.00000000000E+00 0. -1.
        -15    1    1    2    0    0 -0.19366661513E+01  0.55141929388E+01  0.31447430476E+01  0.68705267180E+01  0.17770000000E+01 0. -1.
         15    1    1    2    0    0  0.26548650687E+02 -0.70416145640E+01 -0.87573044730E+02  0.91796574452E+02  0.17770000000E+01 0.  1.
</event>
<event>
 6    1  0.1599106E-003  0.4252022E+03  0.7546771E-02  0.9584734E-01
        -11   -1    0    0    0    0  0.00000000000E+00  0.00000000000E+00  0.50000000000E+03  0.50000000000E+03  0.00000000000E+00 0.  1.
         11   -1    0    0    0    0 -0.00000000000E+00 -0.00000000000E+00 -0.50000000000E+03  0.50000000000E+03  0.00000000000E+00 0. -1.
        -11    1    1    2    0    0 -0.54620164746E+01  0.93907522556E+01  0.42798818850E+03  0.42812604376E+03  0.00000000000E+00 0.  1.
         11    1    1    2    0    0  0.67361213763E+02  0.39926802743E+02 -0.41874470917E+03  0.42600330299E+03  0.00000000000E+00 0. -1.
        -15    1    1    2    0    0 -0.13665977840E+02 -0.56969399856E+02 -0.53931923415E+02  0.79649743016E+02  0.17770000000E+01 0.  1.
         15    1    1    2    0    0 -0.48233219449E+02  0.76518448568E+01  0.44688444088E+02  0.66220910233E+02  0.17770000000E+01 0. -1.
</event>
<event>
 6    1  0.1599106E-003  0.5019906E+03  0.7546771E-02  0.9395367E-01
        -11   -1    0    0    0    0  0.00000000000E+00  0.00000000000E+00  0.50000000000E+03  0.50000000000E+03  0.00000000000E+00 0.  1.
         11   -1    0    0    0    0 -0.00000000000E+00 -0.00000000000E+00 -0.50000000000E+03  0.50000000000E+03  0.00000000000E+00 0. -1.
        -11    1    1    2    0    0 -0.37212917112E+01  0.64179897017E+01  0.22861274433E+03  0.22873308785E+03  0.00000000000E+00 0.  1.
         11    1    1    2    0    0 -0.27763329163E+02  0.89762251026E+00 -0.49723414216E+03  0.49800943797E+03  0.00000000000E+00 0. -1.
        -15    1    1    2    0    0  0.15625747746E+02  0.22030137704E+01  0.22840040208E+03  0.22895178240E+03  0.17770000000E+01 0.  1.
         15    1    1    2    0    0  0.15858873129E+02 -0.95186259824E+01  0.40220995744E+02  0.44305691792E+02  0.17770000000E+01 0. -1.
</event>
<event>
 6    1  0.1599106E-003  0.4827592E+03  0.7546771E-02  0.9439236E-01
        -11   -1    0    0    0    0  0.00000000000E+00  0.00000000000E+00  0.50000000000E+03  0.50000000000E+03  0.00000000000E+00 0. -1.
         11   -1    0    0    0    0 -0.00000000000E+00 -0.00000000000E+00 -0.50000000000E+03  0.50000000000E+03  0.00000000000E+00 0.  1.
        -11    1    1    2    0    0  0.93746045705E+01 -0.41924809613E+00  0.47769558903E+03  0.47778775075E+03  0.00000000000E+00 0. -1.
         11    1    1    2    0    0 -0.26039263468E+02 -0.11495617819E+02 -0.48716347718E+03  0.48799430937E+03  0.00000000000E+00 0.  1.
        -15    1    1    2    0    0  0.66033324346E+01  0.18089008545E+02  0.60141682479E+00  0.19347755958E+02  0.17770000000E+01 0.  1.
         15    1    1    2    0    0  0.10061326463E+02 -0.61741426300E+01  0.88664713254E+01  0.14870183932E+02  0.17770000000E+01 0. -1.
</event>
<event>
 6    1  0.1599106E-003  0.5169787E+03  0.7546771E-02  0.9362600E-01
        -11   -1    0    0    0    0  0.00000000000E+00  0.00000000000E+00  0.50000000000E+03  0.50000000000E+03  0.00000000000E+00 0.  1.
         11   -1    0    0    0    0 -0.00000000000E+00 -0.00000000000E+00 -0.50000000000E+03  0.50000000000E+03  0.00000000000E+00 0. -1.
        -11    1    1    2    0    0 -0.48785995721E+01  0.21364835092E+02  0.45645001301E+03  0.45697578852E+03  0.00000000000E+00 0.  1.
         11    1    1    2    0    0  0.54557180201E+01  0.48961998611E+01 -0.48296567481E+03  0.48302130458E+03  0.00000000000E+00 0. -1.
        -15    1    1    2    0    0  0.78491362614E+01 -0.13221936819E+02 -0.11248072822E+02  0.19133881585E+02  0.17770000000E+01 0. -1.
         15    1    1    2    0    0 -0.84262547094E+01 -0.13039098134E+02  0.37763734621E+02  0.40869025314E+02  0.17770000000E+01 0.  1.
</event>
<event>
 6    1  0.1599106E-003  0.5008528E+03  0.7546771E-02  0.9397903E-01
        -11   -1    0    0    0    0  0.00000000000E+00  0.00000000000E+00  0.50000000000E+03  0.50000000000E+03  0.00000000000E+00 0. -1.
         11   -1    0    0    0    0 -0.00000000000E+00 -0.00000000000E+00 -0.50000000000E+03  0.50000000000E+03  0.00000000000E+00 0. -1.
        -11    1    1    2    0    0  0.10960226351E+02  0.38957726585E+01  0.39352803002E+03  0.39369990350E+03  0.00000000000E+00 0. -1.
         11    1    1    2    0    0  0.13989188545E+01 -0.69448189941E+01 -0.49909689040E+03  0.49914716617E+03  0.00000000000E+00 0. -1.
        -15    1    1    2    0    0 -0.75124578433E+01 -0.43435163601E+01  0.64539824627E+02  0.65144837471E+02  0.17770000000E+01 0.  1.
         15    1    1    2    0    0 -0.48466873625E+01  0.73925626957E+01  0.41029035760E+02  0.42008092864E+02  0.17770000000E+01 0. -1.
</event>
<event>
 6    1  0.1599106E-003  0.5014750E+03  0.7546771E-02  0.9396515E-01
        -11   -1    0    0    0    0  0.00000000000E+00  0.00000000000E+00  0.50000000000E+03  0.50000000000E+03  0.00000000000E+00 0. -1.
         11   -1    0    0    0    0 -0.00000000000E+00 -0.00000000000E+00 -0.50000000000E+03  0.50000000000E+03  0.00000000000E+00 0. -1.
        -11    1    1    2    0    0 -0.43695219003E+01 -0.71045955133E+01  0.44101435281E+03  0.44109321847E+03  0.00000000000E+00 0. -1.
         11    1    1    2    0    0 -0.12977653670E+01  0.85011251584E+01 -0.49845084266E+03  0.49852502031E+03  0.00000000000E+00 0. -1.
        -15    1    1    2    0    0 -0.20913821419E+01  0.40737071596E+01  0.41186138290E+02  0.41478002429E+02  0.17770000000E+01 0. -1.
         15    1    1    2    0    0  0.77586694092E+01 -0.54702368048E+01  0.16250351558E+02  0.18903758792E+02  0.17770000000E+01 0.  1.
</event>
<event>
 6    1  0.1599106E-003  0.5041770E+03  0.7546771E-02  0.9390512E-01
        -11   -1    0    0    0    0  0.00000000000E+00  0.00000000000E+00  0.50000000000E+03  0.50000000000E+03  0.00000000000E+00 0.  1.
         11   -1    0    0    0    0 -0.00000000000E+00 -0.00000000000E+00 -0.50000000000E+03  0.50000000000E+03  0.00000000000E+00 0.  1.
        -11    1    1    2    0    0 -0.56068334683E+01  0.43054795798E+01  0.46309930194E+03  0.46315325454E+03  0.00000000000E+00 0.  1.
         11    1    1    2    0    0  0.59501098107E+01 -0.10742495662E+02 -0.49567088150E+03  0.49582298029E+03  0.00000000000E+00 0.  1.
        -15    1    1    2    0    0 -0.54296488905E+01  0.87630738980E+01  0.30100256962E+01  0.10885335774E+02  0.17770000000E+01 0.  1.
         15    1    1    2    0    0  0.50863725481E+01 -0.23260578157E+01  0.29561553864E+02  0.30138429397E+02  0.17770000000E+01 0. -1.
</event>
<event>
 6    1  0.1599106E-003  0.5002434E+03  0.7546771E-02  0.9399265E-01
        -11   -1    0    0    0    0  0.00000000000E+00  0.00000000000E+00  0.50000000000E+03  0.50000000000E+03  0.00000000000E+00 0. -1.
         11   -1    0    0    0    0 -0.00000000000E+00 -0.00000000000E+00 -0.50000000000E+03  0.50000000000E+03  0.00000000000E+00 0. -1.
        -11    1    1    2    0    0  0.34304242461E+00 -0.37745789489E+00  0.33232239293E+02  0.33236153222E+02  0.00000000000E+00 0. -1.
         11    1    1    2    0    0  0.23453566923E+01  0.16668917763E+02 -0.49947303678E+03  0.49975660875E+03  0.00000000000E+00 0. -1.
        -15    1    1    2    0    0  0.60948406478E+01 -0.33724106009E+01  0.55237312984E+02  0.55703130168E+02  0.17770000000E+01 0.  1.
         15    1    1    2    0    0 -0.87832397647E+01 -0.12919049268E+02  0.41100348451E+03  0.41130410786E+03  0.17770000000E+01 0. -1.
</event>
<event>
 6    1  0.1599106E-003  0.5053003E+03  0.7546771E-02  0.9388027E-01
        -11   -1    0    0    0    0  0.00000000000E+00  0.00000000000E+00  0.50000000000E+03  0.50000000000E+03  0.00000000000E+00 0. -1.
         11   -1    0    0    0    0 -0.00000000000E+00 -0.00000000000E+00 -0.50000000000E+03  0.50000000000E+03  0.00000000000E+00 0. -1.
        -11    1    1    2    0    0  0.57045107410E+01 -0.39646472393E+01  0.45097261005E+03  0.45102611330E+03  0.00000000000E+00 0. -1.
         11    1    1    2    0    0  0.11853595576E+02 -0.10654211457E+01 -0.49455654155E+03  0.49469972270E+03  0.00000000000E+00 0. -1.
        -15    1    1    2    0    0  0.27309101843E+01  0.71670587916E+01  0.26375261037E+02  0.27525201651E+02  0.17770000000E+01 0. -1.
         15    1    1    2    0    0 -0.20289016501E+02 -0.21369904066E+01  0.17208670463E+02  0.26748962348E+02  0.17770000000E+01 0.  1.
</event>
<event>
 6    1  0.1599106E-003  0.5010564E+03  0.7546771E-02  0.9397449E-01
        -11   -1    0    0    0    0  0.00000000000E+00  0.00000000000E+00  0.50000000000E+03  0.50000000000E+03  0.00000000000E+00 0. -1.
         11   -1    0    0    0    0 -0.00000000000E+00 -0.00000000000E+00 -0.50000000000E+03  0.50000000000E+03  0.00000000000E+00 0. -1.
        -11    1    1    2    0    0  0.27647954415E+01  0.22136443079E+01  0.25790700507E+03  0.25793132338E+03  0.00000000000E+00 0. -1.
         11    1    1    2    0    0 -0.10176397077E+02 -0.40663624908E+01 -0.49882319588E+03  0.49894355904E+03  0.00000000000E+00 0. -1.
        -15    1    1    2    0    0 -0.43794786993E+01 -0.85690112645E+01  0.17721088525E+03  0.17748088170E+03  0.17770000000E+01 0.  1.
         15    1    1    2    0    0  0.11791080335E+02  0.10421729447E+02  0.63705305552E+02  0.65644235882E+02  0.17770000000E+01 0. -1.
</event>
<event>
 6    1  0.1599106E-003  0.5073349E+03  0.7546771E-02  0.9383545E-01
        -11   -1    0    0    0    0  0.00000000000E+00  0.00000000000E+00  0.50000000000E+03  0.50000000000E+03  0.00000000000E+00 0.  1.
         11   -1    0    0    0    0 -0.00000000000E+00 -0.00000000000E+00 -0.50000000000E+03  0.50000000000E+03  0.00000000000E+00 0.  1.
        -11    1    1    2    0    0  0.19524298260E+02 -0.42936877841E+01  0.26864918636E+03  0.26939194366E+03  0.00000000000E+00 0.  1.
         11    1    1    2    0    0 -0.62856322513E+01  0.20765710836E+02 -0.49218710328E+03  0.49266506732E+03  0.00000000000E+00 0.  1.
        -15    1    1    2    0    0 -0.35285424308E+02 -0.36935026095E+02  0.13075219612E+03  0.14038714984E+03  0.17770000000E+01 0. -1.
         15    1    1    2    0    0  0.22046758299E+02  0.20463003043E+02  0.92785720800E+02  0.97555839182E+02  0.17770000000E+01 0.  1.
</event>
<event>
 6    1  0.1599106E-003  0.5033142E+03  0.7546771E-02  0.9392424E-01
        -11   -1    0    0    0    0  0.00000000000E+00  0.00000000000E+00  0.50000000000E+03  0.50000000000E+03  0.00000000000E+00 0.  1.
         11   -1    0    0    0    0 -0.00000000000E+00 -0.00000000000E+00 -0.50000000000E+03  0.50000000000E+03  0.00000000000E+00 0.  1.
        -11    1    1    2    0    0 -0.65241530759E+00  0.51716190014E+01  0.27003559813E+03  0.27008590401E+03  0.00000000000E+00 0.  1.
         11    1    1    2    0    0  0.84679725190E+01  0.22217928472E+02 -0.49611632667E+03  0.49668576836E+03  0.00000000000E+00 0.  1.
        -15    1    1    2    0    0 -0.74183067388E+01  0.73871474786E+00  0.17263604704E+03  0.17280607466E+03  0.17770000000E+01 0. -1.
         15    1    1    2    0    0 -0.39725047264E+00 -0.28128262221E+02  0.53444681500E+02  0.60422252963E+02  0.17770000000E+01 0.  1.
</event>
<event>
 6    1  0.1599106E-003  0.5094673E+03  0.7546771E-02  0.9378872E-01
        -11   -1    0    0    0    0  0.00000000000E+00  0.00000000000E+00  0.50000000000E+03  0.50000000000E+03  0.00000000000E+00 0. -1.
         11   -1    0    0    0    0 -0.00000000000E+00 -0.00000000000E+00 -0.50000000000E+03  0.50000000000E+03  0.00000000000E+00 0. -1.
        -11    1    1    2    0    0  0.69911892348E+01  0.60277111841E+01  0.46546577098E+03  0.46555729398E+03  0.00000000000E+00 0. -1.
         11    1    1    2    0    0 -0.18740657164E+01 -0.78866872040E+01 -0.49046573965E+03  0.49053272442E+03  0.00000000000E+00 0. -1.
        -15    1    1    2    0    0 -0.81237573197E+00  0.51063603766E+01 -0.84045493357E+01  0.10026417564E+02  0.17770000000E+01 0. -1.
         15    1    1    2    0    0 -0.43047477865E+01 -0.32473843567E+01  0.33404518011E+02  0.33883564028E+02  0.17770000000E+01 0.  1.
</event>
<event>
 6    1  0.1599106E-003  0.5031290E+03  0.7546771E-02  0.9392835E-01
        -11   -1    0    0    0    0  0.00000000000E+00  0.00000000000E+00  0.50000000000E+03  0.50000000000E+03  0.00000000000E+00 0.  1.
         11   -1    0    0    0    0 -0.00000000000E+00 -0.00000000000E+00 -0.50000000000E+03  0.50000000000E+03  0.00000000000E+00 0.  1.
        -11    1    1    2    0    0 -0.55852441459E+01  0.69606135631E+01  0.47905060337E+03  0.47913372421E+03  0.00000000000E+00 0.  1.
         11    1    1    2    0    0  0.10565612606E+02 -0.12649035241E+01 -0.49675703327E+03  0.49687099156E+03  0.00000000000E+00 0.  1.
        -15    1    1    2    0    0  0.32449401369E+01 -0.48473141524E+01  0.12896590661E+02  0.14265548383E+02  0.17770000000E+01 0.  1.
         15    1    1    2    0    0 -0.82253085968E+01 -0.84839588657E+00  0.48098392404E+01  0.97297358449E+01  0.17770000000E+01 0. -1.
</event>
<event>
 6    1  0.1599106E-003  0.4875671E+03  0.7546771E-02  0.9428067E-01
        -11   -1    0    0    0    0  0.00000000000E+00  0.00000000000E+00  0.50000000000E+03  0.50000000000E+03  0.00000000000E+00 0.  1.
         11   -1    0    0    0    0 -0.00000000000E+00 -0.00000000000E+00 -0.50000000000E+03  0.50000000000E+03  0.00000000000E+00 0.  1.
        -11    1    1    2    0    0 -0.16659363920E+01  0.10858603707E+02  0.48573119775E+03  0.48585541171E+03  0.00000000000E+00 0.  1.
         11    1    1    2    0    0  0.72515478013E+01  0.31434742169E+01 -0.48933817851E+03  0.48940200175E+03  0.00000000000E+00 0.  1.
        -15    1    1    2    0    0 -0.95949459381E+01 -0.49736494383E+01 -0.44993959788E+01  0.11840712371E+02  0.17770000000E+01 0.  1.
         15    1    1    2    0    0  0.40093345288E+01 -0.90284284859E+01  0.81063767380E+01  0.12901874170E+02  0.17770000000E+01 0.  1.
</event>
<event>
 6    1  0.1599106E-003  0.5093329E+03  0.7546771E-02  0.9379165E-01
        -11   -1    0    0    0    0  0.00000000000E+00  0.00000000000E+00  0.50000000000E+03  0.50000000000E+03  0.00000000000E+00 0.  1.
         11   -1    0    0    0    0 -0.00000000000E+00 -0.00000000000E+00 -0.50000000000E+03  0.50000000000E+03  0.00000000000E+00 0. -1.
        -11    1    1    2    0    0 -0.37099406800E+01 -0.23466026250E+02  0.49009158556E+03  0.49066707683E+03  0.00000000000E+00 0.  1.
         11    1    1    2    0    0  0.25266263223E+01  0.11712828348E+02 -0.39728594285E+03  0.39746659555E+03  0.00000000000E+00 0. -1.
        -15    1    1    2    0    0 -0.60432168327E+01 -0.10405531258E+02 -0.86913016445E+02  0.87760046189E+02  0.17770000000E+01 0. -1.
         15    1    1    2    0    0  0.72265311904E+01  0.22158729160E+02 -0.58926262669E+01  0.24106281430E+02  0.17770000000E+01 0. -1.
</event>
<event>
 6    1  0.1599106E-003  0.5032863E+03  0.7546771E-02  0.9392486E-01
        -11   -1    0    0    0    0  0.00000000000E+00  0.00000000000E+00  0.50000000000E+03  0.50000000000E+03  0.00000000000E+00 0. -1.
         11   -1    0    0    0    0 -0.00000000000E+00 -0.00000000000E+00 -0.50000000000E+03  0.50000000000E+03  0.00000000000E+00 0. -1.
        -11    1    1    2    0    0  0.44065349536E+01 -0.79597599546E+01  0.38248703764E+03  0.38259522905E+03  0.00000000000E+00 0. -1.
         11    1    1    2    0    0 -0.66043354770E+00 -0.16676004509E+02 -0.49643325159E+03  0.49671369881E+03  0.00000000000E+00 0. -1.
        -15    1    1    2    0    0  0.91139989692E+01  0.22247332202E+02  0.91769305291E+02  0.94882937823E+02  0.17770000000E+01 0. -1.
         15    1    1    2    0    0 -0.12860100375E+02  0.23884322616E+01  0.22176908657E+02  0.25808134316E+02  0.17770000000E+01 0.  1.
</event>
<event>
 6    1  0.1599106E-003  0.5028181E+03  0.7546771E-02  0.9393526E-01
        -11   -1    0    0    0    0  0.00000000000E+00  0.00000000000E+00  0.50000000000E+03  0.50000000000E+03  0.00000000000E+00 0.  1.
         11   -1    0    0    0    0 -0.00000000000E+00 -0.00000000000E+00 -0.50000000000E+03  0.50000000000E+03  0.00000000000E+00 0.  1.
        -11    1    1    2    0    0 -0.17675411804E+01  0.14604476413E+02  0.49696425545E+03  0.49718194469E+03  0.00000000000E+00 0.  1.
         11    1    1    2    0    0 -0.10318911792E+01  0.67285558938E+01 -0.32961594646E+03  0.32968623026E+03  0.00000000000E+00 0.  1.
        -15    1    1    2    0    0  0.54526126905E+01 -0.21321041331E+02 -0.39564435859E+02  0.45308057809E+02  0.17770000000E+01 0. -1.
         15    1    1    2    0    0 -0.26531803309E+01 -0.11990975671E-01 -0.12778387313E+03  0.12782376724E+03  0.17770000000E+01 0.  1.
</event>
<event>
 6    1  0.1599106E-003  0.5107231E+03  0.7546771E-02  0.9376131E-01
        -11   -1    0    0    0    0  0.00000000000E+00  0.00000000000E+00  0.50000000000E+03  0.50000000000E+03  0.00000000000E+00 0. -1.
         11   -1    0    0    0    0 -0.00000000000E+00 -0.00000000000E+00 -0.50000000000E+03  0.50000000000E+03  0.00000000000E+00 0.  1.
        -11    1    1    2    0    0  0.11932168311E+02  0.65708894468E+01  0.48908724457E+03  0.48927690118E+03  0.00000000000E+00 0. -1.
         11    1    1    2    0    0  0.12165795190E+02 -0.17520757881E+02 -0.46390471596E+03  0.46439484172E+03  0.00000000000E+00 0.  1.
        -15    1    1    2    0    0 -0.30405290887E+01  0.16564341887E+02 -0.12528768530E+02  0.21065374650E+02  0.17770000000E+01 0. -1.
         15    1    1    2    0    0 -0.21057434413E+02 -0.56144734530E+01 -0.12653760084E+02  0.25262882446E+02  0.17770000000E+01 0.  1.
</event>
<event>
 6    1  0.1599106E-003  0.5172847E+03  0.7546771E-02  0.9361943E-01
        -11   -1    0    0    0    0  0.00000000000E+00  0.00000000000E+00  0.50000000000E+03  0.50000000000E+03  0.00000000000E+00 0. -1.
         11   -1    0    0    0    0 -0.00000000000E+00 -0.00000000000E+00 -0.50000000000E+03  0.50000000000E+03  0.00000000000E+00 0. -1.
        -11    1    1    2    0    0  0.37637255403E+00 -0.68740422982E+01  0.43525178919E+03  0.43530623026E+03  0.00000000000E+00 0. -1.
         11    1    1    2    0    0  0.93576699919E+01 -0.78324035619E+01 -0.48256099952E+03  0.48271526886E+03  0.00000000000E+00 0. -1.
        -15    1    1    2    0    0 -0.51862943335E+01  0.13383235468E+02 -0.14196028458E+02  0.20265576564E+02  0.17770000000E+01 0.  1.
         15    1    1    2    0    0 -0.45477482124E+01  0.13232103916E+01  0.61505238789E+02  0.61712924311E+02  0.17770000000E+01 0. -1.
</event>
<event>
 6    1  0.1599106E-003  0.5009727E+03  0.7546771E-02  0.9397636E-01
        -11   -1    0    0    0    0  0.00000000000E+00  0.00000000000E+00  0.50000000000E+03  0.50000000000E+03  0.00000000000E+00 0. -1.
         11   -1    0    0    0    0 -0.00000000000E+00 -0.00000000000E+00 -0.50000000000E+03  0.50000000000E+03  0.00000000000E+00 0. -1.
        -11    1    1    2    0    0 -0.64041550833E+01  0.36876983009E+01  0.45160737727E+03  0.45166783760E+03  0.00000000000E+00 0. -1.
         11    1    1    2    0    0  0.23137659098E+01 -0.89429329411E+01 -0.49894183772E+03  0.49902734092E+03  0.00000000000E+00 0. -1.
        -15    1    1    2    0    0  0.72168109832E+01  0.40681408384E+01  0.20165621067E+02  0.21873320111E+02  0.17770000000E+01 0.  1.
         15    1    1    2    0    0 -0.31264218097E+01  0.11870938017E+01  0.27168839380E+02  0.27431501368E+02  0.17770000000E+01 0. -1.
</event>
<event>
 6    1  0.1599106E-003  0.5056654E+03  0.7546771E-02  0.9387221E-01
        -11   -1    0    0    0    0  0.00000000000E+00  0.00000000000E+00  0.50000000000E+03  0.50000000000E+03  0.00000000000E+00 0. -1.
         11   -1    0    0    0    0 -0.00000000000E+00 -0.00000000000E+00 -0.50000000000E+03  0.50000000000E+03  0.00000000000E+00 0.  1.
        -11    1    1    2    0    0  0.16765600959E+01 -0.52738995383E+01  0.40212594177E+03  0.40216401867E+03  0.00000000000E+00 0. -1.
         11    1    1    2    0    0  0.11278548316E+02  0.29344932537E+00 -0.49420584112E+03  0.49433460850E+03  0.00000000000E+00 0.  1.
        -15    1    1    2    0    0  0.17034677542E+00 -0.31524679222E+01 -0.44442859878E+01  0.57338014411E+01  0.17770000000E+01 0.  1.
         15    1    1    2    0    0 -0.13125455188E+02  0.81329181352E+01  0.96524185336E+02  0.97767571388E+02  0.17770000000E+01 0. -1.
</event>
<event>
 6    1  0.1599106E-003  0.5116048E+03  0.7546771E-02  0.9374211E-01
        -11   -1    0    0    0    0  0.00000000000E+00  0.00000000000E+00  0.50000000000E+03  0.50000000000E+03  0.00000000000E+00 0.  1.
         11   -1    0    0    0    0 -0.00000000000E+00 -0.00000000000E+00 -0.50000000000E+03  0.50000000000E+03  0.00000000000E+00 0. -1.
        -11    1    1    2    0    0 -0.87725290899E+01  0.98990272389E+01  0.48821608174E+03  0.48839521954E+03  0.00000000000E+00 0.  1.
         11    1    1    2    0    0 -0.23777342105E+02 -0.95655673310E+01 -0.45305133956E+03  0.45377569168E+03  0.00000000000E+00 0. -1.
        -15    1    1    2    0    0  0.31277234108E+02  0.56047492096E+01 -0.39071412813E+02  0.50392575002E+02  0.17770000000E+01 0. -1.
         15    1    1    2    0    0  0.12726370875E+01 -0.59382091174E+01  0.39066706406E+01  0.74365137782E+01  0.17770000000E+01 0.  1.
</event>
<event>
 6    1  0.1599106E-003  0.5040588E+03  0.7546771E-02  0.9390773E-01
        -11   -1    0    0    0    0  0.00000000000E+00  0.00000000000E+00  0.50000000000E+03  0.50000000000E+03  0.00000000000E+00 0. -1.
         11   -1    0    0    0    0 -0.00000000000E+00 -0.00000000000E+00 -0.50000000000E+03  0.50000000000E+03  0.00000000000E+00 0. -1.
        -11    1    1    2    0    0  0.22214733334E+00  0.23982889883E+01  0.60851142447E+02  0.60898790436E+02  0.00000000000E+00 0. -1.
         11    1    1    2    0    0  0.69590903688E+01 -0.76511066500E+01 -0.49583333422E+03  0.49594118976E+03  0.00000000000E+00 0. -1.
        -15    1    1    2    0    0 -0.63371000728E+00 -0.44718059855E+01 -0.25394748911E+01  0.54777092720E+01  0.17770000000E+01 0.  1.
         15    1    1    2    0    0 -0.65475276949E+01  0.97246236472E+01  0.43752166667E+03  0.43768231053E+03  0.17770000000E+01 0. -1.
</event>
<event>
 6    1  0.1599106E-003  0.5711447E+03  0.7546771E-02  0.9253333E-01
        -11   -1    0    0    0    0  0.00000000000E+00  0.00000000000E+00  0.50000000000E+03  0.50000000000E+03  0.00000000000E+00 0.  1.
         11   -1    0    0    0    0 -0.00000000000E+00 -0.00000000000E+00 -0.50000000000E+03  0.50000000000E+03  0.00000000000E+00 0.  1.
        -11    1    1    2    0    0  0.48867417301E+01  0.21248913649E+02  0.39853163626E+03  0.39912762580E+03  0.00000000000E+00 0.  1.
         11    1    1    2    0    0 -0.59705563842E+01  0.13369261715E+01 -0.42881164903E+03  0.42885529641E+03  0.00000000000E+00 0.  1.
        -15    1    1    2    0    0 -0.61957907113E+01  0.36407766920E+02 -0.56074551655E+02  0.67167152589E+02  0.17770000000E+01 0.  1.
         15    1    1    2    0    0  0.72796053654E+01 -0.58993606741E+02  0.86354564421E+02  0.10484992521E+03  0.17770000000E+01 0. -1.
</event>
<event>
 6    1  0.1599106E-003  0.5121324E+03  0.7546771E-02  0.9373064E-01
        -11   -1    0    0    0    0  0.00000000000E+00  0.00000000000E+00  0.50000000000E+03  0.50000000000E+03  0.00000000000E+00 0.  1.
         11   -1    0    0    0    0 -0.00000000000E+00 -0.00000000000E+00 -0.50000000000E+03  0.50000000000E+03  0.00000000000E+00 0.  1.
        -11    1    1    2    0    0  0.11007084388E+02 -0.10208710979E+00  0.48774341887E+03  0.48786761419E+03  0.00000000000E+00 0.  1.
         11    1    1    2    0    0 -0.10424484413E+02  0.45436627948E+01 -0.29744360919E+03  0.29766090673E+03  0.00000000000E+00 0.  1.
        -15    1    1    2    0    0  0.11989534620E+02  0.14527100571E+02 -0.19070568289E+03  0.19164185557E+03  0.17770000000E+01 0.  1.
         15    1    1    2    0    0 -0.12572134594E+02 -0.18968676256E+02  0.40587321199E+00  0.22829623502E+02  0.17770000000E+01 0. -1.
</event>
<event>
 6    1  0.1599106E-003  0.5010117E+03  0.7546771E-02  0.9397549E-01
        -11   -1    0    0    0    0  0.00000000000E+00  0.00000000000E+00  0.50000000000E+03  0.50000000000E+03  0.00000000000E+00 0. -1.
         11   -1    0    0    0    0 -0.00000000000E+00 -0.00000000000E+00 -0.50000000000E+03  0.50000000000E+03  0.00000000000E+00 0.  1.
        -11    1    1    2    0    0  0.10499123015E+02  0.42782130562E+01  0.43975388945E+03  0.43990000907E+03  0.00000000000E+00 0. -1.
         11    1    1    2    0    0 -0.84213752071E+01 -0.61601550913E+00 -0.49891687676E+03  0.49898832547E+03  0.00000000000E+00 0.  1.
        -15    1    1    2    0    0  0.48783110679E+01  0.11961945237E+01  0.35760238673E+02  0.36154960921E+02  0.17770000000E+01 0.  1.
         15    1    1    2    0    0 -0.69560588761E+01 -0.48583920708E+01  0.23402748640E+02  0.24956704540E+02  0.17770000000E+01 0. -1.
</event>
<event>
 6    1  0.1599106E-003  0.5018549E+03  0.7546771E-02  0.9395669E-01
        -11   -1    0    0    0    0  0.00000000000E+00  0.00000000000E+00  0.50000000000E+03  0.50000000000E+03  0.00000000000E+00 0.  1.
         11   -1    0    0    0    0 -0.00000000000E+00 -0.00000000000E+00 -0.50000000000E+03  0.50000000000E+03  0.00000000000E+00 0.  1.
        -11    1    1    2    0    0  0.89429681874E+00 -0.78247221952E+01  0.49808279131E+03  0.49814505221E+03  0.00000000000E+00 0.  1.
         11    1    1    2    0    0  0.10362921402E+02 -0.32524406739E+01 -0.45441336760E+03  0.45454315215E+03  0.00000000000E+00 0.  1.
        -15    1    1    2    0    0 -0.85840475195E+01  0.11588914734E+02 -0.39028639063E+02  0.41645902711E+02  0.17770000000E+01 0. -1.
         15    1    1    2    0    0 -0.26731707011E+01 -0.51175186487E+00 -0.46407846428E+01  0.56658929278E+01  0.17770000000E+01 0.  1.
</event>
<event>
 6    1  0.1599106E-003  0.5062368E+03  0.7546771E-02  0.9385962E-01
        -11   -1    0    0    0    0  0.00000000000E+00  0.00000000000E+00  0.50000000000E+03  0.50000000000E+03  0.00000000000E+00 0. -1.
         11   -1    0    0    0    0 -0.00000000000E+00 -0.00000000000E+00 -0.50000000000E+03  0.50000000000E+03  0.00000000000E+00 0.  1.
        -11    1    1    2    0    0 -0.59557256508E+01  0.41219586233E+01  0.49371010324E+03  0.49376322995E+03  0.00000000000E+00 0. -1.
         11    1    1    2    0    0  0.77994557653E+01  0.32035174178E+01 -0.39410746526E+03  0.39419765119E+03  0.00000000000E+00 0.  1.
        -15    1    1    2    0    0  0.94110298871E+00 -0.88950267280E+00  0.58960450629E+01  0.62926914929E+01  0.17770000000E+01 0. -1.
         15    1    1    2    0    0 -0.27848331033E+01 -0.64359733683E+01 -0.10549868304E+03  0.10574642737E+03  0.17770000000E+01 0.  1.
</event>
<event>
 6    1  0.1599106E-003  0.4934211E+03  0.7546771E-02  0.9414652E-01
        -11   -1    0    0    0    0  0.00000000000E+00  0.00000000000E+00  0.50000000000E+03  0.50000000000E+03  0.00000000000E+00 0.  1.
         11   -1    0    0    0    0 -0.00000000000E+00 -0.00000000000E+00 -0.50000000000E+03  0.50000000000E+03  0.00000000000E+00 0. -1.
        -11    1    1    2    0    0 -0.22327603544E+01  0.73908419384E+01  0.49876399256E+03  0.49882374647E+03  0.00000000000E+00 0.  1.
         11    1    1    2    0    0  0.12557266744E+01  0.17793825982E+01 -0.15018367196E+02  0.15175454034E+02  0.00000000000E+00 0. -1.
        -15    1    1    2    0    0 -0.11341975879E+02  0.31038357840E+01 -0.41145115486E+03  0.41162298864E+03  0.17770000000E+01 0. -1.
         15    1    1    2    0    0  0.12319009559E+02 -0.12274060321E+02 -0.72294470511E+02  0.74377810862E+02  0.17770000000E+01 0.  1.
</event>
<event>
 6    1  0.1599106E-003  0.5001034E+03  0.7546771E-02  0.9399578E-01
        -11   -1    0    0    0    0  0.00000000000E+00  0.00000000000E+00  0.50000000000E+03  0.50000000000E+03  0.00000000000E+00 0. -1.
         11   -1    0    0    0    0 -0.00000000000E+00 -0.00000000000E+00 -0.50000000000E+03  0.50000000000E+03  0.00000000000E+00 0. -1.
        -11    1    1    2    0    0 -0.11265136430E+01  0.85446178055E+01  0.49982231351E+03  0.49989661392E+03  0.00000000000E+00 0. -1.
         11    1    1    2    0    0 -0.97566449399E+00 -0.24438740977E+01 -0.34426929896E+02  0.34527350664E+02  0.00000000000E+00 0. -1.
        -15    1    1    2    0    0  0.20677456200E+01  0.47628922747E+00 -0.30011505331E+02  0.30138855397E+02  0.17770000000E+01 0. -1.
         15    1    1    2    0    0  0.34432516953E-01 -0.65770329353E+01 -0.43538387828E+03  0.43543718002E+03  0.17770000000E+01 0. -1.
</event>
<event>
 6    1  0.1599106E-003  0.5003614E+03  0.7546771E-02  0.9399001E-01
        -11   -1    0    0    0    0  0.00000000000E+00  0.00000000000E+00  0.50000000000E+03  0.50000000000E+03  0.00000000000E+00 0.  1.
         11   -1    0    0    0    0 -0.00000000000E+00 -0.00000000000E+00 -0.50000000000E+03  0.50000000000E+03  0.00000000000E+00 0. -1.
        -11    1    1    2    0    0 -0.79608193272E+01 -0.90242031030E+01  0.49949362710E+03  0.49963856376E+03  0.00000000000E+00 0.  1.
         11    1    1    2    0    0  0.29798862707E+01  0.18075628125E+01 -0.60188818831E+02  0.60289641878E+02  0.00000000000E+00 0. -1.
        -15    1    1    2    0    0  0.18215016041E+00 -0.53301625737E+01 -0.31149213364E+03  0.31154285557E+03  0.17770000000E+01 0. -1.
         15    1    1    2    0    0  0.47987828961E+01  0.12546802864E+02 -0.12781267463E+03  0.12852893879E+03  0.17770000000E+01 0.  1.
</event>
<event>
 6    1  0.1599106E-003  0.5013163E+03  0.7546771E-02  0.9396869E-01
        -11   -1    0    0    0    0  0.00000000000E+00  0.00000000000E+00  0.50000000000E+03  0.50000000000E+03  0.00000000000E+00 0. -1.
         11   -1    0    0    0    0 -0.00000000000E+00 -0.00000000000E+00 -0.50000000000E+03  0.50000000000E+03  0.00000000000E+00 0. -1.
        -11    1    1    2    0    0  0.11357523681E+02  0.20350546423E+01  0.49855018687E+03  0.49868369095E+03  0.00000000000E+00 0. -1.
         11    1    1    2    0    0 -0.66164667222E+01 -0.60001054780E+01 -0.44597943723E+03  0.44606887061E+03  0.00000000000E+00 0. -1.
        -15    1    1    2    0    0 -0.85708810306E+01  0.70310885939E+00 -0.15668187161E+02  0.17961185418E+02  0.17770000000E+01 0. -1.
         15    1    1    2    0    0  0.38298240715E+01  0.32619419763E+01 -0.36902562477E+02  0.37286253019E+02  0.17770000000E+01 0.  1.
</event>
<event>
 6    1  0.1599106E-003  0.5009378E+03  0.7546771E-02  0.9397714E-01
        -11   -1    0    0    0    0  0.00000000000E+00  0.00000000000E+00  0.50000000000E+03  0.50000000000E+03  0.00000000000E+00 0.  1.
         11   -1    0    0    0    0 -0.00000000000E+00 -0.00000000000E+00 -0.50000000000E+03  0.50000000000E+03  0.00000000000E+00 0.  1.
        -11    1    1    2    0    0  0.21917845789E+01 -0.51301196203E+01  0.39907982175E+03  0.39911881210E+03  0.00000000000E+00 0.  1.
         11    1    1    2    0    0  0.24747581898E+01  0.67369614480E+01 -0.49901054080E+03  0.49906215135E+03  0.00000000000E+00 0.  1.
        -15    1    1    2    0    0 -0.57412201761E+01 -0.45704700655E+01  0.96619121622E+02  0.96913689424E+02  0.17770000000E+01 0.  1.
         15    1    1    2    0    0  0.10746774075E+01  0.29636282378E+01  0.33115974310E+01  0.49053471240E+01  0.17770000000E+01 0.  1.
</event>
<event>
 6    1  0.1599106E-003  0.5146921E+03  0.7546771E-02  0.9367522E-01
        -11   -1    0    0    0    0  0.00000000000E+00  0.00000000000E+00  0.50000000000E+03  0.50000000000E+03  0.00000000000E+00 0. -1.
         11   -1    0    0    0    0 -0.00000000000E+00 -0.00000000000E+00 -0.50000000000E+03  0.50000000000E+03  0.00000000000E+00 0.  1.
        -11    1    1    2    0    0  0.88124605964E+01  0.10996572991E+02  0.46823969397E+03  0.46845169985E+03  0.00000000000E+00 0. -1.
         11    1    1    2    0    0 -0.47307507843E+01 -0.12673980121E+02 -0.48511933933E+03  0.48530792613E+03  0.00000000000E+00 0.  1.
        -15    1    1    2    0    0  0.10828564400E+02  0.21513379607E+01 -0.10288397540E+02  0.15195226716E+02  0.17770000000E+01 0.  1.
         15    1    1    2    0    0 -0.14910274212E+02 -0.47393083073E+00  0.27168042893E+02  0.31045147305E+02  0.17770000000E+01 0. -1.
</event>
<event>
 6    1  0.1599106E-003  0.5251819E+03  0.7546771E-02  0.9345162E-01
        -11   -1    0    0    0    0  0.00000000000E+00  0.00000000000E+00  0.50000000000E+03  0.50000000000E+03  0.00000000000E+00 0.  1.
         11   -1    0    0    0    0 -0.00000000000E+00 -0.00000000000E+00 -0.50000000000E+03  0.50000000000E+03  0.00000000000E+00 0.  1.
        -11    1    1    2    0    0  0.81595527759E+01  0.20782260001E+02  0.42392675101E+03  0.42451427638E+03  0.00000000000E+00 0.  1.
         11    1    1    2    0    0  0.28181372778E+02  0.28406089812E+02 -0.47312906861E+03  0.47481808229E+03  0.00000000000E+00 0.  1.
        -15    1    1    2    0    0 -0.17470109954E+02  0.11706227423E+02  0.24342897878E+02  0.32217617981E+02  0.17770000000E+01 0. -1.
         15    1    1    2    0    0 -0.18870815600E+02 -0.60894577237E+02  0.24859419718E+02  0.68450023345E+02  0.17770000000E+01 0.  1.
</event>
<event>
 6    1  0.1599106E-003  0.5308974E+03  0.7546771E-02  0.9333210E-01
        -11   -1    0    0    0    0  0.00000000000E+00  0.00000000000E+00  0.50000000000E+03  0.50000000000E+03  0.00000000000E+00 0.  1.
         11   -1    0    0    0    0 -0.00000000000E+00 -0.00000000000E+00 -0.50000000000E+03  0.50000000000E+03  0.00000000000E+00 0.  1.
        -11    1    1    2    0    0  0.73342814909E+01  0.14785874300E+02  0.46881218091E+03  0.46910262708E+03  0.00000000000E+00 0.  1.
         11    1    1    2    0    0 -0.11822657002E+01 -0.18504680299E+02 -0.37372706404E+03  0.37418677066E+03  0.00000000000E+00 0.  1.
        -15    1    1    2    0    0  0.10378156959E+02 -0.24904328933E+00  0.29310955653E+02  0.31145754361E+02  0.17770000000E+01 0. -1.
         15    1    1    2    0    0 -0.16530172750E+02  0.39678492886E+01 -0.12439607252E+03  0.12556484790E+03  0.17770000000E+01 0.  1.
</event>
<event>
 6    1  0.1599106E-003  0.5040862E+03  0.7546771E-02  0.9390713E-01
        -11   -1    0    0    0    0  0.00000000000E+00  0.00000000000E+00  0.50000000000E+03  0.50000000000E+03  0.00000000000E+00 0.  1.
         11   -1    0    0    0    0 -0.00000000000E+00 -0.00000000000E+00 -0.50000000000E+03  0.50000000000E+03  0.00000000000E+00 0. -1.
        -11    1    1    2    0    0 -0.11340114554E+02  0.25706118165E+02  0.49511724141E+03  0.49591378832E+03  0.00000000000E+00 0.  1.
         11    1    1    2    0    0 -0.20998375978E+02 -0.43555590166E+01 -0.22875777519E+03  0.22976079387E+03  0.00000000000E+00 0. -1.
        -15    1    1    2    0    0  0.17892222578E+02 -0.19301852869E+02 -0.25328008216E+03  0.25465005576E+03  0.17770000000E+01 0. -1.
         15    1    1    2    0    0  0.14446267954E+02 -0.20487062792E+01 -0.13079384059E+02  0.19675362044E+02  0.17770000000E+01 0.  1.
</event>
<event>
 6    1  0.1599106E-003  0.5037920E+03  0.7546771E-02  0.9391365E-01
        -11   -1    0    0    0    0  0.00000000000E+00  0.00000000000E+00  0.50000000000E+03  0.50000000000E+03  0.00000000000E+00 0.  1.
         11   -1    0    0    0    0 -0.00000000000E+00 -0.00000000000E+00 -0.50000000000E+03  0.50000000000E+03  0.00000000000E+00 0.  1.
        -11    1    1    2    0    0 -0.28770617049E+01 -0.62645010536E+01  0.49616010606E+03  0.49620799299E+03  0.00000000000E+00 0.  1.
         11    1    1    2    0    0 -0.67126817480E+01  0.16167656743E+01 -0.35879847453E+03  0.35886490404E+03  0.00000000000E+00 0.  1.
        -15    1    1    2    0    0  0.19703462651E+00  0.93749406730E+01 -0.28036484346E+01  0.99471859745E+01  0.17770000000E+01 0.  1.
         15    1    1    2    0    0  0.93927088264E+01 -0.47272052936E+01 -0.13455798309E+03  0.13497991699E+03  0.17770000000E+01 0.  1.
</event>
<event>
 6    1  0.1599106E-003  0.5023289E+03  0.7546771E-02  0.9394614E-01
        -11   -1    0    0    0    0  0.00000000000E+00  0.00000000000E+00  0.50000000000E+03  0.50000000000E+03  0.00000000000E+00 0.  1.
         11   -1    0    0    0    0 -0.00000000000E+00 -0.00000000000E+00 -0.50000000000E+03  0.50000000000E+03  0.00000000000E+00 0. -1.
        -11    1    1    2    0    0 -0.68244454620E+01 -0.31923857566E+01  0.49761409969E+03  0.49767113298E+03  0.00000000000E+00 0.  1.
         11    1    1    2    0    0  0.64508247562E+01  0.27379681099E+01 -0.46195529945E+03  0.46200845046E+03  0.00000000000E+00 0. -1.
        -15    1    1    2    0    0 -0.66924922156E+01 -0.14555576110E+01 -0.30200543975E+02  0.31018360456E+02  0.17770000000E+01 0. -1.
         15    1    1    2    0    0  0.70661129215E+01  0.19099752576E+01 -0.54582562706E+01  0.93020561071E+01  0.17770000000E+01 0. -1.
</event>
<event>
 6    1  0.1599106E-003  0.5001798E+03  0.7546771E-02  0.9399408E-01
        -11   -1    0    0    0    0  0.00000000000E+00  0.00000000000E+00  0.50000000000E+03  0.50000000000E+03  0.00000000000E+00 0.  1.
         11   -1    0    0    0    0 -0.00000000000E+00 -0.00000000000E+00 -0.50000000000E+03  0.50000000000E+03  0.00000000000E+00 0. -1.
        -11    1    1    2    0    0  0.17156312404E+01 -0.77192014414E+01  0.49975768367E+03  0.49982023953E+03  0.00000000000E+00 0.  1.
         11    1    1    2    0    0 -0.78067437571E+01  0.15756115160E+01 -0.34923231131E+03  0.34932310983E+03  0.00000000000E+00 0. -1.
        -15    1    1    2    0    0  0.39515244220E+01  0.54159025097E+01 -0.92220725956E+02  0.92481168732E+02  0.17770000000E+01 0.  1.
         15    1    1    2    0    0  0.21395880947E+01  0.72768741581E+00 -0.58304646402E+02  0.58375481902E+02  0.17770000000E+01 0. -1.
</event>
<event>
 6    1  0.1599106E-003  0.5012636E+03  0.7546771E-02  0.9396987E-01
        -11   -1    0    0    0    0  0.00000000000E+00  0.00000000000E+00  0.50000000000E+03  0.50000000000E+03  0.00000000000E+00 0.  1.
         11   -1    0    0    0    0 -0.00000000000E+00 -0.00000000000E+00 -0.50000000000E+03  0.50000000000E+03  0.00000000000E+00 0.  1.
        -11    1    1    2    0    0 -0.53667350897E+01  0.47124421108E+01  0.49868525842E+03  0.49873639923E+03  0.00000000000E+00 0.  1.
         11    1    1    2    0    0  0.10872959459E+02 -0.11786052377E+02 -0.25815941666E+03  0.25865694789E+03  0.00000000000E+00 0.  1.
        -15    1    1    2    0    0 -0.82169198005E+00 -0.36056984454E+01 -0.38164090666E+01  0.56034762561E+01  0.17770000000E+01 0. -1.
         15    1    1    2    0    0 -0.46845323888E+01  0.10679308712E+02 -0.23670943269E+03  0.23700317662E+03  0.17770000000E+01 0.  1.
</event>
<event>
 6    1  0.1599106E-003  0.4894849E+03  0.7546771E-02  0.9423650E-01
        -11   -1    0    0    0    0  0.00000000000E+00  0.00000000000E+00  0.50000000000E+03  0.50000000000E+03  0.00000000000E+00 0.  1.
         11   -1    0    0    0    0 -0.00000000000E+00 -0.00000000000E+00 -0.50000000000E+03  0.50000000000E+03  0.00000000000E+00 0. -1.
        -11    1    1    2    0    0 -0.75569673102E+01  0.20107052498E+01  0.49027547125E+03  0.49033783089E+03  0.00000000000E+00 0.  1.
         11    1    1    2    0    0  0.11191704265E+01  0.67042986572E+01 -0.48864610273E+03  0.48869337409E+03  0.00000000000E+00 0. -1.
        -15    1    1    2    0    0  0.19117608939E+01 -0.42848871574E+01 -0.94805163174E+01  0.10726276442E+02  0.17770000000E+01 0. -1.
         15    1    1    2    0    0  0.45260359898E+01 -0.44301167495E+01  0.78511477920E+01  0.10242518579E+02  0.17770000000E+01 0.  1.
</event>
<event>
 6    1  0.1599106E-003  0.5003410E+03  0.7546771E-02  0.9399047E-01
        -11   -1    0    0    0    0  0.00000000000E+00  0.00000000000E+00  0.50000000000E+03  0.50000000000E+03  0.00000000000E+00 0.  1.
         11   -1    0    0    0    0 -0.00000000000E+00 -0.00000000000E+00 -0.50000000000E+03  0.50000000000E+03  0.00000000000E+00 0. -1.
        -11    1    1    2    0    0  0.28257251442E+01 -0.34221936649E+01  0.25790868893E+03  0.25794687041E+03  0.00000000000E+00 0.  1.
         11    1    1    2    0    0 -0.11002381484E+01  0.85486073454E+01 -0.49958467783E+03  0.49965902327E+03  0.00000000000E+00 0. -1.
        -15    1    1    2    0    0  0.22101198334E+01 -0.68115946938E+01  0.40619184617E+02  0.41283875059E+02  0.17770000000E+01 0.  1.
         15    1    1    2    0    0 -0.39356068291E+01  0.16851810133E+01  0.20105680429E+03  0.20111023126E+03  0.17770000000E+01 0. -1.
</event>
<event>
 6    1  0.1599106E-003  0.4904899E+03  0.7546771E-02  0.9421344E-01
        -11   -1    0    0    0    0  0.00000000000E+00  0.00000000000E+00  0.50000000000E+03  0.50000000000E+03  0.00000000000E+00 0. -1.
         11   -1    0    0    0    0 -0.00000000000E+00 -0.00000000000E+00 -0.50000000000E+03  0.50000000000E+03  0.00000000000E+00 0.  1.
        -11    1    1    2    0    0  0.14681476597E+01 -0.14687718832E+02  0.49005612173E+03  0.49027837703E+03  0.00000000000E+00 0. -1.
         11    1    1    2    0    0 -0.22266682982E+01  0.72926330055E+01 -0.49067057938E+03  0.49072982181E+03  0.00000000000E+00 0.  1.
        -15    1    1    2    0    0 -0.36909312733E+01  0.92671966763E+01  0.58106534846E+01  0.11680125462E+02  0.17770000000E+01 0.  1.
         15    1    1    2    0    0  0.44494519118E+01 -0.18721108493E+01 -0.51961958313E+01  0.73116756947E+01  0.17770000000E+01 0. -1.
</event>
<event>
 6    1  0.1599106E-003  0.5009219E+03  0.7546771E-02  0.9397749E-01
        -11   -1    0    0    0    0  0.00000000000E+00  0.00000000000E+00  0.50000000000E+03  0.50000000000E+03  0.00000000000E+00 0. -1.
         11   -1    0    0    0    0 -0.00000000000E+00 -0.00000000000E+00 -0.50000000000E+03  0.50000000000E+03  0.00000000000E+00 0.  1.
        -11    1    1    2    0    0 -0.10390293535E+02  0.12455873906E+02  0.49881443077E+03  0.49907809343E+03  0.00000000000E+00 0. -1.
         11    1    1    2    0    0  0.30008931353E+01  0.45862628284E+01 -0.31551006663E+03  0.31555766717E+03  0.00000000000E+00 0.  1.
        -15    1    1    2    0    0 -0.43008315817E+01  0.12307760903E+01 -0.56578760790E+02  0.56783147708E+02  0.17770000000E+01 0. -1.
         15    1    1    2    0    0  0.11690231981E+02 -0.18272912824E+02 -0.12672560335E+03  0.12858109169E+03  0.17770000000E+01 0.  1.
</event>
<event>
 6    1  0.1599106E-003  0.5223463E+03  0.7546771E-02  0.9351151E-01
        -11   -1    0    0    0    0  0.00000000000E+00  0.00000000000E+00  0.50000000000E+03  0.50000000000E+03  0.00000000000E+00 0.  1.
         11   -1    0    0    0    0 -0.00000000000E+00 -0.00000000000E+00 -0.50000000000E+03  0.50000000000E+03  0.00000000000E+00 0. -1.
        -11    1    1    2    0    0  0.18223445141E+02 -0.17730197006E+01  0.47730265747E+03  0.47765370759E+03  0.00000000000E+00 0.  1.
         11    1    1    2    0    0  0.57832227046E+01 -0.22695666484E+01 -0.43139955917E+03  0.43144429102E+03  0.00000000000E+00 0. -1.
        -15    1    1    2    0    0  0.15510623007E+02 -0.68438467216E+00 -0.48522976708E+02  0.50977296967E+02  0.17770000000E+01 0. -1.
         15    1    1    2    0    0 -0.39517290852E+02  0.47269710212E+01  0.26198784164E+01  0.39924704423E+02  0.17770000000E+01 0.  1.
</event>
<event>
 6    1  0.1599106E-003  0.5183337E+03  0.7546771E-02  0.9359696E-01
        -11   -1    0    0    0    0  0.00000000000E+00  0.00000000000E+00  0.50000000000E+03  0.50000000000E+03  0.00000000000E+00 0.  1.
         11   -1    0    0    0    0 -0.00000000000E+00 -0.00000000000E+00 -0.50000000000E+03  0.50000000000E+03  0.00000000000E+00 0.  1.
        -11    1    1    2    0    0  0.48634107965E+01 -0.49204376603E+01  0.48161657348E+03  0.48166626135E+03  0.00000000000E+00 0.  1.
         11    1    1    2    0    0  0.16132496143E+02 -0.79087673117E+01 -0.44861831028E+03  0.44897794417E+03  0.00000000000E+00 0.  1.
        -15    1    1    2    0    0 -0.72867176532E+01  0.17189204886E+02 -0.46130176878E+02  0.49796746546E+02  0.17770000000E+01 0. -1.
         15    1    1    2    0    0 -0.13709189286E+02 -0.43599999137E+01  0.13131913676E+02  0.19559047930E+02  0.17770000000E+01 0.  1.
</event>
<event>
 6    1  0.1599106E-003  0.5055223E+03  0.7546771E-02  0.9387537E-01
        -11   -1    0    0    0    0  0.00000000000E+00  0.00000000000E+00  0.50000000000E+03  0.50000000000E+03  0.00000000000E+00 0.  1.
         11   -1    0    0    0    0 -0.00000000000E+00 -0.00000000000E+00 -0.50000000000E+03  0.50000000000E+03  0.00000000000E+00 0.  1.
        -11    1    1    2    0    0 -0.37746669565E+01 -0.61401975214E+00  0.21789625550E+03  0.21792981276E+03  0.00000000000E+00 0.  1.
         11    1    1    2    0    0  0.89320110955E+01  0.51168455939E+01 -0.49437057782E+03  0.49447773574E+03  0.00000000000E+00 0.  1.
        -15    1    1    2    0    0  0.12299912308E+02  0.30495378310E+02  0.18772280019E+03  0.19058925305E+03  0.17770000000E+01 0. -1.
         15    1    1    2    0    0 -0.17457256447E+02 -0.34998204152E+02  0.88751522140E+02  0.97003198440E+02  0.17770000000E+01 0.  1.
</event>
<event>
 6    1  0.1599106E-003  0.5025559E+03  0.7546771E-02  0.9394109E-01
        -11   -1    0    0    0    0  0.00000000000E+00  0.00000000000E+00  0.50000000000E+03  0.50000000000E+03  0.00000000000E+00 0. -1.
         11   -1    0    0    0    0 -0.00000000000E+00 -0.00000000000E+00 -0.50000000000E+03  0.50000000000E+03  0.00000000000E+00 0. -1.
        -11    1    1    2    0    0  0.66239725374E+01  0.37376405336E+01  0.39872769002E+03  0.39880022287E+03  0.00000000000E+00 0. -1.
         11    1    1    2    0    0  0.44535805703E+01 -0.61420481588E+01 -0.49738627122E+03  0.49744412946E+03  0.00000000000E+00 0. -1.
        -15    1    1    2    0    0 -0.52016447681E+01 -0.22784507749E+01  0.95044706806E+02  0.95230785291E+02  0.17770000000E+01 0. -1.
         15    1    1    2    0    0 -0.58759083396E+01  0.46828584001E+01  0.36138743914E+01  0.85248623876E+01  0.17770000000E+01 0.  1.
</event>
<event>
 6    1  0.1599106E-003  0.5000829E+03  0.7546771E-02  0.9399624E-01
        -11   -1    0    0    0    0  0.00000000000E+00  0.00000000000E+00  0.50000000000E+03  0.50000000000E+03  0.00000000000E+00 0. -1.
         11   -1    0    0    0    0 -0.00000000000E+00 -0.00000000000E+00 -0.50000000000E+03  0.50000000000E+03  0.00000000000E+00 0.  1.
        -11    1    1    2    0    0  0.11072968758E+01  0.10997722218E+02  0.49979492963E+03  0.49991714082E+03  0.00000000000E+00 0. -1.
         11    1    1    2    0    0  0.16938827890E+01 -0.79777906332E+00 -0.20487583388E+02  0.20572961951E+02  0.00000000000E+00 0.  1.
        -15    1    1    2    0    0 -0.44849717322E+01 -0.30836189234E+01 -0.13660888279E+03  0.13672881285E+03  0.17770000000E+01 0.  1.
         15    1    1    2    0    0  0.16837920673E+01 -0.71163242314E+01 -0.34269846345E+03  0.34278108438E+03  0.17770000000E+01 0.  1.
</event>
<event>
 6    1  0.1599106E-003  0.5008351E+03  0.7546771E-02  0.9397943E-01
        -11   -1    0    0    0    0  0.00000000000E+00  0.00000000000E+00  0.50000000000E+03  0.50000000000E+03  0.00000000000E+00 0. -1.
         11   -1    0    0    0    0 -0.00000000000E+00 -0.00000000000E+00 -0.50000000000E+03  0.50000000000E+03  0.00000000000E+00 0. -1.
        -11    1    1    2    0    0  0.37688308058E+01  0.97758936610E+01  0.49905494508E+03  0.49916491302E+03  0.00000000000E+00 0. -1.
         11    1    1    2    0    0  0.52826114400E+01  0.44428299016E+01 -0.90435512553E+02  0.90698548235E+02  0.00000000000E+00 0. -1.
        -15    1    1    2    0    0 -0.13542617035E+02 -0.49181842715E+01 -0.36452033780E+03  0.36480930006E+03  0.17770000000E+01 0. -1.
         15    1    1    2    0    0  0.44911747896E+01 -0.93005392911E+01 -0.44099094729E+02  0.45327238687E+02  0.17770000000E+01 0.  1.
</event>
<event>
 6    1  0.1599106E-003  0.5080191E+03  0.7546771E-02  0.9382043E-01
        -11   -1    0    0    0    0  0.00000000000E+00  0.00000000000E+00  0.50000000000E+03  0.50000000000E+03  0.00000000000E+00 0.  1.
         11   -1    0    0    0    0 -0.00000000000E+00 -0.00000000000E+00 -0.50000000000E+03  0.50000000000E+03  0.00000000000E+00 0. -1.
        -11    1    1    2    0    0  0.10529737648E+02  0.44644352910E+01  0.49184789810E+03  0.49198085473E+03  0.00000000000E+00 0.  1.
         11    1    1    2    0    0 -0.68848223761E+01 -0.17505476450E+01 -0.46003709867E+03  0.46009194445E+03  0.00000000000E+00 0. -1.
        -15    1    1    2    0    0  0.12362462793E+02  0.68380260551E+00 -0.28518491256E+02  0.31140972124E+02  0.17770000000E+01 0.  1.
         15    1    1    2    0    0 -0.16007378065E+02 -0.33976902515E+01 -0.32923081738E+01  0.16786228691E+02  0.17770000000E+01 0.  1.
</event>
<event>
 6    1  0.1599106E-003  0.5129585E+03  0.7546771E-02  0.9371272E-01
        -11   -1    0    0    0    0  0.00000000000E+00  0.00000000000E+00  0.50000000000E+03  0.50000000000E+03  0.00000000000E+00 0. -1.
         11   -1    0    0    0    0 -0.00000000000E+00 -0.00000000000E+00 -0.50000000000E+03  0.50000000000E+03  0.00000000000E+00 0.  1.
        -11    1    1    2    0    0 -0.78281337162E+01  0.75378104125E+01  0.46187398819E+03  0.46200181735E+03  0.00000000000E+00 0. -1.
         11    1    1    2    0    0 -0.16078263280E+02 -0.81334896861E+01 -0.48670809135E+03  0.48704150788E+03  0.00000000000E+00 0.  1.
        -15    1    1    2    0    0  0.90976086168E+01  0.64305644381E+00 -0.96432552967E+01  0.13391419113E+02  0.17770000000E+01 0.  1.
         15    1    1    2    0    0  0.14808788379E+02 -0.47377170156E-01  0.34477358458E+02  0.37565255664E+02  0.17770000000E+01 0. -1.
</event>
<event>
 6    1  0.1599106E-003  0.5025476E+03  0.7546771E-02  0.9394127E-01
        -11   -1    0    0    0    0  0.00000000000E+00  0.00000000000E+00  0.50000000000E+03  0.50000000000E+03  0.00000000000E+00 0.  1.
         11   -1    0    0    0    0 -0.00000000000E+00 -0.00000000000E+00 -0.50000000000E+03  0.50000000000E+03  0.00000000000E+00 0. -1.
        -11    1    1    2    0    0  0.55670388774E+01 -0.63434573515E+01  0.49738083537E+03  0.49745243669E+03  0.00000000000E+00 0.  1.
         11    1    1    2    0    0 -0.93215922142E+01  0.10922420780E+00 -0.31715131074E+03  0.31728828834E+03  0.00000000000E+00 0. -1.
        -15    1    1    2    0    0 -0.28804064856E+01  0.93221712551E+01 -0.76749135268E+01  0.12540400515E+02  0.17770000000E+01 0.  1.
         15    1    1    2    0    0  0.66349598223E+01 -0.30879381114E+01 -0.17255461110E+03  0.17271887446E+03  0.17770000000E+01 0. -1.
</event>
<event>
 6    1  0.1599106E-003  0.5011636E+03  0.7546771E-02  0.9397210E-01
        -11   -1    0    0    0    0  0.00000000000E+00  0.00000000000E+00  0.50000000000E+03  0.50000000000E+03  0.00000000000E+00 0. -1.
         11   -1    0    0    0    0 -0.00000000000E+00 -0.00000000000E+00 -0.50000000000E+03  0.50000000000E+03  0.00000000000E+00 0. -1.
        -11    1    1    2    0    0 -0.71293977431E+01  0.34116687857E+01  0.40885868151E+03  0.40893506727E+03  0.00000000000E+00 0. -1.
         11    1    1    2    0    0 -0.79743011144E+01 -0.48527309124E+01 -0.49874903523E+03  0.49883638462E+03  0.00000000000E+00 0. -1.
        -15    1    1    2    0    0  0.37400544772E+01  0.97932562830E+00  0.60723439645E+02  0.60872333104E+02  0.17770000000E+01 0.  1.
         15    1    1    2    0    0  0.11363644380E+02  0.46173649846E+00  0.29166914077E+02  0.31356215013E+02  0.17770000000E+01 0. -1.
</event>
<event>
 6    1  0.1599106E-003  0.5314774E+03  0.7546771E-02  0.9332006E-01
        -11   -1    0    0    0    0  0.00000000000E+00  0.00000000000E+00  0.50000000000E+03  0.50000000000E+03  0.00000000000E+00 0.  1.
         11   -1    0    0    0    0 -0.00000000000E+00 -0.00000000000E+00 -0.50000000000E+03  0.50000000000E+03  0.00000000000E+00 0. -1.
        -11    1    1    2    0    0  0.19325258092E+01  0.14914925392E+02  0.36867466963E+03  0.36898130262E+03  0.00000000000E+00 0.  1.
         11    1    1    2    0    0 -0.85572445455E+01 -0.17480488230E+02 -0.46811813968E+03  0.46852255719E+03  0.00000000000E+00 0. -1.
        -15    1    1    2    0    0 -0.14321353903E+02 -0.18414581081E+02  0.12261481695E+03  0.12482687627E+03  0.17770000000E+01 0.  1.
         15    1    1    2    0    0  0.20946072639E+02  0.20980143919E+02 -0.23171346905E+02  0.37669263920E+02  0.17770000000E+01 0. -1.
</event>
<event>
 6    1  0.1599106E-003  0.5046417E+03  0.7546771E-02  0.9389483E-01
        -11   -1    0    0    0    0  0.00000000000E+00  0.00000000000E+00  0.50000000000E+03  0.50000000000E+03  0.00000000000E+00 0. -1.
         11   -1    0    0    0    0 -0.00000000000E+00 -0.00000000000E+00 -0.50000000000E+03  0.50000000000E+03  0.00000000000E+00 0.  1.
        -11    1    1    2    0    0 -0.11291015813E+02  0.96901641268E+01  0.36081516193E+03  0.36112181794E+03  0.00000000000E+00 0. -1.
         11    1    1    2    0    0  0.71100975709E+01  0.98280271105E+01 -0.49520974682E+03  0.49535829149E+03  0.00000000000E+00 0.  1.
        -15    1    1    2    0    0  0.86817622598E+01  0.50969068544E+01  0.44047377515E+01  0.11131527257E+02  0.17770000000E+01 0.  1.
         15    1    1    2    0    0 -0.45008440178E+01 -0.24615098092E+02  0.12998984714E+03  0.13238836331E+03  0.17770000000E+01 0. -1.
</event>
<event>
 6    1  0.1599106E-003  0.5017748E+03  0.7546771E-02  0.9395847E-01
        -11   -1    0    0    0    0  0.00000000000E+00  0.00000000000E+00  0.50000000000E+03  0.50000000000E+03  0.00000000000E+00 0.  1.
         11   -1    0    0    0    0 -0.00000000000E+00 -0.00000000000E+00 -0.50000000000E+03  0.50000000000E+03  0.00000000000E+00 0.  1.
        -11    1    1    2    0    0  0.15434453441E+02 -0.10134082607E+02  0.49788297680E+03  0.49822523076E+03  0.00000000000E+00 0.  1.
         11    1    1    2    0    0 -0.27012160014E+01  0.75523587025E+01 -0.38657405439E+03  0.38665725677E+03  0.00000000000E+00 0.  1.
        -15    1    1    2    0    0 -0.86754057421E+01 -0.81137399621E+01 -0.22031287831E+02  0.25092445347E+02  0.17770000000E+01 0. -1.
         15    1    1    2    0    0 -0.40578316978E+01  0.10695463866E+02 -0.89277634577E+02  0.90025067121E+02  0.17770000000E+01 0.  1.
</event>
<event>
 6    1  0.1599106E-003  0.5069381E+03  0.7546771E-02  0.9384418E-01
        -11   -1    0    0    0    0  0.00000000000E+00  0.00000000000E+00  0.50000000000E+03  0.50000000000E+03  0.00000000000E+00 0.  1.
         11   -1    0    0    0    0 -0.00000000000E+00 -0.00000000000E+00 -0.50000000000E+03  0.50000000000E+03  0.00000000000E+00 0.  1.
        -11    1    1    2    0    0 -0.74378415386E+01  0.90286911980E+01  0.49292315057E+03  0.49306193437E+03  0.00000000000E+00 0.  1.
         11    1    1    2    0    0 -0.12275029265E+02  0.78788899915E+01 -0.45042739793E+03  0.45066350424E+03  0.00000000000E+00 0.  1.
        -15    1    1    2    0    0 -0.44906499541E+01 -0.96410093979E+01 -0.77724087833E+01  0.13292218269E+02  0.17770000000E+01 0. -1.
         15    1    1    2    0    0  0.24203520758E+02 -0.72665717917E+01 -0.34723343862E+02  0.42982343127E+02  0.17770000000E+01 0.  1.
</event>
<event>
 6    1  0.1599106E-003  0.5089953E+03  0.7546771E-02  0.9379904E-01
        -11   -1    0    0    0    0  0.00000000000E+00  0.00000000000E+00  0.50000000000E+03  0.50000000000E+03  0.00000000000E+00 0. -1.
         11   -1    0    0    0    0 -0.00000000000E+00 -0.00000000000E+00 -0.50000000000E+03  0.50000000000E+03  0.00000000000E+00 0.  1.
        -11    1    1    2    0    0  0.33751373664E+01  0.82576214203E+01  0.49092370458E+03  0.49100474904E+03  0.00000000000E+00 0. -1.
         11    1    1    2    0    0 -0.34408482304E-01 -0.81848090369E+01 -0.47939049251E+03  0.47946035977E+03  0.00000000000E+00 0.  1.
        -15    1    1    2    0    0 -0.59494051734E+01 -0.69394406023E+01  0.55601101193E+01  0.10845451181E+02  0.17770000000E+01 0. -1.
         15    1    1    2    0    0  0.26086762893E+01  0.68666282189E+01 -0.17093322191E+02  0.18689440003E+02  0.17770000000E+01 0.  1.
</event>
<event>
 6    1  0.1599106E-003  0.5033918E+03  0.7546771E-02  0.9392252E-01
        -11   -1    0    0    0    0  0.00000000000E+00  0.00000000000E+00  0.50000000000E+03  0.50000000000E+03  0.00000000000E+00 0. -1.
         11   -1    0    0    0    0 -0.00000000000E+00 -0.00000000000E+00 -0.50000000000E+03  0.50000000000E+03  0.00000000000E+00 0.  1.
        -11    1    1    2    0    0 -0.27555465878E+00 -0.96374144385E+01  0.49651459137E+03  0.49660819076E+03  0.00000000000E+00 0. -1.
         11    1    1    2    0    0 -0.67694351966E+01  0.11677805043E+00 -0.47894946205E+03  0.47899731324E+03  0.00000000000E+00 0.  1.
        -15    1    1    2    0    0  0.99560981369E+01  0.76254582595E+01 -0.15373988301E+02  0.19919556950E+02  0.17770000000E+01 0. -1.
         15    1    1    2    0    0 -0.29111082815E+01  0.18951781286E+01 -0.21911410164E+01  0.44749390521E+01  0.17770000000E+01 0.  1.
</event>
<event>
 6    1  0.1599106E-003  0.5062371E+03  0.7546771E-02  0.9385961E-01
        -11   -1    0    0    0    0  0.00000000000E+00  0.00000000000E+00  0.50000000000E+03  0.50000000000E+03  0.00000000000E+00 0. -1.
         11   -1    0    0    0    0 -0.00000000000E+00 -0.00000000000E+00 -0.50000000000E+03  0.50000000000E+03  0.00000000000E+00 0. -1.
        -11    1    1    2    0    0  0.40670503645E+01  0.69491101546E+01  0.30945278363E+03  0.30955751700E+03  0.00000000000E+00 0. -1.
         11    1    1    2    0    0  0.11443518012E+02  0.32509907728E+00 -0.49363015584E+03  0.49376288899E+03  0.00000000000E+00 0. -1.
        -15    1    1    2    0    0 -0.62301663406E+01 -0.60519175468E+01  0.18663063930E+03  0.18684109273E+03  0.17770000000E+01 0.  1.
         15    1    1    2    0    0 -0.92804020355E+01 -0.12222916851E+01 -0.24532671000E+01  0.98385012766E+01  0.17770000000E+01 0. -1.
</event>
<event>
 6    1  0.1599106E-003  0.5019643E+03  0.7546771E-02  0.9395425E-01
        -11   -1    0    0    0    0  0.00000000000E+00  0.00000000000E+00  0.50000000000E+03  0.50000000000E+03  0.00000000000E+00 0.  1.
         11   -1    0    0    0    0 -0.00000000000E+00 -0.00000000000E+00 -0.50000000000E+03  0.50000000000E+03  0.00000000000E+00 0.  1.
        -11    1    1    2    0    0 -0.11445664452E+02 -0.98126321815E+01  0.24318857660E+03  0.24365544274E+03  0.00000000000E+00 0.  1.
         11    1    1    2    0    0 -0.10235625615E+02 -0.20749118134E+01 -0.49792614551E+03  0.49803566105E+03  0.00000000000E+00 0.  1.
        -15    1    1    2    0    0  0.31556465467E+01  0.12451140730E+02  0.28556129191E+02  0.31362385974E+02  0.17770000000E+01 0. -1.
         15    1    1    2    0    0  0.18525643520E+02 -0.56359673502E+00  0.22618143972E+03  0.22694651024E+03  0.17770000000E+01 0.  1.
</event>
<event>
 6    1  0.1599106E-003  0.5036230E+03  0.7546771E-02  0.9391739E-01
        -11   -1    0    0    0    0  0.00000000000E+00  0.00000000000E+00  0.50000000000E+03  0.50000000000E+03  0.00000000000E+00 0.  1.
         11   -1    0    0    0    0 -0.00000000000E+00 -0.00000000000E+00 -0.50000000000E+03  0.50000000000E+03  0.00000000000E+00 0.  1.
        -11    1    1    2    0    0  0.91075771371E+01 -0.12653351978E+02  0.44209960227E+03  0.44237440433E+03  0.00000000000E+00 0.  1.
         11    1    1    2    0    0  0.81394955566E+01  0.78217119812E+01 -0.49624864040E+03  0.49637701766E+03  0.00000000000E+00 0.  1.
        -15    1    1    2    0    0 -0.83487444965E+01  0.38263237959E+01  0.50593717741E+02  0.51451183585E+02  0.17770000000E+01 0.  1.
         15    1    1    2    0    0 -0.88983281973E+01  0.10053162005E+01  0.35553203865E+01  0.97973944200E+01  0.17770000000E+01 0. -1.
</event>
<event>
 6    1  0.1599106E-003  0.5047231E+03  0.7546771E-02  0.9389303E-01
        -11   -1    0    0    0    0  0.00000000000E+00  0.00000000000E+00  0.50000000000E+03  0.50000000000E+03  0.00000000000E+00 0. -1.
         11   -1    0    0    0    0 -0.00000000000E+00 -0.00000000000E+00 -0.50000000000E+03  0.50000000000E+03  0.00000000000E+00 0.  1.
        -11    1    1    2    0    0  0.18605588329E+02 -0.10201899829E+02  0.49482215203E+03  0.49527690115E+03  0.00000000000E+00 0. -1.
         11    1    1    2    0    0 -0.76917496732E+01 -0.71129221147E+00 -0.45390359357E+03  0.45396931747E+03  0.00000000000E+00 0.  1.
        -15    1    1    2    0    0 -0.86033802244E+01  0.55962500313E+01 -0.10974662387E+01  0.10473696904E+02  0.17770000000E+01 0.  1.
         15    1    1    2    0    0 -0.23104584310E+01  0.53169420095E+01 -0.39821092218E+02  0.40280084470E+02  0.17770000000E+01 0. -1.
</event>
<event>
 6    1  0.1599106E-003  0.5124062E+03  0.7546771E-02  0.9372470E-01
        -11   -1    0    0    0    0  0.00000000000E+00  0.00000000000E+00  0.50000000000E+03  0.50000000000E+03  0.00000000000E+00 0. -1.
         11   -1    0    0    0    0 -0.00000000000E+00 -0.00000000000E+00 -0.50000000000E+03  0.50000000000E+03  0.00000000000E+00 0.  1.
        -11    1    1    2    0    0  0.87881734053E+01  0.58800811292E+01  0.45896039537E+03  0.45908218422E+03  0.00000000000E+00 0. -1.
         11    1    1    2    0    0 -0.14119482586E+02 -0.51118617973E+01 -0.48736250511E+03  0.48759378821E+03  0.00000000000E+00 0.  1.
        -15    1    1    2    0    0  0.16102365180E+02  0.44669154337E+01 -0.52133507194E+01  0.17594779129E+02  0.17770000000E+01 0. -1.
         15    1    1    2    0    0 -0.10771055999E+02 -0.52351347656E+01  0.33615460457E+02  0.35729248440E+02  0.17770000000E+01 0. -1.
</event>
<event>
 6    1  0.1599106E-003  0.5024728E+03  0.7546771E-02  0.9394293E-01
        -11   -1    0    0    0    0  0.00000000000E+00  0.00000000000E+00  0.50000000000E+03  0.50000000000E+03  0.00000000000E+00 0. -1.
         11   -1    0    0    0    0 -0.00000000000E+00 -0.00000000000E+00 -0.50000000000E+03  0.50000000000E+03  0.00000000000E+00 0.  1.
        -11    1    1    2    0    0 -0.64724340620E+01 -0.32794881579E+01  0.49747424613E+03  0.49752715806E+03  0.00000000000E+00 0. -1.
         11    1    1    2    0    0 -0.53342910169E+01  0.37037373580E+01 -0.34539708201E+03  0.34545812567E+03  0.00000000000E+00 0.  1.
        -15    1    1    2    0    0  0.11066963312E+02  0.63215705711E+01 -0.15022446689E+02  0.19780585556E+02  0.17770000000E+01 0.  1.
         15    1    1    2    0    0  0.73976176727E+00 -0.67458197711E+01 -0.13705471744E+03  0.13723413071E+03  0.17770000000E+01 0. -1.
</event>
<event>
 6    1  0.1599106E-003  0.5012643E+03  0.7546771E-02  0.9396985E-01
        -11   -1    0    0    0    0  0.00000000000E+00  0.00000000000E+00  0.50000000000E+03  0.50000000000E+03  0.00000000000E+00 0. -1.
         11   -1    0    0    0    0 -0.00000000000E+00 -0.00000000000E+00 -0.50000000000E+03  0.50000000000E+03  0.00000000000E+00 0. -1.
        -11    1    1    2    0    0  0.67406924834E+01 -0.70610026861E+00  0.49868966955E+03  0.49873572363E+03  0.00000000000E+00 0. -1.
         11    1    1    2    0    0 -0.14051503685E+02 -0.10614828390E+02 -0.31687709749E+03  0.31736605719E+03  0.00000000000E+00 0. -1.
        -15    1    1    2    0    0  0.69709642557E+01  0.17881451608E+02 -0.10266494854E+03  0.10445855658E+03  0.17770000000E+01 0.  1.
         15    1    1    2    0    0  0.33984694595E+00 -0.65605229495E+01 -0.79147623516E+02  0.79439662603E+02  0.17770000000E+01 0. -1.
</event>
<event>
 6    1  0.1599106E-003  0.5043860E+03  0.7546771E-02  0.9390049E-01
        -11   -1    0    0    0    0  0.00000000000E+00  0.00000000000E+00  0.50000000000E+03  0.50000000000E+03  0.00000000000E+00 0. -1.
         11   -1    0    0    0    0 -0.00000000000E+00 -0.00000000000E+00 -0.50000000000E+03  0.50000000000E+03  0.00000000000E+00 0. -1.
        -11    1    1    2    0    0 -0.13826178402E+02  0.12957405765E+02  0.38947888098E+03  0.38993955468E+03  0.00000000000E+00 0. -1.
         11    1    1    2    0    0  0.14439501020E+02  0.86994723188E+01 -0.49532719503E+03  0.49561397291E+03  0.00000000000E+00 0. -1.
        -15    1    1    2    0    0  0.41705059536E+01 -0.28843544878E+02  0.99195523959E+02  0.10340335054E+03  0.17770000000E+01 0. -1.
         15    1    1    2    0    0 -0.47838285713E+01  0.71866667949E+01  0.66527900901E+01  0.11043121860E+02  0.17770000000E+01 0.  1.
</event>
<event>
 6    1  0.1599106E-003  0.5057369E+03  0.7546771E-02  0.9387064E-01
        -11   -1    0    0    0    0  0.00000000000E+00  0.00000000000E+00  0.50000000000E+03  0.50000000000E+03  0.00000000000E+00 0. -1.
         11   -1    0    0    0    0 -0.00000000000E+00 -0.00000000000E+00 -0.50000000000E+03  0.50000000000E+03  0.00000000000E+00 0. -1.
        -11    1    1    2    0    0 -0.48197935296E+01 -0.20693761716E+01  0.34737809403E+03  0.34741769233E+03  0.00000000000E+00 0. -1.
         11    1    1    2    0    0 -0.18335335181E+02 -0.12424707497E+02 -0.49376664411E+03  0.49426314521E+03  0.00000000000E+00 0. -1.
        -15    1    1    2    0    0  0.18116095889E+02  0.10478812620E+02  0.12869455548E+02  0.24632885728E+02  0.17770000000E+01 0. -1.
         15    1    1    2    0    0  0.50390328215E+01  0.40152710484E+01  0.13351909453E+03  0.13368627674E+03  0.17770000000E+01 0.  1.
</event>
<event>
 6    1  0.1599106E-003  0.5027895E+03  0.7546771E-02  0.9393589E-01
        -11   -1    0    0    0    0  0.00000000000E+00  0.00000000000E+00  0.50000000000E+03  0.50000000000E+03  0.00000000000E+00 0. -1.
         11   -1    0    0    0    0 -0.00000000000E+00 -0.00000000000E+00 -0.50000000000E+03  0.50000000000E+03  0.00000000000E+00 0. -1.
        -11    1    1    2    0    0 -0.17544750649E+02  0.12725228777E+02  0.33821628261E+03  0.33891002278E+03  0.00000000000E+00 0. -1.
         11    1    1    2    0    0 -0.17612448991E+01  0.13063076114E+02 -0.49703570564E+03  0.49721045708E+03  0.00000000000E+00 0. -1.
        -15    1    1    2    0    0  0.69902524022E+01 -0.26751282527E+02  0.11711151802E+03  0.12034433982E+03  0.17770000000E+01 0. -1.
         15    1    1    2    0    0  0.12315743146E+02  0.96297763592E+00  0.41707905019E+02  0.43535180317E+02  0.17770000000E+01 0.  1.
</event>
<event>
 6    1  0.1599106E-003  0.5054357E+03  0.7546771E-02  0.9387728E-01
        -11   -1    0    0    0    0  0.00000000000E+00  0.00000000000E+00  0.50000000000E+03  0.50000000000E+03  0.00000000000E+00 0.  1.
         11   -1    0    0    0    0 -0.00000000000E+00 -0.00000000000E+00 -0.50000000000E+03  0.50000000000E+03  0.00000000000E+00 0.  1.
        -11    1    1    2    0    0 -0.83961087442E+01  0.36703437954E+00  0.49449290847E+03  0.49456431926E+03  0.00000000000E+00 0.  1.
         11    1    1    2    0    0 -0.68904386873E+01 -0.38775971300E+01 -0.45637916254E+03  0.45644764640E+03  0.00000000000E+00 0.  1.
        -15    1    1    2    0    0  0.48375527816E+01 -0.91215410564E+00 -0.37090332888E+02  0.37457769084E+02  0.17770000000E+01 0. -1.
         15    1    1    2    0    0  0.10448994650E+02  0.44227168561E+01 -0.10234130476E+01  0.11530265255E+02  0.17770000000E+01 0.  1.
</event>
<event>
 6    1  0.1599106E-003  0.5024041E+03  0.7546771E-02  0.9394446E-01
        -11   -1    0    0    0    0  0.00000000000E+00  0.00000000000E+00  0.50000000000E+03  0.50000000000E+03  0.00000000000E+00 0. -1.
         11   -1    0    0    0    0 -0.00000000000E+00 -0.00000000000E+00 -0.50000000000E+03  0.50000000000E+03  0.00000000000E+00 0.  1.
        -11    1    1    2    0    0  0.10921635975E+01  0.62672722556E+01  0.45087260253E+03  0.45091748163E+03  0.00000000000E+00 0. -1.
         11    1    1    2    0    0  0.55232029452E+01  0.46505061057E+01 -0.49754348039E+03  0.49759586801E+03  0.00000000000E+00 0.  1.
        -15    1    1    2    0    0  0.48249282697E+01 -0.19045338240E+01  0.22940630328E+02  0.23586806285E+02  0.17770000000E+01 0.  1.
         15    1    1    2    0    0 -0.11440294812E+02 -0.90132445373E+01  0.23730247535E+02  0.27899844078E+02  0.17770000000E+01 0. -1.
</event>
<event>
 6    1  0.1599106E-003  0.5043120E+03  0.7546771E-02  0.9390213E-01
        -11   -1    0    0    0    0  0.00000000000E+00  0.00000000000E+00  0.50000000000E+03  0.50000000000E+03  0.00000000000E+00 0.  1.
         11   -1    0    0    0    0 -0.00000000000E+00 -0.00000000000E+00 -0.50000000000E+03  0.50000000000E+03  0.00000000000E+00 0. -1.
        -11    1    1    2    0    0  0.39526629847E+02 -0.12591706400E+02  0.49394912151E+03  0.49568804724E+03  0.00000000000E+00 0.  1.
         11    1    1    2    0    0  0.10690477138E+02  0.13434951323E+02 -0.28838863834E+03  0.28889927473E+03  0.00000000000E+00 0. -1.
        -15    1    1    2    0    0 -0.48543965425E+02 -0.13878150161E+01 -0.11536585582E+03  0.12518338958E+03  0.17770000000E+01 0. -1.
         15    1    1    2    0    0 -0.16731415611E+01  0.54457009297E+00 -0.90194627356E+02  0.90229288439E+02  0.17770000000E+01 0.  1.
</event>
<event>
 6    1  0.1599106E-003  0.5014585E+03  0.7546771E-02  0.9396552E-01
        -11   -1    0    0    0    0  0.00000000000E+00  0.00000000000E+00  0.50000000000E+03  0.50000000000E+03  0.00000000000E+00 0. -1.
         11   -1    0    0    0    0 -0.00000000000E+00 -0.00000000000E+00 -0.50000000000E+03  0.50000000000E+03  0.00000000000E+00 0. -1.
        -11    1    1    2    0    0  0.21576604876E+01 -0.23454808138E+01  0.51151923798E+02  0.51251108157E+02  0.00000000000E+00 0. -1.
         11    1    1    2    0    0 -0.65861704533E+01  0.13634610921E+01 -0.49849612611E+03  0.49854149719E+03  0.00000000000E+00 0. -1.
        -15    1    1    2    0    0  0.12862351777E+02  0.38191000562E+00  0.29028479815E+02  0.31802457733E+02  0.17770000000E+01 0.  1.
         15    1    1    2    0    0 -0.84338418111E+01  0.60010971605E+00  0.41831572250E+03  0.41840493692E+03  0.17770000000E+01 0. -1.
</event>
<event>
 6    1  0.1599106E-003  0.5074033E+03  0.7546771E-02  0.9383395E-01
        -11   -1    0    0    0    0  0.00000000000E+00  0.00000000000E+00  0.50000000000E+03  0.50000000000E+03  0.00000000000E+00 0.  1.
         11   -1    0    0    0    0 -0.00000000000E+00 -0.00000000000E+00 -0.50000000000E+03  0.50000000000E+03  0.00000000000E+00 0.  1.
        -11    1    1    2    0    0  0.16400626927E+02 -0.16140382242E+01  0.44627208718E+03  0.44657626614E+03  0.00000000000E+00 0.  1.
         11    1    1    2    0    0 -0.66608416021E+01  0.13444367201E+02 -0.49236814623E+03  0.49259670040E+03  0.00000000000E+00 0.  1.
        -15    1    1    2    0    0  0.10596764467E+02 -0.12528032043E+02  0.32011713613E+02  0.36015976198E+02  0.17770000000E+01 0. -1.
         15    1    1    2    0    0 -0.20336549791E+02  0.69770306539E+00  0.14084345441E+02  0.24811057263E+02  0.17770000000E+01 0.  1.
</event>
<event>
 6    1  0.1599106E-003  0.5017063E+03  0.7546771E-02  0.9396000E-01
        -11   -1    0    0    0    0  0.00000000000E+00  0.00000000000E+00  0.50000000000E+03  0.50000000000E+03  0.00000000000E+00 0.  1.
         11   -1    0    0    0    0 -0.00000000000E+00 -0.00000000000E+00 -0.50000000000E+03  0.50000000000E+03  0.00000000000E+00 0. -1.
        -11    1    1    2    0    0 -0.13821438712E+01  0.12421275515E+02  0.39308188960E+03  0.39328052372E+03  0.00000000000E+00 0.  1.
         11    1    1    2    0    0  0.20243859290E+00 -0.87185479133E+01 -0.49821740621E+03  0.49829372654E+03  0.00000000000E+00 0. -1.
        -15    1    1    2    0    0  0.65197249115E+01 -0.43584350484E+00  0.99748006453E+02  0.99977593954E+02  0.17770000000E+01 0.  1.
         15    1    1    2    0    0 -0.53400196331E+01 -0.32668840965E+01  0.53875101648E+01  0.84481557844E+01  0.17770000000E+01 0. -1.
</event>
<event>
 6    1  0.1599106E-003  0.5013560E+03  0.7546771E-02  0.9396781E-01
        -11   -1    0    0    0    0  0.00000000000E+00  0.00000000000E+00  0.50000000000E+03  0.50000000000E+03  0.00000000000E+00 0.  1.
         11   -1    0    0    0    0 -0.00000000000E+00 -0.00000000000E+00 -0.50000000000E+03  0.50000000000E+03  0.00000000000E+00 0.  1.
        -11    1    1    2    0    0 -0.66209064303E+01 -0.68725883251E+01  0.22185972762E+03  0.22206487253E+03  0.00000000000E+00 0.  1.
         11    1    1    2    0    0 -0.84639955119E+01 -0.33530190369E+01 -0.49856084390E+03  0.49864395818E+03  0.00000000000E+00 0.  1.
        -15    1    1    2    0    0  0.14843155026E+01  0.18889322206E+02  0.19939526386E+03  0.20030136961E+03  0.17770000000E+01 0.  1.
         15    1    1    2    0    0  0.13600586440E+02 -0.86637148436E+01  0.77305852423E+02  0.78989799685E+02  0.17770000000E+01 0. -1.
</event>
<event>
 6    1  0.1599106E-003  0.5008154E+03  0.7546771E-02  0.9397987E-01
        -11   -1    0    0    0    0  0.00000000000E+00  0.00000000000E+00  0.50000000000E+03  0.50000000000E+03  0.00000000000E+00 0. -1.
         11   -1    0    0    0    0 -0.00000000000E+00 -0.00000000000E+00 -0.50000000000E+03  0.50000000000E+03  0.00000000000E+00 0. -1.
        -11    1    1    2    0    0 -0.82678896490E+01  0.26423000272E+01  0.49910910139E+03  0.49918456991E+03  0.00000000000E+00 0. -1.
         11    1    1    2    0    0 -0.10616343820E+01  0.75489112608E+01 -0.30073326320E+03  0.30082986674E+03  0.00000000000E+00 0. -1.
        -15    1    1    2    0    0 -0.40592709915E+01  0.33913771552E+01 -0.29164486468E+02  0.29693502992E+02  0.17770000000E+01 0.  1.
         15    1    1    2    0    0  0.13388795023E+02 -0.13582588443E+02 -0.16921135172E+03  0.17029206036E+03  0.17770000000E+01 0. -1.
</event>
<event>
 6    1  0.1599106E-003  0.5006699E+03  0.7546771E-02  0.9398312E-01
        -11   -1    0    0    0    0  0.00000000000E+00  0.00000000000E+00  0.50000000000E+03  0.50000000000E+03  0.00000000000E+00 0. -1.
         11   -1    0    0    0    0 -0.00000000000E+00 -0.00000000000E+00 -0.50000000000E+03  0.50000000000E+03  0.00000000000E+00 0. -1.
        -11    1    1    2    0    0  0.62217151881E+01 -0.37045704389E+01  0.49927764150E+03  0.49933014818E+03  0.00000000000E+00 0. -1.
         11    1    1    2    0    0 -0.44257988734E+01  0.80555727647E+01 -0.41796216616E+03  0.41806321566E+03  0.00000000000E+00 0. -1.
        -15    1    1    2    0    0  0.35750693243E+01 -0.71223400263E+01 -0.50225395951E+02  0.50884742070E+02  0.17770000000E+01 0.  1.
         15    1    1    2    0    0 -0.53709856391E+01  0.27713377005E+01 -0.31090079389E+02  0.31721894092E+02  0.17770000000E+01 0. -1.
</event>
<event>
 6    1  0.1599106E-003  0.5060642E+03  0.7546771E-02  0.9386342E-01
        -11   -1    0    0    0    0  0.00000000000E+00  0.00000000000E+00  0.50000000000E+03  0.50000000000E+03  0.00000000000E+00 0. -1.
         11   -1    0    0    0    0 -0.00000000000E+00 -0.00000000000E+00 -0.50000000000E+03  0.50000000000E+03  0.00000000000E+00 0.  1.
        -11    1    1    2    0    0 -0.11284917306E+02 -0.70698172155E+01  0.49375628644E+03  0.49393582789E+03  0.00000000000E+00 0. -1.
         11    1    1    2    0    0  0.28946594725E+01 -0.90479806251E+01 -0.45985005027E+03  0.45994816419E+03  0.00000000000E+00 0.  1.
        -15    1    1    2    0    0  0.42003411147E+01 -0.44980578290E+01 -0.19581896871E+02  0.20603004727E+02  0.17770000000E+01 0.  1.
         15    1    1    2    0    0  0.41899167188E+01  0.20615855670E+02 -0.14324339297E+02  0.25513003202E+02  0.17770000000E+01 0. -1.
</event>
<event>
 6    1  0.1599106E-003  0.4587492E+03  0.7546771E-02  0.9497158E-01
        -11   -1    0    0    0    0  0.00000000000E+00  0.00000000000E+00  0.50000000000E+03  0.50000000000E+03  0.00000000000E+00 0. -1.
         11   -1    0    0    0    0 -0.00000000000E+00 -0.00000000000E+00 -0.50000000000E+03  0.50000000000E+03  0.00000000000E+00 0. -1.
        -11    1    1    2    0    0  0.76859804808E+01  0.52793497963E+01  0.45626960351E+03  0.45636487257E+03  0.00000000000E+00 0. -1.
         11    1    1    2    0    0 -0.52082561035E+01  0.93943469496E+01 -0.46114197202E+03  0.46126705719E+03  0.00000000000E+00 0. -1.
        -15    1    1    2    0    0  0.31499307060E+02  0.25798991887E+01 -0.19424672548E+02  0.37139438037E+02  0.17770000000E+01 0.  1.
         15    1    1    2    0    0 -0.33977031438E+02 -0.17253595935E+02  0.24297041062E+02  0.45228632208E+02  0.17770000000E+01 0. -1.
</event>
<event>
 6    1  0.1599106E-003  0.5032601E+03  0.7546771E-02  0.9392544E-01
        -11   -1    0    0    0    0  0.00000000000E+00  0.00000000000E+00  0.50000000000E+03  0.50000000000E+03  0.00000000000E+00 0. -1.
         11   -1    0    0    0    0 -0.00000000000E+00 -0.00000000000E+00 -0.50000000000E+03  0.50000000000E+03  0.00000000000E+00 0.  1.
        -11    1    1    2    0    0  0.38990231840E+01  0.59908476319E+01  0.49668847916E+03  0.49673990978E+03  0.00000000000E+00 0. -1.
         11    1    1    2    0    0 -0.51252022146E+01 -0.97143930154E+01 -0.48415040268E+03  0.48427497308E+03  0.00000000000E+00 0.  1.
        -15    1    1    2    0    0  0.40798468813E+01  0.72549514879E+01 -0.10926319748E+02  0.13849969816E+02  0.17770000000E+01 0. -1.
         15    1    1    2    0    0 -0.28536678507E+01 -0.35314061044E+01 -0.16117567343E+01  0.51351473248E+01  0.17770000000E+01 0. -1.
</event>
<event>
 6    1  0.1599106E-003  0.5023038E+03  0.7546771E-02  0.9394670E-01
        -11   -1    0    0    0    0  0.00000000000E+00  0.00000000000E+00  0.50000000000E+03  0.50000000000E+03  0.00000000000E+00 0. -1.
         11   -1    0    0    0    0 -0.00000000000E+00 -0.00000000000E+00 -0.50000000000E+03  0.50000000000E+03  0.00000000000E+00 0. -1.
        -11    1    1    2    0    0 -0.13794386785E+02  0.22644831804E+01  0.49749987549E+03  0.49769623176E+03  0.00000000000E+00 0. -1.
         11    1    1    2    0    0 -0.76413451697E+01  0.73391239921E+01 -0.27303890589E+03  0.27324439065E+03  0.00000000000E+00 0. -1.
        -15    1    1    2    0    0  0.84197794264E+01  0.52215121163E+01 -0.18119889179E+03  0.18147824385E+03  0.17770000000E+01 0. -1.
         15    1    1    2    0    0  0.13015952529E+02 -0.14825119289E+02 -0.43262077813E+02  0.47581133738E+02  0.17770000000E+01 0.  1.
</event>
<event>
 6    1  0.1599106E-003  0.5203458E+03  0.7546771E-02  0.9355401E-01
        -11   -1    0    0    0    0  0.00000000000E+00  0.00000000000E+00  0.50000000000E+03  0.50000000000E+03  0.00000000000E+00 0.  1.
         11   -1    0    0    0    0 -0.00000000000E+00 -0.00000000000E+00 -0.50000000000E+03  0.50000000000E+03  0.00000000000E+00 0.  1.
        -11    1    1    2    0    0 -0.17877317190E+02  0.38600690500E+01  0.41211217009E+03  0.41251780488E+03  0.00000000000E+00 0.  1.
         11    1    1    2    0    0  0.29215308693E+01 -0.20933854782E+02 -0.47918826895E+03  0.47965420744E+03  0.00000000000E+00 0.  1.
        -15    1    1    2    0    0  0.89356139262E+01  0.33376032873E+01  0.84336729774E+02  0.84893029807E+02  0.17770000000E+01 0.  1.
         15    1    1    2    0    0  0.60201723949E+01  0.13736182445E+02 -0.17260630921E+02  0.22934957873E+02  0.17770000000E+01 0. -1.
</event>
<event>
 6    1  0.1599106E-003  0.5018017E+03  0.7546771E-02  0.9395787E-01
        -11   -1    0    0    0    0  0.00000000000E+00  0.00000000000E+00  0.50000000000E+03  0.50000000000E+03  0.00000000000E+00 0. -1.
         11   -1    0    0    0    0 -0.00000000000E+00 -0.00000000000E+00 -0.50000000000E+03  0.50000000000E+03  0.00000000000E+00 0.  1.
        -11    1    1    2    0    0  0.78876977462E+01  0.44543831317E+01  0.29317158436E+03  0.29331149854E+03  0.00000000000E+00 0. -1.
         11    1    1    2    0    0  0.13020494349E+02  0.46496821306E+01 -0.49800637471E+03  0.49819825579E+03  0.00000000000E+00 0.  1.
        -15    1    1    2    0    0 -0.20097722698E+02 -0.62209658774E+01  0.20375261373E+03  0.20484360914E+03  0.17770000000E+01 0. -1.
         15    1    1    2    0    0 -0.81046939720E+00 -0.28830993849E+01  0.10821766228E+01  0.36466365256E+01  0.17770000000E+01 0.  1.
</event>
<event>
 6    1  0.1599106E-003  0.5001289E+03  0.7546771E-02  0.9399521E-01
        -11   -1    0    0    0    0  0.00000000000E+00  0.00000000000E+00  0.50000000000E+03  0.50000000000E+03  0.00000000000E+00 0.  1.
         11   -1    0    0    0    0 -0.00000000000E+00 -0.00000000000E+00 -0.50000000000E+03  0.50000000000E+03  0.00000000000E+00 0.  1.
        -11    1    1    2    0    0 -0.84119465845E+01  0.11636798544E+02  0.49966485535E+03  0.49987112699E+03  0.00000000000E+00 0.  1.
         11    1    1    2    0    0  0.43958037597E+00 -0.13161921924E+01 -0.87518800034E+02  0.87529800367E+02  0.00000000000E+00 0.  1.
        -15    1    1    2    0    0  0.27200725442E+01  0.14534805295E+01 -0.27050676926E+02  0.27283845979E+02  0.17770000000E+01 0. -1.
         15    1    1    2    0    0  0.52522936643E+01 -0.11774086881E+02 -0.38509537839E+03  0.38531522666E+03  0.17770000000E+01 0.  1.
</event>
<event>
 6    1  0.1599106E-003  0.5007279E+03  0.7546771E-02  0.9398183E-01
        -11   -1    0    0    0    0  0.00000000000E+00  0.00000000000E+00  0.50000000000E+03  0.50000000000E+03  0.00000000000E+00 0.  1.
         11   -1    0    0    0    0 -0.00000000000E+00 -0.00000000000E+00 -0.50000000000E+03  0.50000000000E+03  0.00000000000E+00 0. -1.
        -11    1    1    2    0    0  0.63861526260E+01  0.22146345597E+01  0.49922636754E+03  0.49927212379E+03  0.00000000000E+00 0.  1.
         11    1    1    2    0    0 -0.50478631649E+01  0.69550757707E+01 -0.41129661998E+03  0.41138639211E+03  0.00000000000E+00 0. -1.
        -15    1    1    2    0    0 -0.13552920032E+01 -0.25791598763E-01 -0.56896424658E+02  0.56940305140E+02  0.17770000000E+01 0. -1.
         15    1    1    2    0    0  0.17002542080E-01 -0.91439187316E+01 -0.31033322897E+02  0.32401178959E+02  0.17770000000E+01 0.  1.
</event>
<event>
 6    1  0.1599106E-003  0.5508399E+03  0.7546771E-02  0.9292727E-01
        -11   -1    0    0    0    0  0.00000000000E+00  0.00000000000E+00  0.50000000000E+03  0.50000000000E+03  0.00000000000E+00 0. -1.
         11   -1    0    0    0    0 -0.00000000000E+00 -0.00000000000E+00 -0.50000000000E+03  0.50000000000E+03  0.00000000000E+00 0. -1.
        -11    1    1    2    0    0  0.88298888487E+01 -0.32405129189E+01  0.44906159281E+03  0.44916008505E+03  0.00000000000E+00 0. -1.
         11    1    1    2    0    0 -0.10712159676E+02  0.11597755133E+02 -0.39027043171E+03  0.39058964164E+03  0.00000000000E+00 0. -1.
        -15    1    1    2    0    0  0.39760975594E+01 -0.54887597686E+01  0.50451368662E+02  0.50935588389E+02  0.17770000000E+01 0.  1.
         15    1    1    2    0    0 -0.20938267320E+01 -0.28684824453E+01 -0.10924252977E+03  0.10931468493E+03  0.17770000000E+01 0. -1.
</event>
<event>
 6    1  0.1599106E-003  0.4838122E+03  0.7546771E-02  0.9436778E-01
        -11   -1    0    0    0    0  0.00000000000E+00  0.00000000000E+00  0.50000000000E+03  0.50000000000E+03  0.00000000000E+00 0. -1.
         11   -1    0    0    0    0 -0.00000000000E+00 -0.00000000000E+00 -0.50000000000E+03  0.50000000000E+03  0.00000000000E+00 0. -1.
        -11    1    1    2    0    0  0.10542387686E+02 -0.51977490382E+01  0.48542931888E+03  0.48557160354E+03  0.00000000000E+00 0. -1.
         11    1    1    2    0    0 -0.48886625927E+01 -0.11392637501E+02 -0.48205799331E+03  0.48221737850E+03  0.00000000000E+00 0. -1.
        -15    1    1    2    0    0 -0.39278102332E+01  0.60052149820E+01  0.11572005662E+02  0.13731691238E+02  0.17770000000E+01 0. -1.
         15    1    1    2    0    0 -0.17259148601E+01  0.10585171557E+02 -0.14943331229E+02  0.18479326726E+02  0.17770000000E+01 0.  1.
</event>
<event>
 6    1  0.1599106E-003  0.5087359E+03  0.7546771E-02  0.9380472E-01
        -11   -1    0    0    0    0  0.00000000000E+00  0.00000000000E+00  0.50000000000E+03  0.50000000000E+03  0.00000000000E+00 0. -1.
         11   -1    0    0    0    0 -0.00000000000E+00 -0.00000000000E+00 -0.50000000000E+03  0.50000000000E+03  0.00000000000E+00 0. -1.
        -11    1    1    2    0    0  0.87157640641E+01  0.93597320435E+01  0.49109763205E+03  0.49126413805E+03  0.00000000000E+00 0. -1.
         11    1    1    2    0    0 -0.19554238680E+01 -0.78269466628E+01 -0.48508121712E+03  0.48514829896E+03  0.00000000000E+00 0. -1.
        -15    1    1    2    0    0 -0.12955120272E+02 -0.51094094337E+01  0.53523765350E-01  0.14039294847E+02  0.17770000000E+01 0. -1.
         15    1    1    2    0    0  0.61947800755E+01  0.35766240531E+01 -0.60699386940E+01  0.95482681440E+01  0.17770000000E+01 0.  1.
</event>
<event>
 6    1  0.1599106E-003  0.5004551E+03  0.7546771E-02  0.9398792E-01
        -11   -1    0    0    0    0  0.00000000000E+00  0.00000000000E+00  0.50000000000E+03  0.50000000000E+03  0.00000000000E+00 0. -1.
         11   -1    0    0    0    0 -0.00000000000E+00 -0.00000000000E+00 -0.50000000000E+03  0.50000000000E+03  0.00000000000E+00 0. -1.
        -11    1    1    2    0    0  0.26823920806E+01 -0.75831350460E+01  0.49948014904E+03  0.49954491134E+03  0.00000000000E+00 0. -1.
         11    1    1    2    0    0 -0.47579585161E+01 -0.23194951517E+01 -0.29281676352E+03  0.29286460221E+03  0.00000000000E+00 0. -1.
        -15    1    1    2    0    0  0.23914650290E+01  0.11133946364E+02 -0.72591467413E+02  0.73500766913E+02  0.17770000000E+01 0.  1.
         15    1    1    2    0    0 -0.31589859351E+00 -0.12313161661E+01 -0.13407191810E+03  0.13408971953E+03  0.17770000000E+01 0. -1.
</event>
<event>
 6    1  0.1599106E-003  0.5057184E+03  0.7546771E-02  0.9387104E-01
        -11   -1    0    0    0    0  0.00000000000E+00  0.00000000000E+00  0.50000000000E+03  0.50000000000E+03  0.00000000000E+00 0.  1.
         11   -1    0    0    0    0 -0.00000000000E+00 -0.00000000000E+00 -0.50000000000E+03  0.50000000000E+03  0.00000000000E+00 0. -1.
        -11    1    1    2    0    0 -0.86742420864E-01  0.98077343158E+01  0.48217132781E+03  0.48227107371E+03  0.00000000000E+00 0.  1.
         11    1    1    2    0    0 -0.30953216360E+01  0.62250307083E+01 -0.49423265746E+03  0.49428155107E+03  0.00000000000E+00 0. -1.
        -15    1    1    2    0    0  0.12943038527E+01 -0.14689703003E+02  0.13606952537E+02  0.20143720687E+02  0.17770000000E+01 0.  1.
         15    1    1    2    0    0  0.18877602041E+01 -0.13430620212E+01 -0.15456228848E+01  0.33036545345E+01  0.17770000000E+01 0. -1.
</event>
<event>
 6    1  0.1599106E-003  0.5016809E+03  0.7546771E-02  0.9396056E-01
        -11   -1    0    0    0    0  0.00000000000E+00  0.00000000000E+00  0.50000000000E+03  0.50000000000E+03  0.00000000000E+00 0. -1.
         11   -1    0    0    0    0 -0.00000000000E+00 -0.00000000000E+00 -0.50000000000E+03  0.50000000000E+03  0.00000000000E+00 0. -1.
        -11    1    1    2    0    0  0.69035154525E+01  0.16428927822E+01  0.37644347388E+03  0.37651035397E+03  0.00000000000E+00 0. -1.
         11    1    1    2    0    0  0.71272107556E+01 -0.21552694436E+01 -0.49826344767E+03  0.49831908011E+03  0.00000000000E+00 0. -1.
        -15    1    1    2    0    0 -0.11578021274E+01  0.43881337951E+01  0.94927391245E+02  0.95052425333E+02  0.17770000000E+01 0.  1.
         15    1    1    2    0    0 -0.12872924081E+02 -0.38757571337E+01  0.26892582540E+02  0.30118140587E+02  0.17770000000E+01 0. -1.
</event>
<event>
 6    1  0.1599106E-003  0.5497812E+03  0.7546771E-02  0.9294830E-01
        -11   -1    0    0    0    0  0.00000000000E+00  0.00000000000E+00  0.50000000000E+03  0.50000000000E+03  0.00000000000E+00 0. -1.
         11   -1    0    0    0    0 -0.00000000000E+00 -0.00000000000E+00 -0.50000000000E+03  0.50000000000E+03  0.00000000000E+00 0.  1.
        -11    1    1    2    0    0 -0.37286478041E+01 -0.59784815319E+01  0.40237023911E+03  0.40243192515E+03  0.00000000000E+00 0. -1.
         11    1    1    2    0    0  0.35882959936E+02  0.93239792920E+01 -0.44868972183E+03  0.45021882444E+03  0.00000000000E+00 0.  1.
        -15    1    1    2    0    0  0.14372838502E+02  0.69555191881E+00  0.85279947986E+02  0.86503696664E+02  0.17770000000E+01 0. -1.
         15    1    1    2    0    0 -0.46527150633E+02 -0.40410496789E+01 -0.38960465261E+02  0.60845553748E+02  0.17770000000E+01 0.  1.
</event>
<event>
 6    1  0.1599106E-003  0.5117353E+03  0.7546771E-02  0.9373927E-01
        -11   -1    0    0    0    0  0.00000000000E+00  0.00000000000E+00  0.50000000000E+03  0.50000000000E+03  0.00000000000E+00 0.  1.
         11   -1    0    0    0    0 -0.00000000000E+00 -0.00000000000E+00 -0.50000000000E+03  0.50000000000E+03  0.00000000000E+00 0. -1.
        -11    1    1    2    0    0  0.13165587448E+01 -0.11291201342E+02  0.48813234661E+03  0.48826469498E+03  0.00000000000E+00 0.  1.
         11    1    1    2    0    0 -0.15069155345E+02  0.40089474448E+01 -0.47230918910E+03  0.47256652570E+03  0.00000000000E+00 0. -1.
        -15    1    1    2    0    0  0.21733881310E+02 -0.16456264517E+01 -0.39700055432E+01  0.22225848830E+02  0.17770000000E+01 0.  1.
         15    1    1    2    0    0 -0.79812847090E+01  0.89278803487E+01 -0.11853151965E+02  0.16942930491E+02  0.17770000000E+01 0. -1.
</event>
<event>
 6    1  0.1599106E-003  0.5060631E+03  0.7546771E-02  0.9386344E-01
        -11   -1    0    0    0    0  0.00000000000E+00  0.00000000000E+00  0.50000000000E+03  0.50000000000E+03  0.00000000000E+00 0.  1.
         11   -1    0    0    0    0 -0.00000000000E+00 -0.00000000000E+00 -0.50000000000E+03  0.50000000000E+03  0.00000000000E+00 0.  1.
        -11    1    1    2    0    0  0.47714099614E+01 -0.38057928502E+01  0.42853951437E+03  0.42858297422E+03  0.00000000000E+00 0.  1.
         11    1    1    2    0    0  0.37419098977E+00  0.98081509012E+01 -0.49383936010E+03  0.49393689215E+03  0.00000000000E+00 0.  1.
        -15    1    1    2    0    0 -0.44944721711E+01  0.30863830454E+01 -0.43604249967E+01  0.72039624896E+01  0.17770000000E+01 0. -1.
         15    1    1    2    0    0 -0.65112878005E+00 -0.90887410963E+01  0.69660270727E+02  0.70276171141E+02  0.17770000000E+01 0.  1.
</event>
<event>
 6    1  0.1599106E-003  0.5157943E+03  0.7546771E-02  0.9365146E-01
        -11   -1    0    0    0    0  0.00000000000E+00  0.00000000000E+00  0.50000000000E+03  0.50000000000E+03  0.00000000000E+00 0.  1.
         11   -1    0    0    0    0 -0.00000000000E+00 -0.00000000000E+00 -0.50000000000E+03  0.50000000000E+03  0.00000000000E+00 0.  1.
        -11    1    1    2    0    0  0.40669392760E+01  0.18836412666E+02  0.48382212810E+03  0.48420574354E+03  0.00000000000E+00 0.  1.
         11    1    1    2    0    0 -0.50033061680E+00 -0.74670027987E+01 -0.40813163105E+03  0.40820023852E+03  0.00000000000E+00 0.  1.
        -15    1    1    2    0    0 -0.69157209216E+01 -0.19411117886E+02  0.89152749133E+01  0.22522401054E+02  0.17770000000E+01 0.  1.
         15    1    1    2    0    0  0.33491122624E+01  0.80417080187E+01 -0.84605771964E+02  0.85071616885E+02  0.17770000000E+01 0. -1.
</event>
<event>
 6    1  0.1599106E-003  0.5254975E+03  0.7546771E-02  0.9344498E-01
        -11   -1    0    0    0    0  0.00000000000E+00  0.00000000000E+00  0.50000000000E+03  0.50000000000E+03  0.00000000000E+00 0.  1.
         11   -1    0    0    0    0 -0.00000000000E+00 -0.00000000000E+00 -0.50000000000E+03  0.50000000000E+03  0.00000000000E+00 0.  1.
        -11    1    1    2    0    0  0.55155122812E+01  0.14458338104E+02  0.45027204629E+03  0.45053787863E+03  0.00000000000E+00 0.  1.
         11    1    1    2    0    0 -0.15767589226E+02  0.44448321754E+00 -0.47424026224E+03  0.47450251924E+03  0.00000000000E+00 0.  1.
        -15    1    1    2    0    0 -0.31923128952E+01 -0.32470500360E+02  0.36888727200E+02  0.49279409276E+02  0.17770000000E+01 0. -1.
         15    1    1    2    0    0  0.13444389840E+02  0.17567679038E+02 -0.12920511240E+02  0.25680192847E+02  0.17770000000E+01 0.  1.
</event>
<event>
 6    1  0.1599106E-003  0.5023758E+03  0.7546771E-02  0.9394509E-01
        -11   -1    0    0    0    0  0.00000000000E+00  0.00000000000E+00  0.50000000000E+03  0.50000000000E+03  0.00000000000E+00 0. -1.
         11   -1    0    0    0    0 -0.00000000000E+00 -0.00000000000E+00 -0.50000000000E+03  0.50000000000E+03  0.00000000000E+00 0. -1.
        -11    1    1    2    0    0  0.51887927746E+00 -0.73919337757E+01  0.49756906847E+03  0.49762424360E+03  0.00000000000E+00 0. -1.
         11    1    1    2    0    0 -0.41087378165E+01  0.13793483747E+02 -0.45801956948E+03  0.45824564149E+03  0.00000000000E+00 0. -1.
        -15    1    1    2    0    0  0.51326692997E+01 -0.10453325174E+02 -0.36927049851E+02  0.38760560381E+02  0.17770000000E+01 0. -1.
         15    1    1    2    0    0 -0.15428107607E+01  0.40517752031E+01 -0.26224491410E+01  0.53695545287E+01  0.17770000000E+01 0.  1.
</event>
<event>
 6    1  0.1599106E-003  0.5013203E+03  0.7546771E-02  0.9396860E-01
        -11   -1    0    0    0    0  0.00000000000E+00  0.00000000000E+00  0.50000000000E+03  0.50000000000E+03  0.00000000000E+00 0.  1.
         11   -1    0    0    0    0 -0.00000000000E+00 -0.00000000000E+00 -0.50000000000E+03  0.50000000000E+03  0.00000000000E+00 0.  1.
        -11    1    1    2    0    0  0.67243881968E+01  0.35957924767E-01  0.49863440464E+03  0.49867974511E+03  0.00000000000E+00 0.  1.
         11    1    1    2    0    0 -0.80886289945E+01  0.14347723844E+01 -0.47511158133E+03  0.47518259564E+03  0.00000000000E+00 0.  1.
        -15    1    1    2    0    0 -0.28344397758E+01  0.11165699659E+01 -0.18649800442E+02  0.18980346753E+02  0.17770000000E+01 0.  1.
         15    1    1    2    0    0  0.41986805735E+01 -0.25873002751E+01 -0.48730228727E+01  0.71573124977E+01  0.17770000000E+01 0.  1.
</event>
<event>
 6    1  0.1599106E-003  0.5015044E+03  0.7546771E-02  0.9396450E-01
        -11   -1    0    0    0    0  0.00000000000E+00  0.00000000000E+00  0.50000000000E+03  0.50000000000E+03  0.00000000000E+00 0.  1.
         11   -1    0    0    0    0 -0.00000000000E+00 -0.00000000000E+00 -0.50000000000E+03  0.50000000000E+03  0.00000000000E+00 0.  1.
        -11    1    1    2    0    0  0.45180902940E+01 -0.26319995460E+01  0.20782635955E+03  0.20789212656E+03  0.00000000000E+00 0.  1.
         11    1    1    2    0    0  0.10288006060E+02  0.45288627084E+00 -0.49838918764E+03  0.49849556721E+03  0.00000000000E+00 0.  1.
        -15    1    1    2    0    0 -0.23131589693E+02 -0.11537197153E+02  0.16660925461E+03  0.16861191776E+03  0.17770000000E+01 0.  1.
         15    1    1    2    0    0  0.83254933389E+01  0.13716310428E+02  0.12395357348E+03  0.12500038847E+03  0.17770000000E+01 0. -1.
</event>
<event>
 6    1  0.1599106E-003  0.5121553E+03  0.7546771E-02  0.9373015E-01
        -11   -1    0    0    0    0  0.00000000000E+00  0.00000000000E+00  0.50000000000E+03  0.50000000000E+03  0.00000000000E+00 0.  1.
         11   -1    0    0    0    0 -0.00000000000E+00 -0.00000000000E+00 -0.50000000000E+03  0.50000000000E+03  0.00000000000E+00 0.  1.
        -11    1    1    2    0    0 -0.69795620782E+01  0.10481574089E+01  0.48779362953E+03  0.48784468628E+03  0.00000000000E+00 0.  1.
         11    1    1    2    0    0 -0.82384979929E+01  0.11256319756E+02 -0.26374338144E+03  0.26411200055E+03  0.00000000000E+00 0.  1.
        -15    1    1    2    0    0  0.69897326712E+01 -0.53797063178E+02 -0.71749765603E+02  0.89967588399E+02  0.17770000000E+01 0. -1.
         15    1    1    2    0    0  0.82283273999E+01  0.41492586012E+02 -0.15230048249E+03  0.15807572477E+03  0.17770000000E+01 0.  1.
</event>
<event>
 6    1  0.1599106E-003  0.5014952E+03  0.7546771E-02  0.9396470E-01
        -11   -1    0    0    0    0  0.00000000000E+00  0.00000000000E+00  0.50000000000E+03  0.50000000000E+03  0.00000000000E+00 0.  1.
         11   -1    0    0    0    0 -0.00000000000E+00 -0.00000000000E+00 -0.50000000000E+03  0.50000000000E+03  0.00000000000E+00 0. -1.
        -11    1    1    2    0    0  0.77528550528E+01 -0.24178705328E+02  0.49785774142E+03  0.49850481166E+03  0.00000000000E+00 0.  1.
         11    1    1    2    0    0  0.61727620134E+00  0.63645970414E+01 -0.17305615162E+03  0.17317424964E+03  0.00000000000E+00 0. -1.
        -15    1    1    2    0    0  0.11843938775E+01  0.16137079012E+02 -0.37873177223E+02  0.41223092920E+02  0.17770000000E+01 0.  1.
         15    1    1    2    0    0 -0.95545251317E+01  0.16770292746E+01 -0.28692841258E+03  0.28709784578E+03  0.17770000000E+01 0. -1.
</event>
<event>
 6    1  0.1599106E-003  0.5005214E+03  0.7546771E-02  0.9398644E-01
        -11   -1    0    0    0    0  0.00000000000E+00  0.00000000000E+00  0.50000000000E+03  0.50000000000E+03  0.00000000000E+00 0. -1.
         11   -1    0    0    0    0 -0.00000000000E+00 -0.00000000000E+00 -0.50000000000E+03  0.50000000000E+03  0.00000000000E+00 0. -1.
        -11    1    1    2    0    0  0.39015559424E+01  0.15168092928E+01  0.20340725983E+03  0.20345032858E+03  0.00000000000E+00 0. -1.
         11    1    1    2    0    0 -0.78057484465E+00 -0.90157877282E+01 -0.49939660743E+03  0.49947859337E+03  0.00000000000E+00 0. -1.
        -15    1    1    2    0    0  0.33786887382E+01 -0.18558215247E+01  0.10182549985E+02  0.11031847729E+02  0.17770000000E+01 0.  1.
         15    1    1    2    0    0 -0.64996698359E+01  0.93547999601E+01  0.28580679761E+03  0.28603923032E+03  0.17770000000E+01 0. -1.
</event>
<event>
 6    1  0.1599106E-003  0.5177573E+03  0.7546771E-02  0.9360930E-01
        -11   -1    0    0    0    0  0.00000000000E+00  0.00000000000E+00  0.50000000000E+03  0.50000000000E+03  0.00000000000E+00 0. -1.
         11   -1    0    0    0    0 -0.00000000000E+00 -0.00000000000E+00 -0.50000000000E+03  0.50000000000E+03  0.00000000000E+00 0. -1.
        -11    1    1    2    0    0 -0.38965709006E+02  0.84246102260E+01  0.48059202210E+03  0.48224266945E+03  0.00000000000E+00 0. -1.
         11    1    1    2    0    0  0.71310625565E+01 -0.16112708396E+01 -0.44822573381E+03  0.44828535186E+03  0.00000000000E+00 0. -1.
        -15    1    1    2    0    0  0.27745266966E+01 -0.14164630290E+02 -0.36377864408E+02  0.39177053201E+02  0.17770000000E+01 0. -1.
         15    1    1    2    0    0  0.29060119753E+02  0.73512909034E+01  0.40115761164E+01  0.30294925481E+02  0.17770000000E+01 0.  1.
</event>
<event>
 6    1  0.1599106E-003  0.5204723E+03  0.7546771E-02  0.9355132E-01
        -11   -1    0    0    0    0  0.00000000000E+00  0.00000000000E+00  0.50000000000E+03  0.50000000000E+03  0.00000000000E+00 0. -1.
         11   -1    0    0    0    0 -0.00000000000E+00 -0.00000000000E+00 -0.50000000000E+03  0.50000000000E+03  0.00000000000E+00 0.  1.
        -11    1    1    2    0    0  0.27702058789E+02 -0.64738583559E+02  0.30978493754E+03  0.31768726098E+03  0.00000000000E+00 0. -1.
         11    1    1    2    0    0 -0.30369781361E+02  0.39849967569E+02 -0.47690302065E+03  0.47952772041E+03  0.00000000000E+00 0.  1.
        -15    1    1    2    0    0 -0.13008858936E+02  0.48248475792E+02  0.16728253244E+03  0.17459595991E+03  0.17770000000E+01 0. -1.
         15    1    1    2    0    0  0.15676581508E+02 -0.23359859803E+02 -0.16444933726E+00  0.28189058700E+02  0.17770000000E+01 0.  1.
</event>
<event>
 6    1  0.1599106E-003  0.5146600E+03  0.7546771E-02  0.9367591E-01
        -11   -1    0    0    0    0  0.00000000000E+00  0.00000000000E+00  0.50000000000E+03  0.50000000000E+03  0.00000000000E+00 0. -1.
         11   -1    0    0    0    0 -0.00000000000E+00 -0.00000000000E+00 -0.50000000000E+03  0.50000000000E+03  0.00000000000E+00 0. -1.
        -11    1    1    2    0    0  0.68772128423E+01 -0.24294113739E+01  0.48528518186E+03  0.48533998993E+03  0.00000000000E+00 0. -1.
         11    1    1    2    0    0 -0.69917191045E+01  0.64949276844E+01 -0.44274205543E+03  0.44284488918E+03  0.00000000000E+00 0. -1.
        -15    1    1    2    0    0  0.22417819121E+02 -0.10570728034E+02 -0.18426378671E+01  0.24916900863E+02  0.17770000000E+01 0. -1.
         15    1    1    2    0    0 -0.22303312859E+02  0.65052117233E+01 -0.40700488556E+02  0.46898220028E+02  0.17770000000E+01 0.  1.
</event>
<event>
 6    1  0.1599106E-003  0.5003182E+03  0.7546771E-02  0.9399098E-01
        -11   -1    0    0    0    0  0.00000000000E+00  0.00000000000E+00  0.50000000000E+03  0.50000000000E+03  0.00000000000E+00 0. -1.
         11   -1    0    0    0    0 -0.00000000000E+00 -0.00000000000E+00 -0.50000000000E+03  0.50000000000E+03  0.00000000000E+00 0. -1.
        -11    1    1    2    0    0  0.39306551344E+01  0.55875599956E+01  0.49963512658E+03  0.49968182936E+03  0.00000000000E+00 0. -1.
         11    1    1    2    0    0 -0.30482033876E+01 -0.43300287416E+01 -0.32480292244E+03  0.32484608528E+03  0.00000000000E+00 0. -1.
        -15    1    1    2    0    0  0.63454620919E+01  0.19423782339E+01 -0.80296751744E+02  0.80590097357E+02  0.17770000000E+01 0. -1.
         15    1    1    2    0    0 -0.72279138387E+01 -0.31999094879E+01 -0.94535452398E+02  0.94881988008E+02  0.17770000000E+01 0.  1.
</event>
<event>
 6    1  0.1599106E-003  0.5138475E+03  0.7546771E-02  0.9369347E-01
        -11   -1    0    0    0    0  0.00000000000E+00  0.00000000000E+00  0.50000000000E+03  0.50000000000E+03  0.00000000000E+00 0. -1.
         11   -1    0    0    0    0 -0.00000000000E+00 -0.00000000000E+00 -0.50000000000E+03  0.50000000000E+03  0.00000000000E+00 0.  1.
        -11    1    1    2    0    0  0.14926846590E+02  0.43984365477E+01  0.48590336185E+03  0.48615248025E+03  0.00000000000E+00 0. -1.
         11    1    1    2    0    0 -0.12379398931E+02  0.25876451728E+01 -0.44127230702E+03  0.44145350194E+03  0.00000000000E+00 0.  1.
        -15    1    1    2    0    0 -0.12345918576E+02 -0.26493253791E+01  0.10304780936E+02  0.16394720784E+02  0.17770000000E+01 0.  1.
         15    1    1    2    0    0  0.97984709164E+01 -0.43367563415E+01 -0.54935835763E+02  0.55999297030E+02  0.17770000000E+01 0. -1.
</event>
<event>
 6    1  0.1599106E-003  0.5308697E+03  0.7546771E-02  0.9333268E-01
        -11   -1    0    0    0    0  0.00000000000E+00  0.00000000000E+00  0.50000000000E+03  0.50000000000E+03  0.00000000000E+00 0. -1.
         11   -1    0    0    0    0 -0.00000000000E+00 -0.00000000000E+00 -0.50000000000E+03  0.50000000000E+03  0.00000000000E+00 0.  1.
        -11    1    1    2    0    0 -0.11129755563E+02  0.10043654166E+02  0.30060850459E+03  0.30098209163E+03  0.00000000000E+00 0. -1.
         11    1    1    2    0    0 -0.21368933011E+02 -0.45074488881E+02 -0.46647067511E+03  0.46913029276E+03  0.00000000000E+00 0.  1.
        -15    1    1    2    0    0  0.16385107320E+02  0.10626717880E+02  0.19056135088E+03  0.19156770358E+03  0.17770000000E+01 0. -1.
         15    1    1    2    0    0  0.16113581254E+02  0.24404116835E+02 -0.24699180361E+02  0.38319912041E+02  0.17770000000E+01 0.  1.
</event>
<event>
 6    1  0.1599106E-003  0.5031978E+03  0.7546771E-02  0.9392683E-01
        -11   -1    0    0    0    0  0.00000000000E+00  0.00000000000E+00  0.50000000000E+03  0.50000000000E+03  0.00000000000E+00 0. -1.
         11   -1    0    0    0    0 -0.00000000000E+00 -0.00000000000E+00 -0.50000000000E+03  0.50000000000E+03  0.00000000000E+00 0. -1.
        -11    1    1    2    0    0  0.55639080335E+01 -0.11083747515E+02  0.49664741585E+03  0.49680223651E+03  0.00000000000E+00 0. -1.
         11    1    1    2    0    0 -0.10092080284E+02  0.24127992313E+01 -0.33900940039E+03  0.33916816661E+03  0.00000000000E+00 0. -1.
        -15    1    1    2    0    0 -0.67400147924E+01  0.16880132412E+02 -0.26752417375E+02  0.32391607463E+02  0.17770000000E+01 0. -1.
         15    1    1    2    0    0  0.11268187043E+02 -0.82091841283E+01 -0.13088559809E+03  0.13163798942E+03  0.17770000000E+01 0.  1.
</event>
<event>
 6    1  0.1599106E-003  0.5030102E+03  0.7546771E-02  0.9393099E-01
        -11   -1    0    0    0    0  0.00000000000E+00  0.00000000000E+00  0.50000000000E+03  0.50000000000E+03  0.00000000000E+00 0.  1.
         11   -1    0    0    0    0 -0.00000000000E+00 -0.00000000000E+00 -0.50000000000E+03  0.50000000000E+03  0.00000000000E+00 0.  1.
        -11    1    1    2    0    0  0.35352359708E+01 -0.10164668465E+02  0.49687327934E+03  0.49698981287E+03  0.00000000000E+00 0.  1.
         11    1    1    2    0    0 -0.18708341210E+01  0.11868544057E+02 -0.47603412737E+03  0.47618573349E+03  0.00000000000E+00 0.  1.
        -15    1    1    2    0    0  0.47700025679E+01 -0.43332147144E+01 -0.25088870261E+01  0.71401622788E+01  0.17770000000E+01 0. -1.
         15    1    1    2    0    0 -0.64344044176E+01  0.26293391230E+01 -0.18330264944E+02  0.19684291360E+02  0.17770000000E+01 0.  1.
</event>
<event>
 6    1  0.1599106E-003  0.5115193E+03  0.7546771E-02  0.9374397E-01
        -11   -1    0    0    0    0  0.00000000000E+00  0.00000000000E+00  0.50000000000E+03  0.50000000000E+03  0.00000000000E+00 0.  1.
         11   -1    0    0    0    0 -0.00000000000E+00 -0.00000000000E+00 -0.50000000000E+03  0.50000000000E+03  0.00000000000E+00 0. -1.
        -11    1    1    2    0    0 -0.45934299582E+01  0.15736736577E+02  0.43932048200E+03  0.43962623942E+03  0.00000000000E+00 0.  1.
         11    1    1    2    0    0 -0.12821487223E+02 -0.72644859092E+01 -0.48825834700E+03  0.48848068202E+03  0.00000000000E+00 0. -1.
        -15    1    1    2    0    0  0.13120406446E+02  0.46238057060E+01 -0.59787293671E+01  0.15245575698E+02  0.17770000000E+01 0.  1.
         15    1    1    2    0    0  0.42945107356E+01 -0.13096056374E+02  0.54916594366E+02  0.56647502864E+02  0.17770000000E+01 0. -1.
</event>
<event>
 6    1  0.1599106E-003  0.5007634E+03  0.7546771E-02  0.9398103E-01
        -11   -1    0    0    0    0  0.00000000000E+00  0.00000000000E+00  0.50000000000E+03  0.50000000000E+03  0.00000000000E+00 0.  1.
         11   -1    0    0    0    0 -0.00000000000E+00 -0.00000000000E+00 -0.50000000000E+03  0.50000000000E+03  0.00000000000E+00 0. -1.
        -11    1    1    2    0    0  0.53126774368E+01 -0.64787154778E+01  0.49916630880E+03  0.49923661938E+03  0.00000000000E+00 0.  1.
         11    1    1    2    0    0  0.76228962982E+01  0.60815719418E+01 -0.35623496224E+03  0.35636840824E+03  0.00000000000E+00 0. -1.
        -15    1    1    2    0    0 -0.76477102054E+01 -0.25592935209E+01 -0.25709147697E+02  0.27002878717E+02  0.17770000000E+01 0.  1.
         15    1    1    2    0    0 -0.52878635295E+01  0.29564370569E+01 -0.11722219886E+03  0.11739209366E+03  0.17770000000E+01 0. -1.
</event>
<event>
 6    1  0.1599106E-003  0.5025936E+03  0.7546771E-02  0.9394025E-01
        -11   -1    0    0    0    0  0.00000000000E+00  0.00000000000E+00  0.50000000000E+03  0.50000000000E+03  0.00000000000E+00 0.  1.
         11   -1    0    0    0    0 -0.00000000000E+00 -0.00000000000E+00 -0.50000000000E+03  0.50000000000E+03  0.00000000000E+00 0.  1.
        -11    1    1    2    0    0  0.46178012983E+01 -0.60894299786E+01  0.44823906319E+03  0.44830420812E+03  0.00000000000E+00 0.  1.
         11    1    1    2    0    0 -0.15120287985E+01 -0.72265956708E+01 -0.49735157349E+03  0.49740637066E+03  0.00000000000E+00 0.  1.
        -15    1    1    2    0    0  0.10522948654E+01 -0.17858914855E+01  0.22596639190E-01  0.27303795505E+01  0.17770000000E+01 0. -1.
         15    1    1    2    0    0 -0.41580673652E+01  0.15101917135E+02  0.49089913661E+02  0.51559041667E+02  0.17770000000E+01 0. -1.
</event>
<event>
 6    1  0.1599106E-003  0.5001476E+03  0.7546771E-02  0.9399479E-01
        -11   -1    0    0    0    0  0.00000000000E+00  0.00000000000E+00  0.50000000000E+03  0.50000000000E+03  0.00000000000E+00 0.  1.
         11   -1    0    0    0    0 -0.00000000000E+00 -0.00000000000E+00 -0.50000000000E+03  0.50000000000E+03  0.00000000000E+00 0.  1.
        -11    1    1    2    0    0  0.62802191555E-01  0.96779623731E+00  0.69907011225E+02  0.69913738222E+02  0.00000000000E+00 0.  1.
         11    1    1    2    0    0 -0.72772489450E+01 -0.59299708617E+01 -0.49976420345E+03  0.49985236015E+03  0.00000000000E+00 0.  1.
        -15    1    1    2    0    0  0.11022722354E+02  0.71456464057E+01  0.31082733125E+03  0.31110986524E+03  0.17770000000E+01 0.  1.
         15    1    1    2    0    0 -0.38082756009E+01 -0.21834717813E+01  0.11902986097E+03  0.11912403639E+03  0.17770000000E+01 0.  1.
</event>
<event>
 6    1  0.1599106E-003  0.5028484E+03  0.7546771E-02  0.9393459E-01
        -11   -1    0    0    0    0  0.00000000000E+00  0.00000000000E+00  0.50000000000E+03  0.50000000000E+03  0.00000000000E+00 0.  1.
         11   -1    0    0    0    0 -0.00000000000E+00 -0.00000000000E+00 -0.50000000000E+03  0.50000000000E+03  0.00000000000E+00 0. -1.
        -11    1    1    2    0    0 -0.94052678455E-01  0.67098623278E+01  0.49710634260E+03  0.49715163376E+03  0.00000000000E+00 0.  1.
         11    1    1    2    0    0 -0.62130569036E+01  0.23035069480E+01 -0.40316858040E+03  0.40322303065E+03  0.00000000000E+00 0. -1.
        -15    1    1    2    0    0  0.14381761887E+02 -0.89418439217E+01 -0.87513504012E+02  0.89154712501E+02  0.17770000000E+01 0.  1.
         15    1    1    2    0    0 -0.80746523047E+01 -0.71525354127E-01 -0.64242581859E+01  0.10470623093E+02  0.17770000000E+01 0. -1.
</event>
<event>
 6    1  0.1599106E-003  0.4592102E+03  0.7546771E-02  0.9496011E-01
        -11   -1    0    0    0    0  0.00000000000E+00  0.00000000000E+00  0.50000000000E+03  0.50000000000E+03  0.00000000000E+00 0. -1.
         11   -1    0    0    0    0 -0.00000000000E+00 -0.00000000000E+00 -0.50000000000E+03  0.50000000000E+03  0.00000000000E+00 0.  1.
        -11    1    1    2    0    0 -0.32827486160E+01  0.16997408037E+02  0.46942155238E+03  0.46974065414E+03  0.00000000000E+00 0. -1.
         11    1    1    2    0    0 -0.30898530995E+02  0.50673012934E+01 -0.44872235430E+03  0.44981345912E+03  0.00000000000E+00 0.  1.
        -15    1    1    2    0    0  0.54076133522E+02 -0.19870942301E+02 -0.14980476068E+02  0.59553798845E+02  0.17770000000E+01 0.  1.
         15    1    1    2    0    0 -0.19894853912E+02 -0.21937670289E+01 -0.57187220156E+01  0.20892087891E+02  0.17770000000E+01 0. -1.
</event>
<event>
 6    1  0.1599106E-003  0.5125162E+03  0.7546771E-02  0.9372231E-01
        -11   -1    0    0    0    0  0.00000000000E+00  0.00000000000E+00  0.50000000000E+03  0.50000000000E+03  0.00000000000E+00 0.  1.
         11   -1    0    0    0    0 -0.00000000000E+00 -0.00000000000E+00 -0.50000000000E+03  0.50000000000E+03  0.00000000000E+00 0. -1.
        -11    1    1    2    0    0 -0.34733995426E+01  0.13250140415E+02  0.48729135510E+03  0.48748384126E+03  0.00000000000E+00 0.  1.
         11    1    1    2    0    0  0.12444808564E+02  0.16329455935E+02 -0.44692063716E+03  0.44739197614E+03  0.00000000000E+00 0. -1.
        -15    1    1    2    0    0 -0.11694292107E+02 -0.20968583570E+02 -0.47651800096E+02  0.53388104913E+02  0.17770000000E+01 0.  1.
         15    1    1    2    0    0  0.27228830854E+01 -0.86110127795E+01  0.72810821515E+01  0.11736077696E+02  0.17770000000E+01 0. -1.
</event>
<event>
 6    1  0.1599106E-003  0.5111959E+03  0.7546771E-02  0.9375101E-01
        -11   -1    0    0    0    0  0.00000000000E+00  0.00000000000E+00  0.50000000000E+03  0.50000000000E+03  0.00000000000E+00 0. -1.
         11   -1    0    0    0    0 -0.00000000000E+00 -0.00000000000E+00 -0.50000000000E+03  0.50000000000E+03  0.00000000000E+00 0. -1.
        -11    1    1    2    0    0  0.55464386507E+01  0.22970034764E+02  0.48823262541E+03  0.48880413459E+03  0.00000000000E+00 0. -1.
         11    1    1    2    0    0 -0.30291820469E+02 -0.17776544484E+01 -0.17488987341E+03  0.17750273875E+03  0.00000000000E+00 0. -1.
        -15    1    1    2    0    0 -0.35955139872E+00 -0.41008336155E+02 -0.36275452615E+02  0.54780280237E+02  0.17770000000E+01 0.  1.
         15    1    1    2    0    0  0.25104933217E+02  0.19815955839E+02 -0.27706729939E+03  0.27891284642E+03  0.17770000000E+01 0. -1.
</event>
<event>
 6    1  0.1599106E-003  0.5029945E+03  0.7546771E-02  0.9393134E-01
        -11   -1    0    0    0    0  0.00000000000E+00  0.00000000000E+00  0.50000000000E+03  0.50000000000E+03  0.00000000000E+00 0.  1.
         11   -1    0    0    0    0 -0.00000000000E+00 -0.00000000000E+00 -0.50000000000E+03  0.50000000000E+03  0.00000000000E+00 0. -1.
        -11    1    1    2    0    0  0.67470495401E+01  0.10204779022E+02  0.43255989835E+03  0.43273285737E+03  0.00000000000E+00 0.  1.
         11    1    1    2    0    0  0.15955967835E+00  0.81707281030E+01 -0.49693828664E+03  0.49700547984E+03  0.00000000000E+00 0. -1.
        -15    1    1    2    0    0  0.18204034460E+01  0.11685072210E+01  0.27057899866E+02  0.27202333576E+02  0.17770000000E+01 0. -1.
         15    1    1    2    0    0 -0.87270126644E+01 -0.19544014346E+02  0.37320488427E+02  0.43059329213E+02  0.17770000000E+01 0.  1.
</event>
<event>
 6    1  0.1599106E-003  0.5092002E+03  0.7546771E-02  0.9379456E-01
        -11   -1    0    0    0    0  0.00000000000E+00  0.00000000000E+00  0.50000000000E+03  0.50000000000E+03  0.00000000000E+00 0.  1.
         11   -1    0    0    0    0 -0.00000000000E+00 -0.00000000000E+00 -0.50000000000E+03  0.50000000000E+03  0.00000000000E+00 0. -1.
        -11    1    1    2    0    0  0.11994869277E+02 -0.17086074772E+02  0.49035564241E+03  0.49079982364E+03  0.00000000000E+00 0.  1.
         11    1    1    2    0    0 -0.60904871809E+01 -0.31408930089E+01 -0.47724278531E+03  0.47729198126E+03  0.00000000000E+00 0. -1.
        -15    1    1    2    0    0  0.30254088932E+01  0.11341648461E+02 -0.14910842129E+02  0.19059827669E+02  0.17770000000E+01 0. -1.
         15    1    1    2    0    0 -0.89297909890E+01  0.88853193200E+01  0.17979850335E+01  0.12848367434E+02  0.17770000000E+01 0.  1.
</event>
<event>
 6    1  0.1599106E-003  0.5041086E+03  0.7546771E-02  0.9390663E-01
        -11   -1    0    0    0    0  0.00000000000E+00  0.00000000000E+00  0.50000000000E+03  0.50000000000E+03  0.00000000000E+00 0.  1.
         11   -1    0    0    0    0 -0.00000000000E+00 -0.00000000000E+00 -0.50000000000E+03  0.50000000000E+03  0.00000000000E+00 0.  1.
        -11    1    1    2    0    0  0.18910896664E+01  0.10829915281E+02  0.32208526553E+03  0.32227283713E+03  0.00000000000E+00 0.  1.
         11    1    1    2    0    0 -0.11086847179E+02  0.43584792162E+01 -0.49574827477E+03  0.49589138575E+03  0.00000000000E+00 0.  1.
        -15    1    1    2    0    0  0.36660697796E+01  0.51590866644E+01 -0.30961637677E+00  0.65810207522E+01  0.17770000000E+01 0. -1.
         15    1    1    2    0    0  0.55296877331E+01 -0.20347481162E+02  0.17397262562E+03  0.17525475637E+03  0.17770000000E+01 0.  1.
</event>
<event>
 6    1  0.3234388E-003  0.5618742E+03  0.7546771E-02  0.9271100E-01
        -11   -1    0    0    0    0  0.00000000000E+00  0.00000000000E+00  0.50000000000E+03  0.50000000000E+03  0.00000000000E+00 0.  1.
         11   -1    0    0    0    0 -0.00000000000E+00 -0.00000000000E+00 -0.50000000000E+03  0.50000000000E+03  0.00000000000E+00 0. -1.
        -11    1    1    2    0    0  0.86728811925E+01  0.11551009748E+02  0.43788764624E+03  0.43812582145E+03  0.00000000000E+00 0.  1.
         11    1    1    2    0    0 -0.40247811091E+02 -0.58115973184E+01 -0.18545505288E+03  0.18986110080E+03  0.00000000000E+00 0. -1.
        -15    1    1    2    0    0  0.13211896454E+02 -0.98481268114E+01  0.58349004463E+02  0.60657265520E+02  0.17770000000E+01 0.  1.
         15    1    1    2    0    0  0.18363033445E+02  0.41087143814E+01 -0.31078159782E+03  0.31135581223E+03  0.17770000000E+01 0. -1.
</event>
<event>
 6    1  0.1599106E-003  0.5019253E+03  0.7546771E-02  0.9395512E-01
        -11   -1    0    0    0    0  0.00000000000E+00  0.00000000000E+00  0.50000000000E+03  0.50000000000E+03  0.00000000000E+00 0. -1.
         11   -1    0    0    0    0 -0.00000000000E+00 -0.00000000000E+00 -0.50000000000E+03  0.50000000000E+03  0.00000000000E+00 0. -1.
        -11    1    1    2    0    0  0.31491775599E+01  0.83268483239E+01  0.36173332839E+03  0.36184285897E+03  0.00000000000E+00 0. -1.
         11    1    1    2    0    0  0.92643542564E+01  0.57388850182E+01 -0.49795546430E+03  0.49807470071E+03  0.00000000000E+00 0. -1.
        -15    1    1    2    0    0 -0.29236248060E+01 -0.86971043473E+01  0.11261386611E+02  0.14634335087E+02  0.17770000000E+01 0. -1.
         15    1    1    2    0    0 -0.94899070103E+01 -0.53686289948E+01  0.12496074930E+03  0.12544810523E+03  0.17770000000E+01 0.  1.
</event>
<event>
 6    1  0.1599106E-003  0.5017541E+03  0.7546771E-02  0.9395893E-01
        -11   -1    0    0    0    0  0.00000000000E+00  0.00000000000E+00  0.50000000000E+03  0.50000000000E+03  0.00000000000E+00 0.  1.
         11   -1    0    0    0    0 -0.00000000000E+00 -0.00000000000E+00 -0.50000000000E+03  0.50000000000E+03  0.00000000000E+00 0. -1.
        -11    1    1    2    0    0  0.28809419481E+01  0.78596189837E+01  0.49817554076E+03  0.49824586586E+03  0.00000000000E+00 0.  1.
         11    1    1    2    0    0 -0.82394633991E+00 -0.72048076937E+01 -0.35900198794E+03  0.35907522260E+03  0.00000000000E+00 0. -1.
        -15    1    1    2    0    0 -0.69231270925E+01 -0.92134640985E+00 -0.13677361289E+03  0.13696334356E+03  0.17770000000E+01 0. -1.
         15    1    1    2    0    0  0.48661314843E+01  0.26653511987E+00 -0.23999399292E+01  0.57155679732E+01  0.17770000000E+01 0.  1.
</event>
<event>
 6    1  0.1599106E-003  0.5032784E+03  0.7546771E-02  0.9392504E-01
        -11   -1    0    0    0    0  0.00000000000E+00  0.00000000000E+00  0.50000000000E+03  0.50000000000E+03  0.00000000000E+00 0. -1.
         11   -1    0    0    0    0 -0.00000000000E+00 -0.00000000000E+00 -0.50000000000E+03  0.50000000000E+03  0.00000000000E+00 0.  1.
        -11    1    1    2    0    0  0.40324431834E+01  0.68094464118E+01  0.47436428349E+03  0.47443029268E+03  0.00000000000E+00 0. -1.
         11    1    1    2    0    0  0.50795859397E+01 -0.74831112122E+01 -0.49663924526E+03  0.49672159111E+03  0.00000000000E+00 0.  1.
        -15    1    1    2    0    0  0.30159847013E+01  0.38099030278E+01  0.97891946188E+01  0.11072379378E+02  0.17770000000E+01 0.  1.
         15    1    1    2    0    0 -0.12128013824E+02 -0.31362382274E+01  0.12485767151E+02  0.17775736831E+02  0.17770000000E+01 0. -1.
</event>
<event>
 6    1  0.1599106E-003  0.5155962E+03  0.7546771E-02  0.9365573E-01
        -11   -1    0    0    0    0  0.00000000000E+00  0.00000000000E+00  0.50000000000E+03  0.50000000000E+03  0.00000000000E+00 0.  1.
         11   -1    0    0    0    0 -0.00000000000E+00 -0.00000000000E+00 -0.50000000000E+03  0.50000000000E+03  0.00000000000E+00 0.  1.
        -11    1    1    2    0    0 -0.93953537184E+00  0.56867616053E+01  0.23529518653E+03  0.23536577234E+03  0.00000000000E+00 0.  1.
         11    1    1    2    0    0 -0.61786114430E+01  0.75302933572E+01 -0.48430584968E+03  0.48440379498E+03  0.00000000000E+00 0.  1.
        -15    1    1    2    0    0  0.61403930295E+02 -0.34203943163E+02  0.13535028621E+03  0.15252281826E+03  0.17770000000E+01 0.  1.
         15    1    1    2    0    0 -0.54285783480E+02  0.20986888201E+02  0.11366037694E+03  0.12770761442E+03  0.17770000000E+01 0. -1.
</event>
<event>
 6    1  0.1599106E-003  0.4938851E+03  0.7546771E-02  0.9413597E-01
        -11   -1    0    0    0    0  0.00000000000E+00  0.00000000000E+00  0.50000000000E+03  0.50000000000E+03  0.00000000000E+00 0. -1.
         11   -1    0    0    0    0 -0.00000000000E+00 -0.00000000000E+00 -0.50000000000E+03  0.50000000000E+03  0.00000000000E+00 0.  1.
        -11    1    1    2    0    0 -0.62236744657E+01 -0.37530105333E+01  0.49227234124E+03  0.49232598668E+03  0.00000000000E+00 0. -1.
         11    1    1    2    0    0 -0.25050535054E+01  0.71111621766E+01 -0.49543614201E+03  0.49549350625E+03  0.00000000000E+00 0.  1.
        -15    1    1    2    0    0  0.71262569053E+01 -0.26378689749E+01 -0.41588123302E+00  0.78148945233E+01  0.17770000000E+01 0.  1.
         15    1    1    2    0    0  0.16024710658E+01 -0.72028266838E+00  0.35796820048E+01  0.43656125451E+01  0.17770000000E+01 0. -1.
</event>
<event>
 6    1  0.1599106E-003  0.5078031E+03  0.7546771E-02  0.9382517E-01
        -11   -1    0    0    0    0  0.00000000000E+00  0.00000000000E+00  0.50000000000E+03  0.50000000000E+03  0.00000000000E+00 0.  1.
         11   -1    0    0    0    0 -0.00000000000E+00 -0.00000000000E+00 -0.50000000000E+03  0.50000000000E+03  0.00000000000E+00 0.  1.
        -11    1    1    2    0    0 -0.42416326929E+01  0.19032211020E+02  0.49181049778E+03  0.49219689376E+03  0.00000000000E+00 0.  1.
         11    1    1    2    0    0  0.28138442963E+01 -0.16619318466E+02 -0.47263535900E+03  0.47293583290E+03  0.00000000000E+00 0.  1.
        -15    1    1    2    0    0  0.43389563099E+01  0.65398550431E+01 -0.23139684865E+02  0.24498958967E+02  0.17770000000E+01 0.  1.
         15    1    1    2    0    0 -0.29111679134E+01 -0.89527475973E+01  0.39645460861E+01  0.10368314368E+02  0.17770000000E+01 0. -1.
</event>
<event>
 6    1  0.1599106E-003  0.5411196E+03  0.7546771E-02  0.9312228E-01
        -11   -1    0    0    0    0  0.00000000000E+00  0.00000000000E+00  0.50000000000E+03  0.50000000000E+03  0.00000000000E+00 0. -1.
         11   -1    0    0    0    0 -0.00000000000E+00 -0.00000000000E+00 -0.50000000000E+03  0.50000000000E+03  0.00000000000E+00 0. -1.
        -11    1    1    2    0    0 -0.71003591094E+01 -0.76946535694E+01  0.39040476012E+03  0.39054513122E+03  0.00000000000E+00 0. -1.
         11    1    1    2    0    0 -0.63105215455E+02 -0.43303442414E+02 -0.45245304172E+03  0.45888038889E+03  0.00000000000E+00 0. -1.
        -15    1    1    2    0    0  0.45457301553E+02  0.19171480146E+02 -0.24476481707E+02  0.55101431934E+02  0.17770000000E+01 0.  1.
         15    1    1    2    0    0  0.24748273012E+02  0.31826615837E+02  0.86524763303E+02  0.95473047958E+02  0.17770000000E+01 0. -1.
</event>
<event>
 6    1  0.1599106E-003  0.4909934E+03  0.7546771E-02  0.9420191E-01
        -11   -1    0    0    0    0  0.00000000000E+00  0.00000000000E+00  0.50000000000E+03  0.50000000000E+03  0.00000000000E+00 0. -1.
         11   -1    0    0    0    0 -0.00000000000E+00 -0.00000000000E+00 -0.50000000000E+03  0.50000000000E+03  0.00000000000E+00 0. -1.
        -11    1    1    2    0    0 -0.59322051974E+01 -0.65833422060E+01  0.49319666790E+03  0.49327627622E+03  0.00000000000E+00 0. -1.
         11    1    1    2    0    0  0.82228110928E+01 -0.76017847712E+01 -0.48869764361E+03  0.48882592875E+03  0.00000000000E+00 0. -1.
        -15    1    1    2    0    0 -0.10448128816E+01  0.80209288138E+01  0.21694294288E+01  0.85610213199E+01  0.17770000000E+01 0.  1.
         15    1    1    2    0    0 -0.12457930138E+01  0.61641981634E+01 -0.66684537230E+01  0.93367737087E+01  0.17770000000E+01 0. -1.
</event>
<event>
 6    1  0.1599106E-003  0.5039753E+03  0.7546771E-02  0.9390958E-01
        -11   -1    0    0    0    0  0.00000000000E+00  0.00000000000E+00  0.50000000000E+03  0.50000000000E+03  0.00000000000E+00 0. -1.
         11   -1    0    0    0    0 -0.00000000000E+00 -0.00000000000E+00 -0.50000000000E+03  0.50000000000E+03  0.00000000000E+00 0.  1.
        -11    1    1    2    0    0 -0.16064418266E+02  0.39645925718E+02  0.19302597307E+03  0.19770910763E+03  0.00000000000E+00 0. -1.
         11    1    1    2    0    0  0.23472549249E+02 -0.48592316039E+01 -0.49544523395E+03  0.49602474993E+03  0.00000000000E+00 0.  1.
        -15    1    1    2    0    0 -0.11073383915E+02 -0.70826894134E+00  0.37937683769E+02  0.39566994515E+02  0.17770000000E+01 0.  1.
         15    1    1    2    0    0  0.36652529325E+01 -0.34078425172E+02  0.26448157711E+03  0.26669914792E+03  0.17770000000E+01 0. -1.
</event>
<event>
 6    1  0.1599106E-003  0.5009042E+03  0.7546771E-02  0.9397789E-01
        -11   -1    0    0    0    0  0.00000000000E+00  0.00000000000E+00  0.50000000000E+03  0.50000000000E+03  0.00000000000E+00 0. -1.
         11   -1    0    0    0    0 -0.00000000000E+00 -0.00000000000E+00 -0.50000000000E+03  0.50000000000E+03  0.00000000000E+00 0. -1.
        -11    1    1    2    0    0  0.10286926083E+01  0.66291906708E+01  0.21452633435E+03  0.21463120115E+03  0.00000000000E+00 0. -1.
         11    1    1    2    0    0  0.58800809212E+01  0.81051420133E+01 -0.49899535223E+03  0.49909581267E+03  0.00000000000E+00 0. -1.
        -15    1    1    2    0    0 -0.40968510673E+01 -0.63106730842E+01  0.17280093198E+02  0.18930613656E+02  0.17770000000E+01 0.  1.
         15    1    1    2    0    0 -0.28119224622E+01 -0.84236595999E+01  0.26718892468E+03  0.26734237253E+03  0.17770000000E+01 0. -1.
</event>
<event>
 6    1  0.1599106E-003  0.5007754E+03  0.7546771E-02  0.9398076E-01
        -11   -1    0    0    0    0  0.00000000000E+00  0.00000000000E+00  0.50000000000E+03  0.50000000000E+03  0.00000000000E+00 0.  1.
         11   -1    0    0    0    0 -0.00000000000E+00 -0.00000000000E+00 -0.50000000000E+03  0.50000000000E+03  0.00000000000E+00 0.  1.
        -11    1    1    2    0    0  0.59534021817E+01  0.63166711211E+01  0.49914917310E+03  0.49922463916E+03  0.00000000000E+00 0.  1.
         11    1    1    2    0    0 -0.18603895176E+01 -0.62035559496E+01 -0.43306102195E+03  0.43310944793E+03  0.00000000000E+00 0.  1.
        -15    1    1    2    0    0 -0.25617909502E+01 -0.16140902988E+01 -0.33071466295E+01  0.48231740788E+01  0.17770000000E+01 0. -1.
         15    1    1    2    0    0 -0.15312217138E+01  0.15009751274E+01 -0.62781004520E+02  0.62842738831E+02  0.17770000000E+01 0.  1.
</event>
<event>
 6    1  0.1599106E-003  0.5035454E+03  0.7546771E-02  0.9391911E-01
        -11   -1    0    0    0    0  0.00000000000E+00  0.00000000000E+00  0.50000000000E+03  0.50000000000E+03  0.00000000000E+00 0. -1.
         11   -1    0    0    0    0 -0.00000000000E+00 -0.00000000000E+00 -0.50000000000E+03  0.50000000000E+03  0.00000000000E+00 0. -1.
        -11    1    1    2    0    0  0.76941751325E+00  0.57771631056E+01  0.42681208169E+03  0.42685187208E+03  0.00000000000E+00 0. -1.
         11    1    1    2    0    0 -0.15195208187E+02 -0.14826078067E+01 -0.49621980707E+03  0.49645461969E+03  0.00000000000E+00 0. -1.
        -15    1    1    2    0    0  0.17773356899E+01  0.61294331371E+01  0.14723859371E+01  0.67863482142E+01  0.17770000000E+01 0. -1.
         15    1    1    2    0    0  0.12648454984E+02 -0.10423988436E+02  0.67935339441E+02  0.69907160022E+02  0.17770000000E+01 0.  1.
</event>
<event>
 6    1  0.1599106E-003  0.2718086E+03  0.7546771E-02  0.1013616E+00
        -11   -1    0    0    0    0  0.00000000000E+00  0.00000000000E+00  0.50000000000E+03  0.50000000000E+03  0.00000000000E+00 0.  1.
         11   -1    0    0    0    0 -0.00000000000E+00 -0.00000000000E+00 -0.50000000000E+03  0.50000000000E+03  0.00000000000E+00 0.  1.
        -11    1    1    2    0    0 -0.56097624188E+01  0.34443166070E+02  0.43726120259E+03  0.43865152503E+03  0.00000000000E+00 0.  1.
         11    1    1    2    0    0  0.19913770139E+02 -0.42994695369E+01 -0.17973907277E+03  0.18088996092E+03  0.00000000000E+00 0.  1.
        -15    1    1    2    0    0  0.13017607939E+03 -0.34291211146E+02 -0.13924090090E+03  0.19368243343E+03  0.17770000000E+01 0. -1.
         15    1    1    2    0    0 -0.14448008711E+03  0.41475146127E+01 -0.11828122892E+03  0.18677608062E+03  0.17770000000E+01 0.  1.
</event>
<event>
 6    1  0.1599106E-003  0.5047554E+03  0.7546771E-02  0.9389232E-01
        -11   -1    0    0    0    0  0.00000000000E+00  0.00000000000E+00  0.50000000000E+03  0.50000000000E+03  0.00000000000E+00 0.  1.
         11   -1    0    0    0    0 -0.00000000000E+00 -0.00000000000E+00 -0.50000000000E+03  0.50000000000E+03  0.00000000000E+00 0.  1.
        -11    1    1    2    0    0  0.18108384118E+02 -0.67590599578E+01  0.49486730495E+03  0.49524463447E+03  0.00000000000E+00 0.  1.
         11    1    1    2    0    0  0.59391512083E+01 -0.38374268158E+00 -0.43689492678E+03  0.43693546185E+03  0.00000000000E+00 0.  1.
        -15    1    1    2    0    0 -0.26544109392E+02 -0.74439281915E+00 -0.41485337913E+02  0.49288283139E+02  0.17770000000E+01 0.  1.
         15    1    1    2    0    0  0.24965740659E+01  0.78871954585E+01 -0.16487040252E+02  0.18531620532E+02  0.17770000000E+01 0. -1.
</event>
<event>
 6    1  0.1599106E-003  0.5002482E+03  0.7546771E-02  0.9399255E-01
        -11   -1    0    0    0    0  0.00000000000E+00  0.00000000000E+00  0.50000000000E+03  0.50000000000E+03  0.00000000000E+00 0.  1.
         11   -1    0    0    0    0 -0.00000000000E+00 -0.00000000000E+00 -0.50000000000E+03  0.50000000000E+03  0.00000000000E+00 0. -1.
        -11    1    1    2    0    0 -0.59938093148E+01 -0.38093458094E+01  0.49970138447E+03  0.49975184893E+03  0.00000000000E+00 0.  1.
         11    1    1    2    0    0  0.47989688607E+01 -0.53519159147E+01 -0.22717565674E+03  0.22728935770E+03  0.00000000000E+00 0. -1.
        -15    1    1    2    0    0 -0.18315173337E+01  0.11011575105E+02 -0.18729249816E+03  0.18763327753E+03  0.17770000000E+01 0. -1.
         15    1    1    2    0    0  0.30263577878E+01 -0.18503133805E+01 -0.85233229569E+02  0.85325515837E+02  0.17770000000E+01 0.  1.
</event>
<event>
 6    1  0.1599106E-003  0.5068360E+03  0.7546771E-02  0.9384642E-01
        -11   -1    0    0    0    0  0.00000000000E+00  0.00000000000E+00  0.50000000000E+03  0.50000000000E+03  0.00000000000E+00 0. -1.
         11   -1    0    0    0    0 -0.00000000000E+00 -0.00000000000E+00 -0.50000000000E+03  0.50000000000E+03  0.00000000000E+00 0.  1.
        -11    1    1    2    0    0  0.18359814174E+02  0.21961098447E+01  0.49281721571E+03  0.49316398264E+03  0.00000000000E+00 0. -1.
         11    1    1    2    0    0 -0.20586078925E+01  0.10322716027E+02 -0.66455533916E+02  0.67283982646E+02  0.00000000000E+00 0.  1.
        -15    1    1    2    0    0 -0.17423136167E+02 -0.40071918355E+02 -0.72894902217E+02  0.85006757453E+02  0.17770000000E+01 0. -1.
         15    1    1    2    0    0  0.11219298857E+01  0.27553092483E+02 -0.35346677958E+03  0.35454527726E+03  0.17770000000E+01 0.  1.
</event>
<event>
 6    1  0.1599106E-003  0.5004276E+03  0.7546771E-02  0.9398853E-01
        -11   -1    0    0    0    0  0.00000000000E+00  0.00000000000E+00  0.50000000000E+03  0.50000000000E+03  0.00000000000E+00 0.  1.
         11   -1    0    0    0    0 -0.00000000000E+00 -0.00000000000E+00 -0.50000000000E+03  0.50000000000E+03  0.00000000000E+00 0.  1.
        -11    1    1    2    0    0  0.79608354519E+01 -0.50024785151E+01  0.49948387738E+03  0.49957236058E+03  0.00000000000E+00 0.  1.
         11    1    1    2    0    0  0.34048680713E-01 -0.39485018713E+01 -0.21233552081E+03  0.21237223271E+03  0.00000000000E+00 0.  1.
        -15    1    1    2    0    0 -0.75492385841E+01 -0.25511950601E+01 -0.19543213082E+03  0.19560259478E+03  0.17770000000E+01 0.  1.
         15    1    1    2    0    0 -0.44564554853E+00  0.11502175447E+02 -0.91716225747E+02  0.92452811933E+02  0.17770000000E+01 0. -1.
</event>
<event>
 6    1  0.1599106E-003  0.5042847E+03  0.7546771E-02  0.9390273E-01
        -11   -1    0    0    0    0  0.00000000000E+00  0.00000000000E+00  0.50000000000E+03  0.50000000000E+03  0.00000000000E+00 0.  1.
         11   -1    0    0    0    0 -0.00000000000E+00 -0.00000000000E+00 -0.50000000000E+03  0.50000000000E+03  0.00000000000E+00 0. -1.
        -11    1    1    2    0    0 -0.24326094669E+01 -0.14895028176E+02  0.49548548384E+03  0.49571528537E+03  0.00000000000E+00 0.  1.
         11    1    1    2    0    0  0.46528645020E+01  0.18286565979E+01 -0.21300580507E+03  0.21306446472E+03  0.00000000000E+00 0. -1.
        -15    1    1    2    0    0 -0.33575099092E+01 -0.50793953975E+01 -0.26755649039E+03  0.26763166182E+03  0.17770000000E+01 0.  1.
         15    1    1    2    0    0  0.11372548741E+01  0.18145766976E+02 -0.14923188378E+02  0.23588588091E+02  0.17770000000E+01 0. -1.
</event>
<event>
 6    1  0.1599106E-003  0.5077417E+03  0.7546771E-02  0.9382652E-01
        -11   -1    0    0    0    0  0.00000000000E+00  0.00000000000E+00  0.50000000000E+03  0.50000000000E+03  0.00000000000E+00 0.  1.
         11   -1    0    0    0    0 -0.00000000000E+00 -0.00000000000E+00 -0.50000000000E+03  0.50000000000E+03  0.00000000000E+00 0. -1.
        -11    1    1    2    0    0  0.72965567618E+01  0.44205076527E+01  0.47485870857E+03  0.47493533637E+03  0.00000000000E+00 0.  1.
         11    1    1    2    0    0  0.11437906175E+02 -0.36056738610E+01 -0.49211214798E+03  0.49225825821E+03  0.00000000000E+00 0. -1.
        -15    1    1    2    0    0 -0.15272077888E+02  0.34235097466E+01  0.20766572998E+02  0.26064632456E+02  0.17770000000E+01 0.  1.
         15    1    1    2    0    0 -0.34623850488E+01 -0.42383435382E+01 -0.35131335848E+01  0.67417729685E+01  0.17770000000E+01 0. -1.
</event>
<event>
 6    1  0.1599106E-003  0.5003748E+03  0.7546771E-02  0.9398971E-01
        -11   -1    0    0    0    0  0.00000000000E+00  0.00000000000E+00  0.50000000000E+03  0.50000000000E+03  0.00000000000E+00 0.  1.
         11   -1    0    0    0    0 -0.00000000000E+00 -0.00000000000E+00 -0.50000000000E+03  0.50000000000E+03  0.00000000000E+00 0. -1.
        -11    1    1    2    0    0  0.53506511442E+01 -0.20583453300E+01  0.20659407566E+03  0.20667360342E+03  0.00000000000E+00 0.  1.
         11    1    1    2    0    0  0.61714734730E+01 -0.63362041006E+01 -0.49954685407E+03  0.49962515347E+03  0.00000000000E+00 0. -1.
        -15    1    1    2    0    0  0.23801678204E+01  0.60548567183E+01  0.93008846689E+02  0.93253041667E+02  0.17770000000E+01 0. -1.
         15    1    1    2    0    0 -0.13902292438E+02  0.23396927123E+01  0.19994393173E+03  0.20044820144E+03  0.17770000000E+01 0.  1.
</event>
<event>
 6    1  0.1599106E-003  0.5226090E+03  0.7546771E-02  0.9350595E-01
        -11   -1    0    0    0    0  0.00000000000E+00  0.00000000000E+00  0.50000000000E+03  0.50000000000E+03  0.00000000000E+00 0. -1.
         11   -1    0    0    0    0 -0.00000000000E+00 -0.00000000000E+00 -0.50000000000E+03  0.50000000000E+03  0.00000000000E+00 0. -1.
        -11    1    1    2    0    0 -0.39785004218E+01 -0.39677959936E+01  0.39699243716E+03  0.39703219899E+03  0.00000000000E+00 0. -1.
         11    1    1    2    0    0  0.69760926126E+01 -0.81593826689E+01 -0.47727028629E+03  0.47739100072E+03  0.00000000000E+00 0. -1.
        -15    1    1    2    0    0 -0.26047624406E+02 -0.28864398984E+02  0.86467460924E+01  0.39869238930E+02  0.17770000000E+01 0.  1.
         15    1    1    2    0    0  0.23050032215E+02  0.40991577646E+02  0.71631103040E+02  0.85707561363E+02  0.17770000000E+01 0. -1.
</event>
<event>
 6    1  0.1599106E-003  0.5043142E+03  0.7546771E-02  0.9390208E-01
        -11   -1    0    0    0    0  0.00000000000E+00  0.00000000000E+00  0.50000000000E+03  0.50000000000E+03  0.00000000000E+00 0.  1.
         11   -1    0    0    0    0 -0.00000000000E+00 -0.00000000000E+00 -0.50000000000E+03  0.50000000000E+03  0.00000000000E+00 0. -1.
        -11    1    1    2    0    0  0.10954674839E+02  0.75360986076E+01  0.49550740930E+03  0.49568577785E+03  0.00000000000E+00 0.  1.
         11    1    1    2    0    0 -0.27365301508E+01  0.11459258406E+02 -0.46462073485E+03  0.46477008343E+03  0.00000000000E+00 0. -1.
        -15    1    1    2    0    0  0.23365474369E+01 -0.13569638263E+01 -0.85287641357E+01  0.91213130323E+01  0.17770000000E+01 0. -1.
         15    1    1    2    0    0 -0.10554692125E+02 -0.17638393187E+02 -0.22357910317E+02  0.30422825687E+02  0.17770000000E+01 0.  1.
</event>
<event>
 6    1  0.1599106E-003  0.5049446E+03  0.7546771E-02  0.9388813E-01
        -11   -1    0    0    0    0  0.00000000000E+00  0.00000000000E+00  0.50000000000E+03  0.50000000000E+03  0.00000000000E+00 0. -1.
         11   -1    0    0    0    0 -0.00000000000E+00 -0.00000000000E+00 -0.50000000000E+03  0.50000000000E+03  0.00000000000E+00 0. -1.
        -11    1    1    2    0    0  0.21589308730E+02 -0.42813847795E+01  0.32451063926E+03  0.32525618134E+03  0.00000000000E+00 0. -1.
         11    1    1    2    0    0  0.18587686615E+02 -0.13717644194E+02 -0.49451610864E+03  0.49505540857E+03  0.00000000000E+00 0. -1.
        -15    1    1    2    0    0 -0.34230520595E+02  0.33479329637E+01  0.15111486462E+03  0.15498966815E+03  0.17770000000E+01 0. -1.
         15    1    1    2    0    0 -0.59464747494E+01  0.14651096010E+02  0.18890604761E+02  0.24698741941E+02  0.17770000000E+01 0.  1.
</event>
<event>
 6    1  0.1599106E-003  0.5141766E+03  0.7546771E-02  0.9368636E-01
        -11   -1    0    0    0    0  0.00000000000E+00  0.00000000000E+00  0.50000000000E+03  0.50000000000E+03  0.00000000000E+00 0. -1.
         11   -1    0    0    0    0 -0.00000000000E+00 -0.00000000000E+00 -0.50000000000E+03  0.50000000000E+03  0.00000000000E+00 0. -1.
        -11    1    1    2    0    0  0.59172033399E+02 -0.10019758018E+02  0.48210232874E+03  0.48582340460E+03  0.00000000000E+00 0. -1.
         11    1    1    2    0    0  0.72732901859E+01 -0.59973468134E+01 -0.22135771988E+03  0.22155836493E+03  0.00000000000E+00 0. -1.
        -15    1    1    2    0    0 -0.15769821810E+02  0.28047544918E+02 -0.22971762946E+03  0.23196702151E+03  0.17770000000E+01 0. -1.
         15    1    1    2    0    0 -0.50675501774E+02 -0.12030440087E+02 -0.31026979397E+02  0.60651208960E+02  0.17770000000E+01 0.  1.
</event>
<event>
 6    1  0.1599106E-003  0.4826745E+03  0.7546771E-02  0.9439434E-01
        -11   -1    0    0    0    0  0.00000000000E+00  0.00000000000E+00  0.50000000000E+03  0.50000000000E+03  0.00000000000E+00 0. -1.
         11   -1    0    0    0    0 -0.00000000000E+00 -0.00000000000E+00 -0.50000000000E+03  0.50000000000E+03  0.00000000000E+00 0.  1.
        -11    1    1    2    0    0  0.14177773381E+02 -0.67292682592E+00  0.48703389690E+03  0.48724067853E+03  0.00000000000E+00 0. -1.
         11    1    1    2    0    0  0.13976642644E+02 -0.28028658831E+01 -0.47835172289E+03  0.47856407448E+03  0.00000000000E+00 0.  1.
        -15    1    1    2    0    0 -0.14685456782E+02  0.71252880658E+01 -0.11239122222E+02  0.19897436222E+02  0.17770000000E+01 0. -1.
         15    1    1    2    0    0 -0.13468959244E+02 -0.36494953568E+01  0.25569482110E+01  0.14297810763E+02  0.17770000000E+01 0. -1.
</event>
<event>
 6    1  0.1599106E-003  0.5014945E+03  0.7546771E-02  0.9396472E-01
        -11   -1    0    0    0    0  0.00000000000E+00  0.00000000000E+00  0.50000000000E+03  0.50000000000E+03  0.00000000000E+00 0.  1.
         11   -1    0    0    0    0 -0.00000000000E+00 -0.00000000000E+00 -0.50000000000E+03  0.50000000000E+03  0.00000000000E+00 0.  1.
        -11    1    1    2    0    0 -0.55853335817E+01  0.62825111007E+01  0.42464947389E+03  0.42473267072E+03  0.00000000000E+00 0.  1.
         11    1    1    2    0    0  0.47912764605E+01 -0.67255402963E+01 -0.49843710718E+03  0.49850550552E+03  0.00000000000E+00 0.  1.
        -15    1    1    2    0    0  0.39890739392E+01 -0.39703759114E+01  0.69117344662E+02  0.69368881048E+02  0.17770000000E+01 0. -1.
         15    1    1    2    0    0 -0.31950168180E+01  0.44134051070E+01  0.46702886257E+01  0.73929427127E+01  0.17770000000E+01 0.  1.
</event>
<event>
 6    1  0.1599106E-003  0.4774025E+03  0.7546771E-02  0.9451843E-01
        -11   -1    0    0    0    0  0.00000000000E+00  0.00000000000E+00  0.50000000000E+03  0.50000000000E+03  0.00000000000E+00 0.  1.
         11   -1    0    0    0    0 -0.00000000000E+00 -0.00000000000E+00 -0.50000000000E+03  0.50000000000E+03  0.00000000000E+00 0. -1.
        -11    1    1    2    0    0 -0.14166893785E+02 -0.55432408615E+01  0.60192958876E+02  0.62085591702E+02  0.00000000000E+00 0.  1.
         11    1    1    2    0    0  0.40621812507E+02  0.40786191789E+00 -0.48767376080E+03  0.48936284593E+03  0.00000000000E+00 0. -1.
        -15    1    1    2    0    0  0.43680670104E+02 -0.26535867023E+02  0.24870236791E+03  0.25390584616E+03  0.17770000000E+01 0.  1.
         15    1    1    2    0    0 -0.70135588826E+02  0.31671245967E+02  0.17877843402E+03  0.19464571621E+03  0.17770000000E+01 0. -1.
</event>
<event>
 6    1  0.1599106E-003  0.5792948E+03  0.7546771E-02  0.9238006E-01
        -11   -1    0    0    0    0  0.00000000000E+00  0.00000000000E+00  0.50000000000E+03  0.50000000000E+03  0.00000000000E+00 0. -1.
         11   -1    0    0    0    0 -0.00000000000E+00 -0.00000000000E+00 -0.50000000000E+03  0.50000000000E+03  0.00000000000E+00 0. -1.
        -11    1    1    2    0    0  0.17494216451E+02 -0.77071143955E+01  0.42027069288E+03  0.42070524422E+03  0.00000000000E+00 0. -1.
         11    1    1    2    0    0 -0.18703474147E+02  0.24655641182E+01 -0.39944707147E+03  0.39989231283E+03  0.00000000000E+00 0. -1.
        -15    1    1    2    0    0  0.16834920527E+02 -0.47968616332E+01 -0.98222840554E+02  0.99786314524E+02  0.17770000000E+01 0. -1.
         15    1    1    2    0    0 -0.15625662831E+02  0.10038411910E+02  0.77399219146E+02  0.79616128429E+02  0.17770000000E+01 0.  1.
</event>
<event>
 6    1  0.1599106E-003  0.5056573E+03  0.7546771E-02  0.9387239E-01
        -11   -1    0    0    0    0  0.00000000000E+00  0.00000000000E+00  0.50000000000E+03  0.50000000000E+03  0.00000000000E+00 0. -1.
         11   -1    0    0    0    0 -0.00000000000E+00 -0.00000000000E+00 -0.50000000000E+03  0.50000000000E+03  0.00000000000E+00 0.  1.
        -11    1    1    2    0    0 -0.17383576983E+02 -0.10308219745E+02  0.49392935992E+03  0.49434265519E+03  0.00000000000E+00 0. -1.
         11    1    1    2    0    0 -0.23193720528E+01  0.10592081130E+02 -0.47071062223E+03  0.47083549309E+03  0.00000000000E+00 0.  1.
        -15    1    1    2    0    0 -0.20323372296E+01 -0.45110081237E+00  0.29335403537E+00  0.27527571902E+01  0.17770000000E+01 0. -1.
         15    1    1    2    0    0  0.21735286266E+02  0.16723942737E+00 -0.23512091729E+02  0.32069094539E+02  0.17770000000E+01 0.  1.
</event>
<event>
 6    1  0.1599106E-003  0.5167196E+03  0.7546771E-02  0.9363156E-01
        -11   -1    0    0    0    0  0.00000000000E+00  0.00000000000E+00  0.50000000000E+03  0.50000000000E+03  0.00000000000E+00 0. -1.
         11   -1    0    0    0    0 -0.00000000000E+00 -0.00000000000E+00 -0.50000000000E+03  0.50000000000E+03  0.00000000000E+00 0. -1.
        -11    1    1    2    0    0  0.20784165309E+02  0.40318086375E+01  0.45226988691E+03  0.45276515724E+03  0.00000000000E+00 0. -1.
         11    1    1    2    0    0  0.18407993651E+02 -0.13689960231E+02 -0.48273564046E+03  0.48328042357E+03  0.00000000000E+00 0. -1.
        -15    1    1    2    0    0 -0.32385873428E+02  0.14075795417E+02  0.38587823490E+02  0.52336895829E+02  0.17770000000E+01 0.  1.
         15    1    1    2    0    0 -0.68062855318E+01 -0.44176438236E+01 -0.81220699438E+01  0.11617523353E+02  0.17770000000E+01 0. -1.
</event>
<event>
 6    1  0.1599106E-003  0.5186958E+03  0.7546771E-02  0.9358921E-01
        -11   -1    0    0    0    0  0.00000000000E+00  0.00000000000E+00  0.50000000000E+03  0.50000000000E+03  0.00000000000E+00 0.  1.
         11   -1    0    0    0    0 -0.00000000000E+00 -0.00000000000E+00 -0.50000000000E+03  0.50000000000E+03  0.00000000000E+00 0. -1.
        -11    1    1    2    0    0  0.60593754151E+01 -0.43534739821E+01  0.43877199701E+03  0.43883542943E+03  0.00000000000E+00 0.  1.
         11    1    1    2    0    0  0.62867117190E+01  0.12714244526E+02 -0.48109512025E+03  0.48130415487E+03  0.00000000000E+00 0. -1.
        -15    1    1    2    0    0  0.14896065931E+02  0.17551925660E+02 -0.17525006862E+00  0.23090069644E+02  0.17770000000E+01 0. -1.
         15    1    1    2    0    0 -0.27242153065E+02 -0.25912696204E+02  0.42498373315E+02  0.56770346058E+02  0.17770000000E+01 0.  1.
</event>
<event>
 6    1  0.1599106E-003  0.5046865E+03  0.7546771E-02  0.9389384E-01
        -11   -1    0    0    0    0  0.00000000000E+00  0.00000000000E+00  0.50000000000E+03  0.50000000000E+03  0.00000000000E+00 0. -1.
         11   -1    0    0    0    0 -0.00000000000E+00 -0.00000000000E+00 -0.50000000000E+03  0.50000000000E+03  0.00000000000E+00 0.  1.
        -11    1    1    2    0    0 -0.51340901290E+01  0.78079397478E+01  0.49522534108E+03  0.49531349795E+03  0.00000000000E+00 0. -1.
         11    1    1    2    0    0 -0.19282150063E+01 -0.67664567994E+01 -0.47925087060E+03  0.47930251399E+03  0.00000000000E+00 0.  1.
        -15    1    1    2    0    0  0.29705013645E+01  0.95547342900E+00  0.36736157531E+01  0.51371187967E+01  0.17770000000E+01 0.  1.
         15    1    1    2    0    0  0.40918037708E+01 -0.19969563774E+01 -0.19648086241E+02  0.20246869259E+02  0.17770000000E+01 0.  1.
</event>
<event>
 6    1  0.1599106E-003  0.5048842E+03  0.7546771E-02  0.9388947E-01
        -11   -1    0    0    0    0  0.00000000000E+00  0.00000000000E+00  0.50000000000E+03  0.50000000000E+03  0.00000000000E+00 0. -1.
         11   -1    0    0    0    0 -0.00000000000E+00 -0.00000000000E+00 -0.50000000000E+03  0.50000000000E+03  0.00000000000E+00 0.  1.
        -11    1    1    2    0    0  0.84295170765E+01  0.36559268014E+00  0.42596337444E+03  0.42604693025E+03  0.00000000000E+00 0. -1.
         11    1    1    2    0    0 -0.11043605717E+02  0.12454198827E+02 -0.49483588499E+03  0.49511576562E+03  0.00000000000E+00 0.  1.
        -15    1    1    2    0    0  0.81263349722E+01 -0.19400455335E+02  0.19646223267E+02  0.28836553278E+02  0.17770000000E+01 0. -1.
         15    1    1    2    0    0 -0.55122463319E+01  0.65806638283E+01  0.49226287287E+02  0.50000750845E+02  0.17770000000E+01 0.  1.
</event>
<event>
 6    1  0.1599106E-003  0.5033341E+03  0.7546771E-02  0.9392380E-01
        -11   -1    0    0    0    0  0.00000000000E+00  0.00000000000E+00  0.50000000000E+03  0.50000000000E+03  0.00000000000E+00 0.  1.
         11   -1    0    0    0    0 -0.00000000000E+00 -0.00000000000E+00 -0.50000000000E+03  0.50000000000E+03  0.00000000000E+00 0. -1.
        -11    1    1    2    0    0 -0.44585843797E+01 -0.85810818669E+01  0.49657179297E+03  0.49666594359E+03  0.00000000000E+00 0.  1.
         11    1    1    2    0    0  0.17452751847E+02 -0.83286890381E+01 -0.41465488656E+03  0.41510557761E+03  0.00000000000E+00 0. -1.
        -15    1    1    2    0    0 -0.15647911014E+01  0.36522667736E+01  0.91911001332E-01  0.43535962616E+01  0.17770000000E+01 0.  1.
         15    1    1    2    0    0 -0.11429376366E+02  0.13257504131E+02 -0.82008817412E+02  0.83874882547E+02  0.17770000000E+01 0. -1.
</event>
<event>
 6    1  0.1599106E-003  0.5075172E+03  0.7546771E-02  0.9383145E-01
        -11   -1    0    0    0    0  0.00000000000E+00  0.00000000000E+00  0.50000000000E+03  0.50000000000E+03  0.00000000000E+00 0.  1.
         11   -1    0    0    0    0 -0.00000000000E+00 -0.00000000000E+00 -0.50000000000E+03  0.50000000000E+03  0.00000000000E+00 0.  1.
        -11    1    1    2    0    0  0.75221068212E+01  0.11082505383E+02  0.47242486753E+03  0.47261470510E+03  0.00000000000E+00 0.  1.
         11    1    1    2    0    0 -0.20260553161E+02  0.27934143972E+01 -0.49205793075E+03  0.49248279197E+03  0.00000000000E+00 0.  1.
        -15    1    1    2    0    0 -0.27090152664E+01  0.16176449519E+01  0.10536857009E+02  0.11141751368E+02  0.17770000000E+01 0. -1.
         15    1    1    2    0    0  0.15447461606E+02 -0.15493564733E+02  0.90962062040E+01  0.23760751556E+02  0.17770000000E+01 0.  1.
</event>
<event>
 6    1  0.1599106E-003  0.5076822E+03  0.7546771E-02  0.9382782E-01
        -11   -1    0    0    0    0  0.00000000000E+00  0.00000000000E+00  0.50000000000E+03  0.50000000000E+03  0.00000000000E+00 0.  1.
         11   -1    0    0    0    0 -0.00000000000E+00 -0.00000000000E+00 -0.50000000000E+03  0.50000000000E+03  0.00000000000E+00 0.  1.
        -11    1    1    2    0    0  0.70315627304E+01 -0.16704347241E+01  0.49226473331E+03  0.49231778445E+03  0.00000000000E+00 0.  1.
         11    1    1    2    0    0 -0.28741938707E+01  0.11890874690E+02 -0.47364231995E+03  0.47380027558E+03  0.00000000000E+00 0.  1.
        -15    1    1    2    0    0 -0.12734282279E+01  0.34066700008E+01 -0.19400781744E+02  0.19818553964E+02  0.17770000000E+01 0.  1.
         15    1    1    2    0    0 -0.28839406319E+01 -0.13627109966E+02  0.77836839146E+00  0.14063386006E+02  0.17770000000E+01 0. -1.
</event>
<event>
 6    1  0.1599106E-003  0.5007182E+03  0.7546771E-02  0.9398204E-01
        -11   -1    0    0    0    0  0.00000000000E+00  0.00000000000E+00  0.50000000000E+03  0.50000000000E+03  0.00000000000E+00 0. -1.
         11   -1    0    0    0    0 -0.00000000000E+00 -0.00000000000E+00 -0.50000000000E+03  0.50000000000E+03  0.00000000000E+00 0. -1.
        -11    1    1    2    0    0  0.21572177264E+02 -0.62970070350E+01  0.49877577831E+03  0.49928177231E+03  0.00000000000E+00 0. -1.
         11    1    1    2    0    0 -0.35689076683E+01  0.44676793407E+01 -0.10510639549E+03  0.10526182420E+03  0.00000000000E+00 0. -1.
        -15    1    1    2    0    0 -0.61441097034E+01  0.33456791813E+01 -0.15547228444E+02  0.17141111240E+02  0.17770000000E+01 0.  1.
         15    1    1    2    0    0 -0.11859159892E+02 -0.15163514870E+01 -0.37812215437E+03  0.37831529225E+03  0.17770000000E+01 0. -1.
</event>
<event>
 6    1  0.1599106E-003  0.5063876E+03  0.7546771E-02  0.9385629E-01
        -11   -1    0    0    0    0  0.00000000000E+00  0.00000000000E+00  0.50000000000E+03  0.50000000000E+03  0.00000000000E+00 0. -1.
         11   -1    0    0    0    0 -0.00000000000E+00 -0.00000000000E+00 -0.50000000000E+03  0.50000000000E+03  0.00000000000E+00 0. -1.
        -11    1    1    2    0    0 -0.12507131010E+02  0.93413337150E+01  0.47409930392E+03  0.47435623620E+03  0.00000000000E+00 0. -1.
         11    1    1    2    0    0 -0.59264826394E+01 -0.42119984101E+01 -0.49355880928E+03  0.49361236041E+03  0.00000000000E+00 0. -1.
        -15    1    1    2    0    0  0.11510404284E+02 -0.28622108361E+01  0.21178239608E+02  0.24338389831E+02  0.17770000000E+01 0.  1.
         15    1    1    2    0    0  0.69232093660E+01 -0.22671244687E+01 -0.17187342506E+01  0.76930135647E+01  0.17770000000E+01 0. -1.
</event>
<event>
 6    1  0.1599106E-003  0.5135978E+03  0.7546771E-02  0.9369887E-01
        -11   -1    0    0    0    0  0.00000000000E+00  0.00000000000E+00  0.50000000000E+03  0.50000000000E+03  0.00000000000E+00 0.  1.
         11   -1    0    0    0    0 -0.00000000000E+00 -0.00000000000E+00 -0.50000000000E+03  0.50000000000E+03  0.00000000000E+00 0.  1.
        -11    1    1    2    0    0 -0.73550671121E+01 -0.74391414350E+00  0.48634605685E+03  0.48640223831E+03  0.00000000000E+00 0.  1.
         11    1    1    2    0    0 -0.10071401622E+02  0.38512475496E+00 -0.44834379233E+03  0.44845706324E+03  0.00000000000E+00 0.  1.
        -15    1    1    2    0    0  0.22114214211E+02  0.40094815989E+01  0.38155860722E+01  0.22865494505E+02  0.17770000000E+01 0.  1.
         15    1    1    2    0    0 -0.46877454775E+01 -0.36506922104E+01 -0.41817850596E+02  0.42275203947E+02  0.17770000000E+01 0. -1.
</event>
<event>
 6    1  0.1599106E-003  0.5194105E+03  0.7546771E-02  0.9357395E-01
        -11   -1    0    0    0    0  0.00000000000E+00  0.00000000000E+00  0.50000000000E+03  0.50000000000E+03  0.00000000000E+00 0.  1.
         11   -1    0    0    0    0 -0.00000000000E+00 -0.00000000000E+00 -0.50000000000E+03  0.50000000000E+03  0.00000000000E+00 0. -1.
        -11    1    1    2    0    0 -0.74190510030E+01  0.11534411018E+01  0.48053088685E+03  0.48058954000E+03  0.00000000000E+00 0.  1.
         11    1    1    2    0    0 -0.42296720330E+01 -0.50608061452E+01 -0.41774212509E+03  0.41779418972E+03  0.00000000000E+00 0. -1.
        -15    1    1    2    0    0  0.44586945095E+02  0.58305279868E+01 -0.25229374779E+02  0.51591373409E+02  0.17770000000E+01 0. -1.
         15    1    1    2    0    0 -0.32938222059E+02 -0.19231629434E+01 -0.37559386974E+02  0.50024896871E+02  0.17770000000E+01 0.  1.
</event>
<event>
 6    1  0.1599106E-003  0.4151879E+03  0.7546771E-02  0.9612560E-01
        -11   -1    0    0    0    0  0.00000000000E+00  0.00000000000E+00  0.50000000000E+03  0.50000000000E+03  0.00000000000E+00 0. -1.
         11   -1    0    0    0    0 -0.00000000000E+00 -0.00000000000E+00 -0.50000000000E+03  0.50000000000E+03  0.00000000000E+00 0.  1.
        -11    1    1    2    0    0  0.12473148464E+02  0.19174057946E+02  0.43706269261E+03  0.43766085180E+03  0.00000000000E+00 0. -1.
         11    1    1    2    0    0  0.31940133043E+01 -0.85217474389E+02 -0.38767838882E+03  0.39694678839E+03  0.00000000000E+00 0.  1.
        -15    1    1    2    0    0  0.13224517100E+02 -0.25923024004E+02  0.29009696903E+02  0.41129202150E+02  0.17770000000E+01 0.  1.
         15    1    1    2    0    0 -0.28891678869E+02  0.91966440447E+02 -0.78394000695E+02  0.12426315765E+03  0.17770000000E+01 0. -1.
</event>
<event>
 6    1  0.3111443E-003  0.5039331E+03  0.7546771E-02  0.9391052E-01
        -11   -1    0    0    0    0  0.00000000000E+00  0.00000000000E+00  0.50000000000E+03  0.50000000000E+03  0.00000000000E+00 0.  1.
         11   -1    0    0    0    0 -0.00000000000E+00 -0.00000000000E+00 -0.50000000000E+03  0.50000000000E+03  0.00000000000E+00 0.  1.
        -11    1    1    2    0    0 -0.55235101864E+01 -0.69076597376E+01  0.49598805959E+03  0.49606691100E+03  0.00000000000E+00 0.  1.
         11    1    1    2    0    0  0.83695275597E+01  0.27887726956E+01 -0.12037510160E+03  0.12069793425E+03  0.00000000000E+00 0.  1.
        -15    1    1    2    0    0  0.39866618656E+01  0.30803364428E+01  0.18885238885E+01  0.56662330440E+01  0.17770000000E+01 0. -1.
         15    1    1    2    0    0 -0.68326792389E+01  0.10385505992E+01 -0.37750148188E+03  0.37756892171E+03  0.17770000000E+01 0.  1.
</event>
<event>
 6    1  0.1599106E-003  0.5092269E+03  0.7546771E-02  0.9379397E-01
        -11   -1    0    0    0    0  0.00000000000E+00  0.00000000000E+00  0.50000000000E+03  0.50000000000E+03  0.00000000000E+00 0. -1.
         11   -1    0    0    0    0 -0.00000000000E+00 -0.00000000000E+00 -0.50000000000E+03  0.50000000000E+03  0.00000000000E+00 0.  1.
        -11    1    1    2    0    0  0.58315766478E+01  0.43878803092E+01  0.49071878820E+03  0.49077305333E+03  0.00000000000E+00 0. -1.
         11    1    1    2    0    0  0.92171475501E+01 -0.21147411450E+02 -0.42793570937E+03  0.42855704425E+03  0.00000000000E+00 0.  1.
        -15    1    1    2    0    0 -0.89868567665E+01  0.21238124180E+02 -0.67669720669E+02  0.71513427674E+02  0.17770000000E+01 0. -1.
         15    1    1    2    0    0 -0.60618674313E+01 -0.44785930388E+01  0.48866418438E+01  0.91564747513E+01  0.17770000000E+01 0. -1.
</event>
<event>
 6    1  0.1599106E-003  0.5495195E+03  0.7546771E-02  0.9295351E-01
        -11   -1    0    0    0    0  0.00000000000E+00  0.00000000000E+00  0.50000000000E+03  0.50000000000E+03  0.00000000000E+00 0.  1.
         11   -1    0    0    0    0 -0.00000000000E+00 -0.00000000000E+00 -0.50000000000E+03  0.50000000000E+03  0.00000000000E+00 0. -1.
        -11    1    1    2    0    0 -0.10127156959E+02 -0.12559125517E+02  0.45019149126E+03  0.45048048764E+03  0.00000000000E+00 0.  1.
         11    1    1    2    0    0  0.11741536479E+01 -0.10206586528E+02 -0.39270270628E+03  0.39283707637E+03  0.00000000000E+00 0. -1.
        -15    1    1    2    0    0  0.78773620923E+01 -0.23086072926E+01  0.47747348111E+02  0.48480403069E+02  0.17770000000E+01 0.  1.
         15    1    1    2    0    0  0.10756412189E+01  0.25074319338E+02 -0.10523613308E+03  0.10820203293E+03  0.17770000000E+01 0. -1.
</event>
<event>
 6    1  0.1599106E-003  0.5028178E+03  0.7546771E-02  0.9393527E-01
        -11   -1    0    0    0    0  0.00000000000E+00  0.00000000000E+00  0.50000000000E+03  0.50000000000E+03  0.00000000000E+00 0.  1.
         11   -1    0    0    0    0 -0.00000000000E+00 -0.00000000000E+00 -0.50000000000E+03  0.50000000000E+03  0.00000000000E+00 0. -1.
        -11    1    1    2    0    0  0.19138507085E+02 -0.54859203674E+01  0.19740118009E+03  0.19840263022E+03  0.00000000000E+00 0.  1.
         11    1    1    2    0    0 -0.86052993980E+00  0.32990650641E+02 -0.49608568136E+03  0.49718218672E+03  0.00000000000E+00 0. -1.
        -15    1    1    2    0    0 -0.21948483928E+02 -0.26072135368E+02  0.29810743807E+03  0.30005448597E+03  0.17770000000E+01 0.  1.
         15    1    1    2    0    0  0.36705067829E+01 -0.14325949056E+01  0.57706319308E+00  0.43606970929E+01  0.17770000000E+01 0. -1.
</event>
<event>
 6    1  0.1599106E-003  0.5102067E+03  0.7546771E-02  0.9377257E-01
        -11   -1    0    0    0    0  0.00000000000E+00  0.00000000000E+00  0.50000000000E+03  0.50000000000E+03  0.00000000000E+00 0. -1.
         11   -1    0    0    0    0 -0.00000000000E+00 -0.00000000000E+00 -0.50000000000E+03  0.50000000000E+03  0.00000000000E+00 0.  1.
        -11    1    1    2    0    0  0.32251796495E+02 -0.15877048893E+02  0.42581873636E+03  0.42733342403E+03  0.00000000000E+00 0. -1.
         11    1    1    2    0    0 -0.10578623792E+02 -0.22076488443E+01 -0.48967402918E+03  0.48979325827E+03  0.00000000000E+00 0.  1.
        -15    1    1    2    0    0 -0.29975937794E+02  0.17535285066E+02  0.65545534322E+02  0.74198503136E+02  0.17770000000E+01 0. -1.
         15    1    1    2    0    0  0.83027650908E+01  0.54941267105E+00 -0.16902415056E+01  0.86748145676E+01  0.17770000000E+01 0.  1.
</event>
<event>
 6    1  0.1599106E-003  0.5095633E+03  0.7546771E-02  0.9378662E-01
        -11   -1    0    0    0    0  0.00000000000E+00  0.00000000000E+00  0.50000000000E+03  0.50000000000E+03  0.00000000000E+00 0. -1.
         11   -1    0    0    0    0 -0.00000000000E+00 -0.00000000000E+00 -0.50000000000E+03  0.50000000000E+03  0.00000000000E+00 0.  1.
        -11    1    1    2    0    0 -0.15377072846E+02 -0.14476464602E+02  0.41077079370E+03  0.41131334449E+03  0.00000000000E+00 0. -1.
         11    1    1    2    0    0  0.67175811802E+01  0.27574086459E+01 -0.49038297103E+03  0.49043673137E+03  0.00000000000E+00 0.  1.
        -15    1    1    2    0    0 -0.55198972166E+01  0.21842071478E+02  0.77359912782E+02  0.80593170842E+02  0.17770000000E+01 0.  1.
         15    1    1    2    0    0  0.14179388882E+02 -0.10123015522E+02  0.22522645468E+01  0.17656753295E+02  0.17770000000E+01 0. -1.
</event>
<event>
 6    1  0.1599106E-003  0.5030871E+03  0.7546771E-02  0.9392929E-01
        -11   -1    0    0    0    0  0.00000000000E+00  0.00000000000E+00  0.50000000000E+03  0.50000000000E+03  0.00000000000E+00 0.  1.
         11   -1    0    0    0    0 -0.00000000000E+00 -0.00000000000E+00 -0.50000000000E+03  0.50000000000E+03  0.00000000000E+00 0.  1.
        -11    1    1    2    0    0 -0.10556979544E+02 -0.22360663934E+01  0.49679573943E+03  0.49691292651E+03  0.00000000000E+00 0.  1.
         11    1    1    2    0    0 -0.42688680676E+01  0.22331799750E+02 -0.43383180585E+03  0.43442717259E+03  0.00000000000E+00 0.  1.
        -15    1    1    2    0    0  0.13195987401E+02 -0.16536493014E+02 -0.39881680834E+02  0.45180702516E+02  0.17770000000E+01 0.  1.
         15    1    1    2    0    0  0.16298602109E+01 -0.35592403422E+01 -0.23082252746E+02  0.23479198388E+02  0.17770000000E+01 0. -1.
</event>
<event>
 6    1  0.1599106E-003  0.5012372E+03  0.7546771E-02  0.9397046E-01
        -11   -1    0    0    0    0  0.00000000000E+00  0.00000000000E+00  0.50000000000E+03  0.50000000000E+03  0.00000000000E+00 0. -1.
         11   -1    0    0    0    0 -0.00000000000E+00 -0.00000000000E+00 -0.50000000000E+03  0.50000000000E+03  0.00000000000E+00 0.  1.
        -11    1    1    2    0    0 -0.42946205762E+01  0.86644716634E+01  0.49866901759E+03  0.49876277521E+03  0.00000000000E+00 0. -1.
         11    1    1    2    0    0 -0.43979489706E+01 -0.60957258725E+01 -0.44643502305E+03  0.44649829746E+03  0.00000000000E+00 0.  1.
        -15    1    1    2    0    0  0.87180865117E+00 -0.69067024060E+01 -0.25494878483E+02  0.26487905661E+02  0.17770000000E+01 0. -1.
         15    1    1    2    0    0  0.78207608957E+01  0.43379566152E+01 -0.26739116053E+02  0.28251021661E+02  0.17770000000E+01 0.  1.
</event>
<event>
 6    1  0.1599106E-003  0.5147723E+03  0.7546771E-02  0.9367349E-01
        -11   -1    0    0    0    0  0.00000000000E+00  0.00000000000E+00  0.50000000000E+03  0.50000000000E+03  0.00000000000E+00 0.  1.
         11   -1    0    0    0    0 -0.00000000000E+00 -0.00000000000E+00 -0.50000000000E+03  0.50000000000E+03  0.00000000000E+00 0. -1.
        -11    1    1    2    0    0  0.90793151071E+01  0.16454448535E+01  0.48513991606E+03  0.48522765750E+03  0.00000000000E+00 0.  1.
         11    1    1    2    0    0 -0.13316897656E+02 -0.52290468657E+01 -0.48086422736E+03  0.48107700823E+03  0.00000000000E+00 0. -1.
        -15    1    1    2    0    0  0.92970023959E+01  0.26389483499E+01 -0.17122792358E+02  0.19741986959E+02  0.17770000000E+01 0.  1.
         15    1    1    2    0    0 -0.50594198470E+01  0.94465366237E+00  0.12847103659E+02  0.13953347310E+02  0.17770000000E+01 0.  1.
</event>
<event>
 6    1  0.1599106E-003  0.5037761E+03  0.7546771E-02  0.9391400E-01
        -11   -1    0    0    0    0  0.00000000000E+00  0.00000000000E+00  0.50000000000E+03  0.50000000000E+03  0.00000000000E+00 0. -1.
         11   -1    0    0    0    0 -0.00000000000E+00 -0.00000000000E+00 -0.50000000000E+03  0.50000000000E+03  0.00000000000E+00 0. -1.
        -11    1    1    2    0    0  0.65952906011E+01 -0.68561988066E+01  0.49613268615E+03  0.49622388857E+03  0.00000000000E+00 0. -1.
         11    1    1    2    0    0  0.84989842137E+01 -0.23817828420E+01 -0.23026185396E+03  0.23043095932E+03  0.00000000000E+00 0. -1.
        -15    1    1    2    0    0 -0.96613593833E+01  0.35353080365E+02 -0.15956689939E+03  0.16373128982E+03  0.17770000000E+01 0. -1.
         15    1    1    2    0    0 -0.54329154315E+01 -0.26115098716E+02 -0.10630393280E+03  0.10961386230E+03  0.17770000000E+01 0.  1.
</event>
<event>
 6    1  0.1599106E-003  0.5083002E+03  0.7546771E-02  0.9381427E-01
        -11   -1    0    0    0    0  0.00000000000E+00  0.00000000000E+00  0.50000000000E+03  0.50000000000E+03  0.00000000000E+00 0.  1.
         11   -1    0    0    0    0 -0.00000000000E+00 -0.00000000000E+00 -0.50000000000E+03  0.50000000000E+03  0.00000000000E+00 0. -1.
        -11    1    1    2    0    0  0.11465864301E+02 -0.12918005720E+02  0.49139633348E+03  0.49169980422E+03  0.00000000000E+00 0.  1.
         11    1    1    2    0    0 -0.89701866418E+01 -0.69258652752E+01 -0.43673454826E+03  0.43688156004E+03  0.00000000000E+00 0. -1.
        -15    1    1    2    0    0  0.34231084621E+01  0.80181582710E+01 -0.57156048156E+02  0.57844447472E+02  0.17770000000E+01 0.  1.
         15    1    1    2    0    0 -0.59187861213E+01  0.11825712724E+02  0.24942629344E+01  0.13574188269E+02  0.17770000000E+01 0. -1.
</event>
<event>
 6    1  0.1599106E-003  0.5048099E+03  0.7546771E-02  0.9389111E-01
        -11   -1    0    0    0    0  0.00000000000E+00  0.00000000000E+00  0.50000000000E+03  0.50000000000E+03  0.00000000000E+00 0.  1.
         11   -1    0    0    0    0 -0.00000000000E+00 -0.00000000000E+00 -0.50000000000E+03  0.50000000000E+03  0.00000000000E+00 0. -1.
        -11    1    1    2    0    0 -0.73064231345E+01 -0.57709448942E+01  0.49510259619E+03  0.49519013357E+03  0.00000000000E+00 0.  1.
         11    1    1    2    0    0 -0.30931624389E+01 -0.89951306725E+01 -0.35811898117E+03  0.35824528567E+03  0.00000000000E+00 0. -1.
        -15    1    1    2    0    0  0.46830956825E+01  0.91995955060E+01 -0.13793750910E+03  0.13833465975E+03  0.17770000000E+01 0. -1.
         15    1    1    2    0    0  0.57164898910E+01  0.55664800607E+01  0.95389407918E+00  0.82299210114E+01  0.17770000000E+01 0. -1.
</event>
<event>
 6    1  0.1599106E-003  0.5065028E+03  0.7546771E-02  0.9385376E-01
        -11   -1    0    0    0    0  0.00000000000E+00  0.00000000000E+00  0.50000000000E+03  0.50000000000E+03  0.00000000000E+00 0.  1.
         11   -1    0    0    0    0 -0.00000000000E+00 -0.00000000000E+00 -0.50000000000E+03  0.50000000000E+03  0.00000000000E+00 0.  1.
        -11    1    1    2    0    0  0.73089732693E+01  0.56717229655E+01  0.49341044477E+03  0.49349716974E+03  0.00000000000E+00 0.  1.
         11    1    1    2    0    0  0.61300652961E+01  0.65995644037E+00 -0.45454311366E+03  0.45458492652E+03  0.00000000000E+00 0.  1.
        -15    1    1    2    0    0  0.33120305286E+01 -0.23993423968E+01  0.38119310068E+01  0.58664245636E+01  0.17770000000E+01 0. -1.
         15    1    1    2    0    0 -0.16751069094E+02 -0.39323370091E+01 -0.42679262115E+02  0.46051479171E+02  0.17770000000E+01 0.  1.
</event>
<event>
 6    1  0.1599106E-003  0.5014253E+03  0.7546771E-02  0.9396626E-01
        -11   -1    0    0    0    0  0.00000000000E+00  0.00000000000E+00  0.50000000000E+03  0.50000000000E+03  0.00000000000E+00 0. -1.
         11   -1    0    0    0    0 -0.00000000000E+00 -0.00000000000E+00 -0.50000000000E+03  0.50000000000E+03  0.00000000000E+00 0.  1.
        -11    1    1    2    0    0 -0.23742686444E+01  0.10176908865E+02  0.49846521901E+03  0.49857474985E+03  0.00000000000E+00 0. -1.
         11    1    1    2    0    0 -0.52504410646E+01  0.25824723887E+01 -0.37900256603E+03  0.37904772965E+03  0.00000000000E+00 0.  1.
        -15    1    1    2    0    0  0.25214779681E+00 -0.70307515541E+01 -0.92531966958E+01  0.11759014585E+02  0.17770000000E+01 0. -1.
         15    1    1    2    0    0  0.73725619122E+01 -0.57286296995E+01 -0.11020945628E+03  0.11061850591E+03  0.17770000000E+01 0.  1.
</event>
<event>
 6    1  0.1599106E-003  0.5090913E+03  0.7546771E-02  0.9379694E-01
        -11   -1    0    0    0    0  0.00000000000E+00  0.00000000000E+00  0.50000000000E+03  0.50000000000E+03  0.00000000000E+00 0.  1.
         11   -1    0    0    0    0 -0.00000000000E+00 -0.00000000000E+00 -0.50000000000E+03  0.50000000000E+03  0.00000000000E+00 0. -1.
        -11    1    1    2    0    0 -0.68844528842E+01 -0.85580245273E+01  0.49078576737E+03  0.49090865232E+03  0.00000000000E+00 0.  1.
         11    1    1    2    0    0 -0.32922422740E+01  0.10685139590E+02 -0.48131794298E+03  0.48144778876E+03  0.00000000000E+00 0. -1.
        -15    1    1    2    0    0 -0.95400115268E+00 -0.69242039165E+01 -0.13024305997E+02  0.14887746431E+02  0.17770000000E+01 0. -1.
         15    1    1    2    0    0  0.11130696311E+02  0.47970888537E+01  0.35564816074E+01  0.12755812489E+02  0.17770000000E+01 0.  1.
</event>
<event>
 6    1  0.1599106E-003  0.5101101E+03  0.7546771E-02  0.9377467E-01
        -11   -1    0    0    0    0  0.00000000000E+00  0.00000000000E+00  0.50000000000E+03  0.50000000000E+03  0.00000000000E+00 0.  1.
         11   -1    0    0    0    0 -0.00000000000E+00 -0.00000000000E+00 -0.50000000000E+03  0.50000000000E+03  0.00000000000E+00 0.  1.
        -11    1    1    2    0    0 -0.47604313092E+01 -0.51165205286E+01  0.38899663196E+03  0.38905940441E+03  0.00000000000E+00 0.  1.
         11    1    1    2    0    0  0.88978824735E+01 -0.70010426536E+01 -0.48975901466E+03  0.48988986451E+03  0.00000000000E+00 0.  1.
        -15    1    1    2    0    0  0.10593766551E+02  0.48691774843E+01 -0.58513813725E+01  0.13165605648E+02  0.17770000000E+01 0.  1.
         15    1    1    2    0    0 -0.14731217715E+02  0.72483856979E+01  0.10661376407E+03  0.10788512543E+03  0.17770000000E+01 0. -1.
</event>
<event>
 6    1  0.1599106E-003  0.4873489E+03  0.7546771E-02  0.9428571E-01
        -11   -1    0    0    0    0  0.00000000000E+00  0.00000000000E+00  0.50000000000E+03  0.50000000000E+03  0.00000000000E+00 0. -1.
         11   -1    0    0    0    0 -0.00000000000E+00 -0.00000000000E+00 -0.50000000000E+03  0.50000000000E+03  0.00000000000E+00 0.  1.
        -11    1    1    2    0    0 -0.60848924124E+01  0.43824027845E+01  0.48317113724E+03  0.48322932364E+03  0.00000000000E+00 0. -1.
         11    1    1    2    0    0 -0.12370126367E+02  0.47473644146E+01 -0.49154326361E+03  0.49172180905E+03  0.00000000000E+00 0.  1.
        -15    1    1    2    0    0  0.14630332020E+02 -0.41413791038E+01  0.10039725303E+02  0.18307142023E+02  0.17770000000E+01 0. -1.
         15    1    1    2    0    0  0.38246867597E+01 -0.49883880953E+01 -0.16675989325E+01  0.67417252836E+01  0.17770000000E+01 0.  1.
</event>
<event>
 6    1  0.1599106E-003  0.4683618E+03  0.7546771E-02  0.9473525E-01
        -11   -1    0    0    0    0  0.00000000000E+00  0.00000000000E+00  0.50000000000E+03  0.50000000000E+03  0.00000000000E+00 0.  1.
         11   -1    0    0    0    0 -0.00000000000E+00 -0.00000000000E+00 -0.50000000000E+03  0.50000000000E+03  0.00000000000E+00 0.  1.
        -11    1    1    2    0    0 -0.51784799004E+01  0.67640268660E+01  0.47209904048E+03  0.47217589173E+03  0.00000000000E+00 0.  1.
         11    1    1    2    0    0  0.22545273317E+01  0.11469866257E+02 -0.46461263069E+03  0.46475965544E+03  0.00000000000E+00 0.  1.
        -15    1    1    2    0    0  0.55650991707E+01 -0.32302951267E+01  0.25674602520E+02  0.26528250582E+02  0.17770000000E+01 0.  1.
         15    1    1    2    0    0 -0.26411466019E+01 -0.15003597996E+02 -0.33161012305E+02  0.36536202242E+02  0.17770000000E+01 0. -1.
</event>
<event>
 6    1  0.1599106E-003  0.5056827E+03  0.7546771E-02  0.9387183E-01
        -11   -1    0    0    0    0  0.00000000000E+00  0.00000000000E+00  0.50000000000E+03  0.50000000000E+03  0.00000000000E+00 0.  1.
         11   -1    0    0    0    0 -0.00000000000E+00 -0.00000000000E+00 -0.50000000000E+03  0.50000000000E+03  0.00000000000E+00 0.  1.
        -11    1    1    2    0    0  0.40240950116E+01  0.59068012658E+01  0.49426563235E+03  0.49431730596E+03  0.00000000000E+00 0.  1.
         11    1    1    2    0    0 -0.53927963766E+01 -0.98218901077E+00 -0.24172677423E+03  0.24178891689E+03  0.00000000000E+00 0.  1.
        -15    1    1    2    0    0  0.90817009838E+01  0.76678851293E+01 -0.24807358793E+03  0.24836452346E+03  0.17770000000E+01 0.  1.
         15    1    1    2    0    0 -0.77129996188E+01 -0.12592497384E+02 -0.44652701901E+01  0.15529253696E+02  0.17770000000E+01 0. -1.
</event>
<event>
 6    1  0.1599106E-003  0.5063653E+03  0.7546771E-02  0.9385678E-01
        -11   -1    0    0    0    0  0.00000000000E+00  0.00000000000E+00  0.50000000000E+03  0.50000000000E+03  0.00000000000E+00 0.  1.
         11   -1    0    0    0    0 -0.00000000000E+00 -0.00000000000E+00 -0.50000000000E+03  0.50000000000E+03  0.00000000000E+00 0.  1.
        -11    1    1    2    0    0 -0.28700745230E+02  0.20556531053E+02  0.49237073093E+03  0.49363472368E+03  0.00000000000E+00 0.  1.
         11    1    1    2    0    0  0.80009861621E+01 -0.27484184627E+01 -0.38610441752E+03  0.38619708804E+03  0.00000000000E+00 0.  1.
        -15    1    1    2    0    0  0.42619906289E+01  0.14425481197E+02 -0.57237383583E+02  0.59207557628E+02  0.17770000000E+01 0.  1.
         15    1    1    2    0    0  0.16437768440E+02 -0.32233593788E+02 -0.49028929828E+02  0.60960630646E+02  0.17770000000E+01 0. -1.
</event>
<event>
 6    1  0.1599106E-003  0.3296273E+03  0.7546771E-02  0.9890751E-01
        -11   -1    0    0    0    0  0.00000000000E+00  0.00000000000E+00  0.50000000000E+03  0.50000000000E+03  0.00000000000E+00 0.  1.
         11   -1    0    0    0    0 -0.00000000000E+00 -0.00000000000E+00 -0.50000000000E+03  0.50000000000E+03  0.00000000000E+00 0.  1.
        -11    1    1    2    0    0 -0.30299663177E+03  0.98177708454E+02  0.39381379776E+02  0.32093101186E+03  0.00000000000E+00 0.  1.
         11    1    1    2    0    0 -0.16505164154E+00  0.23368159516E+01 -0.11315204551E+03  0.11317629325E+03  0.00000000000E+00 0.  1.
        -15    1    1    2    0    0  0.29589493183E+03 -0.10208169427E+03  0.24313953397E+03  0.39635145224E+03  0.17770000000E+01 0.  1.
         15    1    1    2    0    0  0.72667515851E+01  0.15671698666E+01 -0.16936886824E+03  0.16954124264E+03  0.17770000000E+01 0. -1.
</event>
<event>
 6    1  0.1599106E-003  0.5035573E+03  0.7546771E-02  0.9391885E-01
        -11   -1    0    0    0    0  0.00000000000E+00  0.00000000000E+00  0.50000000000E+03  0.50000000000E+03  0.00000000000E+00 0. -1.
         11   -1    0    0    0    0 -0.00000000000E+00 -0.00000000000E+00 -0.50000000000E+03  0.50000000000E+03  0.00000000000E+00 0.  1.
        -11    1    1    2    0    0 -0.11321010318E+00 -0.94880681320E+01  0.42054645448E+03  0.42065348760E+03  0.00000000000E+00 0. -1.
         11    1    1    2    0    0 -0.95730475389E+01  0.31236053660E+01 -0.49634055313E+03  0.49644269038E+03  0.00000000000E+00 0.  1.
        -15    1    1    2    0    0  0.71017800818E+01  0.22611169103E+01  0.76821386344E+00  0.77003773643E+01  0.17770000000E+01 0.  1.
         15    1    1    2    0    0  0.25844775603E+01  0.41033458557E+01  0.75025884787E+02  0.75203444659E+02  0.17770000000E+01 0. -1.
</event>
<event>
 6    1  0.1599106E-003  0.5110923E+03  0.7546771E-02  0.9375326E-01
        -11   -1    0    0    0    0  0.00000000000E+00  0.00000000000E+00  0.50000000000E+03  0.50000000000E+03  0.00000000000E+00 0.  1.
         11   -1    0    0    0    0 -0.00000000000E+00 -0.00000000000E+00 -0.50000000000E+03  0.50000000000E+03  0.00000000000E+00 0. -1.
        -11    1    1    2    0    0 -0.12823021904E+01 -0.80219126727E+01  0.48884023175E+03  0.48890772909E+03  0.00000000000E+00 0.  1.
         11    1    1    2    0    0  0.35558289774E+01  0.30312164792E+02 -0.46363898474E+03  0.46464242104E+03  0.00000000000E+00 0. -1.
        -15    1    1    2    0    0  0.40238904983E+01 -0.10076616120E+02 -0.29869321472E+02  0.31828666032E+02  0.17770000000E+01 0. -1.
         15    1    1    2    0    0 -0.62974172853E+01 -0.12213636000E+02  0.46680744608E+01  0.14621183843E+02  0.17770000000E+01 0.  1.
</event>
<event>
 6    1  0.1599106E-003  0.5024275E+03  0.7546771E-02  0.9394394E-01
        -11   -1    0    0    0    0  0.00000000000E+00  0.00000000000E+00  0.50000000000E+03  0.50000000000E+03  0.00000000000E+00 0.  1.
         11   -1    0    0    0    0 -0.00000000000E+00 -0.00000000000E+00 -0.50000000000E+03  0.50000000000E+03  0.00000000000E+00 0.  1.
        -11    1    1    2    0    0 -0.71476937893E+01 -0.31453609802E+01  0.49751122356E+03  0.49757250767E+03  0.00000000000E+00 0.  1.
         11    1    1    2    0    0  0.43277780170E+01  0.87816211409E+01 -0.21518023928E+03  0.21540283635E+03  0.00000000000E+00 0.  1.
        -15    1    1    2    0    0  0.59465451618E-01 -0.11162426584E+02 -0.27993766978E+03  0.28016577235E+03  0.17770000000E+01 0.  1.
         15    1    1    2    0    0  0.27604503207E+01  0.55261664238E+01 -0.23933144992E+01  0.68588836270E+01  0.17770000000E+01 0. -1.
</event>
<event>
 6    1  0.1599106E-003  0.5009512E+03  0.7546771E-02  0.9397684E-01
        -11   -1    0    0    0    0  0.00000000000E+00  0.00000000000E+00  0.50000000000E+03  0.50000000000E+03  0.00000000000E+00 0. -1.
         11   -1    0    0    0    0 -0.00000000000E+00 -0.00000000000E+00 -0.50000000000E+03  0.50000000000E+03  0.00000000000E+00 0. -1.
        -11    1    1    2    0    0  0.46328436360E+01 -0.10919605351E+02  0.49890778675E+03  0.49904877587E+03  0.00000000000E+00 0. -1.
         11    1    1    2    0    0 -0.87768004431E-01  0.11830011360E+01 -0.66038643693E+02  0.66049297163E+02  0.00000000000E+00 0. -1.
        -15    1    1    2    0    0 -0.15687756808E+01 -0.13680898380E+02 -0.76676010850E+02  0.77923015897E+02  0.17770000000E+01 0.  1.
         15    1    1    2    0    0 -0.29762999508E+01  0.23417502595E+02 -0.35619313220E+03  0.35697891107E+03  0.17770000000E+01 0. -1.
</event>
<event>
 6    1  0.1599106E-003  0.5067178E+03  0.7546771E-02  0.9384902E-01
        -11   -1    0    0    0    0  0.00000000000E+00  0.00000000000E+00  0.50000000000E+03  0.50000000000E+03  0.00000000000E+00 0.  1.
         11   -1    0    0    0    0 -0.00000000000E+00 -0.00000000000E+00 -0.50000000000E+03  0.50000000000E+03  0.00000000000E+00 0. -1.
        -11    1    1    2    0    0  0.96228821037E+01 -0.59729980085E+01  0.49315220237E+03  0.49328224301E+03  0.00000000000E+00 0.  1.
         11    1    1    2    0    0 -0.10812949250E+02 -0.84854802038E+00 -0.47341705348E+03  0.47354128271E+03  0.00000000000E+00 0. -1.
        -15    1    1    2    0    0  0.89141859876E+01  0.35936452938E+01 -0.22211876471E+02  0.24267306890E+02  0.17770000000E+01 0. -1.
         15    1    1    2    0    0 -0.77241188413E+01  0.32279007351E+01  0.24767275843E+01  0.89091673885E+01  0.17770000000E+01 0.  1.
</event>
<event>
 6    1  0.1599106E-003  0.5034379E+03  0.7546771E-02  0.9392150E-01
        -11   -1    0    0    0    0  0.00000000000E+00  0.00000000000E+00  0.50000000000E+03  0.50000000000E+03  0.00000000000E+00 0.  1.
         11   -1    0    0    0    0 -0.00000000000E+00 -0.00000000000E+00 -0.50000000000E+03  0.50000000000E+03  0.00000000000E+00 0. -1.
        -11    1    1    2    0    0 -0.53738644525E+01  0.34546389309E+01  0.43286852342E+03  0.43291566328E+03  0.00000000000E+00 0.  1.
         11    1    1    2    0    0 -0.92297166811E+01 -0.10635454238E+02 -0.49636243604E+03  0.49656214965E+03  0.00000000000E+00 0. -1.
        -15    1    1    2    0    0  0.73775037863E+00 -0.83260715245E+01  0.28699067104E+02  0.29944313722E+02  0.17770000000E+01 0. -1.
         15    1    1    2    0    0  0.13865830755E+02  0.15506886832E+02  0.34794845515E+02  0.40577873344E+02  0.17770000000E+01 0.  1.
</event>
<event>
 6    1  0.1599106E-003  0.5001135E+03  0.7546771E-02  0.9399556E-01
        -11   -1    0    0    0    0  0.00000000000E+00  0.00000000000E+00  0.50000000000E+03  0.50000000000E+03  0.00000000000E+00 0. -1.
         11   -1    0    0    0    0 -0.00000000000E+00 -0.00000000000E+00 -0.50000000000E+03  0.50000000000E+03  0.00000000000E+00 0. -1.
        -11    1    1    2    0    0 -0.15898185606E+01 -0.12781422276E+01  0.13726764317E+03  0.13728279948E+03  0.00000000000E+00 0. -1.
         11    1    1    2    0    0  0.87499250652E+01  0.83645163948E+01 -0.49973987140E+03  0.49988645250E+03  0.00000000000E+00 0. -1.
        -15    1    1    2    0    0 -0.71492001694E+00 -0.38399070577E+01  0.27775149141E+03  0.27778463728E+03  0.17770000000E+01 0. -1.
         15    1    1    2    0    0 -0.64451864876E+01 -0.32464671095E+01  0.84720736819E+02  0.85046110750E+02  0.17770000000E+01 0.  1.
</event>
<event>
 6    1  0.1599106E-003  0.5123229E+03  0.7546771E-02  0.9372651E-01
        -11   -1    0    0    0    0  0.00000000000E+00  0.00000000000E+00  0.50000000000E+03  0.50000000000E+03  0.00000000000E+00 0.  1.
         11   -1    0    0    0    0 -0.00000000000E+00 -0.00000000000E+00 -0.50000000000E+03  0.50000000000E+03  0.00000000000E+00 0. -1.
        -11    1    1    2    0    0 -0.25988399755E+01 -0.46713061725E+01  0.83676188527E+02  0.83846762591E+02  0.00000000000E+00 0.  1.
         11    1    1    2    0    0 -0.10543984873E+02  0.20419105275E+02 -0.48713535918E+03  0.48767712027E+03  0.00000000000E+00 0. -1.
        -15    1    1    2    0    0  0.98494954965E+01 -0.21716230046E+02 -0.10221617805E+01  0.23933444229E+02  0.17770000000E+01 0.  1.
         15    1    1    2    0    0  0.32933293521E+01  0.59684309439E+01  0.40448133243E+03  0.40454267291E+03  0.17770000000E+01 0.  1.
</event>
<event>
 6    1  0.1599106E-003  0.5007363E+03  0.7546771E-02  0.9398164E-01
        -11   -1    0    0    0    0  0.00000000000E+00  0.00000000000E+00  0.50000000000E+03  0.50000000000E+03  0.00000000000E+00 0.  1.
         11   -1    0    0    0    0 -0.00000000000E+00 -0.00000000000E+00 -0.50000000000E+03  0.50000000000E+03  0.00000000000E+00 0. -1.
        -11    1    1    2    0    0 -0.19946801223E+01  0.24792718182E+01  0.15694776901E+03  0.15698002336E+03  0.00000000000E+00 0.  1.
         11    1    1    2    0    0 -0.53849359589E+01 -0.11213500405E+02 -0.49910872464E+03  0.49926371703E+03  0.00000000000E+00 0. -1.
        -15    1    1    2    0    0 -0.63852212184E+01  0.15456311339E+02  0.13964845103E+03  0.14065744280E+03  0.17770000000E+01 0. -1.
         15    1    1    2    0    0  0.13764837300E+02 -0.67220827518E+01  0.20251250460E+03  0.20309881681E+03  0.17770000000E+01 0.  1.
</event>
<event>
 6    1  0.1599106E-003  0.5005186E+03  0.7546771E-02  0.9398650E-01
        -11   -1    0    0    0    0  0.00000000000E+00  0.00000000000E+00  0.50000000000E+03  0.50000000000E+03  0.00000000000E+00 0. -1.
         11   -1    0    0    0    0 -0.00000000000E+00 -0.00000000000E+00 -0.50000000000E+03  0.50000000000E+03  0.00000000000E+00 0.  1.
        -11    1    1    2    0    0 -0.59729199218E+01 -0.38846492026E+01  0.49943056003E+03  0.49948138160E+03  0.00000000000E+00 0. -1.
         11    1    1    2    0    0 -0.58472685917E+01 -0.38120161508E+01 -0.34748513163E+03  0.34755523118E+03  0.00000000000E+00 0.  1.
        -15    1    1    2    0    0  0.29297904009E+01 -0.12376972351E+01 -0.63766971853E+02  0.63870963626E+02  0.17770000000E+01 0. -1.
         15    1    1    2    0    0  0.88903981125E+01  0.89343625885E+01 -0.88178456547E+02  0.89092423592E+02  0.17770000000E+01 0.  1.
</event>
<event>
 6    1  0.1599106E-003  0.5532572E+03  0.7546771E-02  0.9287944E-01
        -11   -1    0    0    0    0  0.00000000000E+00  0.00000000000E+00  0.50000000000E+03  0.50000000000E+03  0.00000000000E+00 0. -1.
         11   -1    0    0    0    0 -0.00000000000E+00 -0.00000000000E+00 -0.50000000000E+03  0.50000000000E+03  0.00000000000E+00 0.  1.
        -11    1    1    2    0    0  0.37828029844E+01  0.87356398912E+01  0.44664135520E+03  0.44674279085E+03  0.00000000000E+00 0. -1.
         11    1    1    2    0    0  0.60892880369E+01  0.52231749184E+01 -0.37123290321E+03  0.37131957855E+03  0.00000000000E+00 0.  1.
        -15    1    1    2    0    0  0.14372609856E+02 -0.15813990676E+01  0.50783009961E+02  0.52831283978E+02  0.17770000000E+01 0. -1.
         15    1    1    2    0    0 -0.24244700877E+02 -0.12377415742E+02 -0.12619146195E+03  0.12910634662E+03  0.17770000000E+01 0.  1.
</event>
<event>
 6    1  0.1599106E-003  0.4671484E+03  0.7546771E-02  0.9476475E-01
        -11   -1    0    0    0    0  0.00000000000E+00  0.00000000000E+00  0.50000000000E+03  0.50000000000E+03  0.00000000000E+00 0.  1.
         11   -1    0    0    0    0 -0.00000000000E+00 -0.00000000000E+00 -0.50000000000E+03  0.50000000000E+03  0.00000000000E+00 0. -1.
        -11    1    1    2    0    0 -0.26354937082E+01  0.19769997692E+02  0.47521104812E+03  0.47562941340E+03  0.00000000000E+00 0.  1.
         11    1    1    2    0    0 -0.32169833423E+02  0.46211030447E+00 -0.45855530875E+03  0.45968258930E+03  0.00000000000E+00 0. -1.
        -15    1    1    2    0    0 -0.42480101331E+01 -0.98570719873E+01  0.11170861509E+02  0.15593374686E+02  0.17770000000E+01 0. -1.
         15    1    1    2    0    0  0.39053337265E+02 -0.10375036009E+02 -0.27826600881E+02  0.49094622611E+02  0.17770000000E+01 0.  1.
</event>
<event>
 6    1  0.1599106E-003  0.5117360E+03  0.7546771E-02  0.9373926E-01
        -11   -1    0    0    0    0  0.00000000000E+00  0.00000000000E+00  0.50000000000E+03  0.50000000000E+03  0.00000000000E+00 0.  1.
         11   -1    0    0    0    0 -0.00000000000E+00 -0.00000000000E+00 -0.50000000000E+03  0.50000000000E+03  0.00000000000E+00 0.  1.
        -11    1    1    2    0    0  0.26948082736E+00 -0.10132036649E+02  0.46462840082E+03  0.46473893923E+03  0.00000000000E+00 0.  1.
         11    1    1    2    0    0 -0.12669465169E+02  0.23220849965E+01 -0.48809409436E+03  0.48826401912E+03  0.00000000000E+00 0.  1.
        -15    1    1    2    0    0  0.10934098658E+02  0.54418087452E+01 -0.84200249984E+01  0.14940627358E+02  0.17770000000E+01 0.  1.
         15    1    1    2    0    0  0.14658856836E+01  0.23681429069E+01  0.31885718534E+02  0.32056414289E+02  0.17770000000E+01 0. -1.
</event>
<event>
 6    1  0.1599106E-003  0.5002038E+03  0.7546771E-02  0.9399354E-01
        -11   -1    0    0    0    0  0.00000000000E+00  0.00000000000E+00  0.50000000000E+03  0.50000000000E+03  0.00000000000E+00 0. -1.
         11   -1    0    0    0    0 -0.00000000000E+00 -0.00000000000E+00 -0.50000000000E+03  0.50000000000E+03  0.00000000000E+00 0. -1.
        -11    1    1    2    0    0  0.35178191786E+01 -0.15926746236E+01  0.60266034016E+02  0.60389622620E+02  0.00000000000E+00 0. -1.
         11    1    1    2    0    0  0.10272321778E+02  0.65655181314E+01 -0.49964748935E+03  0.49979619870E+03  0.00000000000E+00 0. -1.
        -15    1    1    2    0    0 -0.11274926641E+02 -0.10109182350E+01  0.39205753993E+03  0.39222495876E+03  0.17770000000E+01 0. -1.
         15    1    1    2    0    0 -0.25152143160E+01 -0.39619252728E+01  0.47323915398E+02  0.47589219920E+02  0.17770000000E+01 0.  1.
</event>
<event>
 6    1  0.1599106E-003  0.5082405E+03  0.7546771E-02  0.9381557E-01
        -11   -1    0    0    0    0  0.00000000000E+00  0.00000000000E+00  0.50000000000E+03  0.50000000000E+03  0.00000000000E+00 0. -1.
         11   -1    0    0    0    0 -0.00000000000E+00 -0.00000000000E+00 -0.50000000000E+03  0.50000000000E+03  0.00000000000E+00 0.  1.
        -11    1    1    2    0    0  0.17281657958E+02 -0.16518091517E+02  0.44046439526E+03  0.44111266877E+03  0.00000000000E+00 0. -1.
         11    1    1    2    0    0 -0.67446017991E+01 -0.82451516115E+01 -0.49164412449E+03  0.49175951167E+03  0.00000000000E+00 0.  1.
        -15    1    1    2    0    0 -0.19502975222E+02  0.70981131033E+01  0.37790697975E+02  0.43151405940E+02  0.17770000000E+01 0.  1.
         15    1    1    2    0    0  0.89659190632E+01  0.17665130025E+02  0.13389031246E+02  0.23976413622E+02  0.17770000000E+01 0. -1.
</event>
<event>
 6    1  0.1599106E-003  0.5047321E+03  0.7546771E-02  0.9389283E-01
        -11   -1    0    0    0    0  0.00000000000E+00  0.00000000000E+00  0.50000000000E+03  0.50000000000E+03  0.00000000000E+00 0. -1.
         11   -1    0    0    0    0 -0.00000000000E+00 -0.00000000000E+00 -0.50000000000E+03  0.50000000000E+03  0.00000000000E+00 0.  1.
        -11    1    1    2    0    0 -0.10367766636E+02  0.42165135167E+01  0.49514145937E+03  0.49526794198E+03  0.00000000000E+00 0. -1.
         11    1    1    2    0    0 -0.18752626056E+01  0.86385841860E+01 -0.44886972876E+03  0.44895676311E+03  0.00000000000E+00 0.  1.
        -15    1    1    2    0    0  0.19527243753E+02 -0.12709710099E+02 -0.31633716756E+02  0.39328103745E+02  0.17770000000E+01 0.  1.
         15    1    1    2    0    0 -0.72842145108E+01 -0.14538760359E+00 -0.14638013850E+02  0.16447191161E+02  0.17770000000E+01 0. -1.
</event>
<event>
 6    1  0.1599106E-003  0.5237820E+03  0.7546771E-02  0.9348114E-01
        -11   -1    0    0    0    0  0.00000000000E+00  0.00000000000E+00  0.50000000000E+03  0.50000000000E+03  0.00000000000E+00 0.  1.
         11   -1    0    0    0    0 -0.00000000000E+00 -0.00000000000E+00 -0.50000000000E+03  0.50000000000E+03  0.00000000000E+00 0.  1.
        -11    1    1    2    0    0  0.11425858242E+02 -0.92194947227E+01  0.47599159518E+03  0.47621796271E+03  0.00000000000E+00 0.  1.
         11    1    1    2    0    0  0.31134449700E+01  0.10007318695E+02 -0.29584781190E+03  0.29603338963E+03  0.00000000000E+00 0.  1.
        -15    1    1    2    0    0 -0.65473435052E+01 -0.16169589210E+02 -0.20032201842E+03  0.20108802081E+03  0.17770000000E+01 0.  1.
         15    1    1    2    0    0 -0.79919597070E+01  0.15381765237E+02  0.20178235139E+02  0.26660626851E+02  0.17770000000E+01 0. -1.
</event>
<event>
 6    1  0.1599106E-003  0.4786257E+03  0.7546771E-02  0.9448949E-01
        -11   -1    0    0    0    0  0.00000000000E+00  0.00000000000E+00  0.50000000000E+03  0.50000000000E+03  0.00000000000E+00 0. -1.
         11   -1    0    0    0    0 -0.00000000000E+00 -0.00000000000E+00 -0.50000000000E+03  0.50000000000E+03  0.00000000000E+00 0.  1.
        -11    1    1    2    0    0  0.64998706569E+01  0.16924817188E+01  0.48373583523E+03  0.48378246258E+03  0.00000000000E+00 0. -1.
         11    1    1    2    0    0 -0.18102712132E+02  0.13570495033E+02 -0.47317856009E+03  0.47371913224E+03  0.00000000000E+00 0.  1.
        -15    1    1    2    0    0  0.18311783888E+02 -0.23758523670E+02 -0.93067668989E+01  0.31457312588E+02  0.17770000000E+01 0.  1.
         15    1    1    2    0    0 -0.67089424136E+01  0.84955469186E+01 -0.12505082373E+01  0.11041092591E+02  0.17770000000E+01 0. -1.
</event>
<event>
 6    1  0.1599106E-003  0.5020470E+03  0.7546771E-02  0.9395241E-01
        -11   -1    0    0    0    0  0.00000000000E+00  0.00000000000E+00  0.50000000000E+03  0.50000000000E+03  0.00000000000E+00 0. -1.
         11   -1    0    0    0    0 -0.00000000000E+00 -0.00000000000E+00 -0.50000000000E+03  0.50000000000E+03  0.00000000000E+00 0. -1.
        -11    1    1    2    0    0  0.61782563952E+01 -0.10721314050E+02  0.49779927906E+03  0.49795304965E+03  0.00000000000E+00 0. -1.
         11    1    1    2    0    0  0.14956861359E+02 -0.80084791423E+01 -0.37510783707E+03  0.37549132196E+03  0.00000000000E+00 0. -1.
        -15    1    1    2    0    0  0.66568448304E+00  0.13267111007E+01 -0.40422356361E+01  0.46584005961E+01  0.17770000000E+01 0. -1.
         15    1    1    2    0    0 -0.21800802237E+02  0.17403082091E+02 -0.11864920635E+03  0.12189722779E+03  0.17770000000E+01 0. -1.
</event>
<event>
 6    1  0.1599106E-003  0.5075041E+03  0.7546771E-02  0.9383174E-01
        -11   -1    0    0    0    0  0.00000000000E+00  0.00000000000E+00  0.50000000000E+03  0.50000000000E+03  0.00000000000E+00 0.  1.
         11   -1    0    0    0    0 -0.00000000000E+00 -0.00000000000E+00 -0.50000000000E+03  0.50000000000E+03  0.00000000000E+00 0. -1.
        -11    1    1    2    0    0  0.91000830616E+00  0.11141432721E+02  0.49236905833E+03  0.49249593830E+03  0.00000000000E+00 0.  1.
         11    1    1    2    0    0 -0.73839757561E+00  0.73336790714E+01 -0.48037629470E+03  0.48043283879E+03  0.00000000000E+00 0. -1.
        -15    1    1    2    0    0  0.87243167704E+00 -0.17455266626E+02 -0.15127915348E+02  0.23183162463E+02  0.17770000000E+01 0. -1.
         15    1    1    2    0    0 -0.10440424076E+01 -0.10198451656E+01  0.31351517215E+01  0.38880604454E+01  0.17770000000E+01 0.  1.
</event>
<event>
 6    1  0.1599106E-003  0.5003744E+03  0.7546771E-02  0.9398972E-01
        -11   -1    0    0    0    0  0.00000000000E+00  0.00000000000E+00  0.50000000000E+03  0.50000000000E+03  0.00000000000E+00 0. -1.
         11   -1    0    0    0    0 -0.00000000000E+00 -0.00000000000E+00 -0.50000000000E+03  0.50000000000E+03  0.00000000000E+00 0. -1.
        -11    1    1    2    0    0 -0.76844878157E+01 -0.65477626681E+00  0.49956609738E+03  0.49962562558E+03  0.00000000000E+00 0. -1.
         11    1    1    2    0    0  0.14615079181E+01  0.74184529915E+01 -0.33034876949E+03  0.33043528709E+03  0.00000000000E+00 0. -1.
        -15    1    1    2    0    0 -0.99486491266E+00 -0.36212082486E+01 -0.16722602630E+02  0.17230962628E+02  0.17770000000E+01 0.  1.
         15    1    1    2    0    0  0.72178448102E+01 -0.31424684761E+01 -0.15249472525E+03  0.15270812471E+03  0.17770000000E+01 0.  1.
</event>
<event>
 6    1  0.1599106E-003  0.5003765E+03  0.7546771E-02  0.9398968E-01
        -11   -1    0    0    0    0  0.00000000000E+00  0.00000000000E+00  0.50000000000E+03  0.50000000000E+03  0.00000000000E+00 0. -1.
         11   -1    0    0    0    0 -0.00000000000E+00 -0.00000000000E+00 -0.50000000000E+03  0.50000000000E+03  0.00000000000E+00 0.  1.
        -11    1    1    2    0    0 -0.23146316709E+00  0.87463537787E+01  0.13528693087E+03  0.13556956127E+03  0.00000000000E+00 0. -1.
         11    1    1    2    0    0 -0.36559595448E+01  0.62239796725E+01 -0.49957137404E+03  0.49962351999E+03  0.00000000000E+00 0.  1.
        -15    1    1    2    0    0 -0.65298425014E-01  0.12771462752E+01  0.76730422169E+02  0.76761649160E+02  0.17770000000E+01 0. -1.
         15    1    1    2    0    0  0.39527211369E+01 -0.16247479726E+02  0.28755402101E+03  0.28804526958E+03  0.17770000000E+01 0.  1.
</event>
<event>
 6    1  0.1599106E-003  0.4436477E+03  0.7546771E-02  0.9535559E-01
        -11   -1    0    0    0    0  0.00000000000E+00  0.00000000000E+00  0.50000000000E+03  0.50000000000E+03  0.00000000000E+00 0. -1.
         11   -1    0    0    0    0 -0.00000000000E+00 -0.00000000000E+00 -0.50000000000E+03  0.50000000000E+03  0.00000000000E+00 0. -1.
        -11    1    1    2    0    0 -0.14274773661E+02 -0.45960009026E+02  0.46010247570E+03  0.46261255900E+03  0.00000000000E+00 0. -1.
         11    1    1    2    0    0 -0.11229175939E+02 -0.13008386988E+02 -0.42726614174E+03  0.42761158591E+03  0.00000000000E+00 0. -1.
        -15    1    1    2    0    0  0.32589834088E+02  0.49253229264E+02  0.14553636500E+02  0.60851819555E+02  0.17770000000E+01 0.  1.
         15    1    1    2    0    0 -0.70858844878E+01  0.97151667499E+01 -0.47389970466E+02  0.48924035542E+02  0.17770000000E+01 0. -1.
</event>
<event>
 6    1  0.1599106E-003  0.5048922E+03  0.7546771E-02  0.9388929E-01
        -11   -1    0    0    0    0  0.00000000000E+00  0.00000000000E+00  0.50000000000E+03  0.50000000000E+03  0.00000000000E+00 0.  1.
         11   -1    0    0    0    0 -0.00000000000E+00 -0.00000000000E+00 -0.50000000000E+03  0.50000000000E+03  0.00000000000E+00 0. -1.
        -11    1    1    2    0    0  0.98078338504E+01 -0.26607907073E+00  0.49501061901E+03  0.49510784414E+03  0.00000000000E+00 0.  1.
         11    1    1    2    0    0 -0.60532721111E+01  0.44889842263E+01 -0.44666444357E+03  0.44672801371E+03  0.00000000000E+00 0. -1.
        -15    1    1    2    0    0  0.21535044935E+00 -0.42193674881E+01 -0.52171122168E+02  0.52372064644E+02  0.17770000000E+01 0. -1.
         15    1    1    2    0    0 -0.39699121887E+01 -0.35376674427E-02  0.38249467334E+01  0.57920775042E+01  0.17770000000E+01 0.  1.
</event>
<event>
 6    1  0.1599106E-003  0.5071168E+03  0.7546771E-02  0.9384025E-01
        -11   -1    0    0    0    0  0.00000000000E+00  0.00000000000E+00  0.50000000000E+03  0.50000000000E+03  0.00000000000E+00 0. -1.
         11   -1    0    0    0    0 -0.00000000000E+00 -0.00000000000E+00 -0.50000000000E+03  0.50000000000E+03  0.00000000000E+00 0.  1.
        -11    1    1    2    0    0  0.13393073490E+02 -0.67483893671E+01  0.42115368627E+03  0.42142062436E+03  0.00000000000E+00 0. -1.
         11    1    1    2    0    0  0.13540960495E+02  0.12883969136E+02 -0.49252865112E+03  0.49288317728E+03  0.00000000000E+00 0.  1.
        -15    1    1    2    0    0 -0.28240332740E+02 -0.15762819120E+02  0.33675764535E+02  0.46724701239E+02  0.17770000000E+01 0.  1.
         15    1    1    2    0    0  0.13062987554E+01  0.96272393507E+01  0.37699200318E+02  0.38971497117E+02  0.17770000000E+01 0. -1.
</event>
<event>
 6    1  0.1599106E-003  0.5438584E+03  0.7546771E-02  0.9306690E-01
        -11   -1    0    0    0    0  0.00000000000E+00  0.00000000000E+00  0.50000000000E+03  0.50000000000E+03  0.00000000000E+00 0. -1.
         11   -1    0    0    0    0 -0.00000000000E+00 -0.00000000000E+00 -0.50000000000E+03  0.50000000000E+03  0.00000000000E+00 0. -1.
        -11    1    1    2    0    0  0.13291538081E+02  0.19841978010E+02  0.40111809592E+03  0.40182844094E+03  0.00000000000E+00 0. -1.
         11    1    1    2    0    0  0.73025625686E+00 -0.80662422989E+01 -0.45606966050E+03  0.45614157097E+03  0.00000000000E+00 0. -1.
        -15    1    1    2    0    0 -0.50969580876E+02 -0.71173758710E+01 -0.22404999870E+02  0.56157786300E+02  0.17770000000E+01 0.  1.
         15    1    1    2    0    0  0.36947786538E+02 -0.46583598401E+01  0.77356564453E+02  0.85872201786E+02  0.17770000000E+01 0. -1.
</event>
<event>
 6    1  0.1599106E-003  0.5250085E+03  0.7546771E-02  0.9345527E-01
        -11   -1    0    0    0    0  0.00000000000E+00  0.00000000000E+00  0.50000000000E+03  0.50000000000E+03  0.00000000000E+00 0. -1.
         11   -1    0    0    0    0 -0.00000000000E+00 -0.00000000000E+00 -0.50000000000E+03  0.50000000000E+03  0.00000000000E+00 0. -1.
        -11    1    1    2    0    0  0.63875520284E+01 -0.12177851507E+01  0.40787449182E+03  0.40792632288E+03  0.00000000000E+00 0. -1.
         11    1    1    2    0    0  0.75229016973E+01 -0.84474796090E+01 -0.47485677580E+03  0.47499148569E+03  0.00000000000E+00 0. -1.
        -15    1    1    2    0    0  0.12446498155E+02 -0.10209308844E+02 -0.18998678038E+02  0.24965031536E+02  0.17770000000E+01 0.  1.
         15    1    1    2    0    0 -0.26356951881E+02  0.19874573604E+02  0.85980962012E+02  0.92117159888E+02  0.17770000000E+01 0. -1.
</event>
<event>
 6    1  0.1599106E-003  0.5035350E+03  0.7546771E-02  0.9391934E-01
        -11   -1    0    0    0    0  0.00000000000E+00  0.00000000000E+00  0.50000000000E+03  0.50000000000E+03  0.00000000000E+00 0. -1.
         11   -1    0    0    0    0 -0.00000000000E+00 -0.00000000000E+00 -0.50000000000E+03  0.50000000000E+03  0.00000000000E+00 0.  1.
        -11    1    1    2    0    0  0.77193898471E+00 -0.19635319847E+02  0.25199804540E+03  0.25276304430E+03  0.00000000000E+00 0. -1.
         11    1    1    2    0    0  0.71136828526E+01 -0.40454224590E+00 -0.49641387744E+03  0.49646500969E+03  0.00000000000E+00 0.  1.
        -15    1    1    2    0    0  0.13864917738E+02  0.15322996052E+02  0.19987712951E+03  0.20095037890E+03  0.17770000000E+01 0. -1.
         15    1    1    2    0    0 -0.21750539576E+02  0.47168660416E+01  0.44538702524E+02  0.49821567103E+02  0.17770000000E+01 0.  1.
</event>
<event>
 6    1  0.1599106E-003  0.5053697E+03  0.7546771E-02  0.9387874E-01
        -11   -1    0    0    0    0  0.00000000000E+00  0.00000000000E+00  0.50000000000E+03  0.50000000000E+03  0.00000000000E+00 0.  1.
         11   -1    0    0    0    0 -0.00000000000E+00 -0.00000000000E+00 -0.50000000000E+03  0.50000000000E+03  0.00000000000E+00 0. -1.
        -11    1    1    2    0    0  0.10429821829E-01  0.69102849568E+01  0.49458198294E+03  0.49463025584E+03  0.00000000000E+00 0.  1.
         11    1    1    2    0    0 -0.11605443091E+02  0.66064624542E+01 -0.46268629363E+03  0.46287896687E+03  0.00000000000E+00 0. -1.
        -15    1    1    2    0    0 -0.31269801171E+01 -0.70818392215E+01 -0.15275609883E+01  0.80883634305E+01  0.17770000000E+01 0. -1.
         15    1    1    2    0    0  0.14721993386E+02 -0.64349081896E+01 -0.30368128323E+02  0.34402413861E+02  0.17770000000E+01 0.  1.
</event>
<event>
 6    1  0.1599106E-003  0.5193171E+03  0.7546771E-02  0.9357594E-01
        -11   -1    0    0    0    0  0.00000000000E+00  0.00000000000E+00  0.50000000000E+03  0.50000000000E+03  0.00000000000E+00 0. -1.
         11   -1    0    0    0    0 -0.00000000000E+00 -0.00000000000E+00 -0.50000000000E+03  0.50000000000E+03  0.00000000000E+00 0.  1.
        -11    1    1    2    0    0  0.28256874312E+01  0.10096026811E+02  0.48056850629E+03  0.48068285127E+03  0.00000000000E+00 0. -1.
         11    1    1    2    0    0  0.49985808980E+01  0.73325510675E+01 -0.46226197905E+03  0.46234715247E+03  0.00000000000E+00 0.  1.
        -15    1    1    2    0    0 -0.38153472668E+01 -0.95426740476E+01 -0.35799051475E+02  0.37287388193E+02  0.17770000000E+01 0.  1.
         15    1    1    2    0    0 -0.40089210624E+01 -0.78859038310E+01  0.17492524237E+02  0.19682608071E+02  0.17770000000E+01 0. -1.
</event>
<event>
 6    1  0.1599106E-003  0.5007092E+03  0.7546771E-02  0.9398224E-01
        -11   -1    0    0    0    0  0.00000000000E+00  0.00000000000E+00  0.50000000000E+03  0.50000000000E+03  0.00000000000E+00 0.  1.
         11   -1    0    0    0    0 -0.00000000000E+00 -0.00000000000E+00 -0.50000000000E+03  0.50000000000E+03  0.00000000000E+00 0.  1.
        -11    1    1    2    0    0 -0.69681611247E-01  0.41995700578E+01  0.17212064407E+03  0.17217188319E+03  0.00000000000E+00 0.  1.
         11    1    1    2    0    0 -0.12079376953E+02 -0.73779939496E+01 -0.49909012302E+03  0.49929079407E+03  0.00000000000E+00 0.  1.
        -15    1    1    2    0    0 -0.70100129182E+01 -0.63070304603E+01  0.66912709111E+02  0.67597243168E+02  0.17770000000E+01 0. -1.
         15    1    1    2    0    0  0.19159071482E+02  0.94854543521E+01  0.26005676983E+03  0.26094007958E+03  0.17770000000E+01 0.  1.
</event>
<event>
 6    1  0.1599106E-003  0.5056092E+03  0.7546771E-02  0.9387345E-01
        -11   -1    0    0    0    0  0.00000000000E+00  0.00000000000E+00  0.50000000000E+03  0.50000000000E+03  0.00000000000E+00 0. -1.
         11   -1    0    0    0    0 -0.00000000000E+00 -0.00000000000E+00 -0.50000000000E+03  0.50000000000E+03  0.00000000000E+00 0.  1.
        -11    1    1    2    0    0 -0.46114686018E+01 -0.58985352625E+01  0.40039142347E+03  0.40046142179E+03  0.00000000000E+00 0. -1.
         11    1    1    2    0    0  0.25865778872E+01 -0.80039665684E+01 -0.49431925740E+03  0.49439081919E+03  0.00000000000E+00 0.  1.
        -15    1    1    2    0    0  0.13025989334E+02  0.12866768500E+01  0.42094155442E+01  0.13863940409E+02  0.17770000000E+01 0.  1.
         15    1    1    2    0    0 -0.11001098619E+02  0.12615824981E+02  0.89718418392E+02  0.91283818602E+02  0.17770000000E+01 0. -1.
</event>
<event>
 6    1  0.1599106E-003  0.5068984E+03  0.7546771E-02  0.9384505E-01
        -11   -1    0    0    0    0  0.00000000000E+00  0.00000000000E+00  0.50000000000E+03  0.50000000000E+03  0.00000000000E+00 0.  1.
         11   -1    0    0    0    0 -0.00000000000E+00 -0.00000000000E+00 -0.50000000000E+03  0.50000000000E+03  0.00000000000E+00 0. -1.
        -11    1    1    2    0    0 -0.76742282102E+01  0.55196620255E+02  0.48994249012E+03  0.49310161659E+03  0.00000000000E+00 0.  1.
         11    1    1    2    0    0 -0.96667171350E+01  0.30332774653E+01 -0.24244915643E+03  0.24266075011E+03  0.00000000000E+00 0. -1.
        -15    1    1    2    0    0  0.31576414443E+02 -0.37426225722E+02 -0.72976202635E+02  0.87900376568E+02  0.17770000000E+01 0.  1.
         15    1    1    2    0    0 -0.14235469098E+02 -0.20803671998E+02 -0.17451713105E+03  0.17633725673E+03  0.17770000000E+01 0. -1.
</event>
<event>
 6    1  0.1599106E-003  0.5014740E+03  0.7546771E-02  0.9396518E-01
        -11   -1    0    0    0    0  0.00000000000E+00  0.00000000000E+00  0.50000000000E+03  0.50000000000E+03  0.00000000000E+00 0.  1.
         11   -1    0    0    0    0 -0.00000000000E+00 -0.00000000000E+00 -0.50000000000E+03  0.50000000000E+03  0.00000000000E+00 0. -1.
        -11    1    1    2    0    0  0.74937957172E+01 -0.13335530815E+01  0.28980751009E+03  0.28990744772E+03  0.00000000000E+00 0.  1.
         11    1    1    2    0    0 -0.98365308465E+01 -0.18686062789E+01 -0.49842544692E+03  0.49852600250E+03  0.00000000000E+00 0. -1.
        -15    1    1    2    0    0  0.70278383778E+01  0.13555268588E+02  0.45161196807E+02  0.47705631164E+02  0.17770000000E+01 0. -1.
         15    1    1    2    0    0 -0.46851032485E+01 -0.10353109228E+02  0.16345674002E+03  0.16386091862E+03  0.17770000000E+01 0.  1.
</event>
<event>
 6    1  0.1599106E-003  0.5135306E+03  0.7546771E-02  0.9370033E-01
        -11   -1    0    0    0    0  0.00000000000E+00  0.00000000000E+00  0.50000000000E+03  0.50000000000E+03  0.00000000000E+00 0. -1.
         11   -1    0    0    0    0 -0.00000000000E+00 -0.00000000000E+00 -0.50000000000E+03  0.50000000000E+03  0.00000000000E+00 0. -1.
        -11    1    1    2    0    0 -0.95609189477E+01 -0.93333296290E+01  0.48628587688E+03  0.48646939911E+03  0.00000000000E+00 0. -1.
         11    1    1    2    0    0 -0.66117377745E+01  0.22735140064E+01 -0.34757277099E+03  0.34764308575E+03  0.00000000000E+00 0. -1.
        -15    1    1    2    0    0  0.93437880029E+01  0.12418374780E+01 -0.15059129570E+03  0.15089646982E+03  0.17770000000E+01 0. -1.
         15    1    1    2    0    0  0.68288687193E+01  0.58179781446E+01  0.11878189801E+02  0.14991045315E+02  0.17770000000E+01 0.  1.
</event>
<event>
 6    1  0.1599106E-003  0.5002201E+03  0.7546771E-02  0.9399317E-01
        -11   -1    0    0    0    0  0.00000000000E+00  0.00000000000E+00  0.50000000000E+03  0.50000000000E+03  0.00000000000E+00 0. -1.
         11   -1    0    0    0    0 -0.00000000000E+00 -0.00000000000E+00 -0.50000000000E+03  0.50000000000E+03  0.00000000000E+00 0. -1.
        -11    1    1    2    0    0  0.96474144199E+01 -0.24071554188E+01  0.49968096226E+03  0.49977988259E+03  0.00000000000E+00 0. -1.
         11    1    1    2    0    0  0.20288370186E+01 -0.29494509510E+01 -0.23468923568E+03  0.23471653710E+03  0.00000000000E+00 0. -1.
        -15    1    1    2    0    0  0.54145814616E+00  0.30817070660E+01 -0.39856162007E+02  0.40018264259E+02  0.17770000000E+01 0. -1.
         15    1    1    2    0    0 -0.12217709585E+02  0.22748993037E+01 -0.22513556457E+03  0.22548531605E+03  0.17770000000E+01 0.  1.
</event>
<event>
 6    1  0.1599106E-003  0.5159968E+03  0.7546771E-02  0.9364710E-01
        -11   -1    0    0    0    0  0.00000000000E+00  0.00000000000E+00  0.50000000000E+03  0.50000000000E+03  0.00000000000E+00 0. -1.
         11   -1    0    0    0    0 -0.00000000000E+00 -0.00000000000E+00 -0.50000000000E+03  0.50000000000E+03  0.00000000000E+00 0. -1.
        -11    1    1    2    0    0  0.35106504571E+02  0.12266243695E+02  0.46066321641E+03  0.46216179672E+03  0.00000000000E+00 0. -1.
         11    1    1    2    0    0 -0.96640360275E+01 -0.12208684091E+02 -0.48375267767E+03  0.48400320114E+03  0.00000000000E+00 0. -1.
        -15    1    1    2    0    0 -0.19639308044E+02  0.96011306216E+00 -0.86136706833E+01  0.21540132060E+02  0.17770000000E+01 0. -1.
         15    1    1    2    0    0 -0.58031604995E+01 -0.10176726662E+01  0.31703131942E+02  0.32294870078E+02  0.17770000000E+01 0.  1.
</event>
<event>
 6    1  0.1599106E-003  0.4678819E+03  0.7546771E-02  0.9474691E-01
        -11   -1    0    0    0    0  0.00000000000E+00  0.00000000000E+00  0.50000000000E+03  0.50000000000E+03  0.00000000000E+00 0. -1.
         11   -1    0    0    0    0 -0.00000000000E+00 -0.00000000000E+00 -0.50000000000E+03  0.50000000000E+03  0.00000000000E+00 0.  1.
        -11    1    1    2    0    0  0.46325503264E+01  0.18713840528E+02  0.46054593668E+03  0.46094926851E+03  0.00000000000E+00 0. -1.
         11    1    1    2    0    0 -0.83065515026E+01  0.25831142511E+02 -0.47522228099E+03  0.47599628473E+03  0.00000000000E+00 0.  1.
        -15    1    1    2    0    0 -0.65523423893E+01 -0.10563294973E+02 -0.12956311227E+02  0.18042730422E+02  0.17770000000E+01 0. -1.
         15    1    1    2    0    0  0.10226343565E+02 -0.33981688065E+02  0.27632655545E+02  0.45011716341E+02  0.17770000000E+01 0.  1.
</event>
<event>
 6    1  0.1599106E-003  0.5230480E+03  0.7546771E-02  0.9349665E-01
        -11   -1    0    0    0    0  0.00000000000E+00  0.00000000000E+00  0.50000000000E+03  0.50000000000E+03  0.00000000000E+00 0. -1.
         11   -1    0    0    0    0 -0.00000000000E+00 -0.00000000000E+00 -0.50000000000E+03  0.50000000000E+03  0.00000000000E+00 0.  1.
        -11    1    1    2    0    0 -0.52614437069E+01 -0.41628118146E+01  0.47690485969E+03  0.47695204894E+03  0.00000000000E+00 0. -1.
         11    1    1    2    0    0  0.14078912447E+02  0.33602012496E+00 -0.46644791083E+03  0.46666045708E+03  0.00000000000E+00 0.  1.
        -15    1    1    2    0    0  0.49264137639E+01  0.25447711244E+02  0.49371749929E+01  0.26445963511E+02  0.17770000000E+01 0.  1.
         15    1    1    2    0    0 -0.13743882504E+02 -0.21620919554E+02 -0.15394123858E+02  0.29941530472E+02  0.17770000000E+01 0. -1.
</event>
<event>
 6    1  0.1599106E-003  0.5247062E+03  0.7546771E-02  0.9346164E-01
        -11   -1    0    0    0    0  0.00000000000E+00  0.00000000000E+00  0.50000000000E+03  0.50000000000E+03  0.00000000000E+00 0. -1.
         11   -1    0    0    0    0 -0.00000000000E+00 -0.00000000000E+00 -0.50000000000E+03  0.50000000000E+03  0.00000000000E+00 0. -1.
        -11    1    1    2    0    0 -0.76333656012E+01 -0.90339316464E+01  0.47514663901E+03  0.47529381309E+03  0.00000000000E+00 0. -1.
         11    1    1    2    0    0  0.14842166171E+02  0.50359585744E+01 -0.22104340403E+03  0.22159836922E+03  0.00000000000E+00 0. -1.
        -15    1    1    2    0    0 -0.25225039405E+02 -0.17601663617E+01 -0.27424874450E+03  0.27541774160E+03  0.17770000000E+01 0. -1.
         15    1    1    2    0    0  0.18016238835E+02  0.57581394336E+01  0.20145509517E+02  0.27690076096E+02  0.17770000000E+01 0.  1.
</event>
<event>
 6    1  0.1599106E-003  0.4854445E+03  0.7546771E-02  0.9432981E-01
        -11   -1    0    0    0    0  0.00000000000E+00  0.00000000000E+00  0.50000000000E+03  0.50000000000E+03  0.00000000000E+00 0.  1.
         11   -1    0    0    0    0 -0.00000000000E+00 -0.00000000000E+00 -0.50000000000E+03  0.50000000000E+03  0.00000000000E+00 0. -1.
        -11    1    1    2    0    0 -0.81187955016E+01  0.61967890088E+00  0.48786575615E+03  0.48793369925E+03  0.00000000000E+00 0.  1.
         11    1    1    2    0    0 -0.45506581412E+01 -0.58384866688E+01 -0.48300751348E+03  0.48306423433E+03  0.00000000000E+00 0. -1.
        -15    1    1    2    0    0  0.78126815231E+01  0.32633651252E+01  0.99560111449E+01  0.13189671392E+02  0.17770000000E+01 0. -1.
         15    1    1    2    0    0  0.48567721196E+01  0.19554426427E+01 -0.14814253813E+02  0.15812395024E+02  0.17770000000E+01 0.  1.
</event>
<event>
 6    1  0.1599106E-003  0.4840198E+03  0.7546771E-02  0.9436294E-01
        -11   -1    0    0    0    0  0.00000000000E+00  0.00000000000E+00  0.50000000000E+03  0.50000000000E+03  0.00000000000E+00 0.  1.
         11   -1    0    0    0    0 -0.00000000000E+00 -0.00000000000E+00 -0.50000000000E+03  0.50000000000E+03  0.00000000000E+00 0.  1.
        -11    1    1    2    0    0 -0.90496769354E+01  0.62514636775E+01  0.48870535067E+03  0.48882910840E+03  0.00000000000E+00 0.  1.
         11    1    1    2    0    0 -0.17102458410E+02 -0.49045521394E+01 -0.47928044169E+03  0.47961056129E+03  0.00000000000E+00 0.  1.
        -15    1    1    2    0    0  0.41507592359E+01  0.40753291717E+01 -0.60553615698E+01  0.85826710781E+01  0.17770000000E+01 0.  1.
         15    1    1    2    0    0  0.22001376110E+02 -0.54222407098E+01 -0.33695474118E+01  0.22977659232E+02  0.17770000000E+01 0. -1.
</event>
<event>
 6    1  0.1599106E-003  0.5039705E+03  0.7546771E-02  0.9390969E-01
        -11   -1    0    0    0    0  0.00000000000E+00  0.00000000000E+00  0.50000000000E+03  0.50000000000E+03  0.00000000000E+00 0.  1.
         11   -1    0    0    0    0 -0.00000000000E+00 -0.00000000000E+00 -0.50000000000E+03  0.50000000000E+03  0.00000000000E+00 0.  1.
        -11    1    1    2    0    0  0.90050666091E+01  0.66884823003E+01  0.49590263315E+03  0.49602948359E+03  0.00000000000E+00 0.  1.
         11    1    1    2    0    0 -0.79258138713E+01  0.68590539985E+01 -0.46977738987E+03  0.46989430852E+03  0.00000000000E+00 0.  1.
        -15    1    1    2    0    0  0.44272646260E+01 -0.68145453100E+01 -0.23330408548E+02  0.24769020810E+02  0.17770000000E+01 0. -1.
         15    1    1    2    0    0 -0.55065173639E+01 -0.67329909888E+01 -0.27948347359E+01  0.93071870796E+01  0.17770000000E+01 0. -1.
</event>
<event>
 6    1  0.1599106E-003  0.5004926E+03  0.7546771E-02  0.9398708E-01
        -11   -1    0    0    0    0  0.00000000000E+00  0.00000000000E+00  0.50000000000E+03  0.50000000000E+03  0.00000000000E+00 0.  1.
         11   -1    0    0    0    0 -0.00000000000E+00 -0.00000000000E+00 -0.50000000000E+03  0.50000000000E+03  0.00000000000E+00 0. -1.
        -11    1    1    2    0    0  0.55585678277E+01  0.78116651843E+01  0.33408650631E+03  0.33422404684E+03  0.00000000000E+00 0.  1.
         11    1    1    2    0    0 -0.64839771404E+01 -0.64132968983E+01 -0.49942408892E+03  0.49950735022E+03  0.00000000000E+00 0. -1.
        -15    1    1    2    0    0 -0.34960738612E+01 -0.39544968975E+01  0.14805690680E+03  0.14816162107E+03  0.17770000000E+01 0. -1.
         15    1    1    2    0    0  0.44214831738E+01  0.25561286116E+01  0.17280675804E+02  0.18106981863E+02  0.17770000000E+01 0.  1.
</event>
<event>
 6    1  0.1599106E-003  0.5042822E+03  0.7546771E-02  0.9390279E-01
        -11   -1    0    0    0    0  0.00000000000E+00  0.00000000000E+00  0.50000000000E+03  0.50000000000E+03  0.00000000000E+00 0. -1.
         11   -1    0    0    0    0 -0.00000000000E+00 -0.00000000000E+00 -0.50000000000E+03  0.50000000000E+03  0.00000000000E+00 0.  1.
        -11    1    1    2    0    0  0.53103996775E+01 -0.42171521835E+01  0.41241496455E+03  0.41247071133E+03  0.00000000000E+00 0. -1.
         11    1    1    2    0    0 -0.44596435835E+00  0.68301112008E+01 -0.49567058255E+03  0.49571783881E+03  0.00000000000E+00 0.  1.
        -15    1    1    2    0    0  0.11570706110E+02 -0.84195822622E+01  0.13035490070E+02  0.19438424209E+02  0.17770000000E+01 0. -1.
         15    1    1    2    0    0 -0.16435141429E+02  0.58066232449E+01  0.70220127927E+02  0.72373025655E+02  0.17770000000E+01 0.  1.
</event>
<event>
 6    1  0.1599106E-003  0.5127383E+03  0.7546771E-02  0.9371749E-01
        -11   -1    0    0    0    0  0.00000000000E+00  0.00000000000E+00  0.50000000000E+03  0.50000000000E+03  0.00000000000E+00 0.  1.
         11   -1    0    0    0    0 -0.00000000000E+00 -0.00000000000E+00 -0.50000000000E+03  0.50000000000E+03  0.00000000000E+00 0. -1.
        -11    1    1    2    0    0 -0.16120436368E+02 -0.23411511024E+01  0.44981750714E+03  0.45011236284E+03  0.00000000000E+00 0.  1.
         11    1    1    2    0    0 -0.67621099636E+01 -0.59841826416E+01 -0.48717799190E+03  0.48726166724E+03  0.00000000000E+00 0. -1.
        -15    1    1    2    0    0 -0.34708355912E+01  0.23387552751E+01 -0.83424349615E+01  0.95010749931E+01  0.17770000000E+01 0.  1.
         15    1    1    2    0    0  0.26353381922E+02  0.59865784688E+01  0.45702919723E+02  0.53124894924E+02  0.17770000000E+01 0. -1.
</event>
<event>
 6    1  0.1599106E-003  0.4868975E+03  0.7546771E-02  0.9429614E-01
        -11   -1    0    0    0    0  0.00000000000E+00  0.00000000000E+00  0.50000000000E+03  0.50000000000E+03  0.00000000000E+00 0.  1.
         11   -1    0    0    0    0 -0.00000000000E+00 -0.00000000000E+00 -0.50000000000E+03  0.50000000000E+03  0.00000000000E+00 0. -1.
        -11    1    1    2    0    0  0.13831072187E+02  0.25636537209E+01  0.48315896314E+03  0.48336368765E+03  0.00000000000E+00 0.  1.
         11    1    1    2    0    0  0.75299709297E+01 -0.29751998310E+01 -0.49062745857E+03  0.49069425856E+03  0.00000000000E+00 0. -1.
        -15    1    1    2    0    0 -0.20953800659E+02 -0.13963967497E+01  0.90393972364E+01  0.22932076168E+02  0.17770000000E+01 0. -1.
         15    1    1    2    0    0 -0.40724245697E+00  0.18079428598E+01 -0.15709018042E+01  0.30099776215E+01  0.17770000000E+01 0.  1.
</event>
<event>
 6    1  0.1599106E-003  0.5007578E+03  0.7546771E-02  0.9398116E-01
        -11   -1    0    0    0    0  0.00000000000E+00  0.00000000000E+00  0.50000000000E+03  0.50000000000E+03  0.00000000000E+00 0. -1.
         11   -1    0    0    0    0 -0.00000000000E+00 -0.00000000000E+00 -0.50000000000E+03  0.50000000000E+03  0.00000000000E+00 0. -1.
        -11    1    1    2    0    0  0.18472205395E+01  0.85444510159E+01  0.49916560869E+03  0.49924215043E+03  0.00000000000E+00 0. -1.
         11    1    1    2    0    0 -0.57996190785E+01  0.48172620928E+01 -0.23880190025E+03  0.23892088472E+03  0.00000000000E+00 0. -1.
        -15    1    1    2    0    0  0.67867101194E-01 -0.67387374158E+01 -0.17377636505E+02  0.18723118527E+02  0.17770000000E+01 0. -1.
         15    1    1    2    0    0  0.38845314378E+01 -0.66229756928E+01 -0.24298607194E+03  0.24311384633E+03  0.17770000000E+01 0. -1.
</event>
<event>
 6    1  0.1599106E-003  0.5065853E+03  0.7546771E-02  0.9385194E-01
        -11   -1    0    0    0    0  0.00000000000E+00  0.00000000000E+00  0.50000000000E+03  0.50000000000E+03  0.00000000000E+00 0.  1.
         11   -1    0    0    0    0 -0.00000000000E+00 -0.00000000000E+00 -0.50000000000E+03  0.50000000000E+03  0.00000000000E+00 0. -1.
        -11    1    1    2    0    0  0.64194903555E+01 -0.22465866243E+02  0.39845627958E+03  0.39914074177E+03  0.00000000000E+00 0.  1.
         11    1    1    2    0    0 -0.78743783034E+01 -0.57304590772E+00 -0.49335151726E+03  0.49341468745E+03  0.00000000000E+00 0. -1.
        -15    1    1    2    0    0 -0.17751232795E+02 -0.28141653677E+01  0.36908481359E+02  0.41090382301E+02  0.17770000000E+01 0. -1.
         15    1    1    2    0    0  0.19206120743E+02  0.25853077518E+02  0.57986756313E+02  0.66354188473E+02  0.17770000000E+01 0.  1.
</event>
<event>
 6    1  0.1599106E-003  0.5111638E+03  0.7546771E-02  0.9375171E-01
        -11   -1    0    0    0    0  0.00000000000E+00  0.00000000000E+00  0.50000000000E+03  0.50000000000E+03  0.00000000000E+00 0. -1.
         11   -1    0    0    0    0 -0.00000000000E+00 -0.00000000000E+00 -0.50000000000E+03  0.50000000000E+03  0.00000000000E+00 0.  1.
        -11    1    1    2    0    0 -0.90491710111E+01 -0.27243225737E+00  0.48875240308E+03  0.48883624378E+03  0.00000000000E+00 0. -1.
         11    1    1    2    0    0 -0.62908562120E+01  0.88548666433E+01 -0.47455382771E+03  0.47467812140E+03  0.00000000000E+00 0.  1.
        -15    1    1    2    0    0  0.15111498546E+02 -0.18023273764E+02 -0.74224695448E+01  0.24727445655E+02  0.17770000000E+01 0. -1.
         15    1    1    2    0    0  0.22852867706E+00  0.94408393781E+01 -0.67761058187E+01  0.11758189171E+02  0.17770000000E+01 0.  1.
</event>
<event>
 6    1  0.1599106E-003  0.5445463E+03  0.7546771E-02  0.9305304E-01
        -11   -1    0    0    0    0  0.00000000000E+00  0.00000000000E+00  0.50000000000E+03  0.50000000000E+03  0.00000000000E+00 0.  1.
         11   -1    0    0    0    0 -0.00000000000E+00 -0.00000000000E+00 -0.50000000000E+03  0.50000000000E+03  0.00000000000E+00 0. -1.
        -11    1    1    2    0    0 -0.47756567348E+01  0.24517709490E+01  0.20424108801E+03  0.20431162500E+03  0.00000000000E+00 0.  1.
         11    1    1    2    0    0 -0.90770131451E+01  0.10459915891E+03 -0.44318697602E+03  0.45545369899E+03  0.00000000000E+00 0. -1.
        -15    1    1    2    0    0  0.11227864416E+02 -0.10748981736E+03  0.70523518522E+01  0.10831906190E+03  0.17770000000E+01 0. -1.
         15    1    1    2    0    0  0.26248054636E+01  0.43888750289E+00  0.23189353615E+03  0.23191561410E+03  0.17770000000E+01 0.  1.
</event>
<event>
 6    1  0.1599106E-003  0.5009663E+03  0.7546771E-02  0.9397650E-01
        -11   -1    0    0    0    0  0.00000000000E+00  0.00000000000E+00  0.50000000000E+03  0.50000000000E+03  0.00000000000E+00 0. -1.
         11   -1    0    0    0    0 -0.00000000000E+00 -0.00000000000E+00 -0.50000000000E+03  0.50000000000E+03  0.00000000000E+00 0.  1.
        -11    1    1    2    0    0 -0.11989815058E+01 -0.89787699805E+01  0.30606935626E+03  0.30620337475E+03  0.00000000000E+00 0. -1.
         11    1    1    2    0    0 -0.97126849222E+01  0.76103126330E+01 -0.49888110062E+03  0.49903367187E+03  0.00000000000E+00 0.  1.
        -15    1    1    2    0    0  0.42036196470E+01 -0.11133411272E+01  0.17938536490E+03  0.17944686348E+03  0.17770000000E+01 0. -1.
         15    1    1    2    0    0  0.67080467810E+01  0.24817984747E+01  0.13426379459E+02  0.15316089895E+02  0.17770000000E+01 0.  1.
</event>
<event>
 6    1  0.1599106E-003  0.5489701E+03  0.7546771E-02  0.9296445E-01
        -11   -1    0    0    0    0  0.00000000000E+00  0.00000000000E+00  0.50000000000E+03  0.50000000000E+03  0.00000000000E+00 0.  1.
         11   -1    0    0    0    0 -0.00000000000E+00 -0.00000000000E+00 -0.50000000000E+03  0.50000000000E+03  0.00000000000E+00 0. -1.
        -11    1    1    2    0    0 -0.22596347387E+02 -0.10110048357E+02  0.38810351582E+03  0.38889220484E+03  0.00000000000E+00 0.  1.
         11    1    1    2    0    0  0.13864510489E+02 -0.81433541018E+01 -0.45074318049E+03  0.45102988108E+03  0.00000000000E+00 0. -1.
        -15    1    1    2    0    0  0.38886018962E+02  0.87294417684E+01  0.10201928835E+03  0.10954185752E+03  0.17770000000E+01 0. -1.
         15    1    1    2    0    0 -0.30154182064E+02  0.95239606905E+01 -0.39379623680E+02  0.50536056567E+02  0.17770000000E+01 0.  1.
</event>
<event>
 6    1  0.1599106E-003  0.5038465E+03  0.7546771E-02  0.9391244E-01
        -11   -1    0    0    0    0  0.00000000000E+00  0.00000000000E+00  0.50000000000E+03  0.50000000000E+03  0.00000000000E+00 0. -1.
         11   -1    0    0    0    0 -0.00000000000E+00 -0.00000000000E+00 -0.50000000000E+03  0.50000000000E+03  0.00000000000E+00 0. -1.
        -11    1    1    2    0    0  0.71149081093E+00 -0.18130272953E+02  0.49582160003E+03  0.49615347632E+03  0.00000000000E+00 0. -1.
         11    1    1    2    0    0 -0.67320395364E+01  0.22882620940E+01 -0.36518125582E+03  0.36525047036E+03  0.00000000000E+00 0. -1.
        -15    1    1    2    0    0 -0.10180106145E+01 -0.14722908359E+02 -0.42491189661E+02  0.45016211568E+02  0.17770000000E+01 0.  1.
         15    1    1    2    0    0  0.70385593400E+01  0.30564919219E+02 -0.88149154548E+02  0.93579841745E+02  0.17770000000E+01 0. -1.
</event>
<event>
 6    1  0.1599106E-003  0.5068909E+03  0.7546771E-02  0.9384521E-01
        -11   -1    0    0    0    0  0.00000000000E+00  0.00000000000E+00  0.50000000000E+03  0.50000000000E+03  0.00000000000E+00 0.  1.
         11   -1    0    0    0    0 -0.00000000000E+00 -0.00000000000E+00 -0.50000000000E+03  0.50000000000E+03  0.00000000000E+00 0. -1.
        -11    1    1    2    0    0 -0.13772504108E+02  0.99178627677E+01  0.49281692124E+03  0.49310907893E+03  0.00000000000E+00 0.  1.
         11    1    1    2    0    0 -0.10603626166E+01 -0.86268476301E+01 -0.41224828620E+03  0.41233990390E+03  0.00000000000E+00 0. -1.
        -15    1    1    2    0    0  0.57481174112E+01 -0.12497325847E+02 -0.12665673376E+01  0.13927883145E+02  0.17770000000E+01 0.  1.
         15    1    1    2    0    0  0.90847493132E+01  0.11206310709E+02 -0.79302067698E+02  0.80623134024E+02  0.17770000000E+01 0. -1.
</event>
<event>
 6    1  0.1599106E-003  0.5156445E+03  0.7546771E-02  0.9365469E-01
        -11   -1    0    0    0    0  0.00000000000E+00  0.00000000000E+00  0.50000000000E+03  0.50000000000E+03  0.00000000000E+00 0.  1.
         11   -1    0    0    0    0 -0.00000000000E+00 -0.00000000000E+00 -0.50000000000E+03  0.50000000000E+03  0.00000000000E+00 0. -1.
        -11    1    1    2    0    0  0.13897778271E+02 -0.90270163017E+01  0.48407190438E+03  0.48435549329E+03  0.00000000000E+00 0.  1.
         11    1    1    2    0    0  0.43048757016E+01  0.95228675605E+00 -0.17506564949E+03  0.17512115931E+03  0.00000000000E+00 0. -1.
        -15    1    1    2    0    0 -0.32300060559E+01  0.89147403989E+01 -0.32105786633E+03  0.32120276586E+03  0.17770000000E+01 0. -1.
         15    1    1    2    0    0 -0.14972647916E+02 -0.84001085327E+00  0.12051611442E+02  0.19320581544E+02  0.17770000000E+01 0.  1.
</event>
<event>
 6    1  0.1599106E-003  0.5028795E+03  0.7546771E-02  0.9393390E-01
        -11   -1    0    0    0    0  0.00000000000E+00  0.00000000000E+00  0.50000000000E+03  0.50000000000E+03  0.00000000000E+00 0. -1.
         11   -1    0    0    0    0 -0.00000000000E+00 -0.00000000000E+00 -0.50000000000E+03  0.50000000000E+03  0.00000000000E+00 0. -1.
        -11    1    1    2    0    0 -0.90447975527E+01  0.71326814465E+01  0.49698703500E+03  0.49712050498E+03  0.00000000000E+00 0. -1.
         11    1    1    2    0    0 -0.78597814043E+01  0.49590602053E+01 -0.32907901236E+03  0.32921021372E+03  0.00000000000E+00 0. -1.
        -15    1    1    2    0    0  0.24680653461E+01  0.22812714936E+01  0.66589527655E+00  0.38596232588E+01  0.17770000000E+01 0.  1.
         15    1    1    2    0    0  0.14436513611E+02 -0.14373013145E+02 -0.16857391792E+03  0.16980965804E+03  0.17770000000E+01 0. -1.
</event>
<event>
 6    1  0.1599106E-003  0.5008572E+03  0.7546771E-02  0.9397894E-01
        -11   -1    0    0    0    0  0.00000000000E+00  0.00000000000E+00  0.50000000000E+03  0.50000000000E+03  0.00000000000E+00 0.  1.
         11   -1    0    0    0    0 -0.00000000000E+00 -0.00000000000E+00 -0.50000000000E+03  0.50000000000E+03  0.00000000000E+00 0.  1.
        -11    1    1    2    0    0 -0.35033169253E+01  0.64649111750E+01  0.49908860257E+03  0.49914276667E+03  0.00000000000E+00 0.  1.
         11    1    1    2    0    0  0.23926306074E+01  0.19287241640E+01 -0.14244386329E+03  0.14247701165E+03  0.00000000000E+00 0.  1.
        -15    1    1    2    0    0 -0.86380312843E+01 -0.95073300584E+01 -0.32369468399E+03  0.32395433487E+03  0.17770000000E+01 0.  1.
         15    1    1    2    0    0  0.97487176022E+01  0.11136947194E+01 -0.32950055277E+02  0.34425886809E+02  0.17770000000E+01 0. -1.
</event>
<event>
 6    1  0.1599106E-003  0.5025814E+03  0.7546771E-02  0.9394052E-01
        -11   -1    0    0    0    0  0.00000000000E+00  0.00000000000E+00  0.50000000000E+03  0.50000000000E+03  0.00000000000E+00 0.  1.
         11   -1    0    0    0    0 -0.00000000000E+00 -0.00000000000E+00 -0.50000000000E+03  0.50000000000E+03  0.00000000000E+00 0. -1.
        -11    1    1    2    0    0  0.68808757798E+01 -0.43810340546E+01  0.49735170422E+03  0.49741859394E+03  0.00000000000E+00 0.  1.
         11    1    1    2    0    0 -0.43425225940E+01 -0.20474764812E+02 -0.22154964097E+03  0.22253610249E+03  0.00000000000E+00 0. -1.
        -15    1    1    2    0    0 -0.57169658875E+01  0.58258466020E+01 -0.80761439813E+01  0.11619209018E+02  0.17770000000E+01 0. -1.
         15    1    1    2    0    0  0.31786127017E+01  0.19029952264E+02 -0.26772591926E+03  0.26842609455E+03  0.17770000000E+01 0.  1.
</event>
<event>
 6    1  0.1599106E-003  0.5028647E+03  0.7546771E-02  0.9393422E-01
        -11   -1    0    0    0    0  0.00000000000E+00  0.00000000000E+00  0.50000000000E+03  0.50000000000E+03  0.00000000000E+00 0. -1.
         11   -1    0    0    0    0 -0.00000000000E+00 -0.00000000000E+00 -0.50000000000E+03  0.50000000000E+03  0.00000000000E+00 0.  1.
        -11    1    1    2    0    0 -0.49101165293E+01 -0.13289263886E+02  0.49693334012E+03  0.49713525152E+03  0.00000000000E+00 0. -1.
         11    1    1    2    0    0 -0.15107483778E+01 -0.67243852763E+01 -0.45770922881E+03  0.45776111440E+03  0.00000000000E+00 0.  1.
        -15    1    1    2    0    0  0.26932148630E+01  0.32745674562E+01 -0.50652944256E+01  0.68404045890E+01  0.17770000000E+01 0. -1.
         15    1    1    2    0    0  0.37276500442E+01  0.16739081706E+02 -0.34158816884E+02  0.38263229492E+02  0.17770000000E+01 0.  1.
</event>
<event>
 6    1  0.1599106E-003  0.5081566E+03  0.7546771E-02  0.9381741E-01
        -11   -1    0    0    0    0  0.00000000000E+00  0.00000000000E+00  0.50000000000E+03  0.50000000000E+03  0.00000000000E+00 0.  1.
         11   -1    0    0    0    0 -0.00000000000E+00 -0.00000000000E+00 -0.50000000000E+03  0.50000000000E+03  0.00000000000E+00 0. -1.
        -11    1    1    2    0    0 -0.10975586931E+02 -0.45369399155E+01  0.49170002698E+03  0.49184343430E+03  0.00000000000E+00 0.  1.
         11    1    1    2    0    0 -0.56616361860E+01 -0.51979477439E+01 -0.47801839170E+03  0.47808017694E+03  0.00000000000E+00 0. -1.
        -15    1    1    2    0    0  0.21629454277E+01  0.75818997889E+01 -0.13015002082E+02  0.15320298481E+02  0.17770000000E+01 0.  1.
         15    1    1    2    0    0  0.14474277689E+02  0.21529878705E+01 -0.66663319983E+00  0.14756090275E+02  0.17770000000E+01 0. -1.
</event>
<event>
 6    1  0.1599106E-003  0.5016578E+03  0.7546771E-02  0.9396108E-01
        -11   -1    0    0    0    0  0.00000000000E+00  0.00000000000E+00  0.50000000000E+03  0.50000000000E+03  0.00000000000E+00 0. -1.
         11   -1    0    0    0    0 -0.00000000000E+00 -0.00000000000E+00 -0.50000000000E+03  0.50000000000E+03  0.00000000000E+00 0.  1.
        -11    1    1    2    0    0  0.25227092080E+01  0.29428835924E+01  0.24402649895E+03  0.24405728184E+03  0.00000000000E+00 0. -1.
         11    1    1    2    0    0 -0.45249802285E+01  0.17029081182E+02 -0.49803057772E+03  0.49834217301E+03  0.00000000000E+00 0.  1.
        -15    1    1    2    0    0  0.66588291941E+01 -0.11284860830E+02  0.24188335457E+02  0.27566671750E+02  0.17770000000E+01 0.  1.
         15    1    1    2    0    0 -0.46565581736E+01 -0.86871039442E+01  0.22981574331E+03  0.23003387340E+03  0.17770000000E+01 0. -1.
</event>
<event>
 6    1  0.1599106E-003  0.5014682E+03  0.7546771E-02  0.9396530E-01
        -11   -1    0    0    0    0  0.00000000000E+00  0.00000000000E+00  0.50000000000E+03  0.50000000000E+03  0.00000000000E+00 0. -1.
         11   -1    0    0    0    0 -0.00000000000E+00 -0.00000000000E+00 -0.50000000000E+03  0.50000000000E+03  0.00000000000E+00 0. -1.
        -11    1    1    2    0    0  0.21877675232E+01  0.10716173762E+02  0.38817170988E+03  0.38832576409E+03  0.00000000000E+00 0. -1.
         11    1    1    2    0    0  0.10697603264E+02  0.84521275419E+00 -0.49841629867E+03  0.49853180428E+03  0.00000000000E+00 0. -1.
        -15    1    1    2    0    0 -0.12081096754E+02 -0.15985602251E+02  0.78737415095E+02  0.81266417683E+02  0.17770000000E+01 0.  1.
         15    1    1    2    0    0 -0.80427403319E+00  0.44242157346E+01  0.31507173694E+02  0.31876013941E+02  0.17770000000E+01 0. -1.
</event>
<event>
 6    1  0.1599106E-003  0.5004473E+03  0.7546771E-02  0.9398810E-01
        -11   -1    0    0    0    0  0.00000000000E+00  0.00000000000E+00  0.50000000000E+03  0.50000000000E+03  0.00000000000E+00 0. -1.
         11   -1    0    0    0    0 -0.00000000000E+00 -0.00000000000E+00 -0.50000000000E+03  0.50000000000E+03  0.00000000000E+00 0. -1.
        -11    1    1    2    0    0 -0.23460080623E+01  0.97970187957E+01  0.49945116298E+03  0.49955274950E+03  0.00000000000E+00 0. -1.
         11    1    1    2    0    0  0.11686725145E+01 -0.76129802390E+01 -0.44118685662E+03  0.44125408295E+03  0.00000000000E+00 0. -1.
        -15    1    1    2    0    0  0.38350820190E+00  0.37535628589E+01 -0.25401407043E+02  0.25741513581E+02  0.17770000000E+01 0. -1.
         15    1    1    2    0    0  0.79382734583E+00 -0.59376014156E+01 -0.32862899317E+02  0.33451653964E+02  0.17770000000E+01 0.  1.
</event>
<event>
 6    1  0.1599106E-003  0.5051412E+03  0.7546771E-02  0.9388379E-01
        -11   -1    0    0    0    0  0.00000000000E+00  0.00000000000E+00  0.50000000000E+03  0.50000000000E+03  0.00000000000E+00 0. -1.
         11   -1    0    0    0    0 -0.00000000000E+00 -0.00000000000E+00 -0.50000000000E+03  0.50000000000E+03  0.00000000000E+00 0. -1.
        -11    1    1    2    0    0  0.53266751542E+01 -0.49181234403E+01  0.49480573370E+03  0.49485884403E+03  0.00000000000E+00 0. -1.
         11    1    1    2    0    0 -0.95165023972E-01  0.46589961251E+01 -0.31731436024E+03  0.31734857573E+03  0.00000000000E+00 0. -1.
        -15    1    1    2    0    0 -0.12619385400E+02  0.38668706993E+01 -0.17878657165E+03  0.17928189398E+03  0.17770000000E+01 0. -1.
         15    1    1    2    0    0  0.73878752703E+01 -0.36077433841E+01  0.12951981900E+01  0.85106862641E+01  0.17770000000E+01 0.  1.
</event>
<event>
 6    1  0.1599106E-003  0.5060158E+03  0.7546771E-02  0.9386449E-01
        -11   -1    0    0    0    0  0.00000000000E+00  0.00000000000E+00  0.50000000000E+03  0.50000000000E+03  0.00000000000E+00 0.  1.
         11   -1    0    0    0    0 -0.00000000000E+00 -0.00000000000E+00 -0.50000000000E+03  0.50000000000E+03  0.00000000000E+00 0.  1.
        -11    1    1    2    0    0  0.18535011730E+01 -0.67554991836E+01  0.49393454716E+03  0.49398421950E+03  0.00000000000E+00 0.  1.
         11    1    1    2    0    0 -0.17801594802E+02  0.51815794808E+01 -0.46151001125E+03  0.46188227507E+03  0.00000000000E+00 0.  1.
        -15    1    1    2    0    0 -0.43759212742E+01 -0.45215036957E+00  0.10688603082E+01  0.48634677251E+01  0.17770000000E+01 0. -1.
         15    1    1    2    0    0  0.20324014903E+02  0.20260700724E+01 -0.33493396225E+02  0.39270037705E+02  0.17770000000E+01 0.  1.
</event>
<event>
 6    1  0.1599106E-003  0.5019638E+03  0.7546771E-02  0.9395426E-01
        -11   -1    0    0    0    0  0.00000000000E+00  0.00000000000E+00  0.50000000000E+03  0.50000000000E+03  0.00000000000E+00 0. -1.
         11   -1    0    0    0    0 -0.00000000000E+00 -0.00000000000E+00 -0.50000000000E+03  0.50000000000E+03  0.00000000000E+00 0.  1.
        -11    1    1    2    0    0 -0.13495420518E+01  0.69449722724E+01  0.49798599609E+03  0.49803624989E+03  0.00000000000E+00 0. -1.
         11    1    1    2    0    0 -0.57860777284E+01 -0.50578755781E+01 -0.47539583460E+03  0.47545794804E+03  0.00000000000E+00 0.  1.
        -15    1    1    2    0    0 -0.11661284814E+01 -0.36917675409E+01 -0.34220354510E+01  0.54641613116E+01  0.17770000000E+01 0.  1.
         15    1    1    2    0    0  0.83017482616E+01  0.18046708466E+01 -0.19168126038E+02  0.21041640760E+02  0.17770000000E+01 0. -1.
</event>
<event>
 6    1  0.1599106E-003  0.5488054E+03  0.7546771E-02  0.9296773E-01
        -11   -1    0    0    0    0  0.00000000000E+00  0.00000000000E+00  0.50000000000E+03  0.50000000000E+03  0.00000000000E+00 0. -1.
         11   -1    0    0    0    0 -0.00000000000E+00 -0.00000000000E+00 -0.50000000000E+03  0.50000000000E+03  0.00000000000E+00 0.  1.
        -11    1    1    2    0    0  0.16033470534E+02  0.18960091076E+01  0.45090561175E+03  0.45119456750E+03  0.00000000000E+00 0. -1.
         11    1    1    2    0    0  0.83811025968E+01 -0.43133989944E+02 -0.29190185378E+03  0.29519057608E+03  0.00000000000E+00 0.  1.
        -15    1    1    2    0    0 -0.11960191585E+02  0.34929968110E+02 -0.20356002336E+03  0.20688883414E+03  0.17770000000E+01 0.  1.
         15    1    1    2    0    0 -0.12454381545E+02  0.63080127261E+01  0.44556265381E+02  0.46726022278E+02  0.17770000000E+01 0. -1.
</event>
<event>
 6    1  0.1599106E-003  0.5162781E+03  0.7546771E-02  0.9364105E-01
        -11   -1    0    0    0    0  0.00000000000E+00  0.00000000000E+00  0.50000000000E+03  0.50000000000E+03  0.00000000000E+00 0.  1.
         11   -1    0    0    0    0 -0.00000000000E+00 -0.00000000000E+00 -0.50000000000E+03  0.50000000000E+03  0.00000000000E+00 0.  1.
        -11    1    1    2    0    0  0.50150354812E+01  0.21239307317E+02  0.48322936578E+03  0.48372190224E+03  0.00000000000E+00 0.  1.
         11    1    1    2    0    0 -0.54734579438E+01  0.15056757888E+02 -0.17740559873E+03  0.17812751377E+03  0.00000000000E+00 0.  1.
        -15    1    1    2    0    0 -0.59403392272E+01 -0.44621726758E+01 -0.30553461117E+03  0.30563009499E+03  0.17770000000E+01 0.  1.
         15    1    1    2    0    0  0.63987616898E+01 -0.31833892529E+02 -0.28915588172E+00  0.32520489001E+02  0.17770000000E+01 0. -1.
</event>
<event>
 6    1  0.1599106E-003  0.5013179E+03  0.7546771E-02  0.9396866E-01
        -11   -1    0    0    0    0  0.00000000000E+00  0.00000000000E+00  0.50000000000E+03  0.50000000000E+03  0.00000000000E+00 0. -1.
         11   -1    0    0    0    0 -0.00000000000E+00 -0.00000000000E+00 -0.50000000000E+03  0.50000000000E+03  0.00000000000E+00 0. -1.
        -11    1    1    2    0    0 -0.79646309096E+01  0.53584684233E+01  0.49858971491E+03  0.49868211552E+03  0.00000000000E+00 0. -1.
         11    1    1    2    0    0 -0.42820200984E+01 -0.65618231521E+01 -0.44788586358E+03  0.44795439502E+03  0.00000000000E+00 0. -1.
        -15    1    1    2    0    0  0.37201605296E+00 -0.71733635324E+00 -0.99888863772E+00  0.21928234990E+01  0.17770000000E+01 0. -1.
         15    1    1    2    0    0  0.11874634955E+02  0.19206910820E+01 -0.49704962692E+02  0.51170665960E+02  0.17770000000E+01 0. -1.
</event>
<event>
 6    1  0.1599106E-003  0.5423678E+03  0.7546771E-02  0.9309700E-01
        -11   -1    0    0    0    0  0.00000000000E+00  0.00000000000E+00  0.50000000000E+03  0.50000000000E+03  0.00000000000E+00 0.  1.
         11   -1    0    0    0    0 -0.00000000000E+00 -0.00000000000E+00 -0.50000000000E+03  0.50000000000E+03  0.00000000000E+00 0. -1.
        -11    1    1    2    0    0 -0.66064414259E+01  0.23800599570E+02  0.45696511814E+03  0.45763220255E+03  0.00000000000E+00 0.  1.
         11    1    1    2    0    0 -0.46933839024E+02 -0.29617885822E+02 -0.40981861670E+03  0.41355931013E+03  0.00000000000E+00 0. -1.
        -15    1    1    2    0    0  0.75280725767E+02  0.14073845858E+02 -0.64171877115E+02  0.99932218782E+02  0.17770000000E+01 0. -1.
         15    1    1    2    0    0 -0.21740445317E+02 -0.82565596066E+01  0.17025375670E+02  0.28876268540E+02  0.17770000000E+01 0.  1.
</event>
<event>
 6    1  0.1599106E-003  0.5000762E+03  0.7546771E-02  0.9399639E-01
        -11   -1    0    0    0    0  0.00000000000E+00  0.00000000000E+00  0.50000000000E+03  0.50000000000E+03  0.00000000000E+00 0.  1.
         11   -1    0    0    0    0 -0.00000000000E+00 -0.00000000000E+00 -0.50000000000E+03  0.50000000000E+03  0.00000000000E+00 0. -1.
        -11    1    1    2    0    0  0.69945699191E+01 -0.24970681378E+01  0.49986862847E+03  0.49992379928E+03  0.00000000000E+00 0.  1.
         11    1    1    2    0    0 -0.12119324076E+01  0.11471563013E+01 -0.11830405911E+03  0.11831582798E+03  0.00000000000E+00 0. -1.
        -15    1    1    2    0    0  0.10320918327E+01 -0.28628598957E+01 -0.17033401634E+03  0.17037046701E+03  0.17770000000E+01 0. -1.
         15    1    1    2    0    0 -0.68147293442E+01  0.42127717322E+01 -0.21123055303E+03  0.21138990573E+03  0.17770000000E+01 0. -1.
</event>
<event>
 6    1  0.1599106E-003  0.5010200E+03  0.7546771E-02  0.9397530E-01
        -11   -1    0    0    0    0  0.00000000000E+00  0.00000000000E+00  0.50000000000E+03  0.50000000000E+03  0.00000000000E+00 0.  1.
         11   -1    0    0    0    0 -0.00000000000E+00 -0.00000000000E+00 -0.50000000000E+03  0.50000000000E+03  0.00000000000E+00 0. -1.
        -11    1    1    2    0    0 -0.57250727405E+01  0.11535043186E+02  0.49881378235E+03  0.49897998270E+03  0.00000000000E+00 0.  1.
         11    1    1    2    0    0  0.32699219061E+01 -0.30788925837E+01 -0.18414854863E+03  0.18420331140E+03  0.00000000000E+00 0. -1.
        -15    1    1    2    0    0 -0.14207899612E+02 -0.19757171737E+01 -0.21916101066E+03  0.21963714210E+03  0.17770000000E+01 0. -1.
         15    1    1    2    0    0  0.16663050446E+02 -0.64804334284E+01 -0.95504223059E+02  0.97179563791E+02  0.17770000000E+01 0.  1.
</event>
<event>
 6    1  0.1599106E-003  0.5094557E+03  0.7546771E-02  0.9378897E-01
        -11   -1    0    0    0    0  0.00000000000E+00  0.00000000000E+00  0.50000000000E+03  0.50000000000E+03  0.00000000000E+00 0. -1.
         11   -1    0    0    0    0 -0.00000000000E+00 -0.00000000000E+00 -0.50000000000E+03  0.50000000000E+03  0.00000000000E+00 0. -1.
        -11    1    1    2    0    0  0.78335442796E+01 -0.12036371467E+02  0.49033400524E+03  0.49054426441E+03  0.00000000000E+00 0. -1.
         11    1    1    2    0    0  0.33012686608E+01 -0.56955076026E+01 -0.46325231129E+03  0.46329908385E+03  0.00000000000E+00 0. -1.
        -15    1    1    2    0    0  0.91434650813E+01  0.12535588802E+02 -0.70731458202E+01  0.17144417783E+02  0.17770000000E+01 0.  1.
         15    1    1    2    0    0 -0.20278278022E+02  0.51962902680E+01 -0.20008548121E+02  0.29012233954E+02  0.17770000000E+01 0. -1.
</event>
<event>
 6    1  0.1599106E-003  0.5121556E+03  0.7546771E-02  0.9373014E-01
        -11   -1    0    0    0    0  0.00000000000E+00  0.00000000000E+00  0.50000000000E+03  0.50000000000E+03  0.00000000000E+00 0. -1.
         11   -1    0    0    0    0 -0.00000000000E+00 -0.00000000000E+00 -0.50000000000E+03  0.50000000000E+03  0.00000000000E+00 0.  1.
        -11    1    1    2    0    0 -0.20620158832E+02 -0.18031069794E+02  0.38659585822E+03  0.38756505005E+03  0.00000000000E+00 0. -1.
         11    1    1    2    0    0  0.91006794122E+01 -0.22430704463E+02 -0.48724344095E+03  0.48784437028E+03  0.00000000000E+00 0.  1.
        -15    1    1    2    0    0 -0.13662066442E+02  0.59318908001E+01 -0.24881514912E+00  0.15001967401E+02  0.17770000000E+01 0.  1.
         15    1    1    2    0    0  0.25181545862E+02  0.34529883456E+02  0.10089639788E+03  0.10958861227E+03  0.17770000000E+01 0. -1.
</event>
<event>
 6    1  0.1599106E-003  0.5007104E+03  0.7546771E-02  0.9398222E-01
        -11   -1    0    0    0    0  0.00000000000E+00  0.00000000000E+00  0.50000000000E+03  0.50000000000E+03  0.00000000000E+00 0. -1.
         11   -1    0    0    0    0 -0.00000000000E+00 -0.00000000000E+00 -0.50000000000E+03  0.50000000000E+03  0.00000000000E+00 0. -1.
        -11    1    1    2    0    0  0.38084603814E+01  0.63889528692E+01  0.27313721761E+03  0.27323847228E+03  0.00000000000E+00 0. -1.
         11    1    1    2    0    0  0.61029648687E+01  0.50650464467E+01 -0.49922660715E+03  0.49928960150E+03  0.00000000000E+00 0. -1.
        -15    1    1    2    0    0  0.11282080170E+01  0.84146159406E+00  0.12537525756E+03  0.12539574892E+03  0.17770000000E+01 0. -1.
         15    1    1    2    0    0 -0.11039633267E+02 -0.12295460910E+02  0.10071413198E+03  0.10207617730E+03  0.17770000000E+01 0. -1.
</event>
<event>
 6    1  0.1599106E-003  0.5004755E+03  0.7546771E-02  0.9398746E-01
        -11   -1    0    0    0    0  0.00000000000E+00  0.00000000000E+00  0.50000000000E+03  0.50000000000E+03  0.00000000000E+00 0.  1.
         11   -1    0    0    0    0 -0.00000000000E+00 -0.00000000000E+00 -0.50000000000E+03  0.50000000000E+03  0.00000000000E+00 0. -1.
        -11    1    1    2    0    0 -0.74012584604E+00 -0.35821600424E+01  0.21982266564E+03  0.21985309637E+03  0.00000000000E+00 0.  1.
         11    1    1    2    0    0 -0.23958995041E+00 -0.78732628829E+01 -0.49946239932E+03  0.49952450792E+03  0.00000000000E+00 0. -1.
        -15    1    1    2    0    0 -0.99424248840E+00  0.24453151415E+01  0.23421389894E+03  0.23423551453E+03  0.17770000000E+01 0. -1.
         15    1    1    2    0    0  0.19739582848E+01  0.90101077838E+01  0.45425834748E+02  0.46386881175E+02  0.17770000000E+01 0.  1.
</event>
<event>
 6    1  0.1599106E-003  0.5026523E+03  0.7546771E-02  0.9393894E-01
        -11   -1    0    0    0    0  0.00000000000E+00  0.00000000000E+00  0.50000000000E+03  0.50000000000E+03  0.00000000000E+00 0. -1.
         11   -1    0    0    0    0 -0.00000000000E+00 -0.00000000000E+00 -0.50000000000E+03  0.50000000000E+03  0.00000000000E+00 0. -1.
        -11    1    1    2    0    0  0.20693702891E+01 -0.41008157535E+01  0.10005296876E+03  0.10015835233E+03  0.00000000000E+00 0. -1.
         11    1    1    2    0    0  0.64082655155E+01 -0.41560600360E+01 -0.49728901942E+03  0.49734767270E+03  0.00000000000E+00 0. -1.
        -15    1    1    2    0    0  0.10643446500E+01  0.53381906010E+00 -0.20810117495E+01  0.29843141967E+01  0.17770000000E+01 0. -1.
         15    1    1    2    0    0 -0.95419804546E+01  0.77230567294E+01  0.39931706241E+03  0.39950966078E+03  0.17770000000E+01 0.  1.
</event>
<event>
 6    1  0.1599106E-003  0.5002302E+03  0.7546771E-02  0.9399295E-01
        -11   -1    0    0    0    0  0.00000000000E+00  0.00000000000E+00  0.50000000000E+03  0.50000000000E+03  0.00000000000E+00 0.  1.
         11   -1    0    0    0    0 -0.00000000000E+00 -0.00000000000E+00 -0.50000000000E+03  0.50000000000E+03  0.00000000000E+00 0. -1.
        -11    1    1    2    0    0 -0.90800827426E+00  0.34981775457E+01  0.17181425166E+03  0.17185225863E+03  0.00000000000E+00 0.  1.
         11    1    1    2    0    0 -0.55024709293E+00 -0.94162843049E+01 -0.49968073913E+03  0.49976975723E+03  0.00000000000E+00 0. -1.
        -15    1    1    2    0    0 -0.63058361144E+01  0.75474521992E+01  0.20433376464E+03  0.20457803574E+03  0.17770000000E+01 0. -1.
         15    1    1    2    0    0  0.77640914816E+01 -0.16293454400E+01  0.12353272283E+03  0.12379994840E+03  0.17770000000E+01 0.  1.
</event>
<event>
 6    1  0.1599106E-003  0.5072108E+03  0.7546771E-02  0.9383818E-01
        -11   -1    0    0    0    0  0.00000000000E+00  0.00000000000E+00  0.50000000000E+03  0.50000000000E+03  0.00000000000E+00 0.  1.
         11   -1    0    0    0    0 -0.00000000000E+00 -0.00000000000E+00 -0.50000000000E+03  0.50000000000E+03  0.00000000000E+00 0.  1.
        -11    1    1    2    0    0 -0.12477773562E+01  0.14586018839E+02  0.49257171925E+03  0.49278921203E+03  0.00000000000E+00 0.  1.
         11    1    1    2    0    0 -0.99283330411E+00 -0.86249045134E+01 -0.47394793047E+03  0.47402744171E+03  0.00000000000E+00 0.  1.
        -15    1    1    2    0    0 -0.63253357534E+00 -0.17487807699E+01 -0.24826617646E+02  0.24959507320E+02  0.17770000000E+01 0.  1.
         15    1    1    2    0    0  0.28731442357E+01 -0.42123335554E+01  0.62028288751E+01  0.82238389354E+01  0.17770000000E+01 0. -1.
</event>
<event>
 6    1  0.1599106E-003  0.5002404E+03  0.7546771E-02  0.9399272E-01
        -11   -1    0    0    0    0  0.00000000000E+00  0.00000000000E+00  0.50000000000E+03  0.50000000000E+03  0.00000000000E+00 0.  1.
         11   -1    0    0    0    0 -0.00000000000E+00 -0.00000000000E+00 -0.50000000000E+03  0.50000000000E+03  0.00000000000E+00 0.  1.
        -11    1    1    2    0    0  0.36870452519E+01  0.27790275250E+01  0.33721523428E+03  0.33724684065E+03  0.00000000000E+00 0.  1.
         11    1    1    2    0    0 -0.98937063738E+01 -0.93175196844E+01 -0.49957472778E+03  0.49975955242E+03  0.00000000000E+00 0.  1.
        -15    1    1    2    0    0  0.82518761391E+01  0.73942095659E+01  0.11408292593E+03  0.11463350083E+03  0.17770000000E+01 0. -1.
         15    1    1    2    0    0 -0.20452150172E+01 -0.85571740644E+00  0.48276567565E+02  0.48360106096E+02  0.17770000000E+01 0. -1.
</event>
<event>
 6    1  0.1599106E-003  0.5003271E+03  0.7546771E-02  0.9399078E-01
        -11   -1    0    0    0    0  0.00000000000E+00  0.00000000000E+00  0.50000000000E+03  0.50000000000E+03  0.00000000000E+00 0. -1.
         11   -1    0    0    0    0 -0.00000000000E+00 -0.00000000000E+00 -0.50000000000E+03  0.50000000000E+03  0.00000000000E+00 0. -1.
        -11    1    1    2    0    0 -0.53051219033E+00  0.15852611507E+02  0.49942110929E+03  0.49967292417E+03  0.00000000000E+00 0. -1.
         11    1    1    2    0    0 -0.94397893326E+01 -0.27617154235E+01 -0.27865497518E+03  0.27882849906E+03  0.00000000000E+00 0. -1.
        -15    1    1    2    0    0  0.10207250214E+02 -0.10453817525E+02 -0.17218913142E+03  0.17281702742E+03  0.17770000000E+01 0.  1.
         15    1    1    2    0    0 -0.23694869091E+00 -0.26370785584E+01 -0.48577002690E+02  0.48681549353E+02  0.17770000000E+01 0. -1.
</event>
<event>
 6    1  0.1599106E-003  0.5010093E+03  0.7546771E-02  0.9397554E-01
        -11   -1    0    0    0    0  0.00000000000E+00  0.00000000000E+00  0.50000000000E+03  0.50000000000E+03  0.00000000000E+00 0. -1.
         11   -1    0    0    0    0 -0.00000000000E+00 -0.00000000000E+00 -0.50000000000E+03  0.50000000000E+03  0.00000000000E+00 0. -1.
        -11    1    1    2    0    0 -0.20122102583E+01 -0.49002270780E+01  0.17360072994E+02  0.18150298893E+02  0.00000000000E+00 0. -1.
         11    1    1    2    0    0  0.70428787085E+01  0.47924514793E+01 -0.49891798781E+03  0.49899070962E+03  0.00000000000E+00 0. -1.
        -15    1    1    2    0    0 -0.13870667722E+02  0.60584750645E+01  0.42531096788E+03  0.42558392554E+03  0.17770000000E+01 0. -1.
         15    1    1    2    0    0  0.88399992715E+01 -0.59506994657E+01  0.56246946930E+02  0.57275065947E+02  0.17770000000E+01 0.  1.
</event>
<event>
 6    1  0.2136399E-003  0.5073941E+03  0.7546771E-02  0.9383415E-01
        -11   -1    0    0    0    0  0.00000000000E+00  0.00000000000E+00  0.50000000000E+03  0.50000000000E+03  0.00000000000E+00 0. -1.
         11   -1    0    0    0    0 -0.00000000000E+00 -0.00000000000E+00 -0.50000000000E+03  0.50000000000E+03  0.00000000000E+00 0. -1.
        -11    1    1    2    0    0 -0.58924340924E+01 -0.71282258974E-01  0.38821093326E+03  0.38825565619E+03  0.00000000000E+00 0. -1.
         11    1    1    2    0    0  0.61732070382E+01  0.58534029318E+01 -0.49253247675E+03  0.49260593933E+03  0.00000000000E+00 0. -1.
        -15    1    1    2    0    0  0.35239929033E+01 -0.82239798973E+00  0.11026085314E+03  0.11033452918E+03  0.17770000000E+01 0.  1.
         15    1    1    2    0    0 -0.38047658490E+01 -0.49597226830E+01 -0.59393096515E+01  0.88038753055E+01  0.17770000000E+01 0. -1.
</event>
<event>
 6    1  0.1599106E-003  0.5012963E+03  0.7546771E-02  0.9396914E-01
        -11   -1    0    0    0    0  0.00000000000E+00  0.00000000000E+00  0.50000000000E+03  0.50000000000E+03  0.00000000000E+00 0.  1.
         11   -1    0    0    0    0 -0.00000000000E+00 -0.00000000000E+00 -0.50000000000E+03  0.50000000000E+03  0.00000000000E+00 0.  1.
        -11    1    1    2    0    0  0.41470494211E+01 -0.30502334763E+01  0.33911890483E+03  0.33915797729E+03  0.00000000000E+00 0.  1.
         11    1    1    2    0    0 -0.63131443346E+01 -0.84828402832E+01 -0.49859154302E+03  0.49870366065E+03  0.00000000000E+00 0.  1.
        -15    1    1    2    0    0 -0.80371939380E+01  0.10237063135E+02  0.13353245602E+03  0.13417700432E+03  0.17770000000E+01 0. -1.
         15    1    1    2    0    0  0.10203288852E+02  0.12960106243E+01  0.25940182167E+02  0.27961357742E+02  0.17770000000E+01 0.  1.
</event>
<event>
 6    1  0.1599106E-003  0.5126048E+03  0.7546771E-02  0.9372039E-01
        -11   -1    0    0    0    0  0.00000000000E+00  0.00000000000E+00  0.50000000000E+03  0.50000000000E+03  0.00000000000E+00 0.  1.
         11   -1    0    0    0    0 -0.00000000000E+00 -0.00000000000E+00 -0.50000000000E+03  0.50000000000E+03  0.00000000000E+00 0.  1.
        -11    1    1    2    0    0  0.18691243469E+02  0.25862238055E+01  0.48702985050E+03  0.48739524661E+03  0.00000000000E+00 0.  1.
         11    1    1    2    0    0 -0.32329018977E+02 -0.93999960962E+01 -0.46017369169E+03  0.46140367567E+03  0.00000000000E+00 0.  1.
        -15    1    1    2    0    0 -0.65094638090E+01 -0.90668750721E+00  0.77908957455E+01  0.10346544681E+02  0.17770000000E+01 0. -1.
         15    1    1    2    0    0  0.20147239318E+02  0.77204597979E+01 -0.34647054557E+02  0.40854533042E+02  0.17770000000E+01 0.  1.
</event>
<event>
 6    1  0.1599106E-003  0.5061126E+03  0.7546771E-02  0.9386235E-01
        -11   -1    0    0    0    0  0.00000000000E+00  0.00000000000E+00  0.50000000000E+03  0.50000000000E+03  0.00000000000E+00 0.  1.
         11   -1    0    0    0    0 -0.00000000000E+00 -0.00000000000E+00 -0.50000000000E+03  0.50000000000E+03  0.00000000000E+00 0. -1.
        -11    1    1    2    0    0  0.98631400969E+01 -0.23511933840E+00  0.43501304798E+03  0.43512491163E+03  0.00000000000E+00 0.  1.
         11    1    1    2    0    0 -0.87915985121E+01 -0.20721644454E+02 -0.49337418472E+03  0.49388740104E+03  0.00000000000E+00 0. -1.
        -15    1    1    2    0    0  0.21990610182E+01  0.75931632269E+01 -0.25677024615E+01  0.84995777591E+01  0.17770000000E+01 0. -1.
         15    1    1    2    0    0 -0.32706026030E+01  0.13363600565E+02  0.60928839207E+02  0.62488109570E+02  0.17770000000E+01 0.  1.
</event>
<event>
 6    1  0.1599106E-003  0.5004107E+03  0.7546771E-02  0.9398891E-01
        -11   -1    0    0    0    0  0.00000000000E+00  0.00000000000E+00  0.50000000000E+03  0.50000000000E+03  0.00000000000E+00 0.  1.
         11   -1    0    0    0    0 -0.00000000000E+00 -0.00000000000E+00 -0.50000000000E+03  0.50000000000E+03  0.00000000000E+00 0.  1.
        -11    1    1    2    0    0 -0.83463456680E+00  0.42456991830E+01  0.22631030735E+03  0.22635166840E+03  0.00000000000E+00 0.  1.
         11    1    1    2    0    0 -0.16173233219E+00  0.74364650777E+01 -0.49953390622E+03  0.49958928195E+03  0.00000000000E+00 0.  1.
        -15    1    1    2    0    0 -0.22601500747E+01 -0.73026740783E-01  0.71537414091E+01  0.77102111783E+01  0.17770000000E+01 0.  1.
         15    1    1    2    0    0  0.32565169737E+01 -0.11609137520E+02  0.26606985746E+03  0.26634883847E+03  0.17770000000E+01 0. -1.
</event>
<event>
 6    1  0.1599106E-003  0.5072131E+03  0.7546771E-02  0.9383813E-01
        -11   -1    0    0    0    0  0.00000000000E+00  0.00000000000E+00  0.50000000000E+03  0.50000000000E+03  0.00000000000E+00 0. -1.
         11   -1    0    0    0    0 -0.00000000000E+00 -0.00000000000E+00 -0.50000000000E+03  0.50000000000E+03  0.00000000000E+00 0. -1.
        -11    1    1    2    0    0  0.81819547637E+01  0.54087279763E+00  0.47060942355E+03  0.47068085415E+03  0.00000000000E+00 0. -1.
         11    1    1    2    0    0  0.53326938362E+01 -0.11011787686E+02 -0.49263496691E+03  0.49278687859E+03  0.00000000000E+00 0. -1.
        -15    1    1    2    0    0  0.11955549917E+01  0.13008368638E+02  0.14903345342E+02  0.19897598794E+02  0.17770000000E+01 0. -1.
         15    1    1    2    0    0 -0.14710203592E+02 -0.25374537494E+01  0.71221980155E+01  0.16634668461E+02  0.17770000000E+01 0.  1.
</event>
<event>
 6    1  0.1599106E-003  0.5258067E+03  0.7546771E-02  0.9343847E-01
        -11   -1    0    0    0    0  0.00000000000E+00  0.00000000000E+00  0.50000000000E+03  0.50000000000E+03  0.00000000000E+00 0. -1.
         11   -1    0    0    0    0 -0.00000000000E+00 -0.00000000000E+00 -0.50000000000E+03  0.50000000000E+03  0.00000000000E+00 0.  1.
        -11    1    1    2    0    0  0.57396208105E+01 -0.96565015177E+01  0.34463511399E+03  0.34481814492E+03  0.00000000000E+00 0. -1.
         11    1    1    2    0    0  0.14166099617E+02  0.15956253200E+02 -0.47371295347E+03  0.47419325457E+03  0.00000000000E+00 0.  1.
        -15    1    1    2    0    0 -0.96607674362E+01 -0.10554560085E+01  0.15356017260E+03  0.15387764215E+03  0.17770000000E+01 0. -1.
         15    1    1    2    0    0 -0.10244952991E+02 -0.52442956740E+01 -0.24482333122E+02  0.27110958356E+02  0.17770000000E+01 0.  1.
</event>
<event>
 6    1  0.1599106E-003  0.5023530E+03  0.7546771E-02  0.9394560E-01
        -11   -1    0    0    0    0  0.00000000000E+00  0.00000000000E+00  0.50000000000E+03  0.50000000000E+03  0.00000000000E+00 0.  1.
         11   -1    0    0    0    0 -0.00000000000E+00 -0.00000000000E+00 -0.50000000000E+03  0.50000000000E+03  0.00000000000E+00 0.  1.
        -11    1    1    2    0    0 -0.56836727242E+01  0.79907333089E+01  0.49755036368E+03  0.49764698366E+03  0.00000000000E+00 0.  1.
         11    1    1    2    0    0  0.23223428121E+01 -0.69851543340E+01 -0.32880955755E+03  0.32889194394E+03  0.00000000000E+00 0.  1.
        -15    1    1    2    0    0  0.43581281442E+01 -0.77260829523E+01 -0.66738718914E+01  0.11242060920E+02  0.17770000000E+01 0.  1.
         15    1    1    2    0    0 -0.99679823216E+00  0.67205039774E+01 -0.16206693424E+03  0.16221901147E+03  0.17770000000E+01 0.  1.
</event>
<event>
 6    1  0.1599106E-003  0.5118611E+03  0.7546771E-02  0.9373654E-01
        -11   -1    0    0    0    0  0.00000000000E+00  0.00000000000E+00  0.50000000000E+03  0.50000000000E+03  0.00000000000E+00 0.  1.
         11   -1    0    0    0    0 -0.00000000000E+00 -0.00000000000E+00 -0.50000000000E+03  0.50000000000E+03  0.00000000000E+00 0.  1.
        -11    1    1    2    0    0 -0.18724712557E+02  0.36546675776E+02  0.48640855584E+03  0.48813887118E+03  0.00000000000E+00 0.  1.
         11    1    1    2    0    0  0.60711855543E+01  0.18939464610E+01 -0.39166560878E+03  0.39171723912E+03  0.00000000000E+00 0.  1.
        -15    1    1    2    0    0  0.27204494154E+02 -0.67941791618E+01 -0.12383764041E+02  0.30704408698E+02  0.17770000000E+01 0. -1.
         15    1    1    2    0    0 -0.14550967151E+02 -0.31646443075E+02 -0.82359183018E+02  0.89439480995E+02  0.17770000000E+01 0.  1.
</event>
<event>
 6    1  0.1599106E-003  0.5017779E+03  0.7546771E-02  0.9395840E-01
        -11   -1    0    0    0    0  0.00000000000E+00  0.00000000000E+00  0.50000000000E+03  0.50000000000E+03  0.00000000000E+00 0.  1.
         11   -1    0    0    0    0 -0.00000000000E+00 -0.00000000000E+00 -0.50000000000E+03  0.50000000000E+03  0.00000000000E+00 0. -1.
        -11    1    1    2    0    0 -0.82380859626E+01  0.19649470439E+01  0.46177016669E+03  0.46184782550E+03  0.00000000000E+00 0.  1.
         11    1    1    2    0    0  0.62374752583E+00 -0.75180754942E+01 -0.49816503033E+03  0.49822214720E+03  0.00000000000E+00 0. -1.
        -15    1    1    2    0    0  0.66002073000E+01 -0.22273091067E+01  0.24775406987E+02  0.25797328595E+02  0.17770000000E+01 0.  1.
         15    1    1    2    0    0  0.10141311367E+01  0.77804375570E+01  0.11619456653E+02  0.14132698697E+02  0.17770000000E+01 0. -1.
</event>
<event>
 6    1  0.1599106E-003  0.5033445E+03  0.7546771E-02  0.9392357E-01
        -11   -1    0    0    0    0  0.00000000000E+00  0.00000000000E+00  0.50000000000E+03  0.50000000000E+03  0.00000000000E+00 0.  1.
         11   -1    0    0    0    0 -0.00000000000E+00 -0.00000000000E+00 -0.50000000000E+03  0.50000000000E+03  0.00000000000E+00 0. -1.
        -11    1    1    2    0    0 -0.73925195625E+00 -0.93125653034E+01  0.46903302093E+03  0.46912604392E+03  0.00000000000E+00 0.  1.
         11    1    1    2    0    0 -0.78126451875E+01  0.46271337772E+01 -0.49657247459E+03  0.49665548452E+03  0.00000000000E+00 0. -1.
        -15    1    1    2    0    0  0.13984279941E+01  0.47207506381E+00 -0.22608870008E+01  0.32323048666E+01  0.17770000000E+01 0.  1.
         15    1    1    2    0    0  0.71534691497E+01  0.42133564624E+01  0.29800340661E+02  0.30986166688E+02  0.17770000000E+01 0. -1.
</event>
<event>
 6    1  0.1599106E-003  0.5009487E+03  0.7546771E-02  0.9397689E-01
        -11   -1    0    0    0    0  0.00000000000E+00  0.00000000000E+00  0.50000000000E+03  0.50000000000E+03  0.00000000000E+00 0. -1.
         11   -1    0    0    0    0 -0.00000000000E+00 -0.00000000000E+00 -0.50000000000E+03  0.50000000000E+03  0.00000000000E+00 0. -1.
        -11    1    1    2    0    0 -0.14198302486E+02  0.65074921838E+01  0.49880681608E+03  0.49905127895E+03  0.00000000000E+00 0. -1.
         11    1    1    2    0    0 -0.30789381722E+01 -0.22011345600E+01 -0.20873902409E+03  0.20877333410E+03  0.00000000000E+00 0. -1.
        -15    1    1    2    0    0 -0.85697457004E+01 -0.22749905378E+01 -0.74660185791E+02  0.75205832185E+02  0.17770000000E+01 0.  1.
         15    1    1    2    0    0  0.25846986359E+02 -0.20313670860E+01 -0.21540760621E+03  0.21696955477E+03  0.17770000000E+01 0. -1.
</event>
<event>
 6    1  0.1599106E-003  0.5041524E+03  0.7546771E-02  0.9390566E-01
        -11   -1    0    0    0    0  0.00000000000E+00  0.00000000000E+00  0.50000000000E+03  0.50000000000E+03  0.00000000000E+00 0. -1.
         11   -1    0    0    0    0 -0.00000000000E+00 -0.00000000000E+00 -0.50000000000E+03  0.50000000000E+03  0.00000000000E+00 0.  1.
        -11    1    1    2    0    0 -0.21933229299E+02  0.72531531957E+01  0.39390525203E+03  0.39458208570E+03  0.00000000000E+00 0. -1.
         11    1    1    2    0    0 -0.11831759104E+02 -0.40409936844E+01 -0.49568992415E+03  0.49584757846E+03  0.00000000000E+00 0.  1.
        -15    1    1    2    0    0  0.30029581457E+02 -0.69041697205E+01  0.98276647771E+02  0.10300922555E+03  0.17770000000E+01 0.  1.
         15    1    1    2    0    0  0.37354069452E+01  0.36920102092E+01  0.35080243559E+01  0.65611102957E+01  0.17770000000E+01 0. -1.
</event>
<event>
 6    1  0.1599106E-003  0.4618529E+03  0.7546771E-02  0.9489461E-01
        -11   -1    0    0    0    0  0.00000000000E+00  0.00000000000E+00  0.50000000000E+03  0.50000000000E+03  0.00000000000E+00 0. -1.
         11   -1    0    0    0    0 -0.00000000000E+00 -0.00000000000E+00 -0.50000000000E+03  0.50000000000E+03  0.00000000000E+00 0.  1.
        -11    1    1    2    0    0 -0.34109473981E+02 -0.12961987260E+02  0.46420920056E+03  0.46564111847E+03  0.00000000000E+00 0. -1.
         11    1    1    2    0    0 -0.13690576064E+02  0.11540476302E+02 -0.45896741587E+03  0.45931656110E+03  0.00000000000E+00 0.  1.
        -15    1    1    2    0    0  0.58556578963E+02  0.95656612395E+01 -0.10815714812E+02  0.60336657437E+02  0.17770000000E+01 0.  1.
         15    1    1    2    0    0 -0.10756528917E+02 -0.81441502812E+01  0.55739301252E+01  0.14705662997E+02  0.17770000000E+01 0. -1.
</event>
<event>
 6    1  0.1599106E-003  0.5012889E+03  0.7546771E-02  0.9396930E-01
        -11   -1    0    0    0    0  0.00000000000E+00  0.00000000000E+00  0.50000000000E+03  0.50000000000E+03  0.00000000000E+00 0.  1.
         11   -1    0    0    0    0 -0.00000000000E+00 -0.00000000000E+00 -0.50000000000E+03  0.50000000000E+03  0.00000000000E+00 0. -1.
        -11    1    1    2    0    0  0.14728275369E+01 -0.41162517074E+01  0.22010727110E+03  0.22015068372E+03  0.00000000000E+00 0.  1.
         11    1    1    2    0    0  0.10342566488E+02  0.79851950160E+01 -0.49853989607E+03  0.49871109873E+03  0.00000000000E+00 0. -1.
        -15    1    1    2    0    0 -0.40829623775E+01 -0.59633435248E+01  0.94423108193E+01  0.12022770495E+02  0.17770000000E+01 0.  1.
         15    1    1    2    0    0 -0.77324316476E+01  0.20944002162E+01  0.26899031415E+03  0.26911544706E+03  0.17770000000E+01 0. -1.
</event>
<event>
 6    1  0.1599106E-003  0.5082111E+03  0.7546771E-02  0.9381622E-01
        -11   -1    0    0    0    0  0.00000000000E+00  0.00000000000E+00  0.50000000000E+03  0.50000000000E+03  0.00000000000E+00 0.  1.
         11   -1    0    0    0    0 -0.00000000000E+00 -0.00000000000E+00 -0.50000000000E+03  0.50000000000E+03  0.00000000000E+00 0. -1.
        -11    1    1    2    0    0 -0.54901506426E+01  0.18162021358E+01  0.32485132541E+03  0.32490279156E+03  0.00000000000E+00 0.  1.
         11    1    1    2    0    0 -0.10601113835E+01 -0.13207974784E+02 -0.49161038603E+03  0.49178892432E+03  0.00000000000E+00 0. -1.
        -15    1    1    2    0    0  0.36858828158E+02  0.13568892843E+01  0.12714733597E+03  0.13240097105E+03  0.17770000000E+01 0. -1.
         15    1    1    2    0    0 -0.30308566132E+02  0.10034883364E+02  0.39611724644E+02  0.50907313064E+02  0.17770000000E+01 0.  1.
</event>
<event>
 6    1  0.1599106E-003  0.5006756E+03  0.7546771E-02  0.9398299E-01
        -11   -1    0    0    0    0  0.00000000000E+00  0.00000000000E+00  0.50000000000E+03  0.50000000000E+03  0.00000000000E+00 0. -1.
         11   -1    0    0    0    0 -0.00000000000E+00 -0.00000000000E+00 -0.50000000000E+03  0.50000000000E+03  0.00000000000E+00 0. -1.
        -11    1    1    2    0    0  0.62381036661E+01 -0.61670657729E+01  0.49924736117E+03  0.49932441786E+03  0.00000000000E+00 0. -1.
         11    1    1    2    0    0  0.12332634715E+01  0.34129728085E+01 -0.25953611007E+03  0.25956147971E+03  0.00000000000E+00 0. -1.
        -15    1    1    2    0    0  0.37964495301E+01  0.11043910387E+02 -0.11732844487E+03  0.11792159552E+03  0.17770000000E+01 0.  1.
         15    1    1    2    0    0 -0.11267816668E+02 -0.82898174223E+01 -0.12238280624E+03  0.12319250691E+03  0.17770000000E+01 0. -1.
</event>
<event>
 6    1  0.1599106E-003  0.5038777E+03  0.7546771E-02  0.9391175E-01
        -11   -1    0    0    0    0  0.00000000000E+00  0.00000000000E+00  0.50000000000E+03  0.50000000000E+03  0.00000000000E+00 0.  1.
         11   -1    0    0    0    0 -0.00000000000E+00 -0.00000000000E+00 -0.50000000000E+03  0.50000000000E+03  0.00000000000E+00 0. -1.
        -11    1    1    2    0    0 -0.11016043455E+02  0.18251415016E+02  0.37835942076E+03  0.37895952112E+03  0.00000000000E+00 0.  1.
         11    1    1    2    0    0 -0.21559905233E+01  0.10352720975E+02 -0.49600963469E+03  0.49612234865E+03  0.00000000000E+00 0. -1.
        -15    1    1    2    0    0 -0.23681594061E-01  0.48809711418E+01  0.24414353062E+02  0.24960825398E+02  0.17770000000E+01 0.  1.
         15    1    1    2    0    0  0.13195715572E+02 -0.33485107133E+02  0.93235860864E+02  0.99957304832E+02  0.17770000000E+01 0. -1.
</event>
<event>
 6    1  0.1599106E-003  0.4844730E+03  0.7546771E-02  0.9435239E-01
        -11   -1    0    0    0    0  0.00000000000E+00  0.00000000000E+00  0.50000000000E+03  0.50000000000E+03  0.00000000000E+00 0.  1.
         11   -1    0    0    0    0 -0.00000000000E+00 -0.00000000000E+00 -0.50000000000E+03  0.50000000000E+03  0.00000000000E+00 0. -1.
        -11    1    1    2    0    0  0.50459346636E+01 -0.76695145940E+01  0.48525609729E+03  0.48534293326E+03  0.00000000000E+00 0.  1.
         11    1    1    2    0    0  0.66641440372E+01 -0.23022711193E-01 -0.48365976154E+03  0.48370567113E+03  0.00000000000E+00 0. -1.
        -15    1    1    2    0    0 -0.27403609966E+01 -0.79962838505E+01  0.67537025280E+01  0.10964504578E+02  0.17770000000E+01 0.  1.
         15    1    1    2    0    0 -0.89697177042E+01  0.15688821156E+02 -0.83500382749E+01  0.19986891032E+02  0.17770000000E+01 0. -1.
</event>
<event>
 6    1  0.1599106E-003  0.5006229E+03  0.7546771E-02  0.9398417E-01
        -11   -1    0    0    0    0  0.00000000000E+00  0.00000000000E+00  0.50000000000E+03  0.50000000000E+03  0.00000000000E+00 0. -1.
         11   -1    0    0    0    0 -0.00000000000E+00 -0.00000000000E+00 -0.50000000000E+03  0.50000000000E+03  0.00000000000E+00 0.  1.
        -11    1    1    2    0    0 -0.22584404993E+01  0.59636230287E+01  0.34967627281E+03  0.34973441512E+03  0.00000000000E+00 0. -1.
         11    1    1    2    0    0  0.68102400123E+01 -0.65426301771E+01 -0.49928780756E+03  0.49937711217E+03  0.00000000000E+00 0.  1.
        -15    1    1    2    0    0  0.14990395994E+01 -0.19823888932E+01  0.13157246806E+03  0.13160793694E+03  0.17770000000E+01 0. -1.
         15    1    1    2    0    0 -0.60508391124E+01  0.25613960416E+01  0.18039066686E+02  0.19280535769E+02  0.17770000000E+01 0.  1.
</event>
<event>
 6    1  0.1599106E-003  0.5356537E+03  0.7546771E-02  0.9323386E-01
        -11   -1    0    0    0    0  0.00000000000E+00  0.00000000000E+00  0.50000000000E+03  0.50000000000E+03  0.00000000000E+00 0.  1.
         11   -1    0    0    0    0 -0.00000000000E+00 -0.00000000000E+00 -0.50000000000E+03  0.50000000000E+03  0.00000000000E+00 0.  1.
        -11    1    1    2    0    0 -0.34049285812E+02  0.22729792543E+02  0.46253806647E+03  0.46434627195E+03  0.00000000000E+00 0.  1.
         11    1    1    2    0    0 -0.21842084195E+00 -0.85545529500E+01 -0.30864467772E+03  0.30876328339E+03  0.00000000000E+00 0.  1.
        -15    1    1    2    0    0  0.14204353172E+02 -0.79663566690E+02 -0.31950750074E+02  0.87017559528E+02  0.17770000000E+01 0. -1.
         15    1    1    2    0    0  0.20063353482E+02  0.65488327098E+02 -0.12194263868E+03  0.13987288514E+03  0.17770000000E+01 0.  1.
</event>
<event>
 6    1  0.1599106E-003  0.5484727E+03  0.7546771E-02  0.9297437E-01
        -11   -1    0    0    0    0  0.00000000000E+00  0.00000000000E+00  0.50000000000E+03  0.50000000000E+03  0.00000000000E+00 0. -1.
         11   -1    0    0    0    0 -0.00000000000E+00 -0.00000000000E+00 -0.50000000000E+03  0.50000000000E+03  0.00000000000E+00 0.  1.
        -11    1    1    2    0    0 -0.15114568009E+02 -0.38967328917E+02  0.44958865695E+03  0.45152725648E+03  0.00000000000E+00 0. -1.
         11    1    1    2    0    0 -0.61432450994E+01  0.26183846800E+01 -0.18825849805E+03  0.18837690274E+03  0.00000000000E+00 0.  1.
        -15    1    1    2    0    0  0.53795971921E+02 -0.37669685588E+01  0.31675075389E+02  0.62567282001E+02  0.17770000000E+01 0. -1.
         15    1    1    2    0    0 -0.32538158813E+02  0.40115912796E+02 -0.29300523429E+03  0.29752855878E+03  0.17770000000E+01 0.  1.
</event>
<event>
 6    1  0.1599106E-003  0.5001788E+03  0.7546771E-02  0.9399410E-01
        -11   -1    0    0    0    0  0.00000000000E+00  0.00000000000E+00  0.50000000000E+03  0.50000000000E+03  0.00000000000E+00 0.  1.
         11   -1    0    0    0    0 -0.00000000000E+00 -0.00000000000E+00 -0.50000000000E+03  0.50000000000E+03  0.00000000000E+00 0.  1.
        -11    1    1    2    0    0 -0.15865269227E+01 -0.17129828087E+01  0.64415951513E+02  0.64458251505E+02  0.00000000000E+00 0.  1.
         11    1    1    2    0    0 -0.56649134989E+01 -0.54098324110E+01 -0.49975981419E+03  0.49982119744E+03  0.00000000000E+00 0.  1.
        -15    1    1    2    0    0 -0.39624531695E+01  0.17102425413E+01  0.18714031218E+03  0.18719850463E+03  0.17770000000E+01 0.  1.
         15    1    1    2    0    0  0.11213893591E+02  0.54125726784E+01  0.24820355050E+03  0.24852204643E+03  0.17770000000E+01 0. -1.
</event>
<event>
 6    1  0.1599106E-003  0.5060045E+03  0.7546771E-02  0.9386474E-01
        -11   -1    0    0    0    0  0.00000000000E+00  0.00000000000E+00  0.50000000000E+03  0.50000000000E+03  0.00000000000E+00 0.  1.
         11   -1    0    0    0    0 -0.00000000000E+00 -0.00000000000E+00 -0.50000000000E+03  0.50000000000E+03  0.00000000000E+00 0. -1.
        -11    1    1    2    0    0  0.34855528712E+01  0.61290971686E+01  0.49394517491E+03  0.49399549667E+03  0.00000000000E+00 0.  1.
         11    1    1    2    0    0 -0.12493763244E+02 -0.16097183856E+01 -0.47477539606E+03  0.47494248285E+03  0.00000000000E+00 0. -1.
        -15    1    1    2    0    0  0.11141379973E+02  0.94382793424E+00 -0.21665354873E+02  0.24445173136E+02  0.17770000000E+01 0. -1.
         15    1    1    2    0    0 -0.21331695997E+01 -0.54632067173E+01  0.24955760153E+01  0.66168473479E+01  0.17770000000E+01 0.  1.
</event>
<event>
 6    1  0.1599106E-003  0.5066126E+03  0.7546771E-02  0.9385134E-01
        -11   -1    0    0    0    0  0.00000000000E+00  0.00000000000E+00  0.50000000000E+03  0.50000000000E+03  0.00000000000E+00 0.  1.
         11   -1    0    0    0    0 -0.00000000000E+00 -0.00000000000E+00 -0.50000000000E+03  0.50000000000E+03  0.00000000000E+00 0.  1.
        -11    1    1    2    0    0 -0.13760257943E+02  0.28515929736E+01  0.49318720225E+03  0.49338736581E+03  0.00000000000E+00 0.  1.
         11    1    1    2    0    0  0.46193129761E+01 -0.14869093924E+02 -0.13393062922E+03  0.13483264238E+03  0.00000000000E+00 0.  1.
        -15    1    1    2    0    0  0.20806140987E+02  0.83052212748E+01 -0.14376090026E+02  0.26677741596E+02  0.17770000000E+01 0. -1.
         15    1    1    2    0    0 -0.11665196020E+02  0.37122796754E+01 -0.34488048300E+03  0.34510225021E+03  0.17770000000E+01 0.  1.
</event>
<event>
 6    1  0.1599106E-003  0.5022073E+03  0.7546771E-02  0.9394884E-01
        -11   -1    0    0    0    0  0.00000000000E+00  0.00000000000E+00  0.50000000000E+03  0.50000000000E+03  0.00000000000E+00 0.  1.
         11   -1    0    0    0    0 -0.00000000000E+00 -0.00000000000E+00 -0.50000000000E+03  0.50000000000E+03  0.00000000000E+00 0. -1.
        -11    1    1    2    0    0  0.12510118256E+02 -0.11961229860E+02  0.49749174426E+03  0.49779273768E+03  0.00000000000E+00 0.  1.
         11    1    1    2    0    0 -0.76563293635E+01  0.32876547334E+01 -0.47481753883E+03  0.47489064345E+03  0.00000000000E+00 0. -1.
        -15    1    1    2    0    0  0.26187438359E+01 -0.47668104686E+00 -0.36720861639E+01  0.48710358132E+01  0.17770000000E+01 0. -1.
         15    1    1    2    0    0 -0.74725327289E+01  0.91502561736E+01 -0.19002119267E+02  0.22445583064E+02  0.17770000000E+01 0.  1.
</event>
<event>
 6    1  0.1599106E-003  0.5724877E+03  0.7546771E-02  0.9250789E-01
        -11   -1    0    0    0    0  0.00000000000E+00  0.00000000000E+00  0.50000000000E+03  0.50000000000E+03  0.00000000000E+00 0. -1.
         11   -1    0    0    0    0 -0.00000000000E+00 -0.00000000000E+00 -0.50000000000E+03  0.50000000000E+03  0.00000000000E+00 0.  1.
        -11    1    1    2    0    0  0.23736404855E+02 -0.15221595739E+02  0.38649982548E+03  0.38752706871E+03  0.00000000000E+00 0. -1.
         11    1    1    2    0    0 -0.90729452497E+01 -0.21380234623E+00 -0.42741600460E+03  0.42751234489E+03  0.00000000000E+00 0.  1.
        -15    1    1    2    0    0 -0.33807623760E+02  0.60069203400E+01  0.10862996802E+03  0.11394150340E+03  0.17770000000E+01 0. -1.
         15    1    1    2    0    0  0.19144164155E+02  0.94284777455E+01 -0.67713788895E+02  0.71019082994E+02  0.17770000000E+01 0.  1.
</event>
<event>
 6    1  0.1599106E-003  0.5114401E+03  0.7546771E-02  0.9374569E-01
        -11   -1    0    0    0    0  0.00000000000E+00  0.00000000000E+00  0.50000000000E+03  0.50000000000E+03  0.00000000000E+00 0.  1.
         11   -1    0    0    0    0 -0.00000000000E+00 -0.00000000000E+00 -0.50000000000E+03  0.50000000000E+03  0.00000000000E+00 0.  1.
        -11    1    1    2    0    0  0.42797627774E+00 -0.10416837800E+02  0.36278614756E+03  0.36293592070E+03  0.00000000000E+00 0.  1.
         11    1    1    2    0    0 -0.19604497128E+01 -0.30016726509E+02 -0.48763301414E+03  0.48855992847E+03  0.00000000000E+00 0.  1.
        -15    1    1    2    0    0 -0.14629728621E+02  0.35313532593E+02  0.21764676670E+02  0.44021965236E+02  0.17770000000E+01 0. -1.
         15    1    1    2    0    0  0.16162202056E+02  0.51200317163E+01  0.10308218991E+03  0.10448218559E+03  0.17770000000E+01 0.  1.
</event>
<event>
 6    1  0.1599106E-003  0.5002884E+03  0.7546771E-02  0.9399165E-01
        -11   -1    0    0    0    0  0.00000000000E+00  0.00000000000E+00  0.50000000000E+03  0.50000000000E+03  0.00000000000E+00 0. -1.
         11   -1    0    0    0    0 -0.00000000000E+00 -0.00000000000E+00 -0.50000000000E+03  0.50000000000E+03  0.00000000000E+00 0. -1.
        -11    1    1    2    0    0  0.58157480479E+01  0.38689010195E+01  0.49966282315E+03  0.49971164501E+03  0.00000000000E+00 0. -1.
         11    1    1    2    0    0  0.36687680066E+01 -0.86874876275E+00 -0.94871314514E+02  0.94946200033E+02  0.00000000000E+00 0. -1.
        -15    1    1    2    0    0 -0.13878048494E+02 -0.10591028867E+01 -0.35728020696E+03  0.35755562636E+03  0.17770000000E+01 0. -1.
         15    1    1    2    0    0  0.43935324397E+01 -0.19410493701E+01 -0.47511301669E+02  0.47786528596E+02  0.17770000000E+01 0.  1.
</event>
<event>
 6    1  0.1599106E-003  0.5021903E+03  0.7546771E-02  0.9394922E-01
        -11   -1    0    0    0    0  0.00000000000E+00  0.00000000000E+00  0.50000000000E+03  0.50000000000E+03  0.00000000000E+00 0.  1.
         11   -1    0    0    0    0 -0.00000000000E+00 -0.00000000000E+00 -0.50000000000E+03  0.50000000000E+03  0.00000000000E+00 0. -1.
        -11    1    1    2    0    0 -0.24903354642E+01 -0.41455492558E+02  0.49607434961E+03  0.49780972266E+03  0.00000000000E+00 0.  1.
         11    1    1    2    0    0  0.41217162695E+01  0.27518238534E+01 -0.21722724431E+03  0.21728377010E+03  0.00000000000E+00 0. -1.
        -15    1    1    2    0    0 -0.19482884859E+02  0.17142381189E+02 -0.18904136549E+03  0.19082253439E+03  0.17770000000E+01 0. -1.
         15    1    1    2    0    0  0.17851504054E+02  0.21561287516E+02 -0.89805739804E+02  0.94083972849E+02  0.17770000000E+01 0.  1.
</event>
<event>
 6    1  0.1599106E-003  0.5164156E+03  0.7546771E-02  0.9363810E-01
        -11   -1    0    0    0    0  0.00000000000E+00  0.00000000000E+00  0.50000000000E+03  0.50000000000E+03  0.00000000000E+00 0.  1.
         11   -1    0    0    0    0 -0.00000000000E+00 -0.00000000000E+00 -0.50000000000E+03  0.50000000000E+03  0.00000000000E+00 0.  1.
        -11    1    1    2    0    0  0.14559332814E+02 -0.25141338971E+02  0.43974963385E+03  0.44070829533E+03  0.00000000000E+00 0.  1.
         11    1    1    2    0    0 -0.88582507709E+01  0.41901658936E+00 -0.48350309184E+03  0.48358441248E+03  0.00000000000E+00 0.  1.
        -15    1    1    2    0    0  0.63517714815E+01 -0.13655842501E+01 -0.11542653699E+02  0.13364146239E+02  0.17770000000E+01 0.  1.
         15    1    1    2    0    0 -0.12052853524E+02  0.26087906631E+02  0.55296111681E+02  0.62343145947E+02  0.17770000000E+01 0. -1.
</event>
<event>
 6    1  0.1599106E-003  0.2895937E+03  0.7546771E-02  0.1005415E+00
        -11   -1    0    0    0    0  0.00000000000E+00  0.00000000000E+00  0.50000000000E+03  0.50000000000E+03  0.00000000000E+00 0.  1.
         11   -1    0    0    0    0 -0.00000000000E+00 -0.00000000000E+00 -0.50000000000E+03  0.50000000000E+03  0.00000000000E+00 0. -1.
        -11    1    1    2    0    0 -0.12040535758E+01  0.57689707003E+01  0.32095499410E+03  0.32100909489E+03  0.00000000000E+00 0.  1.
         11    1    1    2    0    0  0.72953501065E+01  0.25744669004E+01 -0.23862661772E+03  0.23875198993E+03  0.00000000000E+00 0. -1.
        -15    1    1    2    0    0 -0.85417210499E+01  0.15643149649E+01  0.17874271601E+03  0.17896235452E+03  0.17770000000E+01 0. -1.
         15    1    1    2    0    0  0.24504245191E+01 -0.99077525656E+01 -0.26107109238E+03  0.26127656066E+03  0.17770000000E+01 0.  1.
</event>
<event>
 6    1  0.1599106E-003  0.4881273E+03  0.7546771E-02  0.9426775E-01
        -11   -1    0    0    0    0  0.00000000000E+00  0.00000000000E+00  0.50000000000E+03  0.50000000000E+03  0.00000000000E+00 0.  1.
         11   -1    0    0    0    0 -0.00000000000E+00 -0.00000000000E+00 -0.50000000000E+03  0.50000000000E+03  0.00000000000E+00 0. -1.
        -11    1    1    2    0    0 -0.79450488635E+01 -0.92030323357E+01  0.49094031562E+03  0.49109083998E+03  0.00000000000E+00 0.  1.
         11    1    1    2    0    0 -0.64001174847E+01  0.20369813097E+01 -0.48526543065E+03  0.48531190896E+03  0.00000000000E+00 0. -1.
        -15    1    1    2    0    0  0.19927261543E+01 -0.16300917060E+01 -0.75901905795E+01  0.82095601909E+01  0.17770000000E+01 0.  1.
         15    1    1    2    0    0  0.12352440194E+02  0.87961427320E+01  0.19153056037E+01  0.15387690868E+02  0.17770000000E+01 0. -1.
</event>
<event>
 6    1  0.1599106E-003  0.5131135E+03  0.7546771E-02  0.9370936E-01
        -11   -1    0    0    0    0  0.00000000000E+00  0.00000000000E+00  0.50000000000E+03  0.50000000000E+03  0.00000000000E+00 0. -1.
         11   -1    0    0    0    0 -0.00000000000E+00 -0.00000000000E+00 -0.50000000000E+03  0.50000000000E+03  0.00000000000E+00 0.  1.
        -11    1    1    2    0    0 -0.44800278318E+01 -0.65520044358E+00  0.22327886856E+03  0.22332477042E+03  0.00000000000E+00 0. -1.
         11    1    1    2    0    0 -0.22013940497E+02 -0.25896178320E+02 -0.48569866873E+03  0.48688645743E+03  0.00000000000E+00 0.  1.
        -15    1    1    2    0    0  0.13778241945E+02 -0.15100285244E+02  0.23981284754E+03  0.24068904865E+03  0.17770000000E+01 0. -1.
         15    1    1    2    0    0  0.12715726384E+02  0.41651664008E+02  0.22606952627E+02  0.49099723504E+02  0.17770000000E+01 0.  1.
</event>
<event>
 6    1  0.1599106E-003  0.5083356E+03  0.7546771E-02  0.9381349E-01
        -11   -1    0    0    0    0  0.00000000000E+00  0.00000000000E+00  0.50000000000E+03  0.50000000000E+03  0.00000000000E+00 0. -1.
         11   -1    0    0    0    0 -0.00000000000E+00 -0.00000000000E+00 -0.50000000000E+03  0.50000000000E+03  0.00000000000E+00 0. -1.
        -11    1    1    2    0    0  0.13962124855E+01 -0.18745939980E+02  0.41352920091E+03  0.41395622919E+03  0.00000000000E+00 0. -1.
         11    1    1    2    0    0 -0.41704048839E+01 -0.13511268026E+02 -0.49146097379E+03  0.49166435238E+03  0.00000000000E+00 0. -1.
        -15    1    1    2    0    0 -0.13264666716E+01  0.33507040113E+02  0.81744709840E+02  0.88373279711E+02  0.17770000000E+01 0.  1.
         15    1    1    2    0    0  0.41006590699E+01 -0.12498321072E+01 -0.38129369588E+01  0.60061387227E+01  0.17770000000E+01 0. -1.
</event>
<event>
 6    1  0.1599106E-003  0.5041477E+03  0.7546771E-02  0.9390576E-01
        -11   -1    0    0    0    0  0.00000000000E+00  0.00000000000E+00  0.50000000000E+03  0.50000000000E+03  0.00000000000E+00 0. -1.
         11   -1    0    0    0    0 -0.00000000000E+00 -0.00000000000E+00 -0.50000000000E+03  0.50000000000E+03  0.00000000000E+00 0. -1.
        -11    1    1    2    0    0 -0.23535493366E+02  0.25044393471E+01  0.49528709328E+03  0.49585229296E+03  0.00000000000E+00 0. -1.
         11    1    1    2    0    0  0.47904063867E+01 -0.42120589601E+01 -0.33790623236E+03  0.33796643517E+03  0.00000000000E+00 0. -1.
        -15    1    1    2    0    0  0.15449453677E+02 -0.61580573737E+00 -0.94980282000E+01  0.18232802975E+02  0.17770000000E+01 0. -1.
         15    1    1    2    0    0  0.32956333016E+01  0.23234253504E+01 -0.14788283273E+03  0.14794846890E+03  0.17770000000E+01 0.  1.
</event>
<event>
 6    1  0.1599106E-003  0.5023831E+03  0.7546771E-02  0.9394493E-01
        -11   -1    0    0    0    0  0.00000000000E+00  0.00000000000E+00  0.50000000000E+03  0.50000000000E+03  0.00000000000E+00 0. -1.
         11   -1    0    0    0    0 -0.00000000000E+00 -0.00000000000E+00 -0.50000000000E+03  0.50000000000E+03  0.00000000000E+00 0. -1.
        -11    1    1    2    0    0 -0.46719941612E+01  0.38201609213E+01  0.33712411156E+03  0.33717812467E+03  0.00000000000E+00 0. -1.
         11    1    1    2    0    0 -0.14591861664E+02  0.13445888938E+02 -0.49722111087E+03  0.49761686813E+03  0.00000000000E+00 0. -1.
        -15    1    1    2    0    0  0.26592078842E+02 -0.82438930353E+01  0.93317920015E+02  0.97398626040E+02  0.17770000000E+01 0.  1.
         15    1    1    2    0    0 -0.73282230167E+01 -0.90221568236E+01  0.66779079290E+02  0.67806381161E+02  0.17770000000E+01 0. -1.
</event>
<event>
 6    1  0.1599106E-003  0.5012416E+03  0.7546771E-02  0.9397036E-01
        -11   -1    0    0    0    0  0.00000000000E+00  0.00000000000E+00  0.50000000000E+03  0.50000000000E+03  0.00000000000E+00 0.  1.
         11   -1    0    0    0    0 -0.00000000000E+00 -0.00000000000E+00 -0.50000000000E+03  0.50000000000E+03  0.00000000000E+00 0. -1.
        -11    1    1    2    0    0 -0.81405689642E+01  0.26887784076E+01  0.27499561813E+03  0.27512922124E+03  0.00000000000E+00 0.  1.
         11    1    1    2    0    0 -0.38439650531E+01  0.59795278708E+01 -0.49870778248E+03  0.49875844166E+03  0.00000000000E+00 0. -1.
        -15    1    1    2    0    0  0.81856281596E+01  0.69868501669E+01  0.33948047243E+02  0.35657372649E+02  0.17770000000E+01 0. -1.
         15    1    1    2    0    0  0.37989058577E+01 -0.15655156445E+02  0.18976411712E+03  0.19045496445E+03  0.17770000000E+01 0.  1.
</event>
<event>
 6    1  0.1599106E-003  0.5054981E+03  0.7546771E-02  0.9387591E-01
        -11   -1    0    0    0    0  0.00000000000E+00  0.00000000000E+00  0.50000000000E+03  0.50000000000E+03  0.00000000000E+00 0.  1.
         11   -1    0    0    0    0 -0.00000000000E+00 -0.00000000000E+00 -0.50000000000E+03  0.50000000000E+03  0.00000000000E+00 0.  1.
        -11    1    1    2    0    0 -0.97008849128E+00 -0.12323656785E+02  0.45612198837E+03  0.45628947157E+03  0.00000000000E+00 0.  1.
         11    1    1    2    0    0 -0.56937242027E+01 -0.41279098576E+01 -0.49445192651E+03  0.49450193707E+03  0.00000000000E+00 0.  1.
        -15    1    1    2    0    0 -0.45252424286E+01  0.78193313052E+01  0.10095696172E+01  0.92626519372E+01  0.17770000000E+01 0. -1.
         15    1    1    2    0    0  0.11189055123E+02  0.86322353370E+01  0.37320368519E+02  0.39945939429E+02  0.17770000000E+01 0.  1.
</event>
<event>
 6    1  0.1599106E-003  0.4853834E+03  0.7546771E-02  0.9433123E-01
        -11   -1    0    0    0    0  0.00000000000E+00  0.00000000000E+00  0.50000000000E+03  0.50000000000E+03  0.00000000000E+00 0. -1.
         11   -1    0    0    0    0 -0.00000000000E+00 -0.00000000000E+00 -0.50000000000E+03  0.50000000000E+03  0.00000000000E+00 0. -1.
        -11    1    1    2    0    0 -0.14850981992E+02  0.27166657923E+01  0.48501772319E+03  0.48525263909E+03  0.00000000000E+00 0. -1.
         11    1    1    2    0    0  0.41509652071E+01  0.59316995361E+01 -0.48555773393E+03  0.48561170553E+03  0.00000000000E+00 0. -1.
        -15    1    1    2    0    0  0.11753574814E+02 -0.31131894008E+01  0.11406959115E+02  0.16766481873E+02  0.17770000000E+01 0. -1.
         15    1    1    2    0    0 -0.10535580283E+01 -0.55351759276E+01 -0.10866948380E+02  0.12369173504E+02  0.17770000000E+01 0.  1.
</event>
<event>
 6    1  0.1599106E-003  0.5064715E+03  0.7546771E-02  0.9385445E-01
        -11   -1    0    0    0    0  0.00000000000E+00  0.00000000000E+00  0.50000000000E+03  0.50000000000E+03  0.00000000000E+00 0.  1.
         11   -1    0    0    0    0 -0.00000000000E+00 -0.00000000000E+00 -0.50000000000E+03  0.50000000000E+03  0.00000000000E+00 0. -1.
        -11    1    1    2    0    0 -0.23628227624E+01  0.70699778195E+01  0.49347220875E+03  0.49352850812E+03  0.00000000000E+00 0.  1.
         11    1    1    2    0    0  0.66098491096E+01 -0.54017387356E+01 -0.46735989459E+03  0.46743784609E+03  0.00000000000E+00 0. -1.
        -15    1    1    2    0    0 -0.99134849315E+01 -0.15192855437E+01 -0.30167835611E+02  0.31840876975E+02  0.17770000000E+01 0. -1.
         15    1    1    2    0    0  0.56664585844E+01 -0.14895354016E+00  0.40555214513E+01  0.71927688193E+01  0.17770000000E+01 0.  1.
</event>
<event>
 6    1  0.1599106E-003  0.5025978E+03  0.7546771E-02  0.9394016E-01
        -11   -1    0    0    0    0  0.00000000000E+00  0.00000000000E+00  0.50000000000E+03  0.50000000000E+03  0.00000000000E+00 0. -1.
         11   -1    0    0    0    0 -0.00000000000E+00 -0.00000000000E+00 -0.50000000000E+03  0.50000000000E+03  0.00000000000E+00 0.  1.
        -11    1    1    2    0    0  0.40331462958E+01 -0.12114728595E+02  0.25233878119E+03  0.25266161839E+03  0.00000000000E+00 0. -1.
         11    1    1    2    0    0  0.16433164370E+02 -0.58607526805E+00 -0.49713035730E+03  0.49740223614E+03  0.00000000000E+00 0.  1.
        -15    1    1    2    0    0 -0.99434223305E+01 -0.26406845059E+00  0.89520704946E+01  0.13499580546E+02  0.17770000000E+01 0.  1.
         15    1    1    2    0    0 -0.10522888335E+02  0.12964872314E+02  0.23583950561E+03  0.23643656492E+03  0.17770000000E+01 0. -1.
</event>
<event>
 6    1  0.1599106E-003  0.5074342E+03  0.7546771E-02  0.9383327E-01
        -11   -1    0    0    0    0  0.00000000000E+00  0.00000000000E+00  0.50000000000E+03  0.50000000000E+03  0.00000000000E+00 0.  1.
         11   -1    0    0    0    0 -0.00000000000E+00 -0.00000000000E+00 -0.50000000000E+03  0.50000000000E+03  0.00000000000E+00 0. -1.
        -11    1    1    2    0    0  0.97201673414E+01  0.42512002292E+01  0.48520609780E+03  0.48532207007E+03  0.00000000000E+00 0.  1.
         11    1    1    2    0    0 -0.77714718507E+01  0.31444148442E+01 -0.49249449137E+03  0.49256584042E+03  0.00000000000E+00 0. -1.
        -15    1    1    2    0    0 -0.48584954387E+01  0.11207032772E+01 -0.46573102080E+01  0.70504766602E+01  0.17770000000E+01 0.  1.
         15    1    1    2    0    0  0.29097999480E+01 -0.85163183506E+01  0.11945703774E+02  0.15061612850E+02  0.17770000000E+01 0. -1.
</event>
<event>
 6    1  0.1599106E-003  0.5015892E+03  0.7546771E-02  0.9396261E-01
        -11   -1    0    0    0    0  0.00000000000E+00  0.00000000000E+00  0.50000000000E+03  0.50000000000E+03  0.00000000000E+00 0.  1.
         11   -1    0    0    0    0 -0.00000000000E+00 -0.00000000000E+00 -0.50000000000E+03  0.50000000000E+03  0.00000000000E+00 0.  1.
        -11    1    1    2    0    0 -0.88390380546E+01 -0.70719148948E+01  0.49828224516E+03  0.49841081089E+03  0.00000000000E+00 0.  1.
         11    1    1    2    0    0  0.64958639845E+00  0.69244684435E+01 -0.34114620186E+03  0.34121708818E+03  0.00000000000E+00 0.  1.
        -15    1    1    2    0    0  0.10027067228E+02 -0.10144736181E+02 -0.35864817965E+02  0.38638072494E+02  0.17770000000E+01 0. -1.
         15    1    1    2    0    0 -0.18376155718E+01  0.10292182632E+02 -0.12127122534E+03  0.12173402843E+03  0.17770000000E+01 0.  1.
</event>
<event>
 6    1  0.1599106E-003  0.5628098E+03  0.7546771E-02  0.9269291E-01
        -11   -1    0    0    0    0  0.00000000000E+00  0.00000000000E+00  0.50000000000E+03  0.50000000000E+03  0.00000000000E+00 0. -1.
         11   -1    0    0    0    0 -0.00000000000E+00 -0.00000000000E+00 -0.50000000000E+03  0.50000000000E+03  0.00000000000E+00 0.  1.
        -11    1    1    2    0    0  0.97471939786E+01  0.97160339031E+01  0.43697356204E+03  0.43719023665E+03  0.00000000000E+00 0. -1.
         11    1    1    2    0    0 -0.13446027413E+02  0.70543033501E+01 -0.39430490958E+03  0.39459716239E+03  0.00000000000E+00 0.  1.
        -15    1    1    2    0    0 -0.11955547828E+02  0.47803607103E+01  0.60379533419E+02  0.61762713325E+02  0.17770000000E+01 0. -1.
         15    1    1    2    0    0  0.15654381263E+02 -0.21550697964E+02 -0.10304818588E+03  0.10644988763E+03  0.17770000000E+01 0.  1.
</event>
<event>
 6    1  0.1599106E-003  0.5003531E+03  0.7546771E-02  0.9399020E-01
        -11   -1    0    0    0    0  0.00000000000E+00  0.00000000000E+00  0.50000000000E+03  0.50000000000E+03  0.00000000000E+00 0. -1.
         11   -1    0    0    0    0 -0.00000000000E+00 -0.00000000000E+00 -0.50000000000E+03  0.50000000000E+03  0.00000000000E+00 0. -1.
        -11    1    1    2    0    0  0.29367399943E+01 -0.15785618516E+02  0.49938882467E+03  0.49964688371E+03  0.00000000000E+00 0. -1.
         11    1    1    2    0    0  0.36924699887E+00 -0.53107139967E+00 -0.19479067373E+02  0.19489803639E+02  0.00000000000E+00 0. -1.
        -15    1    1    2    0    0  0.97899573116E+01  0.99387954612E+01 -0.31081761530E+03  0.31113561453E+03  0.17770000000E+01 0. -1.
         15    1    1    2    0    0 -0.13095944305E+02  0.63778944543E+01 -0.16909214200E+03  0.16972769812E+03  0.17770000000E+01 0.  1.
</event>
<event>
 6    1  0.1599106E-003  0.5003810E+03  0.7546771E-02  0.9398958E-01
        -11   -1    0    0    0    0  0.00000000000E+00  0.00000000000E+00  0.50000000000E+03  0.50000000000E+03  0.00000000000E+00 0. -1.
         11   -1    0    0    0    0 -0.00000000000E+00 -0.00000000000E+00 -0.50000000000E+03  0.50000000000E+03  0.00000000000E+00 0.  1.
        -11    1    1    2    0    0 -0.77176901566E+01  0.71778127288E+01  0.49950785653E+03  0.49961903734E+03  0.00000000000E+00 0. -1.
         11    1    1    2    0    0 -0.77348165660E+00  0.35891385158E+01 -0.26462044009E+03  0.26464590967E+03  0.00000000000E+00 0.  1.
        -15    1    1    2    0    0 -0.21133238465E+01 -0.33581238934E+01 -0.12483741730E+03  0.12491309628E+03  0.17770000000E+01 0.  1.
         15    1    1    2    0    0  0.10604495660E+02 -0.74088273511E+01 -0.11004999914E+03  0.11082195671E+03  0.17770000000E+01 0.  1.
</event>
<event>
 6    1  0.1599106E-003  0.5048653E+03  0.7546771E-02  0.9388988E-01
        -11   -1    0    0    0    0  0.00000000000E+00  0.00000000000E+00  0.50000000000E+03  0.50000000000E+03  0.00000000000E+00 0. -1.
         11   -1    0    0    0    0 -0.00000000000E+00 -0.00000000000E+00 -0.50000000000E+03  0.50000000000E+03  0.00000000000E+00 0. -1.
        -11    1    1    2    0    0 -0.10132115816E+02 -0.85342434244E+01  0.21923769281E+03  0.21963756289E+03  0.00000000000E+00 0. -1.
         11    1    1    2    0    0 -0.15565535628E+01 -0.24450819185E+02 -0.49452813106E+03  0.49513466636E+03  0.00000000000E+00 0. -1.
        -15    1    1    2    0    0  0.17114960313E+01  0.21331305543E+02  0.19606803821E+02  0.29078141273E+02  0.17770000000E+01 0.  1.
         15    1    1    2    0    0  0.99771733472E+01  0.11653757067E+02  0.25568363443E+03  0.25614962948E+03  0.17770000000E+01 0. -1.
</event>
<event>
 6    1  0.1599106E-003  0.5019636E+03  0.7546771E-02  0.9395427E-01
        -11   -1    0    0    0    0  0.00000000000E+00  0.00000000000E+00  0.50000000000E+03  0.50000000000E+03  0.00000000000E+00 0. -1.
         11   -1    0    0    0    0 -0.00000000000E+00 -0.00000000000E+00 -0.50000000000E+03  0.50000000000E+03  0.00000000000E+00 0.  1.
        -11    1    1    2    0    0  0.62142516504E+01 -0.66064913103E+01  0.49795385479E+03  0.49803644862E+03  0.00000000000E+00 0. -1.
         11    1    1    2    0    0 -0.68139525017E+01  0.49500373195E+01 -0.40973980323E+03  0.40982635246E+03  0.00000000000E+00 0.  1.
        -15    1    1    2    0    0  0.54421354225E+00 -0.34406626991E+01 -0.86331594274E+02  0.86420114713E+02  0.17770000000E+01 0.  1.
         15    1    1    2    0    0  0.55487309021E-01  0.50971166898E+01 -0.18824572833E+01  0.57170842057E+01  0.17770000000E+01 0. -1.
</event>
<event>
 6    1  0.1599106E-003  0.5012557E+03  0.7546771E-02  0.9397004E-01
        -11   -1    0    0    0    0  0.00000000000E+00  0.00000000000E+00  0.50000000000E+03  0.50000000000E+03  0.00000000000E+00 0.  1.
         11   -1    0    0    0    0 -0.00000000000E+00 -0.00000000000E+00 -0.50000000000E+03  0.50000000000E+03  0.00000000000E+00 0.  1.
        -11    1    1    2    0    0 -0.64316088142E+01 -0.22939424214E+01  0.45141847291E+03  0.45147011579E+03  0.00000000000E+00 0.  1.
         11    1    1    2    0    0 -0.68702234540E+01  0.47204580792E+00 -0.49869678222E+03  0.49874432668E+03  0.00000000000E+00 0.  1.
        -15    1    1    2    0    0  0.42013893287E+01  0.26556910570E+01  0.94069030018E+01  0.10786654735E+02  0.17770000000E+01 0.  1.
         15    1    1    2    0    0  0.91004429395E+01 -0.83379444357E+00  0.37871406305E+02  0.38998902797E+02  0.17770000000E+01 0. -1.
</event>
<event>
 6    1  0.1599106E-003  0.5024161E+03  0.7546771E-02  0.9394420E-01
        -11   -1    0    0    0    0  0.00000000000E+00  0.00000000000E+00  0.50000000000E+03  0.50000000000E+03  0.00000000000E+00 0.  1.
         11   -1    0    0    0    0 -0.00000000000E+00 -0.00000000000E+00 -0.50000000000E+03  0.50000000000E+03  0.00000000000E+00 0. -1.
        -11    1    1    2    0    0 -0.15651876410E+02  0.43329148857E+01  0.49731879461E+03  0.49758390132E+03  0.00000000000E+00 0.  1.
         11    1    1    2    0    0 -0.51326885083E+01  0.52164907242E+01 -0.36740616589E+03  0.36747904294E+03  0.00000000000E+00 0. -1.
        -15    1    1    2    0    0  0.88902706860E+01  0.23104372939E+01 -0.94567457661E+01  0.13302736667E+02  0.17770000000E+01 0.  1.
         15    1    1    2    0    0  0.11894294232E+02 -0.11859842904E+02 -0.12045588295E+03  0.12163431907E+03  0.17770000000E+01 0. -1.
</event>
<event>
 6    1  0.1599106E-003  0.5026873E+03  0.7546771E-02  0.9393817E-01
        -11   -1    0    0    0    0  0.00000000000E+00  0.00000000000E+00  0.50000000000E+03  0.50000000000E+03  0.00000000000E+00 0. -1.
         11   -1    0    0    0    0 -0.00000000000E+00 -0.00000000000E+00 -0.50000000000E+03  0.50000000000E+03  0.00000000000E+00 0.  1.
        -11    1    1    2    0    0  0.62106829628E+01  0.28047511147E+01  0.47009221700E+03  0.47014160813E+03  0.00000000000E+00 0. -1.
         11    1    1    2    0    0 -0.18913420552E+01  0.72827898705E+01 -0.49725577985E+03  0.49731270524E+03  0.00000000000E+00 0.  1.
        -15    1    1    2    0    0 -0.22066157071E+01  0.17825250069E+00 -0.52467265369E+00  0.28868559414E+01  0.17770000000E+01 0.  1.
         15    1    1    2    0    0 -0.21127252005E+01 -0.10265793486E+02  0.27688235505E+02  0.29658830692E+02  0.17770000000E+01 0.  1.
</event>
<event>
 6    1  0.1599106E-003  0.5050699E+03  0.7546771E-02  0.9388536E-01
        -11   -1    0    0    0    0  0.00000000000E+00  0.00000000000E+00  0.50000000000E+03  0.50000000000E+03  0.00000000000E+00 0.  1.
         11   -1    0    0    0    0 -0.00000000000E+00 -0.00000000000E+00 -0.50000000000E+03  0.50000000000E+03  0.00000000000E+00 0.  1.
        -11    1    1    2    0    0  0.23680333735E+02  0.29956525702E+01  0.49435415817E+03  0.49493006156E+03  0.00000000000E+00 0.  1.
         11    1    1    2    0    0  0.57221220704E+01  0.28693357126E+02 -0.27758430226E+03  0.27912200968E+03  0.00000000000E+00 0.  1.
        -15    1    1    2    0    0  0.11879063026E+02 -0.38341580293E+01 -0.27933968860E+02  0.30647630437E+02  0.17770000000E+01 0.  1.
         15    1    1    2    0    0 -0.41281518831E+02 -0.27854851667E+02 -0.18883588705E+03  0.19530029832E+03  0.17770000000E+01 0. -1.
</event>
<event>
 6    1  0.1599106E-003  0.5060177E+03  0.7546771E-02  0.9386444E-01
        -11   -1    0    0    0    0  0.00000000000E+00  0.00000000000E+00  0.50000000000E+03  0.50000000000E+03  0.00000000000E+00 0. -1.
         11   -1    0    0    0    0 -0.00000000000E+00 -0.00000000000E+00 -0.50000000000E+03  0.50000000000E+03  0.00000000000E+00 0.  1.
        -11    1    1    2    0    0  0.51918013502E+01 -0.45975065225E+01  0.49393364575E+03  0.49398232587E+03  0.00000000000E+00 0. -1.
         11    1    1    2    0    0 -0.49617405618E+01  0.65200152522E+01 -0.33055135145E+03  0.33065287752E+03  0.00000000000E+00 0.  1.
        -15    1    1    2    0    0  0.16581192080E+02 -0.54241723228E+01 -0.15532776079E+03  0.15631451813E+03  0.17770000000E+01 0.  1.
         15    1    1    2    0    0 -0.16811252869E+02  0.35016635931E+01 -0.80545335129E+01  0.19050278477E+02  0.17770000000E+01 0. -1.
</event>
<event>
 6    1  0.1599106E-003  0.5040453E+03  0.7546771E-02  0.9390803E-01
        -11   -1    0    0    0    0  0.00000000000E+00  0.00000000000E+00  0.50000000000E+03  0.50000000000E+03  0.00000000000E+00 0. -1.
         11   -1    0    0    0    0 -0.00000000000E+00 -0.00000000000E+00 -0.50000000000E+03  0.50000000000E+03  0.00000000000E+00 0. -1.
        -11    1    1    2    0    0 -0.94330875839E+01 -0.72686550825E+00  0.49586445979E+03  0.49595470959E+03  0.00000000000E+00 0. -1.
         11    1    1    2    0    0 -0.17486591482E+00 -0.64959380903E+01 -0.44479205576E+03  0.44483952236E+03  0.00000000000E+00 0. -1.
        -15    1    1    2    0    0 -0.60172182777E+01 -0.54861314681E+01 -0.24071098006E+02  0.25473123925E+02  0.17770000000E+01 0. -1.
         15    1    1    2    0    0  0.15625171776E+02  0.12708935067E+02 -0.27001306025E+02  0.33732644125E+02  0.17770000000E+01 0.  1.
</event>
<event>
 6    1  0.1599106E-003  0.5010237E+03  0.7546771E-02  0.9397522E-01
        -11   -1    0    0    0    0  0.00000000000E+00  0.00000000000E+00  0.50000000000E+03  0.50000000000E+03  0.00000000000E+00 0.  1.
         11   -1    0    0    0    0 -0.00000000000E+00 -0.00000000000E+00 -0.50000000000E+03  0.50000000000E+03  0.00000000000E+00 0.  1.
        -11    1    1    2    0    0 -0.44751939409E+01 -0.48515024906E+01  0.33071019409E+03  0.33077605251E+03  0.00000000000E+00 0.  1.
         11    1    1    2    0    0  0.75024965683E+01  0.12378982770E+02 -0.49876631376E+03  0.49897631448E+03  0.00000000000E+00 0.  1.
        -15    1    1    2    0    0  0.67858186079E+01  0.69588897578E+00  0.12720833816E+03  0.12740349532E+03  0.17770000000E+01 0.  1.
         15    1    1    2    0    0 -0.98131212352E+01 -0.82233692547E+01  0.40847781517E+02  0.42844137687E+02  0.17770000000E+01 0. -1.
</event>
<event>
 6    1  0.1599106E-003  0.5053635E+03  0.7546771E-02  0.9387888E-01
        -11   -1    0    0    0    0  0.00000000000E+00  0.00000000000E+00  0.50000000000E+03  0.50000000000E+03  0.00000000000E+00 0. -1.
         11   -1    0    0    0    0 -0.00000000000E+00 -0.00000000000E+00 -0.50000000000E+03  0.50000000000E+03  0.00000000000E+00 0. -1.
        -11    1    1    2    0    0  0.45067415398E+01  0.94649471453E+01  0.49452540733E+03  0.49463650738E+03  0.00000000000E+00 0. -1.
         11    1    1    2    0    0  0.64405927578E+01  0.52817030274E+01 -0.44019632163E+03  0.44027511762E+03  0.00000000000E+00 0. -1.
        -15    1    1    2    0    0 -0.56105384713E+01 -0.45114147893E+01 -0.52790131593E+02  0.53308411418E+02  0.17770000000E+01 0.  1.
         15    1    1    2    0    0 -0.53367958263E+01 -0.10235235383E+02 -0.15389541041E+01  0.11779963573E+02  0.17770000000E+01 0. -1.
</event>
<event>
 6    1  0.1599106E-003  0.5165575E+03  0.7546771E-02  0.9363505E-01
        -11   -1    0    0    0    0  0.00000000000E+00  0.00000000000E+00  0.50000000000E+03  0.50000000000E+03  0.00000000000E+00 0.  1.
         11   -1    0    0    0    0 -0.00000000000E+00 -0.00000000000E+00 -0.50000000000E+03  0.50000000000E+03  0.00000000000E+00 0.  1.
        -11    1    1    2    0    0  0.10764242894E+02 -0.67804232394E+01  0.48327505886E+03  0.48344247391E+03  0.00000000000E+00 0.  1.
         11    1    1    2    0    0 -0.62901226225E+01  0.52584334148E+01 -0.38339473525E+03  0.38348238523E+03  0.00000000000E+00 0.  1.
        -15    1    1    2    0    0  0.23466293222E+01 -0.11999502123E+02 -0.11256468674E+03  0.11324072213E+03  0.17770000000E+01 0. -1.
         15    1    1    2    0    0 -0.68207495936E+01  0.13521491947E+02  0.12684363124E+02  0.19834418730E+02  0.17770000000E+01 0.  1.
</event>
<event>
 6    1  0.1599106E-003  0.5005667E+03  0.7546771E-02  0.9398543E-01
        -11   -1    0    0    0    0  0.00000000000E+00  0.00000000000E+00  0.50000000000E+03  0.50000000000E+03  0.00000000000E+00 0. -1.
         11   -1    0    0    0    0 -0.00000000000E+00 -0.00000000000E+00 -0.50000000000E+03  0.50000000000E+03  0.00000000000E+00 0. -1.
        -11    1    1    2    0    0 -0.38757348111E+01 -0.24279999544E+00  0.23274855128E+03  0.23278094508E+03  0.00000000000E+00 0. -1.
         11    1    1    2    0    0  0.12297102641E+02  0.10578834957E+02 -0.49916983588E+03  0.49943333442E+03  0.00000000000E+00 0. -1.
        -15    1    1    2    0    0 -0.58018165948E+01 -0.17844573116E+02  0.18728749387E+03  0.18823350647E+03  0.17770000000E+01 0. -1.
         15    1    1    2    0    0 -0.26195512347E+01  0.75085381544E+01  0.79133790725E+02  0.79552214032E+02  0.17770000000E+01 0.  1.
</event>
<event>
 6    1  0.1599106E-003  0.5000850E+03  0.7546771E-02  0.9399620E-01
        -11   -1    0    0    0    0  0.00000000000E+00  0.00000000000E+00  0.50000000000E+03  0.50000000000E+03  0.00000000000E+00 0.  1.
         11   -1    0    0    0    0 -0.00000000000E+00 -0.00000000000E+00 -0.50000000000E+03  0.50000000000E+03  0.00000000000E+00 0.  1.
        -11    1    1    2    0    0  0.78477671137E+01 -0.63218329988E+01  0.49981340200E+03  0.49991498261E+03  0.00000000000E+00 0.  1.
         11    1    1    2    0    0 -0.32592298391E+01 -0.17290359580E+01 -0.21935701574E+03  0.21938804092E+03  0.00000000000E+00 0.  1.
        -15    1    1    2    0    0 -0.84475250999E+00 -0.44427398619E+00 -0.68941438983E+02  0.68970941158E+02  0.17770000000E+01 0. -1.
         15    1    1    2    0    0 -0.37437847646E+01  0.84951429430E+01 -0.21151494728E+03  0.21172603531E+03  0.17770000000E+01 0. -1.
</event>
<event>
 6    1  0.1599106E-003  0.5084331E+03  0.7546771E-02  0.9381135E-01
        -11   -1    0    0    0    0  0.00000000000E+00  0.00000000000E+00  0.50000000000E+03  0.50000000000E+03  0.00000000000E+00 0.  1.
         11   -1    0    0    0    0 -0.00000000000E+00 -0.00000000000E+00 -0.50000000000E+03  0.50000000000E+03  0.00000000000E+00 0. -1.
        -11    1    1    2    0    0 -0.93463524879E+01 -0.65319524315E+01  0.38041674289E+03  0.38058759699E+03  0.00000000000E+00 0.  1.
         11    1    1    2    0    0 -0.35497965059E+01 -0.26054284031E+02 -0.49086308057E+03  0.49156687301E+03  0.00000000000E+00 0. -1.
        -15    1    1    2    0    0 -0.17936974099E+02  0.77404841407E+01  0.15645239534E+02  0.25091460373E+02  0.17770000000E+01 0.  1.
         15    1    1    2    0    0  0.30833123093E+02  0.24845752321E+02  0.94801098143E+02  0.10275406963E+03  0.17770000000E+01 0. -1.
</event>
<event>
 6    1  0.1599106E-003  0.4932172E+03  0.7546771E-02  0.9415116E-01
        -11   -1    0    0    0    0  0.00000000000E+00  0.00000000000E+00  0.50000000000E+03  0.50000000000E+03  0.00000000000E+00 0.  1.
         11   -1    0    0    0    0 -0.00000000000E+00 -0.00000000000E+00 -0.50000000000E+03  0.50000000000E+03  0.00000000000E+00 0.  1.
        -11    1    1    2    0    0 -0.91430763544E+01  0.63327277789E+01  0.49421292585E+03  0.49433805777E+03  0.00000000000E+00 0.  1.
         11    1    1    2    0    0  0.93725850303E+01  0.26285992206E+01 -0.49204309873E+03  0.49213937649E+03  0.00000000000E+00 0.  1.
        -15    1    1    2    0    0 -0.32085094298E+00 -0.10581806830E+02 -0.26759187001E+01  0.11063265838E+02  0.17770000000E+01 0.  1.
         15    1    1    2    0    0  0.91342267030E-01  0.16204798304E+01  0.50609158664E+00  0.24592998972E+01  0.17770000000E+01 0.  1.
</event>
<event>
 6    1  0.1599106E-003  0.5230019E+03  0.7546771E-02  0.9349763E-01
        -11   -1    0    0    0    0  0.00000000000E+00  0.00000000000E+00  0.50000000000E+03  0.50000000000E+03  0.00000000000E+00 0.  1.
         11   -1    0    0    0    0 -0.00000000000E+00 -0.00000000000E+00 -0.50000000000E+03  0.50000000000E+03  0.00000000000E+00 0. -1.
        -11    1    1    2    0    0 -0.53595391393E+01  0.50063660204E+01  0.44005932109E+03  0.44012043174E+03  0.00000000000E+00 0.  1.
         11    1    1    2    0    0  0.19441963143E+02  0.32895132138E+02 -0.47546516824E+03  0.47699811934E+03  0.00000000000E+00 0. -1.
        -15    1    1    2    0    0 -0.98616273413E+01 -0.33054906952E+02 -0.10805820368E+02  0.36191187467E+02  0.17770000000E+01 0. -1.
         15    1    1    2    0    0 -0.42207966629E+01 -0.48465912064E+01  0.46211667515E+02  0.46690261450E+02  0.17770000000E+01 0.  1.
</event>
<event>
 6    1  0.1599106E-003  0.5020779E+03  0.7546771E-02  0.9395172E-01
        -11   -1    0    0    0    0  0.00000000000E+00  0.00000000000E+00  0.50000000000E+03  0.50000000000E+03  0.00000000000E+00 0. -1.
         11   -1    0    0    0    0 -0.00000000000E+00 -0.00000000000E+00 -0.50000000000E+03  0.50000000000E+03  0.00000000000E+00 0.  1.
        -11    1    1    2    0    0  0.86965098647E+01 -0.83981198371E+01  0.31893184395E+03  0.31916089796E+03  0.00000000000E+00 0. -1.
         11    1    1    2    0    0 -0.10078308374E+02  0.12456689309E+02 -0.49766427022E+03  0.49792214980E+03  0.00000000000E+00 0.  1.
        -15    1    1    2    0    0  0.78139972303E+01 -0.13301106927E+02  0.30299944075E+02  0.34047354349E+02  0.17770000000E+01 0.  1.
         15    1    1    2    0    0 -0.64321987213E+01  0.92425374551E+01  0.14843248219E+03  0.14886959790E+03  0.17770000000E+01 0. -1.
</event>
<event>
 6    1  0.1599106E-003  0.4796153E+03  0.7546771E-02  0.9446614E-01
        -11   -1    0    0    0    0  0.00000000000E+00  0.00000000000E+00  0.50000000000E+03  0.50000000000E+03  0.00000000000E+00 0. -1.
         11   -1    0    0    0    0 -0.00000000000E+00 -0.00000000000E+00 -0.50000000000E+03  0.50000000000E+03  0.00000000000E+00 0. -1.
        -11    1    1    2    0    0  0.11098125562E+02 -0.55610796190E+01  0.47537249583E+03  0.47553454532E+03  0.00000000000E+00 0. -1.
         11    1    1    2    0    0  0.18118818943E+01 -0.88836481508E+01 -0.48384406509E+03  0.48392900455E+03  0.00000000000E+00 0. -1.
        -15    1    1    2    0    0 -0.64225245085E+01  0.14066724038E+02  0.21101965912E+02  0.26221598742E+02  0.17770000000E+01 0.  1.
         15    1    1    2    0    0 -0.64874829476E+01  0.37800373222E+00 -0.12630396651E+02  0.14314851393E+02  0.17770000000E+01 0. -1.
</event>
<event>
 6    1  0.1599106E-003  0.5169367E+03  0.7546771E-02  0.9362690E-01
        -11   -1    0    0    0    0  0.00000000000E+00  0.00000000000E+00  0.50000000000E+03  0.50000000000E+03  0.00000000000E+00 0.  1.
         11   -1    0    0    0    0 -0.00000000000E+00 -0.00000000000E+00 -0.50000000000E+03  0.50000000000E+03  0.00000000000E+00 0. -1.
        -11    1    1    2    0    0 -0.57453794456E+00  0.23504120218E+02  0.45342443871E+03  0.45403358398E+03  0.00000000000E+00 0.  1.
         11    1    1    2    0    0 -0.33818308801E+02 -0.12954351579E+02 -0.48170394828E+03  0.48306333645E+03  0.00000000000E+00 0. -1.
        -15    1    1    2    0    0  0.50033207517E+01 -0.59902507564E+01  0.31900732035E+02  0.32889675523E+02  0.17770000000E+01 0. -1.
         15    1    1    2    0    0  0.29389525994E+02 -0.45595178824E+01 -0.36212224705E+01  0.30013404050E+02  0.17770000000E+01 0.  1.
</event>
<event>
 6    1  0.1599106E-003  0.5064488E+03  0.7546771E-02  0.9385495E-01
        -11   -1    0    0    0    0  0.00000000000E+00  0.00000000000E+00  0.50000000000E+03  0.50000000000E+03  0.00000000000E+00 0. -1.
         11   -1    0    0    0    0 -0.00000000000E+00 -0.00000000000E+00 -0.50000000000E+03  0.50000000000E+03  0.00000000000E+00 0.  1.
        -11    1    1    2    0    0  0.72808694095E+01  0.16495574208E+02  0.49322171858E+03  0.49355119157E+03  0.00000000000E+00 0. -1.
         11    1    1    2    0    0 -0.35167722707E+01 -0.56016390627E+01 -0.47712788117E+03  0.47717372207E+03  0.00000000000E+00 0.  1.
        -15    1    1    2    0    0  0.24474658925E+01  0.36641269156E+01 -0.11887373489E+02  0.12801691014E+02  0.17770000000E+01 0. -1.
         15    1    1    2    0    0 -0.62115630312E+01 -0.14558062061E+02 -0.42064639178E+01  0.16473395338E+02  0.17770000000E+01 0.  1.
</event>
<event>
 6    1  0.1599106E-003  0.5126843E+03  0.7546771E-02  0.9371867E-01
        -11   -1    0    0    0    0  0.00000000000E+00  0.00000000000E+00  0.50000000000E+03  0.50000000000E+03  0.00000000000E+00 0.  1.
         11   -1    0    0    0    0 -0.00000000000E+00 -0.00000000000E+00 -0.50000000000E+03  0.50000000000E+03  0.00000000000E+00 0.  1.
        -11    1    1    2    0    0 -0.43014422882E+01  0.70694612293E+01  0.47288483356E+03  0.47295723433E+03  0.00000000000E+00 0.  1.
         11    1    1    2    0    0  0.66179762999E+01  0.16442418056E+01 -0.48726799875E+03  0.48731571260E+03  0.00000000000E+00 0.  1.
        -15    1    1    2    0    0  0.24315101656E+01 -0.47912460167E+01  0.25919194776E+02  0.26529807141E+02  0.17770000000E+01 0.  1.
         15    1    1    2    0    0 -0.47480441773E+01 -0.39224570182E+01 -0.11536029592E+02  0.13197245937E+02  0.17770000000E+01 0. -1.
</event>
<event>
 6    1  0.1599106E-003  0.5032841E+03  0.7546771E-02  0.9392491E-01
        -11   -1    0    0    0    0  0.00000000000E+00  0.00000000000E+00  0.50000000000E+03  0.50000000000E+03  0.00000000000E+00 0.  1.
         11   -1    0    0    0    0 -0.00000000000E+00 -0.00000000000E+00 -0.50000000000E+03  0.50000000000E+03  0.00000000000E+00 0. -1.
        -11    1    1    2    0    0  0.48406906433E+01 -0.33510715764E+01  0.43423509192E+03  0.43427500161E+03  0.00000000000E+00 0.  1.
         11    1    1    2    0    0  0.13905891530E+02 -0.38905918539E+01 -0.49650596795E+03  0.49671590143E+03  0.00000000000E+00 0. -1.
        -15    1    1    2    0    0 -0.84040237293E+00  0.23176742233E+01  0.39298244748E+02  0.39415576352E+02  0.17770000000E+01 0.  1.
         15    1    1    2    0    0 -0.17906179800E+02  0.49239892070E+01  0.22972631287E+02  0.29593520608E+02  0.17770000000E+01 0. -1.
</event>
<event>
 6    1  0.1599106E-003  0.5021162E+03  0.7546771E-02  0.9395087E-01
        -11   -1    0    0    0    0  0.00000000000E+00  0.00000000000E+00  0.50000000000E+03  0.50000000000E+03  0.00000000000E+00 0. -1.
         11   -1    0    0    0    0 -0.00000000000E+00 -0.00000000000E+00 -0.50000000000E+03  0.50000000000E+03  0.00000000000E+00 0.  1.
        -11    1    1    2    0    0  0.11736940596E+01  0.56660257407E+01  0.42863593966E+03  0.42867499364E+03  0.00000000000E+00 0. -1.
         11    1    1    2    0    0 -0.49159344472E+01  0.50789183222E+01 -0.49783364612E+03  0.49788382282E+03  0.00000000000E+00 0.  1.
        -15    1    1    2    0    0  0.36648321830E+01 -0.43549932196E+01  0.25848878467E+01  0.64989487652E+01  0.17770000000E+01 0. -1.
         15    1    1    2    0    0  0.77408204604E-01 -0.63899508433E+01  0.66612818611E+02  0.66942234770E+02  0.17770000000E+01 0.  1.
</event>
