<event>
 6    1  0.1045352E-002  0.2057710E+03  0.7546771E-02  0.1051306E+00
        -11   -1    0    0    0    0  0.00000000000E+00  0.00000000000E+00  0.18250000000E+03  0.18250000000E+03  0.00000000000E+00 0.  1.
         11   -1    0    0    0    0 -0.00000000000E+00 -0.00000000000E+00 -0.18250000000E+03  0.18250000000E+03  0.00000000000E+00 0.  1.
        -11    1    1    2    0    0 -0.58854587601E+01 -0.48241578243E+01  0.15904709317E+03  0.15922904562E+03  0.00000000000E+00 0.  1.
         11    1    1    2    0    0  0.12217279573E+02 -0.23363423153E+01 -0.15010576687E+03  0.15062025649E+03  0.00000000000E+00 0.  1.
        -15    1    1    2    0    0 -0.11030679590E+02  0.45508739822E+01 -0.30532604846E+02  0.32829621288E+02  0.17770000000E+01 0. -1.
         15    1    1    2    0    0  0.46988587763E+01  0.26096261574E+01  0.21591278550E+02  0.22321076607E+02  0.17770000000E+01 0. -1.
</event>
<event>
 6    1  0.1045352E-002  0.1748289E+03  0.7546771E-02  0.1074730E+00
        -11   -1    0    0    0    0  0.00000000000E+00  0.00000000000E+00  0.18250000000E+03  0.18250000000E+03  0.00000000000E+00 0.  1.
         11   -1    0    0    0    0 -0.00000000000E+00 -0.00000000000E+00 -0.18250000000E+03  0.18250000000E+03  0.00000000000E+00 0. -1.
        -11    1    1    2    0    0 -0.16247129363E+01  0.26760404651E+01  0.17660769765E+03  0.17663544308E+03  0.00000000000E+00 0.  1.
         11    1    1    2    0    0 -0.71290524608E+01 -0.36121933906E+01 -0.17296764348E+03  0.17315217879E+03  0.00000000000E+00 0. -1.
        -15    1    1    2    0    0  0.96962339032E+01  0.21256191189E+01  0.88140943581E+00  0.10122737779E+02  0.17770000000E+01 0.  1.
         15    1    1    2    0    0 -0.94246850613E+00 -0.11894661935E+01 -0.45214636027E+01  0.50896403430E+01  0.17770000000E+01 0. -1.
</event>
<event>
 6    1  0.1045352E-002  0.1839852E+03  0.7546771E-02  0.1067279E+00
        -11   -1    0    0    0    0  0.00000000000E+00  0.00000000000E+00  0.18250000000E+03  0.18250000000E+03  0.00000000000E+00 0. -1.
         11   -1    0    0    0    0 -0.00000000000E+00 -0.00000000000E+00 -0.18250000000E+03  0.18250000000E+03  0.00000000000E+00 0. -1.
        -11    1    1    2    0    0  0.29658401762E+01 -0.67715888785E+00  0.18098926907E+03  0.18101483439E+03  0.00000000000E+00 0. -1.
         11    1    1    2    0    0 -0.62230348367E+00 -0.26173814175E+01 -0.16927862108E+03  0.16929999853E+03  0.00000000000E+00 0. -1.
        -15    1    1    2    0    0 -0.15814178601E+01  0.54585239823E+01 -0.76500674612E+01  0.96942058816E+01  0.17770000000E+01 0. -1.
         15    1    1    2    0    0 -0.76211883246E+00 -0.21639836769E+01 -0.40605805259E+01  0.49909611976E+01  0.17770000000E+01 0.  1.
</event>
<event>
 6    1  0.1045352E-002  0.1826080E+03  0.7546771E-02  0.1068369E+00
        -11   -1    0    0    0    0  0.00000000000E+00  0.00000000000E+00  0.18250000000E+03  0.18250000000E+03  0.00000000000E+00 0. -1.
         11   -1    0    0    0    0 -0.00000000000E+00 -0.00000000000E+00 -0.18250000000E+03  0.18250000000E+03  0.00000000000E+00 0. -1.
        -11    1    1    2    0    0 -0.59170189258E+00  0.13094270433E+01  0.99319941303E+02  0.99330334997E+02  0.00000000000E+00 0. -1.
         11    1    1    2    0    0  0.45304787634E+01 -0.18245793121E+01 -0.18232662019E+03  0.18239202493E+03  0.00000000000E+00 0. -1.
        -15    1    1    2    0    0 -0.38219170007E+01  0.12593061896E+01  0.42997533112E+02  0.43221967613E+02  0.17770000000E+01 0.  1.
         15    1    1    2    0    0 -0.11685987011E+00 -0.74415392083E+00  0.40009145778E+02  0.40055672460E+02  0.17770000000E+01 0.  1.
</event>
<event>
 6    1  0.1045352E-002  0.1828189E+03  0.7546771E-02  0.1068201E+00
        -11   -1    0    0    0    0  0.00000000000E+00  0.00000000000E+00  0.18250000000E+03  0.18250000000E+03  0.00000000000E+00 0. -1.
         11   -1    0    0    0    0 -0.00000000000E+00 -0.00000000000E+00 -0.18250000000E+03  0.18250000000E+03  0.00000000000E+00 0. -1.
        -11    1    1    2    0    0 -0.66684042361E+00 -0.32864587571E+01  0.76495198690E+02  0.76568667939E+02  0.00000000000E+00 0. -1.
         11    1    1    2    0    0 -0.19723647578E+01 -0.19446434737E+01 -0.18215999708E+03  0.18218105389E+03  0.00000000000E+00 0. -1.
        -15    1    1    2    0    0  0.21476831461E+01  0.16298768561E+01  0.10180900433E+02  0.10680707097E+02  0.17770000000E+01 0.  1.
         15    1    1    2    0    0  0.49152203532E+00  0.36012253748E+01  0.95483897954E+02  0.95569571076E+02  0.17770000000E+01 0. -1.
</event>
<event>
 6    1  0.1045352E-002  0.1954525E+03  0.7546771E-02  0.1058588E+00
        -11   -1    0    0    0    0  0.00000000000E+00  0.00000000000E+00  0.18250000000E+03  0.18250000000E+03  0.00000000000E+00 0.  1.
         11   -1    0    0    0    0 -0.00000000000E+00 -0.00000000000E+00 -0.18250000000E+03  0.18250000000E+03  0.00000000000E+00 0. -1.
        -11    1    1    2    0    0  0.27009687800E+01  0.18774716338E+01  0.62145980322E+02  0.62232973593E+02  0.00000000000E+00 0.  1.
         11    1    1    2    0    0  0.85929960897E+01 -0.37358402190E+01 -0.16928837637E+03  0.16954748733E+03  0.00000000000E+00 0. -1.
        -15    1    1    2    0    0 -0.44305514713E+01  0.25731082257E-02  0.11909957000E+03  0.11919519745E+03  0.17770000000E+01 0.  1.
         15    1    1    2    0    0 -0.68634133983E+01  0.18557954770E+01 -0.11957173945E+02  0.14024341627E+02  0.17770000000E+01 0. -1.
</event>
<event>
 6    1  0.1045352E-002  0.1845446E+03  0.7546771E-02  0.1066839E+00
        -11   -1    0    0    0    0  0.00000000000E+00  0.00000000000E+00  0.18250000000E+03  0.18250000000E+03  0.00000000000E+00 0.  1.
         11   -1    0    0    0    0 -0.00000000000E+00 -0.00000000000E+00 -0.18250000000E+03  0.18250000000E+03  0.00000000000E+00 0. -1.
        -11    1    1    2    0    0 -0.21413602841E+01 -0.26881640599E+01  0.18042269541E+03  0.18045542572E+03  0.00000000000E+00 0.  1.
         11    1    1    2    0    0 -0.11296442208E+00 -0.24783139688E+01 -0.17274792878E+03  0.17276574226E+03  0.00000000000E+00 0. -1.
        -15    1    1    2    0    0  0.11022646650E+01  0.39252566523E+01 -0.81443687096E+01  0.92796065572E+01  0.17770000000E+01 0. -1.
         15    1    1    2    0    0  0.11520600412E+01  0.12412213765E+01  0.46960207299E+00  0.24992254702E+01  0.17770000000E+01 0. -1.
</event>
<event>
 6    1  0.1045352E-002  0.1830158E+03  0.7546771E-02  0.1068045E+00
        -11   -1    0    0    0    0  0.00000000000E+00  0.00000000000E+00  0.18250000000E+03  0.18250000000E+03  0.00000000000E+00 0.  1.
         11   -1    0    0    0    0 -0.00000000000E+00 -0.00000000000E+00 -0.18250000000E+03  0.18250000000E+03  0.00000000000E+00 0. -1.
        -11    1    1    2    0    0  0.13543517830E+01 -0.59497010648E+00  0.93455013496E+02  0.93466720312E+02  0.00000000000E+00 0.  1.
         11    1    1    2    0    0  0.11426615932E+02 -0.35942804523E+01 -0.18158955831E+03  0.18198421385E+03  0.00000000000E+00 0. -1.
        -15    1    1    2    0    0 -0.98650463644E+00  0.27223878265E+01  0.29549552193E+02  0.29744215416E+02  0.17770000000E+01 0.  1.
         15    1    1    2    0    0 -0.11794463079E+02  0.14668627323E+01  0.58584992616E+02  0.59804850426E+02  0.17770000000E+01 0.  1.
</event>
<event>
 6    1  0.1045352E-002  0.1832344E+03  0.7546771E-02  0.1067872E+00
        -11   -1    0    0    0    0  0.00000000000E+00  0.00000000000E+00  0.18250000000E+03  0.18250000000E+03  0.00000000000E+00 0.  1.
         11   -1    0    0    0    0 -0.00000000000E+00 -0.00000000000E+00 -0.18250000000E+03  0.18250000000E+03  0.00000000000E+00 0. -1.
        -11    1    1    2    0    0 -0.21990591506E+01 -0.48270865574E+01  0.83773673663E+02  0.83941438067E+02  0.00000000000E+00 0.  1.
         11    1    1    2    0    0 -0.35902903018E+01 -0.26373311213E+00 -0.18172993646E+03  0.18176558955E+03  0.00000000000E+00 0. -1.
        -15    1    1    2    0    0  0.84951878353E+00  0.10474269812E+00  0.78634520775E+02  0.78659253999E+02  0.17770000000E+01 0.  1.
         15    1    1    2    0    0  0.49398306689E+01  0.49860769714E+01  0.19321742021E+02  0.20633718384E+02  0.17770000000E+01 0. -1.
</event>
<event>
 6    1  0.1045352E-002  0.1839593E+03  0.7546771E-02  0.1067299E+00
        -11   -1    0    0    0    0  0.00000000000E+00  0.00000000000E+00  0.18250000000E+03  0.18250000000E+03  0.00000000000E+00 0.  1.
         11   -1    0    0    0    0 -0.00000000000E+00 -0.00000000000E+00 -0.18250000000E+03  0.18250000000E+03  0.00000000000E+00 0.  1.
        -11    1    1    2    0    0 -0.10859619412E+01  0.28219822436E+01  0.97386008091E+02  0.97432938317E+02  0.00000000000E+00 0.  1.
         11    1    1    2    0    0  0.40049498040E+01  0.26020075743E+01 -0.18097766326E+03  0.18104067130E+03  0.00000000000E+00 0.  1.
        -15    1    1    2    0    0 -0.16045884428E+01 -0.17024994453E+01  0.11760797339E+00  0.29401988143E+01  0.17770000000E+01 0. -1.
         15    1    1    2    0    0 -0.13143994199E+01 -0.37214903726E+01  0.83474047196E+02  0.83586191567E+02  0.17770000000E+01 0.  1.
</event>
<event>
 6    1  0.1045352E-002  0.1828456E+03  0.7546771E-02  0.1068180E+00
        -11   -1    0    0    0    0  0.00000000000E+00  0.00000000000E+00  0.18250000000E+03  0.18250000000E+03  0.00000000000E+00 0. -1.
         11   -1    0    0    0    0 -0.00000000000E+00 -0.00000000000E+00 -0.18250000000E+03  0.18250000000E+03  0.00000000000E+00 0.  1.
        -11    1    1    2    0    0  0.35834337807E+00 -0.13067983633E+01  0.47401888327E+02  0.47421252081E+02  0.00000000000E+00 0. -1.
         11    1    1    2    0    0  0.65070181038E+01 -0.43689129801E+00 -0.18203760259E+03  0.18215438758E+03  0.00000000000E+00 0.  1.
        -15    1    1    2    0    0 -0.78615114753E+01  0.13673824212E+01  0.43288669803E+02  0.44053827980E+02  0.17770000000E+01 0.  1.
         15    1    1    2    0    0  0.99614999344E+00  0.37630724005E+00  0.91347044462E+02  0.91370532355E+02  0.17770000000E+01 0. -1.
</event>
<event>
 6    1  0.1045352E-002  0.1837510E+03  0.7546771E-02  0.1067463E+00
        -11   -1    0    0    0    0  0.00000000000E+00  0.00000000000E+00  0.18250000000E+03  0.18250000000E+03  0.00000000000E+00 0. -1.
         11   -1    0    0    0    0 -0.00000000000E+00 -0.00000000000E+00 -0.18250000000E+03  0.18250000000E+03  0.00000000000E+00 0.  1.
        -11    1    1    2    0    0 -0.23830630905E+01  0.16209878579E+01  0.18122609022E+03  0.18124900653E+03  0.00000000000E+00 0. -1.
         11    1    1    2    0    0  0.14350594086E+01  0.31722929712E+01 -0.17153695205E+03  0.17157228434E+03  0.00000000000E+00 0.  1.
        -15    1    1    2    0    0 -0.34708486179E+00 -0.96766705729E+00 -0.62669988903E+01  0.65946835804E+01  0.17770000000E+01 0.  1.
         15    1    1    2    0    0  0.12950885437E+01 -0.38256137718E+01 -0.34221392813E+01  0.55840255486E+01  0.17770000000E+01 0. -1.
</event>
<event>
 6    1  0.1045352E-002  0.1833137E+03  0.7546771E-02  0.1067809E+00
        -11   -1    0    0    0    0  0.00000000000E+00  0.00000000000E+00  0.18250000000E+03  0.18250000000E+03  0.00000000000E+00 0.  1.
         11   -1    0    0    0    0 -0.00000000000E+00 -0.00000000000E+00 -0.18250000000E+03  0.18250000000E+03  0.00000000000E+00 0.  1.
        -11    1    1    2    0    0 -0.28212475137E+01 -0.14111580644E+01  0.18165892310E+03  0.18168630973E+03  0.00000000000E+00 0.  1.
         11    1    1    2    0    0  0.28450465248E+01  0.49445549699E+00 -0.14041387059E+03  0.14044356101E+03  0.00000000000E+00 0.  1.
        -15    1    1    2    0    0  0.35603634024E+01  0.45449562373E+01 -0.17323915001E+02  0.18346895506E+02  0.17770000000E+01 0. -1.
         15    1    1    2    0    0 -0.35841624134E+01 -0.36282536699E+01 -0.23921137506E+02  0.24523233748E+02  0.17770000000E+01 0.  1.
</event>
<event>
 6    1  0.1045352E-002  0.1867755E+03  0.7546771E-02  0.1065102E+00
        -11   -1    0    0    0    0  0.00000000000E+00  0.00000000000E+00  0.18250000000E+03  0.18250000000E+03  0.00000000000E+00 0. -1.
         11   -1    0    0    0    0 -0.00000000000E+00 -0.00000000000E+00 -0.18250000000E+03  0.18250000000E+03  0.00000000000E+00 0. -1.
        -11    1    1    2    0    0  0.53685469938E+01  0.42525167834E+01  0.17196005313E+03  0.17209638308E+03  0.00000000000E+00 0. -1.
         11    1    1    2    0    0  0.20402933419E+01  0.18217486213E+01 -0.17820354782E+03  0.17822453821E+03  0.00000000000E+00 0. -1.
        -15    1    1    2    0    0 -0.68104388724E+01 -0.29864826184E+01  0.76374842706E+01  0.10806944575E+02  0.17770000000E+01 0. -1.
         15    1    1    2    0    0 -0.59840146330E+00 -0.30877827863E+01 -0.13939895850E+01  0.38721341415E+01  0.17770000000E+01 0.  1.
</event>
<event>
 6    1  0.1045352E-002  0.1901341E+03  0.7546771E-02  0.1062535E+00
        -11   -1    0    0    0    0  0.00000000000E+00  0.00000000000E+00  0.18250000000E+03  0.18250000000E+03  0.00000000000E+00 0. -1.
         11   -1    0    0    0    0 -0.00000000000E+00 -0.00000000000E+00 -0.18250000000E+03  0.18250000000E+03  0.00000000000E+00 0.  1.
        -11    1    1    2    0    0  0.12975238469E+01 -0.33499864762E+01  0.15495668864E+03  0.15499832687E+03  0.00000000000E+00 0. -1.
         11    1    1    2    0    0 -0.12233439981E+01 -0.30996854260E+01 -0.17483411945E+03  0.17486587415E+03  0.00000000000E+00 0.  1.
        -15    1    1    2    0    0  0.40524287113E+01 -0.88883082347E+01  0.39528822597E+00  0.99367088876E+01  0.17770000000E+01 0. -1.
         15    1    1    2    0    0 -0.41266085602E+01  0.15337980137E+02  0.19482142579E+02  0.25199090089E+02  0.17770000000E+01 0.  1.
</event>
<event>
 6    1  0.1045352E-002  0.1833347E+03  0.7546771E-02  0.1067792E+00
        -11   -1    0    0    0    0  0.00000000000E+00  0.00000000000E+00  0.18250000000E+03  0.18250000000E+03  0.00000000000E+00 0. -1.
         11   -1    0    0    0    0 -0.00000000000E+00 -0.00000000000E+00 -0.18250000000E+03  0.18250000000E+03  0.00000000000E+00 0. -1.
        -11    1    1    2    0    0 -0.83895168539E+00  0.37388695337E+01  0.15335557846E+03  0.15340344334E+03  0.00000000000E+00 0. -1.
         11    1    1    2    0    0 -0.30779283286E+01 -0.25986862283E+01 -0.18162064530E+03  0.18166531207E+03  0.00000000000E+00 0. -1.
        -15    1    1    2    0    0  0.54234588000E+01  0.97919950665E+00  0.11529824616E+02  0.12902221580E+02  0.17770000000E+01 0.  1.
         15    1    1    2    0    0 -0.15065787860E+01 -0.21193828121E+01  0.16735242222E+02  0.17029023001E+02  0.17770000000E+01 0. -1.
</event>
<event>
 6    1  0.1045352E-002  0.1832756E+03  0.7546771E-02  0.1067839E+00
        -11   -1    0    0    0    0  0.00000000000E+00  0.00000000000E+00  0.18250000000E+03  0.18250000000E+03  0.00000000000E+00 0. -1.
         11   -1    0    0    0    0 -0.00000000000E+00 -0.00000000000E+00 -0.18250000000E+03  0.18250000000E+03  0.00000000000E+00 0. -1.
        -11    1    1    2    0    0 -0.49615474103E-01 -0.28093835868E+01  0.16884784253E+03  0.16887122024E+03  0.00000000000E+00 0. -1.
         11    1    1    2    0    0 -0.22417237659E+01 -0.13937451334E+01 -0.18170525042E+03  0.18172442291E+03  0.00000000000E+00 0. -1.
        -15    1    1    2    0    0  0.15796663585E+01  0.11658922801E+01  0.35524785168E+01  0.44308558118E+01  0.17770000000E+01 0.  1.
         15    1    1    2    0    0  0.71167288150E+00  0.30372364401E+01  0.93049293724E+01  0.99735010457E+01  0.17770000000E+01 0. -1.
</event>
<event>
 6    1  0.1045352E-002  0.1426286E+03  0.7546771E-02  0.1105533E+00
        -11   -1    0    0    0    0  0.00000000000E+00  0.00000000000E+00  0.18250000000E+03  0.18250000000E+03  0.00000000000E+00 0. -1.
         11   -1    0    0    0    0 -0.00000000000E+00 -0.00000000000E+00 -0.18250000000E+03  0.18250000000E+03  0.00000000000E+00 0. -1.
        -11    1    1    2    0    0  0.68869758440E+01  0.20648893019E+01  0.14236708358E+03  0.14254852048E+03  0.00000000000E+00 0. -1.
         11    1    1    2    0    0  0.12647951698E+01 -0.31029203919E+01 -0.14278810384E+03  0.14282741481E+03  0.00000000000E+00 0. -1.
        -15    1    1    2    0    0  0.14314474684E+00 -0.11925676233E+02  0.37525394440E+02  0.39415164606E+02  0.17770000000E+01 0. -1.
         15    1    1    2    0    0 -0.82949157606E+01  0.12963707323E+02 -0.37104374181E+02  0.40208900102E+02  0.17770000000E+01 0.  1.
</event>
<event>
 6    1  0.1045352E-002  0.1872553E+03  0.7546771E-02  0.1064731E+00
        -11   -1    0    0    0    0  0.00000000000E+00  0.00000000000E+00  0.18250000000E+03  0.18250000000E+03  0.00000000000E+00 0.  1.
         11   -1    0    0    0    0 -0.00000000000E+00 -0.00000000000E+00 -0.18250000000E+03  0.18250000000E+03  0.00000000000E+00 0.  1.
        -11    1    1    2    0    0 -0.28336610035E+02 -0.18376036578E+02  0.17450659092E+03  0.17774473962E+03  0.00000000000E+00 0.  1.
         11    1    1    2    0    0 -0.37775088987E+00 -0.10764800438E+01 -0.41890233246E+02  0.41905765074E+02  0.00000000000E+00 0.  1.
        -15    1    1    2    0    0  0.82623718511E+00 -0.81786862401E+01 -0.15933246455E+01  0.85597890702E+01  0.17770000000E+01 0. -1.
         15    1    1    2    0    0  0.27888123740E+02  0.27631202862E+02 -0.13102303303E+03  0.13678970623E+03  0.17770000000E+01 0.  1.
</event>
<event>
 6    1  0.1045352E-002  0.1831186E+03  0.7546771E-02  0.1067963E+00
        -11   -1    0    0    0    0  0.00000000000E+00  0.00000000000E+00  0.18250000000E+03  0.18250000000E+03  0.00000000000E+00 0.  1.
         11   -1    0    0    0    0 -0.00000000000E+00 -0.00000000000E+00 -0.18250000000E+03  0.18250000000E+03  0.00000000000E+00 0. -1.
        -11    1    1    2    0    0  0.24862967202E+01 -0.22240985751E+00  0.18186421986E+03  0.18188135035E+03  0.00000000000E+00 0.  1.
         11    1    1    2    0    0  0.38792066172E+01 -0.17006955048E+01 -0.15075680784E+03  0.15081629793E+03  0.00000000000E+00 0. -1.
        -15    1    1    2    0    0 -0.18366498398E+01  0.50420228356E+00 -0.43580976329E+01  0.50772282354E+01  0.17770000000E+01 0.  1.
         15    1    1    2    0    0 -0.45288534976E+01  0.14189030787E+01 -0.26749314388E+02  0.27225123492E+02  0.17770000000E+01 0. -1.
</event>
<event>
 6    1  0.1045352E-002  0.1837446E+03  0.7546771E-02  0.1067468E+00
        -11   -1    0    0    0    0  0.00000000000E+00  0.00000000000E+00  0.18250000000E+03  0.18250000000E+03  0.00000000000E+00 0. -1.
         11   -1    0    0    0    0 -0.00000000000E+00 -0.00000000000E+00 -0.18250000000E+03  0.18250000000E+03  0.00000000000E+00 0. -1.
        -11    1    1    2    0    0 -0.84073976707E+00 -0.31802395749E+01  0.18122552819E+03  0.18125538016E+03  0.00000000000E+00 0. -1.
         11    1    1    2    0    0  0.22294912584E+01 -0.14985430870E+01 -0.16104197821E+03  0.16106438156E+03  0.00000000000E+00 0. -1.
        -15    1    1    2    0    0 -0.33664659492E+01 -0.14499247143E-01 -0.13837042152E+02  0.14351124267E+02  0.17770000000E+01 0. -1.
         15    1    1    2    0    0  0.19777144579E+01  0.46932819090E+01 -0.63465078322E+01  0.83291140116E+01  0.17770000000E+01 0. -1.
</event>
<event>
 6    1  0.1045352E-002  0.1841820E+03  0.7546771E-02  0.1067124E+00
        -11   -1    0    0    0    0  0.00000000000E+00  0.00000000000E+00  0.18250000000E+03  0.18250000000E+03  0.00000000000E+00 0.  1.
         11   -1    0    0    0    0 -0.00000000000E+00 -0.00000000000E+00 -0.18250000000E+03  0.18250000000E+03  0.00000000000E+00 0. -1.
        -11    1    1    2    0    0 -0.70000009161E+01 -0.35709031357E+01  0.18064721273E+03  0.18081804896E+03  0.00000000000E+00 0.  1.
         11    1    1    2    0    0  0.44111257322E+01 -0.11701207129E+01 -0.13623036168E+03  0.13630678140E+03  0.00000000000E+00 0. -1.
        -15    1    1    2    0    0  0.33928129582E+01  0.58118961460E+01 -0.54379121104E+01  0.88327761039E+01  0.17770000000E+01 0. -1.
         15    1    1    2    0    0 -0.80393777427E+00 -0.10708722974E+01 -0.38978938938E+02  0.39042393538E+02  0.17770000000E+01 0.  1.
</event>
<event>
 6    1  0.1045352E-002  0.1835863E+03  0.7546771E-02  0.1067593E+00
        -11   -1    0    0    0    0  0.00000000000E+00  0.00000000000E+00  0.18250000000E+03  0.18250000000E+03  0.00000000000E+00 0. -1.
         11   -1    0    0    0    0 -0.00000000000E+00 -0.00000000000E+00 -0.18250000000E+03  0.18250000000E+03  0.00000000000E+00 0.  1.
        -11    1    1    2    0    0  0.15012815833E+00  0.40207536389E+01  0.18136903908E+03  0.18141366359E+03  0.00000000000E+00 0. -1.
         11    1    1    2    0    0 -0.43587778282E+01  0.35773219546E+01 -0.15555140558E+03  0.15565357675E+03  0.00000000000E+00 0.  1.
        -15    1    1    2    0    0  0.25227487931E+00 -0.55297087424E+01 -0.15382792161E+02  0.16444736090E+02  0.17770000000E+01 0.  1.
         15    1    1    2    0    0  0.39563747905E+01 -0.20683668511E+01 -0.10434841339E+02  0.11488023576E+02  0.17770000000E+01 0.  1.
</event>
<event>
 6    1  0.1045352E-002  0.1860855E+03  0.7546771E-02  0.1065636E+00
        -11   -1    0    0    0    0  0.00000000000E+00  0.00000000000E+00  0.18250000000E+03  0.18250000000E+03  0.00000000000E+00 0.  1.
         11   -1    0    0    0    0 -0.00000000000E+00 -0.00000000000E+00 -0.18250000000E+03  0.18250000000E+03  0.00000000000E+00 0. -1.
        -11    1    1    2    0    0 -0.18550120201E+01  0.24538835399E+01  0.17237751561E+03  0.17240496078E+03  0.00000000000E+00 0.  1.
         11    1    1    2    0    0  0.19149930921E+00  0.26701450141E+01 -0.17889449029E+03  0.17891451871E+03  0.00000000000E+00 0. -1.
        -15    1    1    2    0    0 -0.15265280218E+00 -0.22611624138E+01 -0.25449821013E+01  0.38432826120E+01  0.17770000000E+01 0.  1.
         15    1    1    2    0    0  0.18161655131E+01 -0.28628661402E+01  0.90619567847E+01  0.98372378987E+01  0.17770000000E+01 0.  1.
</event>
<event>
 6    1  0.1045352E-002  0.1826733E+03  0.7546771E-02  0.1068317E+00
        -11   -1    0    0    0    0  0.00000000000E+00  0.00000000000E+00  0.18250000000E+03  0.18250000000E+03  0.00000000000E+00 0. -1.
         11   -1    0    0    0    0 -0.00000000000E+00 -0.00000000000E+00 -0.18250000000E+03  0.18250000000E+03  0.00000000000E+00 0.  1.
        -11    1    1    2    0    0  0.28370098417E+01 -0.48207429896E+01  0.18224083195E+03  0.18232665471E+03  0.00000000000E+00 0. -1.
         11    1    1    2    0    0 -0.26234894075E+00  0.10413107628E+01 -0.49610869903E+02  0.49622490542E+02  0.00000000000E+00 0.  1.
        -15    1    1    2    0    0 -0.29822405806E+01 -0.12367511400E+01 -0.23205137416E+02  0.23495945262E+02  0.17770000000E+01 0. -1.
         15    1    1    2    0    0  0.40757967973E+00  0.50161833668E+01 -0.10942482463E+03  0.10955490948E+03  0.17770000000E+01 0.  1.
</event>
<event>
 6    1  0.1045352E-002  0.1826339E+03  0.7546771E-02  0.1068348E+00
        -11   -1    0    0    0    0  0.00000000000E+00  0.00000000000E+00  0.18250000000E+03  0.18250000000E+03  0.00000000000E+00 0.  1.
         11   -1    0    0    0    0 -0.00000000000E+00 -0.00000000000E+00 -0.18250000000E+03  0.18250000000E+03  0.00000000000E+00 0. -1.
        -11    1    1    2    0    0 -0.99788635966E+00  0.22814252508E+01  0.18234907962E+03  0.18236608105E+03  0.00000000000E+00 0.  1.
         11    1    1    2    0    0 -0.11072098955E+01 -0.38094311205E+00 -0.70788550821E+02  0.70798234150E+02  0.00000000000E+00 0. -1.
        -15    1    1    2    0    0  0.39285469574E+00  0.14194972315E+01 -0.14120132889E+02  0.14307522112E+02  0.17770000000E+01 0. -1.
         15    1    1    2    0    0  0.17122415595E+01 -0.33199793703E+01 -0.97440395909E+02  0.97528162692E+02  0.17770000000E+01 0. -1.
</event>
<event>
 6    1  0.1045352E-002  0.1864489E+03  0.7546771E-02  0.1065354E+00
        -11   -1    0    0    0    0  0.00000000000E+00  0.00000000000E+00  0.18250000000E+03  0.18250000000E+03  0.00000000000E+00 0.  1.
         11   -1    0    0    0    0 -0.00000000000E+00 -0.00000000000E+00 -0.18250000000E+03  0.18250000000E+03  0.00000000000E+00 0.  1.
        -11    1    1    2    0    0 -0.48229607094E+01  0.41672537963E+01  0.17295027524E+03  0.17306768809E+03  0.00000000000E+00 0.  1.
         11    1    1    2    0    0  0.17644663193E+01  0.16949436694E+01 -0.17853436141E+03  0.17855112539E+03  0.00000000000E+00 0.  1.
        -15    1    1    2    0    0 -0.11412278553E+01  0.63692839082E+00 -0.15591939130E+01  0.27012762634E+01  0.17770000000E+01 0.  1.
         15    1    1    2    0    0  0.41997222454E+01 -0.64991258565E+01  0.71432800770E+01  0.10679910257E+02  0.17770000000E+01 0.  1.
</event>
<event>
 6    1  0.1045352E-002  0.1859878E+03  0.7546771E-02  0.1065712E+00
        -11   -1    0    0    0    0  0.00000000000E+00  0.00000000000E+00  0.18250000000E+03  0.18250000000E+03  0.00000000000E+00 0.  1.
         11   -1    0    0    0    0 -0.00000000000E+00 -0.00000000000E+00 -0.18250000000E+03  0.18250000000E+03  0.00000000000E+00 0. -1.
        -11    1    1    2    0    0 -0.24458754715E+01 -0.11502858115E+00  0.17317437068E+03  0.17319168051E+03  0.00000000000E+00 0.  1.
         11    1    1    2    0    0  0.10999790363E+01 -0.30057731245E+01 -0.17898362048E+03  0.17901223709E+03  0.00000000000E+00 0. -1.
        -15    1    1    2    0    0 -0.23203301520E+00  0.34526750471E+01 -0.21765546007E+01  0.44575692065E+01  0.17770000000E+01 0.  1.
         15    1    1    2    0    0  0.15779294503E+01 -0.33187334142E+00  0.79858044059E+01  0.83385131933E+01  0.17770000000E+01 0.  1.
</event>
<event>
 6    1  0.1045352E-002  0.1841918E+03  0.7546771E-02  0.1067116E+00
        -11   -1    0    0    0    0  0.00000000000E+00  0.00000000000E+00  0.18250000000E+03  0.18250000000E+03  0.00000000000E+00 0.  1.
         11   -1    0    0    0    0 -0.00000000000E+00 -0.00000000000E+00 -0.18250000000E+03  0.18250000000E+03  0.00000000000E+00 0. -1.
        -11    1    1    2    0    0  0.71052377441E+00 -0.13806237414E+01  0.45340784688E+02  0.45367364064E+02  0.00000000000E+00 0.  1.
         11    1    1    2    0    0 -0.49365368578E+01 -0.15269796508E+02 -0.18009456914E+03  0.18080815777E+03  0.00000000000E+00 0. -1.
        -15    1    1    2    0    0  0.12566000189E+02  0.11978159187E+02  0.40886921962E+02  0.44455357099E+02  0.17770000000E+01 0. -1.
         15    1    1    2    0    0 -0.83399871059E+01  0.46722610621E+01  0.93866862491E+02  0.94369121069E+02  0.17770000000E+01 0.  1.
</event>
<event>
 6    1  0.1045352E-002  0.1827505E+03  0.7546771E-02  0.1068256E+00
        -11   -1    0    0    0    0  0.00000000000E+00  0.00000000000E+00  0.18250000000E+03  0.18250000000E+03  0.00000000000E+00 0. -1.
         11   -1    0    0    0    0 -0.00000000000E+00 -0.00000000000E+00 -0.18250000000E+03  0.18250000000E+03  0.00000000000E+00 0. -1.
        -11    1    1    2    0    0 -0.19568319892E+01 -0.16074737749E+01  0.18223187433E+03  0.18224946964E+03  0.00000000000E+00 0. -1.
         11    1    1    2    0    0 -0.72092476688E+00  0.17751436855E+01 -0.13803716741E+03  0.13805046343E+03  0.00000000000E+00 0. -1.
        -15    1    1    2    0    0  0.18816486712E+01 -0.14927899245E+01 -0.37193225517E+02  0.37313037625E+02  0.17770000000E+01 0. -1.
         15    1    1    2    0    0  0.79610808491E+00  0.13251200139E+01 -0.70014814010E+01  0.73870293043E+01  0.17770000000E+01 0.  1.
</event>
<event>
 6    1  0.1045352E-002  0.1849185E+03  0.7546771E-02  0.1066546E+00
        -11   -1    0    0    0    0  0.00000000000E+00  0.00000000000E+00  0.18250000000E+03  0.18250000000E+03  0.00000000000E+00 0. -1.
         11   -1    0    0    0    0 -0.00000000000E+00 -0.00000000000E+00 -0.18250000000E+03  0.18250000000E+03  0.00000000000E+00 0. -1.
        -11    1    1    2    0    0  0.14355229304E+01 -0.39709592321E+01  0.14251363303E+03  0.14257617207E+03  0.00000000000E+00 0. -1.
         11    1    1    2    0    0 -0.40891365279E+01 -0.45436886384E+01 -0.17997770490E+03  0.18008148268E+03  0.00000000000E+00 0. -1.
        -15    1    1    2    0    0 -0.28922573843E+01  0.64168403932E+01  0.39559729214E+01  0.82673117859E+01  0.17770000000E+01 0.  1.
         15    1    1    2    0    0  0.55458709818E+01  0.20978074773E+01  0.33508098950E+02  0.34075033462E+02  0.17770000000E+01 0. -1.
</event>
<event>
 6    1  0.1045352E-002  0.1833464E+03  0.7546771E-02  0.1067783E+00
        -11   -1    0    0    0    0  0.00000000000E+00  0.00000000000E+00  0.18250000000E+03  0.18250000000E+03  0.00000000000E+00 0. -1.
         11   -1    0    0    0    0 -0.00000000000E+00 -0.00000000000E+00 -0.18250000000E+03  0.18250000000E+03  0.00000000000E+00 0. -1.
        -11    1    1    2    0    0 -0.43248251478E+01 -0.56777873464E+00  0.18160118995E+03  0.18165356775E+03  0.00000000000E+00 0. -1.
         11    1    1    2    0    0 -0.20061640048E+01  0.26255861046E+01 -0.16214021342E+03  0.16217387954E+03  0.00000000000E+00 0. -1.
        -15    1    1    2    0    0  0.88453232029E+00 -0.12244628504E+01 -0.36141912326E+01  0.43013734973E+01  0.17770000000E+01 0.  1.
         15    1    1    2    0    0  0.54464568323E+01 -0.83334451959E+00 -0.15846785291E+02  0.16871179217E+02  0.17770000000E+01 0. -1.
</event>
<event>
 6    1  0.1045352E-002  0.1878905E+03  0.7546771E-02  0.1064243E+00
        -11   -1    0    0    0    0  0.00000000000E+00  0.00000000000E+00  0.18250000000E+03  0.18250000000E+03  0.00000000000E+00 0.  1.
         11   -1    0    0    0    0 -0.00000000000E+00 -0.00000000000E+00 -0.18250000000E+03  0.18250000000E+03  0.00000000000E+00 0.  1.
        -11    1    1    2    0    0  0.12004259045E+01  0.31220823696E+01  0.95757003297E+02  0.95815406387E+02  0.00000000000E+00 0.  1.
         11    1    1    2    0    0 -0.25113752286E+01 -0.10811051967E+01 -0.17708834388E+03  0.17710945015E+03  0.00000000000E+00 0.  1.
        -15    1    1    2    0    0  0.71662237391E+01 -0.18119443016E+02  0.66637704773E+02  0.69450776845E+02  0.17770000000E+01 0.  1.
         15    1    1    2    0    0 -0.58552744151E+01  0.16078465843E+02  0.14693635814E+02  0.22624366616E+02  0.17770000000E+01 0. -1.
</event>
<event>
 6    1  0.1045352E-002  0.1939818E+03  0.7546771E-02  0.1059666E+00
        -11   -1    0    0    0    0  0.00000000000E+00  0.00000000000E+00  0.18250000000E+03  0.18250000000E+03  0.00000000000E+00 0. -1.
         11   -1    0    0    0    0 -0.00000000000E+00 -0.00000000000E+00 -0.18250000000E+03  0.18250000000E+03  0.00000000000E+00 0.  1.
        -11    1    1    2    0    0 -0.18439146430E+01 -0.26960220118E+01  0.17098696768E+03  0.17101816182E+03  0.00000000000E+00 0. -1.
         11    1    1    2    0    0 -0.49442300995E+01 -0.34401186077E+01 -0.13065482393E+03  0.13079358870E+03  0.00000000000E+00 0.  1.
        -15    1    1    2    0    0  0.34839830530E+01  0.11032451434E+02  0.81834173978E+01  0.14282127708E+02  0.17770000000E+01 0. -1.
         15    1    1    2    0    0  0.33041616894E+01 -0.48963108142E+01 -0.48515561148E+02  0.48906121770E+02  0.17770000000E+01 0.  1.
</event>
<event>
 6    1  0.1045352E-002  0.1849782E+03  0.7546771E-02  0.1066499E+00
        -11   -1    0    0    0    0  0.00000000000E+00  0.00000000000E+00  0.18250000000E+03  0.18250000000E+03  0.00000000000E+00 0. -1.
         11   -1    0    0    0    0 -0.00000000000E+00 -0.00000000000E+00 -0.18250000000E+03  0.18250000000E+03  0.00000000000E+00 0.  1.
        -11    1    1    2    0    0 -0.29982787874E+01 -0.65817825722E+00  0.17480324467E+03  0.17483019540E+03  0.00000000000E+00 0. -1.
         11    1    1    2    0    0  0.16195711382E+01 -0.25505148150E+01 -0.17999642125E+03  0.18002177590E+03  0.00000000000E+00 0.  1.
        -15    1    1    2    0    0 -0.21194028334E+01  0.25167331320E+01  0.17903809227E+00  0.37437411324E+01  0.17770000000E+01 0.  1.
         15    1    1    2    0    0  0.34981104827E+01  0.69195994020E+00  0.50141384839E+01  0.64042875672E+01  0.17770000000E+01 0.  1.
</event>
<event>
 6    1  0.1045352E-002  0.1910283E+03  0.7546771E-02  0.1061862E+00
        -11   -1    0    0    0    0  0.00000000000E+00  0.00000000000E+00  0.18250000000E+03  0.18250000000E+03  0.00000000000E+00 0.  1.
         11   -1    0    0    0    0 -0.00000000000E+00 -0.00000000000E+00 -0.18250000000E+03  0.18250000000E+03  0.00000000000E+00 0.  1.
        -11    1    1    2    0    0 -0.45320537934E+01 -0.13626404807E+02  0.17337801361E+03  0.17397170466E+03  0.00000000000E+00 0.  1.
         11    1    1    2    0    0  0.10618884574E+01 -0.28429978096E+01 -0.16193038901E+03  0.16195882542E+03  0.00000000000E+00 0.  1.
        -15    1    1    2    0    0 -0.46732448464E+01  0.41479966315E+00 -0.96688451712E+01  0.10892913848E+02  0.17770000000E+01 0. -1.
         15    1    1    2    0    0  0.81434101824E+01  0.16054602954E+02 -0.17787794266E+01  0.18176556072E+02  0.17770000000E+01 0.  1.
</event>
<event>
 6    1  0.1045352E-002  0.1881045E+03  0.7546771E-02  0.1064079E+00
        -11   -1    0    0    0    0  0.00000000000E+00  0.00000000000E+00  0.18250000000E+03  0.18250000000E+03  0.00000000000E+00 0.  1.
         11   -1    0    0    0    0 -0.00000000000E+00 -0.00000000000E+00 -0.18250000000E+03  0.18250000000E+03  0.00000000000E+00 0.  1.
        -11    1    1    2    0    0  0.29878560740E+01 -0.45984404370E+01  0.16346181334E+03  0.16355377513E+03  0.00000000000E+00 0.  1.
         11    1    1    2    0    0 -0.72805102781E+01 -0.27777520724E+01 -0.17672378310E+03  0.17689549811E+03  0.00000000000E+00 0.  1.
        -15    1    1    2    0    0  0.28506246974E+01  0.80061861835E+01 -0.21601502895E+01  0.89470138395E+01  0.17770000000E+01 0. -1.
         15    1    1    2    0    0  0.14420295067E+01 -0.62999367411E+00  0.15422120054E+02  0.15603712926E+02  0.17770000000E+01 0.  1.
</event>
<event>
 6    1  0.1045352E-002  0.1867474E+03  0.7546771E-02  0.1065123E+00
        -11   -1    0    0    0    0  0.00000000000E+00  0.00000000000E+00  0.18250000000E+03  0.18250000000E+03  0.00000000000E+00 0. -1.
         11   -1    0    0    0    0 -0.00000000000E+00 -0.00000000000E+00 -0.18250000000E+03  0.18250000000E+03  0.00000000000E+00 0.  1.
        -11    1    1    2    0    0  0.21737212109E+01  0.13024856331E+01  0.17823456114E+03  0.17825257450E+03  0.00000000000E+00 0. -1.
         11    1    1    2    0    0  0.34497768770E+01  0.19123833561E+01 -0.12061242410E+03  0.12067690342E+03  0.00000000000E+00 0.  1.
        -15    1    1    2    0    0 -0.77614062372E+01  0.28976003507E+01 -0.42836874213E+00  0.84839108523E+01  0.17770000000E+01 0. -1.
         15    1    1    2    0    0  0.21379081493E+01 -0.61124693400E+01 -0.57193768292E+02  0.57586611232E+02  0.17770000000E+01 0.  1.
</event>
<event>
 6    1  0.1045352E-002  0.1201345E+03  0.7546771E-02  0.1132942E+00
        -11   -1    0    0    0    0  0.00000000000E+00  0.00000000000E+00  0.18250000000E+03  0.18250000000E+03  0.00000000000E+00 0. -1.
         11   -1    0    0    0    0 -0.00000000000E+00 -0.00000000000E+00 -0.18250000000E+03  0.18250000000E+03  0.00000000000E+00 0. -1.
        -11    1    1    2    0    0  0.89931098061E+01  0.80037619605E+01  0.12889550798E+03  0.12945651087E+03  0.00000000000E+00 0. -1.
         11    1    1    2    0    0 -0.24826665474E+01  0.44616675833E+01 -0.54583889964E+02  0.54822177578E+02  0.00000000000E+00 0. -1.
        -15    1    1    2    0    0 -0.48272657054E+02 -0.20999502010E+02  0.35093432350E+02  0.63292457898E+02  0.17770000000E+01 0.  1.
         15    1    1    2    0    0  0.41762213795E+02  0.85340724667E+01 -0.10940505037E+03  0.11742885365E+03  0.17770000000E+01 0. -1.
</event>
<event>
 6    1  0.1045352E-002  0.1663797E+03  0.7546771E-02  0.1082064E+00
        -11   -1    0    0    0    0  0.00000000000E+00  0.00000000000E+00  0.18250000000E+03  0.18250000000E+03  0.00000000000E+00 0.  1.
         11   -1    0    0    0    0 -0.00000000000E+00 -0.00000000000E+00 -0.18250000000E+03  0.18250000000E+03  0.00000000000E+00 0. -1.
        -11    1    1    2    0    0  0.58803411314E+01  0.14961445104E+02  0.17294549159E+03  0.17369100815E+03  0.00000000000E+00 0.  1.
         11    1    1    2    0    0  0.15984919365E+01 -0.15429789687E+00 -0.19270225052E+02  0.19337025570E+02  0.00000000000E+00 0. -1.
        -15    1    1    2    0    0 -0.25212296722E+01 -0.10644247957E+02  0.56953754613E+01  0.12460001777E+02  0.17770000000E+01 0.  1.
         15    1    1    2    0    0 -0.49576033958E+01 -0.41628992499E+01 -0.15937064199E+03  0.15951196451E+03  0.17770000000E+01 0. -1.
</event>
<event>
 6    1  0.1045352E-002  0.1834646E+03  0.7546771E-02  0.1067690E+00
        -11   -1    0    0    0    0  0.00000000000E+00  0.00000000000E+00  0.18250000000E+03  0.18250000000E+03  0.00000000000E+00 0. -1.
         11   -1    0    0    0    0 -0.00000000000E+00 -0.00000000000E+00 -0.18250000000E+03  0.18250000000E+03  0.00000000000E+00 0.  1.
        -11    1    1    2    0    0  0.49785935955E+01 -0.26236029972E+01  0.18144815965E+03  0.18153540791E+03  0.00000000000E+00 0. -1.
         11    1    1    2    0    0 -0.78300112889E-01  0.10514699725E+02 -0.74200970775E+02  0.74942305177E+02  0.00000000000E+00 0.  1.
        -15    1    1    2    0    0 -0.37987903972E+01 -0.90399826127E+01 -0.39654677145E+02  0.40887690600E+02  0.17770000000E+01 0.  1.
         15    1    1    2    0    0 -0.11015030855E+01  0.11488858854E+01 -0.67592511726E+02  0.67634596312E+02  0.17770000000E+01 0. -1.
</event>
<event>
 6    1  0.1045352E-002  0.1879322E+03  0.7546771E-02  0.1064211E+00
        -11   -1    0    0    0    0  0.00000000000E+00  0.00000000000E+00  0.18250000000E+03  0.18250000000E+03  0.00000000000E+00 0.  1.
         11   -1    0    0    0    0 -0.00000000000E+00 -0.00000000000E+00 -0.18250000000E+03  0.18250000000E+03  0.00000000000E+00 0.  1.
        -11    1    1    2    0    0 -0.10726547662E+01 -0.29647991631E+01  0.17703975534E+03  0.17706782766E+03  0.00000000000E+00 0.  1.
         11    1    1    2    0    0  0.13749142402E+01  0.51526512807E+00 -0.85939848790E+02  0.85952390876E+02  0.00000000000E+00 0.  1.
        -15    1    1    2    0    0  0.97629358573E+01  0.12772081967E+01  0.29317084694E+00  0.10009488272E+02  0.17770000000E+01 0. -1.
         15    1    1    2    0    0 -0.10065195331E+02  0.11723258384E+01 -0.91393077395E+02  0.91970293191E+02  0.17770000000E+01 0.  1.
</event>
<event>
 6    1  0.1045352E-002  0.1834241E+03  0.7546771E-02  0.1067722E+00
        -11   -1    0    0    0    0  0.00000000000E+00  0.00000000000E+00  0.18250000000E+03  0.18250000000E+03  0.00000000000E+00 0.  1.
         11   -1    0    0    0    0 -0.00000000000E+00 -0.00000000000E+00 -0.18250000000E+03  0.18250000000E+03  0.00000000000E+00 0. -1.
        -11    1    1    2    0    0  0.29382455876E+01  0.69351559051E-01  0.18155209552E+03  0.18157588354E+03  0.00000000000E+00 0.  1.
         11    1    1    2    0    0 -0.24671404637E+01 -0.30517422149E+01 -0.15714610021E+03  0.15719509129E+03  0.00000000000E+00 0. -1.
        -15    1    1    2    0    0 -0.15841133207E+01 -0.26338596251E+01 -0.10563775479E+02  0.11144402761E+02  0.17770000000E+01 0.  1.
         15    1    1    2    0    0  0.11130081968E+01  0.56162502809E+01 -0.13842219830E+02  0.15084622411E+02  0.17770000000E+01 0. -1.
</event>
<event>
 6    1  0.1045352E-002  0.1871564E+03  0.7546771E-02  0.1064808E+00
        -11   -1    0    0    0    0  0.00000000000E+00  0.00000000000E+00  0.18250000000E+03  0.18250000000E+03  0.00000000000E+00 0. -1.
         11   -1    0    0    0    0 -0.00000000000E+00 -0.00000000000E+00 -0.18250000000E+03  0.18250000000E+03  0.00000000000E+00 0.  1.
        -11    1    1    2    0    0 -0.41705794335E+01  0.77651063016E+00  0.17012491155E+03  0.17017779594E+03  0.00000000000E+00 0. -1.
         11    1    1    2    0    0 -0.34182934240E+01  0.77262310018E+01 -0.17764285262E+03  0.17784364611E+03  0.00000000000E+00 0.  1.
        -15    1    1    2    0    0  0.19532818673E+01 -0.65370758606E+01  0.80827258098E+01  0.10725523595E+02  0.17770000000E+01 0.  1.
         15    1    1    2    0    0  0.56355909903E+01 -0.19656657713E+01 -0.56478474134E+00  0.62530343465E+01  0.17770000000E+01 0. -1.
</event>
<event>
 6    1  0.1045352E-002  0.1767674E+03  0.7546771E-02  0.1073112E+00
        -11   -1    0    0    0    0  0.00000000000E+00  0.00000000000E+00  0.18250000000E+03  0.18250000000E+03  0.00000000000E+00 0. -1.
         11   -1    0    0    0    0 -0.00000000000E+00 -0.00000000000E+00 -0.18250000000E+03  0.18250000000E+03  0.00000000000E+00 0. -1.
        -11    1    1    2    0    0 -0.30881413698E+01 -0.42759781221E+01  0.17452310683E+03  0.17460279329E+03  0.00000000000E+00 0. -1.
         11    1    1    2    0    0 -0.31917353674E+01 -0.16050067305E+01 -0.17902974416E+03  0.17906538614E+03  0.00000000000E+00 0. -1.
        -15    1    1    2    0    0  0.20128682454E+01 -0.26821991134E+00  0.13407964874E+01  0.30131453193E+01  0.17770000000E+01 0.  1.
         15    1    1    2    0    0  0.42670084918E+01  0.61492047639E+01  0.31658408338E+01  0.83186752480E+01  0.17770000000E+01 0. -1.
</event>
<event>
 6    1  0.1045352E-002  0.1827165E+03  0.7546771E-02  0.1068283E+00
        -11   -1    0    0    0    0  0.00000000000E+00  0.00000000000E+00  0.18250000000E+03  0.18250000000E+03  0.00000000000E+00 0. -1.
         11   -1    0    0    0    0 -0.00000000000E+00 -0.00000000000E+00 -0.18250000000E+03  0.18250000000E+03  0.00000000000E+00 0.  1.
        -11    1    1    2    0    0  0.68214433625E+01 -0.15052418750E+01  0.18214960855E+03  0.18228350923E+03  0.00000000000E+00 0. -1.
         11    1    1    2    0    0 -0.32256437311E+01  0.86707289188E+00 -0.12683996012E+03  0.12688393151E+03  0.00000000000E+00 0.  1.
        -15    1    1    2    0    0 -0.48978028669E+01  0.32684889436E+00 -0.43785731985E+02  0.44095842861E+02  0.17770000000E+01 0.  1.
         15    1    1    2    0    0  0.13020032355E+01  0.31132008877E+00 -0.11523916444E+02  0.11736716399E+02  0.17770000000E+01 0.  1.
</event>
<event>
 6    1  0.1045352E-002  0.1830218E+03  0.7546771E-02  0.1068040E+00
        -11   -1    0    0    0    0  0.00000000000E+00  0.00000000000E+00  0.18250000000E+03  0.18250000000E+03  0.00000000000E+00 0.  1.
         11   -1    0    0    0    0 -0.00000000000E+00 -0.00000000000E+00 -0.18250000000E+03  0.18250000000E+03  0.00000000000E+00 0. -1.
        -11    1    1    2    0    0 -0.51627256940E+01 -0.21224355930E+00  0.18190483341E+03  0.18197820529E+03  0.00000000000E+00 0.  1.
         11    1    1    2    0    0  0.26561887521E+01  0.33954541678E+01 -0.37416960498E+02  0.37664484340E+02  0.00000000000E+00 0. -1.
        -15    1    1    2    0    0 -0.51102602230E+01 -0.50052809125E+01 -0.51730587189E+02  0.52253028395E+02  0.17770000000E+01 0.  1.
         15    1    1    2    0    0  0.76167971648E+01  0.18220703040E+01 -0.92757285719E+02  0.93104281976E+02  0.17770000000E+01 0. -1.
</event>
<event>
 6    1  0.1045352E-002  0.1829318E+03  0.7546771E-02  0.1068112E+00
        -11   -1    0    0    0    0  0.00000000000E+00  0.00000000000E+00  0.18250000000E+03  0.18250000000E+03  0.00000000000E+00 0. -1.
         11   -1    0    0    0    0 -0.00000000000E+00 -0.00000000000E+00 -0.18250000000E+03  0.18250000000E+03  0.00000000000E+00 0.  1.
        -11    1    1    2    0    0  0.37642658776E+01 -0.40376205815E+01  0.18198447314E+03  0.18206817554E+03  0.00000000000E+00 0. -1.
         11    1    1    2    0    0 -0.99263633796E-01  0.27468102493E+01 -0.15241295753E+03  0.15243773956E+03  0.00000000000E+00 0.  1.
        -15    1    1    2    0    0 -0.47618150223E+01  0.11725262022E+01 -0.18240469960E+02  0.18971614938E+02  0.17770000000E+01 0. -1.
         15    1    1    2    0    0  0.10968127785E+01  0.11828413009E+00 -0.11331045657E+02  0.11522469965E+02  0.17770000000E+01 0. -1.
</event>
<event>
 6    1  0.1045352E-002  0.1832091E+03  0.7546771E-02  0.1067892E+00
        -11   -1    0    0    0    0  0.00000000000E+00  0.00000000000E+00  0.18250000000E+03  0.18250000000E+03  0.00000000000E+00 0. -1.
         11   -1    0    0    0    0 -0.00000000000E+00 -0.00000000000E+00 -0.18250000000E+03  0.18250000000E+03  0.00000000000E+00 0.  1.
        -11    1    1    2    0    0 -0.49775899927E+00 -0.48862634333E+00  0.41284797352E+02  0.41290689170E+02  0.00000000000E+00 0. -1.
         11    1    1    2    0    0 -0.18300339947E+01  0.91218191231E+01 -0.18155262977E+03  0.18179085231E+03  0.00000000000E+00 0.  1.
        -15    1    1    2    0    0  0.24157494968E+01 -0.20938232757E+01  0.37706517740E+01  0.52531405219E+01  0.17770000000E+01 0.  1.
         15    1    1    2    0    0 -0.87956502878E-01 -0.65393695040E+01  0.13649718064E+03  0.13666531799E+03  0.17770000000E+01 0. -1.
</event>
<event>
 6    1  0.1045352E-002  0.2034884E+03  0.7546771E-02  0.1052876E+00
        -11   -1    0    0    0    0  0.00000000000E+00  0.00000000000E+00  0.18250000000E+03  0.18250000000E+03  0.00000000000E+00 0.  1.
         11   -1    0    0    0    0 -0.00000000000E+00 -0.00000000000E+00 -0.18250000000E+03  0.18250000000E+03  0.00000000000E+00 0. -1.
        -11    1    1    2    0    0 -0.22245931731E+00 -0.21932538338E+01  0.16149652744E+03  0.16151157304E+03  0.00000000000E+00 0.  1.
         11    1    1    2    0    0 -0.14215268904E+02  0.10940310925E+02 -0.10783844492E+03  0.10932014670E+03  0.00000000000E+00 0. -1.
        -15    1    1    2    0    0  0.85674559243E+01 -0.86915225314E+01  0.18235007190E+02  0.22014020104E+02  0.17770000000E+01 0. -1.
         15    1    1    2    0    0  0.58702722968E+01 -0.55534560093E-01 -0.71893089714E+02  0.72154260155E+02  0.17770000000E+01 0.  1.
</event>
<event>
 6    1  0.1045352E-002  0.1830899E+03  0.7546771E-02  0.1067986E+00
        -11   -1    0    0    0    0  0.00000000000E+00  0.00000000000E+00  0.18250000000E+03  0.18250000000E+03  0.00000000000E+00 0. -1.
         11   -1    0    0    0    0 -0.00000000000E+00 -0.00000000000E+00 -0.18250000000E+03  0.18250000000E+03  0.00000000000E+00 0. -1.
        -11    1    1    2    0    0 -0.19812107727E+01  0.45807460825E+01  0.18184163601E+03  0.18191011247E+03  0.00000000000E+00 0. -1.
         11    1    1    2    0    0 -0.13597232504E+01 -0.20136377347E+01 -0.14438178383E+03  0.14440222674E+03  0.00000000000E+00 0. -1.
        -15    1    1    2    0    0  0.30037581885E+01 -0.50272741715E+01 -0.18566109130E+02  0.19548764311E+02  0.17770000000E+01 0.  1.
         15    1    1    2    0    0  0.33717583463E+00  0.24601658237E+01 -0.18893743045E+02  0.19138896486E+02  0.17770000000E+01 0.  1.
</event>
<event>
 6    1  0.1045352E-002  0.1831573E+03  0.7546771E-02  0.1067933E+00
        -11   -1    0    0    0    0  0.00000000000E+00  0.00000000000E+00  0.18250000000E+03  0.18250000000E+03  0.00000000000E+00 0. -1.
         11   -1    0    0    0    0 -0.00000000000E+00 -0.00000000000E+00 -0.18250000000E+03  0.18250000000E+03  0.00000000000E+00 0. -1.
        -11    1    1    2    0    0 -0.52965721164E+01  0.33786696434E+01  0.18173414141E+03  0.18184269916E+03  0.00000000000E+00 0. -1.
         11    1    1    2    0    0  0.11698163059E+01  0.20022480622E+01 -0.12391861095E+03  0.12394030663E+03  0.00000000000E+00 0. -1.
        -15    1    1    2    0    0 -0.98384628129E+00 -0.53005199031E+00 -0.19003995200E+01  0.28316348552E+01  0.17770000000E+01 0. -1.
         15    1    1    2    0    0  0.51106020918E+01 -0.48508657153E+01 -0.55915130939E+02  0.56385359349E+02  0.17770000000E+01 0. -1.
</event>
<event>
 6    1  0.1045352E-002  0.1830190E+03  0.7546771E-02  0.1068042E+00
        -11   -1    0    0    0    0  0.00000000000E+00  0.00000000000E+00  0.18250000000E+03  0.18250000000E+03  0.00000000000E+00 0. -1.
         11   -1    0    0    0    0 -0.00000000000E+00 -0.00000000000E+00 -0.18250000000E+03  0.18250000000E+03  0.00000000000E+00 0.  1.
        -11    1    1    2    0    0  0.49786433852E+01 -0.33158793120E+01  0.87469059248E+02  0.87673361241E+02  0.00000000000E+00 0. -1.
         11    1    1    2    0    0 -0.16824792720E+01  0.47112810216E+01 -0.18191221428E+03  0.18198098970E+03  0.00000000000E+00 0.  1.
        -15    1    1    2    0    0  0.19619231658E+01 -0.39540260489E+01  0.16757449015E+02  0.17419910763E+02  0.17770000000E+01 0. -1.
         15    1    1    2    0    0 -0.52580872791E+01  0.25586243392E+01  0.77685706021E+02  0.77925738299E+02  0.17770000000E+01 0. -1.
</event>
<event>
 6    1  0.1045352E-002  0.1827336E+03  0.7546771E-02  0.1068269E+00
        -11   -1    0    0    0    0  0.00000000000E+00  0.00000000000E+00  0.18250000000E+03  0.18250000000E+03  0.00000000000E+00 0.  1.
         11   -1    0    0    0    0 -0.00000000000E+00 -0.00000000000E+00 -0.18250000000E+03  0.18250000000E+03  0.00000000000E+00 0. -1.
        -11    1    1    2    0    0  0.15953900106E+01  0.75343038129E+00  0.10034892631E+03  0.10036443563E+03  0.00000000000E+00 0.  1.
         11    1    1    2    0    0 -0.24130768162E+01  0.29597735784E+01 -0.18222635487E+03  0.18226636444E+03  0.00000000000E+00 0. -1.
        -15    1    1    2    0    0  0.29888331432E+01 -0.32375538123E+01  0.26769077570E+02  0.27187425792E+02  0.17770000000E+01 0.  1.
         15    1    1    2    0    0 -0.21711463377E+01 -0.47565014746E+00  0.55108350986E+02  0.55181774137E+02  0.17770000000E+01 0.  1.
</event>
<event>
 6    1  0.1045352E-002  0.1888243E+03  0.7546771E-02  0.1063529E+00
        -11   -1    0    0    0    0  0.00000000000E+00  0.00000000000E+00  0.18250000000E+03  0.18250000000E+03  0.00000000000E+00 0.  1.
         11   -1    0    0    0    0 -0.00000000000E+00 -0.00000000000E+00 -0.18250000000E+03  0.18250000000E+03  0.00000000000E+00 0. -1.
        -11    1    1    2    0    0  0.82559292871E+00  0.34530506025E+01  0.14172172577E+03  0.14176619032E+03  0.00000000000E+00 0.  1.
         11    1    1    2    0    0 -0.56729707898E+01 -0.21965779815E+01 -0.17607059075E+03  0.17617565235E+03  0.00000000000E+00 0. -1.
        -15    1    1    2    0    0 -0.30726578597E+01 -0.40166204495E+01  0.37532058115E+02  0.37912894660E+02  0.17770000000E+01 0. -1.
         15    1    1    2    0    0  0.79200357208E+01  0.27601478285E+01 -0.31831931332E+01  0.91452626740E+01  0.17770000000E+01 0.  1.
</event>
<event>
 6    1  0.1045352E-002  0.1909726E+03  0.7546771E-02  0.1061904E+00
        -11   -1    0    0    0    0  0.00000000000E+00  0.00000000000E+00  0.18250000000E+03  0.18250000000E+03  0.00000000000E+00 0.  1.
         11   -1    0    0    0    0 -0.00000000000E+00 -0.00000000000E+00 -0.18250000000E+03  0.18250000000E+03  0.00000000000E+00 0.  1.
        -11    1    1    2    0    0 -0.18160152432E+02  0.32244443727E+01  0.14266711870E+03  0.14385442271E+03  0.00000000000E+00 0.  1.
         11    1    1    2    0    0 -0.34968027420E+01 -0.80752997202E+01 -0.17380475056E+03  0.17402738122E+03  0.00000000000E+00 0.  1.
        -15    1    1    2    0    0  0.11959317860E+02  0.16219303016E+02  0.19464141161E+02  0.28073147208E+02  0.17770000000E+01 0. -1.
         15    1    1    2    0    0  0.96976373137E+01 -0.11368447669E+02  0.11673490706E+02  0.19045048862E+02  0.17770000000E+01 0.  1.
</event>
<event>
 6    1  0.1045352E-002  0.1759774E+03  0.7546771E-02  0.1073769E+00
        -11   -1    0    0    0    0  0.00000000000E+00  0.00000000000E+00  0.18250000000E+03  0.18250000000E+03  0.00000000000E+00 0.  1.
         11   -1    0    0    0    0 -0.00000000000E+00 -0.00000000000E+00 -0.18250000000E+03  0.18250000000E+03  0.00000000000E+00 0. -1.
        -11    1    1    2    0    0  0.78492176889E+00 -0.47870907190E+01  0.17465544730E+03  0.17472280221E+03  0.00000000000E+00 0.  1.
         11    1    1    2    0    0 -0.43613827130E+01 -0.84035731059E+00 -0.17724911386E+03  0.17730475522E+03  0.00000000000E+00 0. -1.
        -15    1    1    2    0    0  0.26246754615E+01  0.44462545511E+01  0.64577885984E+01  0.84568826049E+01  0.17770000000E+01 0. -1.
         15    1    1    2    0    0  0.95178548257E+00  0.11811934785E+01 -0.38641220376E+01  0.45155599608E+01  0.17770000000E+01 0. -1.
</event>
<event>
 6    1  0.1045352E-002  0.1855113E+03  0.7546771E-02  0.1066083E+00
        -11   -1    0    0    0    0  0.00000000000E+00  0.00000000000E+00  0.18250000000E+03  0.18250000000E+03  0.00000000000E+00 0. -1.
         11   -1    0    0    0    0 -0.00000000000E+00 -0.00000000000E+00 -0.18250000000E+03  0.18250000000E+03  0.00000000000E+00 0.  1.
        -11    1    1    2    0    0  0.22579198551E+01  0.52951875164E+00  0.15744919030E+03  0.15746626978E+03  0.00000000000E+00 0. -1.
         11    1    1    2    0    0  0.50247748148E+01  0.23756648495E+01 -0.17940267075E+03  0.17948874733E+03  0.00000000000E+00 0.  1.
        -15    1    1    2    0    0 -0.58790791743E+01 -0.23522286184E+01  0.64384967472E+00  0.66082390101E+01  0.17770000000E+01 0. -1.
         15    1    1    2    0    0 -0.14036154956E+01 -0.55295498270E+00  0.21309630772E+02  0.21436743883E+02  0.17770000000E+01 0.  1.
</event>
<event>
 6    1  0.1045352E-002  0.1905434E+03  0.7546771E-02  0.1062227E+00
        -11   -1    0    0    0    0  0.00000000000E+00  0.00000000000E+00  0.18250000000E+03  0.18250000000E+03  0.00000000000E+00 0.  1.
         11   -1    0    0    0    0 -0.00000000000E+00 -0.00000000000E+00 -0.18250000000E+03  0.18250000000E+03  0.00000000000E+00 0.  1.
        -11    1    1    2    0    0 -0.23816730753E+00 -0.34928414341E+01  0.17442143254E+03  0.17445656421E+03  0.00000000000E+00 0.  1.
         11    1    1    2    0    0 -0.11109890312E+01  0.40891229258E+01 -0.17147325415E+03  0.17152560191E+03  0.00000000000E+00 0.  1.
        -15    1    1    2    0    0 -0.16557706241E+01  0.13834975664E+01  0.74044584885E+01  0.79145041780E+01  0.17770000000E+01 0. -1.
         15    1    1    2    0    0  0.30049269629E+01 -0.19797790582E+01 -0.10352636877E+02  0.11103329702E+02  0.17770000000E+01 0. -1.
</event>
<event>
 6    1  0.1045352E-002  0.1732015E+03  0.7546771E-02  0.1076107E+00
        -11   -1    0    0    0    0  0.00000000000E+00  0.00000000000E+00  0.18250000000E+03  0.18250000000E+03  0.00000000000E+00 0. -1.
         11   -1    0    0    0    0 -0.00000000000E+00 -0.00000000000E+00 -0.18250000000E+03  0.18250000000E+03  0.00000000000E+00 0. -1.
        -11    1    1    2    0    0  0.72669779757E+01 -0.89789424361E+01  0.17767664605E+03  0.17805173666E+03  0.00000000000E+00 0. -1.
         11    1    1    2    0    0  0.96647295151E+00  0.67671668661E-01 -0.10764134528E+02  0.10807647364E+02  0.00000000000E+00 0. -1.
        -15    1    1    2    0    0 -0.55231348658E+01 -0.47972991088E+01  0.10386899810E+01  0.75997173212E+01  0.17770000000E+01 0.  1.
         15    1    1    2    0    0 -0.27103160614E+01  0.13708569876E+02 -0.16795120151E+03  0.16854089865E+03  0.17770000000E+01 0. -1.
</event>
<event>
 6    1  0.1045352E-002  0.1828554E+03  0.7546771E-02  0.1068172E+00
        -11   -1    0    0    0    0  0.00000000000E+00  0.00000000000E+00  0.18250000000E+03  0.18250000000E+03  0.00000000000E+00 0.  1.
         11   -1    0    0    0    0 -0.00000000000E+00 -0.00000000000E+00 -0.18250000000E+03  0.18250000000E+03  0.00000000000E+00 0.  1.
        -11    1    1    2    0    0 -0.26576752476E+00  0.39134519839E+01  0.78001577366E+02  0.78100139631E+02  0.00000000000E+00 0.  1.
         11    1    1    2    0    0  0.39586474448E+01  0.19941817846E+01 -0.18209064812E+03  0.18214459032E+03  0.00000000000E+00 0.  1.
        -15    1    1    2    0    0 -0.42615812729E+01 -0.42713112764E+01  0.97683093281E+02  0.97885390211E+02  0.17770000000E+01 0.  1.
         15    1    1    2    0    0  0.56870135289E+00 -0.16363224922E+01  0.64059774747E+01  0.68698798340E+01  0.17770000000E+01 0.  1.
</event>
<event>
 6    1  0.1045352E-002  0.1842912E+03  0.7546771E-02  0.1067038E+00
        -11   -1    0    0    0    0  0.00000000000E+00  0.00000000000E+00  0.18250000000E+03  0.18250000000E+03  0.00000000000E+00 0.  1.
         11   -1    0    0    0    0 -0.00000000000E+00 -0.00000000000E+00 -0.18250000000E+03  0.18250000000E+03  0.00000000000E+00 0. -1.
        -11    1    1    2    0    0  0.66608071257E+00 -0.47542192435E+01  0.18064498010E+03  0.18070875767E+03  0.00000000000E+00 0.  1.
         11    1    1    2    0    0 -0.25284858105E+01  0.43103011483E+00 -0.13228334707E+03  0.13230821192E+03  0.00000000000E+00 0. -1.
        -15    1    1    2    0    0  0.59905587191E+01  0.20244541387E+01 -0.45898389863E+02  0.46365991086E+02  0.17770000000E+01 0.  1.
         15    1    1    2    0    0 -0.41281536212E+01  0.22987349900E+01 -0.24632431653E+01  0.56170393239E+01  0.17770000000E+01 0. -1.
</event>
<event>
 6    1  0.1045352E-002  0.1841217E+03  0.7546771E-02  0.1067171E+00
        -11   -1    0    0    0    0  0.00000000000E+00  0.00000000000E+00  0.18250000000E+03  0.18250000000E+03  0.00000000000E+00 0.  1.
         11   -1    0    0    0    0 -0.00000000000E+00 -0.00000000000E+00 -0.18250000000E+03  0.18250000000E+03  0.00000000000E+00 0.  1.
        -11    1    1    2    0    0  0.19008731707E+01 -0.86849594707E+00  0.88546167088E+02  0.88570826517E+02  0.00000000000E+00 0.  1.
         11    1    1    2    0    0  0.26586251714E+01 -0.20428024551E+01 -0.18084718887E+03  0.18087826584E+03  0.00000000000E+00 0.  1.
        -15    1    1    2    0    0  0.37648306885E+00  0.33067399382E+01  0.74722891593E+00  0.38460822369E+01  0.17770000000E+01 0.  1.
         15    1    1    2    0    0 -0.49359814109E+01 -0.39544153605E+00  0.91553792866E+02  0.91704825411E+02  0.17770000000E+01 0. -1.
</event>
<event>
 6    1  0.1045352E-002  0.1847486E+03  0.7546771E-02  0.1066679E+00
        -11   -1    0    0    0    0  0.00000000000E+00  0.00000000000E+00  0.18250000000E+03  0.18250000000E+03  0.00000000000E+00 0.  1.
         11   -1    0    0    0    0 -0.00000000000E+00 -0.00000000000E+00 -0.18250000000E+03  0.18250000000E+03  0.00000000000E+00 0.  1.
        -11    1    1    2    0    0  0.75503410795E+01 -0.12335669811E+02  0.17967018573E+03  0.18025135794E+03  0.00000000000E+00 0.  1.
         11    1    1    2    0    0  0.32296636369E+01  0.11126717584E+01 -0.15268662348E+03  0.15272483019E+03  0.00000000000E+00 0.  1.
        -15    1    1    2    0    0 -0.53644477873E+01  0.14323601374E+01 -0.76890862128E+01  0.96492865754E+01  0.17770000000E+01 0. -1.
         15    1    1    2    0    0 -0.54155569291E+01  0.97906379153E+01 -0.19294476035E+02  0.22374525293E+02  0.17770000000E+01 0.  1.
</event>
<event>
 6    1  0.1045352E-002  0.1829839E+03  0.7546771E-02  0.1068070E+00
        -11   -1    0    0    0    0  0.00000000000E+00  0.00000000000E+00  0.18250000000E+03  0.18250000000E+03  0.00000000000E+00 0. -1.
         11   -1    0    0    0    0 -0.00000000000E+00 -0.00000000000E+00 -0.18250000000E+03  0.18250000000E+03  0.00000000000E+00 0. -1.
        -11    1    1    2    0    0 -0.24719323829E+01  0.22349340033E+01  0.13703543770E+03  0.13707595181E+03  0.00000000000E+00 0. -1.
         11    1    1    2    0    0  0.19809211210E+01  0.19790586297E+01 -0.18199458399E+03  0.18201612380E+03  0.00000000000E+00 0. -1.
        -15    1    1    2    0    0 -0.19644172815E+01 -0.86156044610E+00  0.52569984868E+01  0.59493683487E+01  0.17770000000E+01 0.  1.
         15    1    1    2    0    0  0.24554285434E+01 -0.33524321869E+01  0.39702147810E+02  0.39958556038E+02  0.17770000000E+01 0. -1.
</event>
<event>
 6    1  0.1045352E-002  0.1834184E+03  0.7546771E-02  0.1067726E+00
        -11   -1    0    0    0    0  0.00000000000E+00  0.00000000000E+00  0.18250000000E+03  0.18250000000E+03  0.00000000000E+00 0. -1.
         11   -1    0    0    0    0 -0.00000000000E+00 -0.00000000000E+00 -0.18250000000E+03  0.18250000000E+03  0.00000000000E+00 0. -1.
        -11    1    1    2    0    0 -0.23793352486E+01  0.18556069943E+01  0.82660182457E+02  0.82715236065E+02  0.00000000000E+00 0. -1.
         11    1    1    2    0    0  0.98204524920E+01  0.57927408700E+01 -0.18122328279E+03  0.18158159422E+03  0.00000000000E+00 0. -1.
        -15    1    1    2    0    0 -0.10454737604E+02 -0.35267787260E+01  0.31522838913E+02  0.33445280813E+02  0.17770000000E+01 0. -1.
         15    1    1    2    0    0  0.30136203607E+01 -0.41215691383E+01  0.67040261418E+02  0.67257888904E+02  0.17770000000E+01 0. -1.
</event>
<event>
 6    1  0.1045352E-002  0.1855661E+03  0.7546771E-02  0.1066040E+00
        -11   -1    0    0    0    0  0.00000000000E+00  0.00000000000E+00  0.18250000000E+03  0.18250000000E+03  0.00000000000E+00 0.  1.
         11   -1    0    0    0    0 -0.00000000000E+00 -0.00000000000E+00 -0.18250000000E+03  0.18250000000E+03  0.00000000000E+00 0. -1.
        -11    1    1    2    0    0 -0.26761950127E+01  0.19965630119E+01  0.17940287543E+03  0.17943394327E+03  0.00000000000E+00 0.  1.
         11    1    1    2    0    0 -0.41055926887E+01 -0.45629713432E+00 -0.16308739470E+03  0.16313970212E+03  0.00000000000E+00 0. -1.
        -15    1    1    2    0    0  0.45485186411E+01 -0.57840626655E+01 -0.29649004846E+01  0.81297457913E+01  0.17770000000E+01 0. -1.
         15    1    1    2    0    0  0.22332690604E+01  0.42437967880E+01 -0.13350580248E+02  0.14296608823E+02  0.17770000000E+01 0.  1.
</event>
<event>
 6    1  0.1045352E-002  0.1879096E+03  0.7546771E-02  0.1064228E+00
        -11   -1    0    0    0    0  0.00000000000E+00  0.00000000000E+00  0.18250000000E+03  0.18250000000E+03  0.00000000000E+00 0. -1.
         11   -1    0    0    0    0 -0.00000000000E+00 -0.00000000000E+00 -0.18250000000E+03  0.18250000000E+03  0.00000000000E+00 0.  1.
        -11    1    1    2    0    0  0.21302544058E+01 -0.21548926635E+02  0.17576149930E+03  0.17709036919E+03  0.00000000000E+00 0. -1.
         11    1    1    2    0    0  0.15653964624E+01  0.24364223972E+01 -0.10663587306E+03  0.10667518945E+03  0.00000000000E+00 0.  1.
        -15    1    1    2    0    0  0.63622276164E+01  0.12636315253E+02 -0.37417934855E+01  0.14741545065E+02  0.17770000000E+01 0. -1.
         15    1    1    2    0    0 -0.10057878485E+02  0.64761889852E+01 -0.65383832755E+02  0.66492896298E+02  0.17770000000E+01 0.  1.
</event>
<event>
 6    1  0.1045352E-002  0.1909331E+03  0.7546771E-02  0.1061933E+00
        -11   -1    0    0    0    0  0.00000000000E+00  0.00000000000E+00  0.18250000000E+03  0.18250000000E+03  0.00000000000E+00 0.  1.
         11   -1    0    0    0    0 -0.00000000000E+00 -0.00000000000E+00 -0.18250000000E+03  0.18250000000E+03  0.00000000000E+00 0.  1.
        -11    1    1    2    0    0  0.11919118203E+02 -0.20723101329E+01  0.14307434100E+03  0.14358491181E+03  0.00000000000E+00 0.  1.
         11    1    1    2    0    0  0.20866520366E+01  0.13089465827E+01 -0.17404945545E+03  0.17406688485E+03  0.00000000000E+00 0.  1.
        -15    1    1    2    0    0 -0.24373836464E+01  0.67533712203E+01 -0.50785020170E+01  0.89720551500E+01  0.17770000000E+01 0. -1.
         15    1    1    2    0    0 -0.11568386593E+02 -0.59900076701E+01  0.36053616469E+02  0.38376148188E+02  0.17770000000E+01 0.  1.
</event>
<event>
 6    1  0.1045352E-002  0.1903466E+03  0.7546771E-02  0.1062375E+00
        -11   -1    0    0    0    0  0.00000000000E+00  0.00000000000E+00  0.18250000000E+03  0.18250000000E+03  0.00000000000E+00 0.  1.
         11   -1    0    0    0    0 -0.00000000000E+00 -0.00000000000E+00 -0.18250000000E+03  0.18250000000E+03  0.00000000000E+00 0. -1.
        -11    1    1    2    0    0 -0.59196324973E+01 -0.13727859999E+01  0.17454765558E+03  0.17465340151E+03  0.00000000000E+00 0.  1.
         11    1    1    2    0    0  0.40968949169E+01 -0.40087968578E+00 -0.13363141058E+03  0.13369479850E+03  0.00000000000E+00 0. -1.
        -15    1    1    2    0    0  0.10356478939E+02  0.24123425540E+01  0.35377211907E+01  0.11346772794E+02  0.17770000000E+01 0.  1.
         15    1    1    2    0    0 -0.85337413589E+01 -0.63867686831E+00 -0.44453966191E+02  0.45305027192E+02  0.17770000000E+01 0.  1.
</event>
<event>
 6    1  0.1045352E-002  0.1762339E+03  0.7546771E-02  0.1073555E+00
        -11   -1    0    0    0    0  0.00000000000E+00  0.00000000000E+00  0.18250000000E+03  0.18250000000E+03  0.00000000000E+00 0.  1.
         11   -1    0    0    0    0 -0.00000000000E+00 -0.00000000000E+00 -0.18250000000E+03  0.18250000000E+03  0.00000000000E+00 0. -1.
        -11    1    1    2    0    0 -0.36457414169E+01 -0.61348402638E-01  0.17436977317E+03  0.17440789257E+03  0.00000000000E+00 0.  1.
         11    1    1    2    0    0 -0.23921764536E+01  0.42320827766E+01 -0.17808953159E+03  0.17815587078E+03  0.00000000000E+00 0. -1.
        -15    1    1    2    0    0  0.81267838006E+01 -0.35741529874E+01  0.26677550558E+01  0.94389528316E+01  0.17770000000E+01 0.  1.
         15    1    1    2    0    0 -0.20888659301E+01 -0.59658138652E+00  0.10520033578E+01  0.29972838187E+01  0.17770000000E+01 0. -1.
</event>
<event>
 6    1  0.1045352E-002  0.1893234E+03  0.7546771E-02  0.1063150E+00
        -11   -1    0    0    0    0  0.00000000000E+00  0.00000000000E+00  0.18250000000E+03  0.18250000000E+03  0.00000000000E+00 0.  1.
         11   -1    0    0    0    0 -0.00000000000E+00 -0.00000000000E+00 -0.18250000000E+03  0.18250000000E+03  0.00000000000E+00 0. -1.
        -11    1    1    2    0    0  0.53741519984E+01 -0.30457098080E+01  0.16642624287E+03  0.16654084236E+03  0.00000000000E+00 0.  1.
         11    1    1    2    0    0 -0.13862096102E+02  0.40669673330E+01 -0.17508163233E+03  0.17567662312E+03  0.00000000000E+00 0. -1.
        -15    1    1    2    0    0  0.40689135802E+01  0.34706618508E+01 -0.50669074596E+01  0.75784451974E+01  0.17770000000E+01 0.  1.
         15    1    1    2    0    0  0.44190305232E+01 -0.44919193758E+01  0.13722296923E+02  0.15204089328E+02  0.17770000000E+01 0. -1.
</event>
<event>
 6    1  0.1045352E-002  0.1845189E+03  0.7546771E-02  0.1066859E+00
        -11   -1    0    0    0    0  0.00000000000E+00  0.00000000000E+00  0.18250000000E+03  0.18250000000E+03  0.00000000000E+00 0.  1.
         11   -1    0    0    0    0 -0.00000000000E+00 -0.00000000000E+00 -0.18250000000E+03  0.18250000000E+03  0.00000000000E+00 0. -1.
        -11    1    1    2    0    0  0.31592407708E+01 -0.58057919267E+01  0.14548367865E+03  0.14563374875E+03  0.00000000000E+00 0.  1.
         11    1    1    2    0    0  0.17742026736E+01  0.47452062053E+01 -0.18040996146E+03  0.18048107649E+03  0.00000000000E+00 0. -1.
        -15    1    1    2    0    0 -0.79962275515E+01  0.63308892104E+01  0.25484590840E+02  0.27507124759E+02  0.17770000000E+01 0.  1.
         15    1    1    2    0    0  0.30627841072E+01 -0.52703034890E+01  0.94416919761E+01  0.11378049997E+02  0.17770000000E+01 0. -1.
</event>
<event>
 6    1  0.1045352E-002  0.1877340E+03  0.7546771E-02  0.1064363E+00
        -11   -1    0    0    0    0  0.00000000000E+00  0.00000000000E+00  0.18250000000E+03  0.18250000000E+03  0.00000000000E+00 0. -1.
         11   -1    0    0    0    0 -0.00000000000E+00 -0.00000000000E+00 -0.18250000000E+03  0.18250000000E+03  0.00000000000E+00 0. -1.
        -11    1    1    2    0    0  0.27007281983E+01  0.34365409756E+01  0.17721212271E+03  0.17726601530E+03  0.00000000000E+00 0. -1.
         11    1    1    2    0    0  0.14757585262E+01 -0.21041982448E+01 -0.17372596267E+03  0.17374497293E+03  0.00000000000E+00 0. -1.
        -15    1    1    2    0    0  0.45559854327E+00  0.30579853596E+01 -0.59367429066E+01  0.69254234405E+01  0.17770000000E+01 0.  1.
         15    1    1    2    0    0 -0.46320852678E+01 -0.43903280903E+01  0.24505828644E+01  0.70635883263E+01  0.17770000000E+01 0. -1.
</event>
<event>
 6    1  0.1045352E-002  0.1828300E+03  0.7546771E-02  0.1068192E+00
        -11   -1    0    0    0    0  0.00000000000E+00  0.00000000000E+00  0.18250000000E+03  0.18250000000E+03  0.00000000000E+00 0.  1.
         11   -1    0    0    0    0 -0.00000000000E+00 -0.00000000000E+00 -0.18250000000E+03  0.18250000000E+03  0.00000000000E+00 0.  1.
        -11    1    1    2    0    0 -0.40578083469E+01 -0.44876768082E+01  0.18206952052E+03  0.18217001772E+03  0.00000000000E+00 0.  1.
         11    1    1    2    0    0 -0.18963885539E+00 -0.19411604040E+01 -0.94925415291E+02  0.94945450311E+02  0.00000000000E+00 0.  1.
        -15    1    1    2    0    0  0.33792167170E+01 -0.31512792820E+00 -0.19239128373E+02  0.19616834627E+02  0.17770000000E+01 0.  1.
         15    1    1    2    0    0  0.86823048528E+00  0.67439651404E+01 -0.67904976858E+02  0.68267697347E+02  0.17770000000E+01 0.  1.
</event>
<event>
 6    1  0.1045352E-002  0.1872960E+03  0.7546771E-02  0.1064700E+00
        -11   -1    0    0    0    0  0.00000000000E+00  0.00000000000E+00  0.18250000000E+03  0.18250000000E+03  0.00000000000E+00 0. -1.
         11   -1    0    0    0    0 -0.00000000000E+00 -0.00000000000E+00 -0.18250000000E+03  0.18250000000E+03  0.00000000000E+00 0.  1.
        -11    1    1    2    0    0 -0.13301046634E+01  0.39248175490E+00  0.89920796071E+02  0.89931489404E+02  0.00000000000E+00 0. -1.
         11    1    1    2    0    0  0.55251011519E+00  0.38216474441E+01 -0.17766208397E+03  0.17770404142E+03  0.00000000000E+00 0.  1.
        -15    1    1    2    0    0 -0.98294513332E+00 -0.22219556890E+01 -0.43103041318E+01  0.52573490399E+01  0.17770000000E+01 0.  1.
         15    1    1    2    0    0  0.17605396816E+01 -0.19921735101E+01  0.92051592031E+02  0.92107120135E+02  0.17770000000E+01 0. -1.
</event>
<event>
 6    1  0.1045352E-002  0.2039950E+03  0.7546771E-02  0.1052526E+00
        -11   -1    0    0    0    0  0.00000000000E+00  0.00000000000E+00  0.18250000000E+03  0.18250000000E+03  0.00000000000E+00 0. -1.
         11   -1    0    0    0    0 -0.00000000000E+00 -0.00000000000E+00 -0.18250000000E+03  0.18250000000E+03  0.00000000000E+00 0. -1.
        -11    1    1    2    0    0 -0.93804724425E+00  0.42928427495E+01  0.16094500092E+03  0.16100497431E+03  0.00000000000E+00 0. -1.
         11    1    1    2    0    0  0.24339463701E+01 -0.22698036272E+01 -0.15398751795E+03  0.15402347804E+03  0.00000000000E+00 0. -1.
        -15    1    1    2    0    0 -0.37556764781E+01  0.85680463010E+00 -0.28111461654E+02  0.28429759502E+02  0.17770000000E+01 0. -1.
         15    1    1    2    0    0  0.22597773522E+01 -0.28798437524E+01  0.21153978680E+02  0.21541788150E+02  0.17770000000E+01 0.  1.
</event>
<event>
 6    1  0.1045352E-002  0.1826953E+03  0.7546771E-02  0.1068299E+00
        -11   -1    0    0    0    0  0.00000000000E+00  0.00000000000E+00  0.18250000000E+03  0.18250000000E+03  0.00000000000E+00 0.  1.
         11   -1    0    0    0    0 -0.00000000000E+00 -0.00000000000E+00 -0.18250000000E+03  0.18250000000E+03  0.00000000000E+00 0. -1.
        -11    1    1    2    0    0 -0.32839229880E+01  0.41782969689E+01  0.18222725173E+03  0.18230472728E+03  0.00000000000E+00 0.  1.
         11    1    1    2    0    0 -0.46891197710E+00 -0.16457360251E+01 -0.95359836870E+02  0.95375189716E+02  0.00000000000E+00 0. -1.
        -15    1    1    2    0    0  0.36713902759E+01 -0.45894773188E+01 -0.62845518577E+02  0.63144749131E+02  0.17770000000E+01 0. -1.
         15    1    1    2    0    0  0.81444689236E-01  0.20569163749E+01 -0.24021896279E+02  0.24175333877E+02  0.17770000000E+01 0. -1.
</event>
<event>
 6    1  0.1045352E-002  0.1938915E+03  0.7546771E-02  0.1059732E+00
        -11   -1    0    0    0    0  0.00000000000E+00  0.00000000000E+00  0.18250000000E+03  0.18250000000E+03  0.00000000000E+00 0.  1.
         11   -1    0    0    0    0 -0.00000000000E+00 -0.00000000000E+00 -0.18250000000E+03  0.18250000000E+03  0.00000000000E+00 0. -1.
        -11    1    1    2    0    0 -0.49674459667E+01  0.38357334694E+01  0.17099332810E+03  0.17110846450E+03  0.00000000000E+00 0.  1.
         11    1    1    2    0    0 -0.11588295545E+01  0.13700459947E+01 -0.13273879261E+03  0.13275092081E+03  0.00000000000E+00 0. -1.
        -15    1    1    2    0    0 -0.49965264494E+01 -0.68281920804E+01  0.90325911824E+01  0.12503396183E+02  0.17770000000E+01 0.  1.
         15    1    1    2    0    0  0.11122801971E+02  0.16224126162E+01 -0.47287126668E+02  0.48637218505E+02  0.17770000000E+01 0. -1.
</event>
<event>
 6    1  0.1045352E-002  0.1868463E+03  0.7546771E-02  0.1065047E+00
        -11   -1    0    0    0    0  0.00000000000E+00  0.00000000000E+00  0.18250000000E+03  0.18250000000E+03  0.00000000000E+00 0.  1.
         11   -1    0    0    0    0 -0.00000000000E+00 -0.00000000000E+00 -0.18250000000E+03  0.18250000000E+03  0.00000000000E+00 0.  1.
        -11    1    1    2    0    0 -0.59135726719E+01 -0.31664988746E+01  0.14619316173E+03  0.14634697672E+03  0.00000000000E+00 0.  1.
         11    1    1    2    0    0  0.25577475393E+01 -0.98844363775E+01 -0.17786086420E+03  0.17815367290E+03  0.00000000000E+00 0.  1.
        -15    1    1    2    0    0  0.60428302155E+01  0.89492504646E+01  0.33285759622E+02  0.35038613036E+02  0.17770000000E+01 0.  1.
         15    1    1    2    0    0 -0.26870050829E+01  0.41016847875E+01 -0.16180571572E+01  0.54607373473E+01  0.17770000000E+01 0. -1.
</event>
<event>
 6    1  0.1045352E-002  0.1833639E+03  0.7546771E-02  0.1067769E+00
        -11   -1    0    0    0    0  0.00000000000E+00  0.00000000000E+00  0.18250000000E+03  0.18250000000E+03  0.00000000000E+00 0.  1.
         11   -1    0    0    0    0 -0.00000000000E+00 -0.00000000000E+00 -0.18250000000E+03  0.18250000000E+03  0.00000000000E+00 0. -1.
        -11    1    1    2    0    0  0.13139361600E+01  0.18427557863E+01  0.93737187215E+02  0.93764505247E+02  0.00000000000E+00 0.  1.
         11    1    1    2    0    0  0.28927913055E+01  0.10709984052E+01 -0.18160990535E+03  0.18163610049E+03  0.00000000000E+00 0. -1.
        -15    1    1    2    0    0 -0.37272758312E+01 -0.19935435112E+01  0.53294234252E+01  0.70304540321E+01  0.17770000000E+01 0. -1.
         15    1    1    2    0    0 -0.47945163422E+00 -0.92021068035E+00  0.82543294707E+02  0.82568940236E+02  0.17770000000E+01 0. -1.
</event>
<event>
 6    1  0.1045352E-002  0.1834183E+03  0.7546771E-02  0.1067726E+00
        -11   -1    0    0    0    0  0.00000000000E+00  0.00000000000E+00  0.18250000000E+03  0.18250000000E+03  0.00000000000E+00 0. -1.
         11   -1    0    0    0    0 -0.00000000000E+00 -0.00000000000E+00 -0.18250000000E+03  0.18250000000E+03  0.00000000000E+00 0. -1.
        -11    1    1    2    0    0  0.20875562891E+01 -0.25715773704E+01  0.18155146757E+03  0.18158167935E+03  0.00000000000E+00 0. -1.
         11    1    1    2    0    0 -0.54251168491E+00 -0.24421965916E+01 -0.16299481808E+03  0.16301401585E+03  0.00000000000E+00 0. -1.
        -15    1    1    2    0    0  0.42451794217E+00  0.22649917535E+01 -0.23122962388E+01  0.37168327945E+01  0.17770000000E+01 0.  1.
         15    1    1    2    0    0 -0.19695625464E+01  0.27487822084E+01 -0.16244353247E+02  0.16687471998E+02  0.17770000000E+01 0. -1.
</event>
<event>
 6    1  0.1045352E-002  0.1886363E+03  0.7546771E-02  0.1063673E+00
        -11   -1    0    0    0    0  0.00000000000E+00  0.00000000000E+00  0.18250000000E+03  0.18250000000E+03  0.00000000000E+00 0.  1.
         11   -1    0    0    0    0 -0.00000000000E+00 -0.00000000000E+00 -0.18250000000E+03  0.18250000000E+03  0.00000000000E+00 0. -1.
        -11    1    1    2    0    0 -0.60739884027E+01  0.66195364280E+01  0.17613471515E+03  0.17636368526E+03  0.00000000000E+00 0.  1.
         11    1    1    2    0    0 -0.22780343493E+01  0.16112665536E+01 -0.15583600774E+03  0.15586098591E+03  0.00000000000E+00 0. -1.
        -15    1    1    2    0    0  0.21989927971E+01 -0.19590381383E+01  0.49244002340E+01  0.60067334229E+01  0.17770000000E+01 0. -1.
         15    1    1    2    0    0  0.61530299549E+01 -0.62717648432E+01 -0.25223107643E+02  0.26768595407E+02  0.17770000000E+01 0.  1.
</event>
<event>
 6    1  0.1045352E-002  0.1832468E+03  0.7546771E-02  0.1067862E+00
        -11   -1    0    0    0    0  0.00000000000E+00  0.00000000000E+00  0.18250000000E+03  0.18250000000E+03  0.00000000000E+00 0.  1.
         11   -1    0    0    0    0 -0.00000000000E+00 -0.00000000000E+00 -0.18250000000E+03  0.18250000000E+03  0.00000000000E+00 0. -1.
        -11    1    1    2    0    0  0.20698333405E+01 -0.86236543328E+00  0.75629803021E+02  0.75663035818E+02  0.00000000000E+00 0.  1.
         11    1    1    2    0    0  0.74279503354E+01 -0.13202836695E+02 -0.18112078066E+03  0.18175320226E+03  0.00000000000E+00 0. -1.
        -15    1    1    2    0    0 -0.39165413813E+01  0.10122401325E+02  0.33764206774E+02  0.35510304041E+02  0.17770000000E+01 0. -1.
         15    1    1    2    0    0 -0.55812422946E+01  0.39428008028E+01  0.71726770866E+02  0.72073457885E+02  0.17770000000E+01 0.  1.
</event>
<event>
 6    1  0.1045352E-002  0.1718896E+03  0.7546771E-02  0.1077229E+00
        -11   -1    0    0    0    0  0.00000000000E+00  0.00000000000E+00  0.18250000000E+03  0.18250000000E+03  0.00000000000E+00 0. -1.
         11   -1    0    0    0    0 -0.00000000000E+00 -0.00000000000E+00 -0.18250000000E+03  0.18250000000E+03  0.00000000000E+00 0.  1.
        -11    1    1    2    0    0  0.53118996509E+01 -0.33510455204E+01  0.17214625255E+03  0.17226078501E+03  0.00000000000E+00 0. -1.
         11    1    1    2    0    0  0.24782485063E+01 -0.75182807745E+00 -0.17161207461E+03  0.17163161455E+03  0.00000000000E+00 0.  1.
        -15    1    1    2    0    0  0.37169872401E+01  0.75810684259E+01  0.15840264862E+01  0.87724262054E+01  0.17770000000E+01 0. -1.
         15    1    1    2    0    0 -0.11507135397E+02 -0.34781948280E+01 -0.21182044261E+01  0.12335174231E+02  0.17770000000E+01 0.  1.
</event>
<event>
 6    1  0.1045352E-002  0.1829647E+03  0.7546771E-02  0.1068086E+00
        -11   -1    0    0    0    0  0.00000000000E+00  0.00000000000E+00  0.18250000000E+03  0.18250000000E+03  0.00000000000E+00 0.  1.
         11   -1    0    0    0    0 -0.00000000000E+00 -0.00000000000E+00 -0.18250000000E+03  0.18250000000E+03  0.00000000000E+00 0. -1.
        -11    1    1    2    0    0  0.18664169107E+00 -0.18721928063E+01  0.12305730171E+03  0.12307168417E+03  0.00000000000E+00 0.  1.
         11    1    1    2    0    0  0.63393490021E+01 -0.10641620559E+01 -0.18192181010E+03  0.18203533936E+03  0.00000000000E+00 0. -1.
        -15    1    1    2    0    0 -0.25916041070E+01  0.23306082826E+01  0.48384915754E+02  0.48542825921E+02  0.17770000000E+01 0.  1.
         15    1    1    2    0    0 -0.39343865862E+01  0.60574657956E+00  0.10479592637E+02  0.11350150552E+02  0.17770000000E+01 0. -1.
</event>
<event>
 6    1  0.1045352E-002  0.1839745E+03  0.7546771E-02  0.1067287E+00
        -11   -1    0    0    0    0  0.00000000000E+00  0.00000000000E+00  0.18250000000E+03  0.18250000000E+03  0.00000000000E+00 0. -1.
         11   -1    0    0    0    0 -0.00000000000E+00 -0.00000000000E+00 -0.18250000000E+03  0.18250000000E+03  0.00000000000E+00 0. -1.
        -11    1    1    2    0    0 -0.77918369833E+00 -0.32938507138E+01  0.18099385332E+03  0.18102549964E+03  0.00000000000E+00 0. -1.
         11    1    1    2    0    0  0.13396539387E+01 -0.16884567669E+01 -0.15264296002E+03  0.15265817634E+03  0.00000000000E+00 0. -1.
        -15    1    1    2    0    0 -0.40476128772E+01  0.20405010461E+01 -0.35214697205E+01  0.60087679698E+01  0.17770000000E+01 0.  1.
         15    1    1    2    0    0  0.34871426369E+01  0.29418064347E+01 -0.24829423584E+02  0.25307556053E+02  0.17770000000E+01 0. -1.
</event>
<event>
 6    1  0.1045352E-002  0.1838358E+03  0.7546771E-02  0.1067396E+00
        -11   -1    0    0    0    0  0.00000000000E+00  0.00000000000E+00  0.18250000000E+03  0.18250000000E+03  0.00000000000E+00 0. -1.
         11   -1    0    0    0    0 -0.00000000000E+00 -0.00000000000E+00 -0.18250000000E+03  0.18250000000E+03  0.00000000000E+00 0.  1.
        -11    1    1    2    0    0  0.90938948312E+01  0.99970667896E+00  0.18093302537E+03  0.18116417418E+03  0.00000000000E+00 0. -1.
         11    1    1    2    0    0 -0.16465720954E+01  0.13460221783E+01 -0.12759230708E+03  0.12761003018E+03  0.00000000000E+00 0.  1.
        -15    1    1    2    0    0 -0.43998211696E+01 -0.87697115380E+01 -0.36939247078E+02  0.38261363939E+02  0.17770000000E+01 0.  1.
         15    1    1    2    0    0 -0.30475015663E+01  0.64239826807E+01 -0.16401471215E+02  0.17964431700E+02  0.17770000000E+01 0. -1.
</event>
<event>
 6    1  0.1045352E-002  0.1729618E+03  0.7546771E-02  0.1076311E+00
        -11   -1    0    0    0    0  0.00000000000E+00  0.00000000000E+00  0.18250000000E+03  0.18250000000E+03  0.00000000000E+00 0.  1.
         11   -1    0    0    0    0 -0.00000000000E+00 -0.00000000000E+00 -0.18250000000E+03  0.18250000000E+03  0.00000000000E+00 0.  1.
        -11    1    1    2    0    0  0.35133079922E+01 -0.51710232940E+01  0.17650836965E+03  0.17661904589E+03  0.00000000000E+00 0.  1.
         11    1    1    2    0    0  0.81830989168E+01 -0.16497434850E+01 -0.16943610730E+03  0.16964161994E+03  0.00000000000E+00 0.  1.
        -15    1    1    2    0    0 -0.34862891786E+01 -0.16002654208E+01 -0.51947562996E+01  0.66976326912E+01  0.17770000000E+01 0.  1.
         15    1    1    2    0    0 -0.82101177304E+01  0.84210321998E+01 -0.18775060526E+01  0.12041701476E+02  0.17770000000E+01 0. -1.
</event>
<event>
 6    1  0.1045352E-002  0.1868013E+03  0.7546771E-02  0.1065082E+00
        -11   -1    0    0    0    0  0.00000000000E+00  0.00000000000E+00  0.18250000000E+03  0.18250000000E+03  0.00000000000E+00 0.  1.
         11   -1    0    0    0    0 -0.00000000000E+00 -0.00000000000E+00 -0.18250000000E+03  0.18250000000E+03  0.00000000000E+00 0. -1.
        -11    1    1    2    0    0  0.22001808908E+01  0.29976955324E+01  0.17815988916E+03  0.17819868990E+03  0.00000000000E+00 0.  1.
         11    1    1    2    0    0 -0.53285797231E+01 -0.43966321105E+00 -0.14118039875E+03  0.14128160552E+03  0.00000000000E+00 0. -1.
        -15    1    1    2    0    0  0.90859823428E+01 -0.45594071508E+01 -0.27601553455E+01  0.10682670791E+02  0.17770000000E+01 0.  1.
         15    1    1    2    0    0 -0.59575835105E+01  0.20013748295E+01 -0.34219335064E+02  0.34837033796E+02  0.17770000000E+01 0. -1.
</event>
<event>
 6    1  0.1045352E-002  0.1845089E+03  0.7546771E-02  0.1066867E+00
        -11   -1    0    0    0    0  0.00000000000E+00  0.00000000000E+00  0.18250000000E+03  0.18250000000E+03  0.00000000000E+00 0. -1.
         11   -1    0    0    0    0 -0.00000000000E+00 -0.00000000000E+00 -0.18250000000E+03  0.18250000000E+03  0.00000000000E+00 0. -1.
        -11    1    1    2    0    0  0.33888878557E+01 -0.63922653402E+00  0.18045815489E+03  0.18049110459E+03  0.00000000000E+00 0. -1.
         11    1    1    2    0    0  0.37653315776E+01 -0.27978235137E+01 -0.15640262241E+03  0.15647295560E+03  0.00000000000E+00 0. -1.
        -15    1    1    2    0    0 -0.76737187151E+01  0.42429978722E+01 -0.84701962281E+01  0.12320346708E+02  0.17770000000E+01 0. -1.
         15    1    1    2    0    0  0.51949928177E+00 -0.80594782449E+00 -0.15585336248E+02  0.15715593096E+02  0.17770000000E+01 0.  1.
</event>
<event>
 6    1  0.1045352E-002  0.1841952E+03  0.7546771E-02  0.1067113E+00
        -11   -1    0    0    0    0  0.00000000000E+00  0.00000000000E+00  0.18250000000E+03  0.18250000000E+03  0.00000000000E+00 0. -1.
         11   -1    0    0    0    0 -0.00000000000E+00 -0.00000000000E+00 -0.18250000000E+03  0.18250000000E+03  0.00000000000E+00 0.  1.
        -11    1    1    2    0    0 -0.84266101116E+00  0.25067728305E+01  0.17382806782E+03  0.17384818420E+03  0.00000000000E+00 0. -1.
         11    1    1    2    0    0  0.56362217569E+01 -0.52862995215E+00 -0.18071614397E+03  0.18080478737E+03  0.00000000000E+00 0.  1.
        -15    1    1    2    0    0  0.96489619958E-01 -0.17734044261E+01  0.23467758248E+01  0.34379295044E+01  0.17770000000E+01 0. -1.
         15    1    1    2    0    0 -0.48900503657E+01 -0.20473845222E+00  0.45413003244E+01  0.69090989318E+01  0.17770000000E+01 0.  1.
</event>
<event>
 6    1  0.1045352E-002  0.1828794E+03  0.7546771E-02  0.1068153E+00
        -11   -1    0    0    0    0  0.00000000000E+00  0.00000000000E+00  0.18250000000E+03  0.18250000000E+03  0.00000000000E+00 0. -1.
         11   -1    0    0    0    0 -0.00000000000E+00 -0.00000000000E+00 -0.18250000000E+03  0.18250000000E+03  0.00000000000E+00 0.  1.
        -11    1    1    2    0    0  0.98038295136E+00 -0.35050986941E+01  0.61129576917E+02  0.61237831784E+02  0.00000000000E+00 0. -1.
         11    1    1    2    0    0 -0.63432055439E+01  0.27416270443E+00 -0.18200988693E+03  0.18212059291E+03  0.00000000000E+00 0.  1.
        -15    1    1    2    0    0  0.65473027803E+01  0.65864799675E+00  0.32943677379E+02  0.33641411967E+02  0.17770000000E+01 0. -1.
         15    1    1    2    0    0 -0.11844801877E+01  0.25722879929E+01  0.87936632636E+02  0.88000163336E+02  0.17770000000E+01 0. -1.
</event>
<event>
 6    1  0.1045352E-002  0.1825918E+03  0.7546771E-02  0.1068382E+00
        -11   -1    0    0    0    0  0.00000000000E+00  0.00000000000E+00  0.18250000000E+03  0.18250000000E+03  0.00000000000E+00 0. -1.
         11   -1    0    0    0    0 -0.00000000000E+00 -0.00000000000E+00 -0.18250000000E+03  0.18250000000E+03  0.00000000000E+00 0.  1.
        -11    1    1    2    0    0 -0.40809506155E+01 -0.49103122629E-01  0.18236251324E+03  0.18240817637E+03  0.00000000000E+00 0. -1.
         11    1    1    2    0    0  0.68132418545E-01  0.17675218705E+01 -0.64602603924E+02  0.64626814940E+02  0.00000000000E+00 0.  1.
        -15    1    1    2    0    0  0.10941878904E+01 -0.26201159890E+01 -0.49014167265E+02  0.49128490478E+02  0.17770000000E+01 0. -1.
         15    1    1    2    0    0  0.29186303065E+01  0.90169724111E+00 -0.68745742053E+02  0.68836518217E+02  0.17770000000E+01 0.  1.
</event>
<event>
 6    1  0.1045352E-002  0.9466784E+02  0.7546771E-02  0.1173374E+00
        -11   -1    0    0    0    0  0.00000000000E+00  0.00000000000E+00  0.18250000000E+03  0.18250000000E+03  0.00000000000E+00 0.  1.
         11   -1    0    0    0    0 -0.00000000000E+00 -0.00000000000E+00 -0.18250000000E+03  0.18250000000E+03  0.00000000000E+00 0. -1.
        -11    1    1    2    0    0  0.63745015727E+01  0.18075226776E+01  0.10393491219E+03  0.10414589469E+03  0.00000000000E+00 0.  1.
         11    1    1    2    0    0 -0.49983217919E+02  0.16515734792E+02 -0.11594125506E+03  0.12733210983E+03  0.00000000000E+00 0. -1.
        -15    1    1    2    0    0  0.21153738973E+02 -0.49095926018E+02  0.54542650183E+02  0.76393383497E+02  0.17770000000E+01 0.  1.
         15    1    1    2    0    0  0.22454977373E+02  0.30772668549E+02 -0.42536307311E+02  0.57128611983E+02  0.17770000000E+01 0. -1.
</event>
<event>
 6    1  0.1045352E-002  0.1860610E+03  0.7546771E-02  0.1065655E+00
        -11   -1    0    0    0    0  0.00000000000E+00  0.00000000000E+00  0.18250000000E+03  0.18250000000E+03  0.00000000000E+00 0. -1.
         11   -1    0    0    0    0 -0.00000000000E+00 -0.00000000000E+00 -0.18250000000E+03  0.18250000000E+03  0.00000000000E+00 0. -1.
        -11    1    1    2    0    0 -0.18242181933E+01 -0.28267535955E+01  0.17890732926E+03  0.17893895823E+03  0.00000000000E+00 0. -1.
         11    1    1    2    0    0  0.51011192057E+01 -0.90209318873E+00 -0.14105700389E+03  0.14115209363E+03  0.00000000000E+00 0. -1.
        -15    1    1    2    0    0  0.27068669127E+01  0.12128394181E+02 -0.13660119556E+02  0.18552133817E+02  0.17770000000E+01 0. -1.
         15    1    1    2    0    0 -0.59837679251E+01 -0.83995473964E+01 -0.24190205814E+02  0.26356814325E+02  0.17770000000E+01 0.  1.
</event>
<event>
 6    1  0.1045352E-002  0.1831337E+03  0.7546771E-02  0.1067951E+00
        -11   -1    0    0    0    0  0.00000000000E+00  0.00000000000E+00  0.18250000000E+03  0.18250000000E+03  0.00000000000E+00 0. -1.
         11   -1    0    0    0    0 -0.00000000000E+00 -0.00000000000E+00 -0.18250000000E+03  0.18250000000E+03  0.00000000000E+00 0.  1.
        -11    1    1    2    0    0 -0.33308066296E+01 -0.16576107389E+01  0.12898503541E+03  0.12903868143E+03  0.00000000000E+00 0. -1.
         11    1    1    2    0    0 -0.21310393287E+01  0.71822959779E+01 -0.18171191032E+03  0.18186628345E+03  0.00000000000E+00 0.  1.
        -15    1    1    2    0    0  0.26730152207E+01 -0.13196505261E+01  0.51008611254E+01  0.61695219508E+01  0.17770000000E+01 0.  1.
         15    1    1    2    0    0  0.27888307376E+01 -0.42050347128E+01  0.47626013790E+02  0.47925513167E+02  0.17770000000E+01 0. -1.
</event>
<event>
 6    1  0.1045352E-002  0.1843391E+03  0.7546771E-02  0.1067000E+00
        -11   -1    0    0    0    0  0.00000000000E+00  0.00000000000E+00  0.18250000000E+03  0.18250000000E+03  0.00000000000E+00 0.  1.
         11   -1    0    0    0    0 -0.00000000000E+00 -0.00000000000E+00 -0.18250000000E+03  0.18250000000E+03  0.00000000000E+00 0. -1.
        -11    1    1    2    0    0 -0.13234772964E+01  0.29039917041E+01  0.12620141622E+03  0.12624176098E+03  0.00000000000E+00 0.  1.
         11    1    1    2    0    0 -0.67610890683E+01  0.17365810076E+01 -0.18052596295E+03  0.18066087384E+03  0.00000000000E+00 0. -1.
        -15    1    1    2    0    0  0.87035083307E+01 -0.25758304642E+01  0.54518127512E+02  0.55297105858E+02  0.17770000000E+01 0.  1.
         15    1    1    2    0    0 -0.61894196602E+00 -0.20647422475E+01 -0.19358078411E+00  0.28002593140E+01  0.17770000000E+01 0. -1.
</event>
<event>
 6    1  0.1045352E-002  0.1861682E+03  0.7546771E-02  0.1065572E+00
        -11   -1    0    0    0    0  0.00000000000E+00  0.00000000000E+00  0.18250000000E+03  0.18250000000E+03  0.00000000000E+00 0.  1.
         11   -1    0    0    0    0 -0.00000000000E+00 -0.00000000000E+00 -0.18250000000E+03  0.18250000000E+03  0.00000000000E+00 0. -1.
        -11    1    1    2    0    0  0.46293509311E+01 -0.28661133813E+01  0.17874891351E+03  0.17883181925E+03  0.00000000000E+00 0.  1.
         11    1    1    2    0    0 -0.26586488330E+01 -0.35385547093E+00 -0.15563200334E+03  0.15565511264E+03  0.00000000000E+00 0. -1.
        -15    1    1    2    0    0 -0.10223857087E+01  0.10994259085E+02 -0.17286549563E+02  0.20588869084E+02  0.17770000000E+01 0. -1.
         15    1    1    2    0    0 -0.94831638938E+00 -0.77742902327E+01 -0.58303605990E+01  0.99241990262E+01  0.17770000000E+01 0.  1.
</event>
<event>
 6    1  0.1045352E-002  0.1845299E+03  0.7546771E-02  0.1066850E+00
        -11   -1    0    0    0    0  0.00000000000E+00  0.00000000000E+00  0.18250000000E+03  0.18250000000E+03  0.00000000000E+00 0.  1.
         11   -1    0    0    0    0 -0.00000000000E+00 -0.00000000000E+00 -0.18250000000E+03  0.18250000000E+03  0.00000000000E+00 0.  1.
        -11    1    1    2    0    0  0.55240336673E+01 -0.26855179854E+01  0.14666002417E+03  0.14678858827E+03  0.00000000000E+00 0.  1.
         11    1    1    2    0    0  0.11770904174E+01 -0.29632939740E+01 -0.18044191579E+03  0.18047008513E+03  0.00000000000E+00 0.  1.
        -15    1    1    2    0    0 -0.78073847206E+01  0.16057267559E+01  0.31700141480E+02  0.32735154093E+02  0.17770000000E+01 0. -1.
         15    1    1    2    0    0  0.11062606359E+01  0.40430852035E+01  0.20817501393E+01  0.50061725100E+01  0.17770000000E+01 0.  1.
</event>
<event>
 6    1  0.1045352E-002  0.1841092E+03  0.7546771E-02  0.1067181E+00
        -11   -1    0    0    0    0  0.00000000000E+00  0.00000000000E+00  0.18250000000E+03  0.18250000000E+03  0.00000000000E+00 0. -1.
         11   -1    0    0    0    0 -0.00000000000E+00 -0.00000000000E+00 -0.18250000000E+03  0.18250000000E+03  0.00000000000E+00 0. -1.
        -11    1    1    2    0    0 -0.22110369855E+01  0.86577601659E+00  0.13999327191E+03  0.14001340805E+03  0.00000000000E+00 0. -1.
         11    1    1    2    0    0 -0.47366746391E+01  0.47549522111E+00 -0.18082810581E+03  0.18089075718E+03  0.00000000000E+00 0. -1.
        -15    1    1    2    0    0 -0.15859740421E+00 -0.88016325553E+00  0.34026710521E+02  0.34084814777E+02  0.17770000000E+01 0. -1.
         15    1    1    2    0    0  0.71063090288E+01 -0.46110798217E+00  0.68081233734E+01  0.10011020001E+02  0.17770000000E+01 0. -1.
</event>
<event>
 6    1  0.1045352E-002  0.1930441E+03  0.7546771E-02  0.1060358E+00
        -11   -1    0    0    0    0  0.00000000000E+00  0.00000000000E+00  0.18250000000E+03  0.18250000000E+03  0.00000000000E+00 0. -1.
         11   -1    0    0    0    0 -0.00000000000E+00 -0.00000000000E+00 -0.18250000000E+03  0.18250000000E+03  0.00000000000E+00 0.  1.
        -11    1    1    2    0    0 -0.36170492567E+01 -0.27218047687E+01  0.15513870339E+03  0.15520473110E+03  0.00000000000E+00 0. -1.
         11    1    1    2    0    0 -0.33449000325E+01 -0.25390314224E+01 -0.17190456660E+03  0.17195585205E+03  0.00000000000E+00 0.  1.
        -15    1    1    2    0    0  0.65206405191E+01 -0.10579947701E+02  0.17887827508E+02  0.21853744487E+02  0.17770000000E+01 0. -1.
         15    1    1    2    0    0  0.44130877008E+00  0.15840783892E+02 -0.11219642981E+01  0.15985672354E+02  0.17770000000E+01 0.  1.
</event>
<event>
 6    1  0.1045352E-002  0.1839863E+03  0.7546771E-02  0.1067278E+00
        -11   -1    0    0    0    0  0.00000000000E+00  0.00000000000E+00  0.18250000000E+03  0.18250000000E+03  0.00000000000E+00 0. -1.
         11   -1    0    0    0    0 -0.00000000000E+00 -0.00000000000E+00 -0.18250000000E+03  0.18250000000E+03  0.00000000000E+00 0.  1.
        -11    1    1    2    0    0 -0.29794043069E+01 -0.16074832900E+01  0.17858656349E+03  0.17861864828E+03  0.00000000000E+00 0. -1.
         11    1    1    2    0    0  0.24697601558E+01  0.85658685131E+00 -0.18099485516E+03  0.18101373166E+03  0.00000000000E+00 0.  1.
        -15    1    1    2    0    0  0.86470648161E+00  0.67536893442E-02 -0.32709271467E+00  0.20031179585E+01  0.17770000000E+01 0. -1.
         15    1    1    2    0    0 -0.35506233045E+00  0.74414274935E+00  0.27353843793E+01  0.33645021017E+01  0.17770000000E+01 0. -1.
</event>
<event>
 6    1  0.1045352E-002  0.1836812E+03  0.7546771E-02  0.1067518E+00
        -11   -1    0    0    0    0  0.00000000000E+00  0.00000000000E+00  0.18250000000E+03  0.18250000000E+03  0.00000000000E+00 0.  1.
         11   -1    0    0    0    0 -0.00000000000E+00 -0.00000000000E+00 -0.18250000000E+03  0.18250000000E+03  0.00000000000E+00 0. -1.
        -11    1    1    2    0    0 -0.21628871044E+01  0.43039178651E+00  0.10508076070E+03  0.10510389901E+03  0.00000000000E+00 0.  1.
         11    1    1    2    0    0  0.58197915123E+01 -0.40914444840E+01 -0.18117914670E+03  0.18131876099E+03  0.00000000000E+00 0. -1.
        -15    1    1    2    0    0 -0.59371726087E+01  0.50153688608E+01  0.12045337431E+02  0.14444785433E+02  0.17770000000E+01 0.  1.
         15    1    1    2    0    0  0.22802682007E+01 -0.13543161633E+01  0.64053048565E+02  0.64132554563E+02  0.17770000000E+01 0.  1.
</event>
<event>
 6    1  0.1045352E-002  0.1947989E+03  0.7546771E-02  0.1059066E+00
        -11   -1    0    0    0    0  0.00000000000E+00  0.00000000000E+00  0.18250000000E+03  0.18250000000E+03  0.00000000000E+00 0. -1.
         11   -1    0    0    0    0 -0.00000000000E+00 -0.00000000000E+00 -0.18250000000E+03  0.18250000000E+03  0.00000000000E+00 0. -1.
        -11    1    1    2    0    0 -0.56540857089E+01  0.36710562361E+00  0.17010674911E+03  0.17020108562E+03  0.00000000000E+00 0. -1.
         11    1    1    2    0    0 -0.14242652177E+01 -0.40954866444E+01 -0.11377197117E+03  0.11385456937E+03  0.00000000000E+00 0. -1.
        -15    1    1    2    0    0 -0.10473513625E+01 -0.23604713633E+01  0.11710448528E+02  0.12122751489E+02  0.17770000000E+01 0.  1.
         15    1    1    2    0    0  0.81257022890E+01  0.60888523840E+01 -0.68045226467E+02  0.68821593522E+02  0.17770000000E+01 0. -1.
</event>
<event>
 6    1  0.1045352E-002  0.1895028E+03  0.7546771E-02  0.1063013E+00
        -11   -1    0    0    0    0  0.00000000000E+00  0.00000000000E+00  0.18250000000E+03  0.18250000000E+03  0.00000000000E+00 0.  1.
         11   -1    0    0    0    0 -0.00000000000E+00 -0.00000000000E+00 -0.18250000000E+03  0.18250000000E+03  0.00000000000E+00 0. -1.
        -11    1    1    2    0    0  0.60737910321E+01 -0.39332405191E-01  0.17539206335E+03  0.17549720332E+03  0.00000000000E+00 0.  1.
         11    1    1    2    0    0 -0.23419288193E+01 -0.22513120232E+01 -0.17147448856E+03  0.17150525724E+03  0.00000000000E+00 0. -1.
        -15    1    1    2    0    0 -0.72458020647E+01  0.12183794579E+01  0.43900380543E+01  0.87416393876E+01  0.17770000000E+01 0. -1.
         15    1    1    2    0    0  0.35139398518E+01  0.10722649705E+01 -0.83076128525E+01  0.92559000511E+01  0.17770000000E+01 0. -1.
</event>
<event>
 6    1  0.1045352E-002  0.1828776E+03  0.7546771E-02  0.1068155E+00
        -11   -1    0    0    0    0  0.00000000000E+00  0.00000000000E+00  0.18250000000E+03  0.18250000000E+03  0.00000000000E+00 0.  1.
         11   -1    0    0    0    0 -0.00000000000E+00 -0.00000000000E+00 -0.18250000000E+03  0.18250000000E+03  0.00000000000E+00 0. -1.
        -11    1    1    2    0    0 -0.21882612649E+01 -0.99975631475E+00  0.14908085112E+03  0.14910026214E+03  0.00000000000E+00 0.  1.
         11    1    1    2    0    0  0.79772898454E+00  0.26283298548E+01 -0.18210172011E+03  0.18212243397E+03  0.00000000000E+00 0. -1.
        -15    1    1    2    0    0 -0.23772994837E+00 -0.10837151819E+01  0.28875118116E+02  0.28951012579E+02  0.17770000000E+01 0.  1.
         15    1    1    2    0    0  0.16282622288E+01 -0.54485835819E+00  0.41457508718E+01  0.48262913098E+01  0.17770000000E+01 0. -1.
</event>
<event>
 6    1  0.1045352E-002  0.1829187E+03  0.7546771E-02  0.1068122E+00
        -11   -1    0    0    0    0  0.00000000000E+00  0.00000000000E+00  0.18250000000E+03  0.18250000000E+03  0.00000000000E+00 0. -1.
         11   -1    0    0    0    0 -0.00000000000E+00 -0.00000000000E+00 -0.18250000000E+03  0.18250000000E+03  0.00000000000E+00 0.  1.
        -11    1    1    2    0    0  0.32393833518E+01  0.37841801120E+01  0.18201319812E+03  0.18208134972E+03  0.00000000000E+00 0. -1.
         11    1    1    2    0    0 -0.43376274312E+01 -0.22415217323E+01 -0.15409996448E+03  0.15417729562E+03  0.00000000000E+00 0.  1.
        -15    1    1    2    0    0 -0.10157192512E+01 -0.76584197122E+00 -0.22579905905E+02  0.22685415562E+02  0.17770000000E+01 0. -1.
         15    1    1    2    0    0  0.21139633306E+01 -0.77681640852E+00 -0.53333277378E+01  0.60559391059E+01  0.17770000000E+01 0.  1.
</event>
<event>
 6    1  0.1045352E-002  0.1830564E+03  0.7546771E-02  0.1068013E+00
        -11   -1    0    0    0    0  0.00000000000E+00  0.00000000000E+00  0.18250000000E+03  0.18250000000E+03  0.00000000000E+00 0.  1.
         11   -1    0    0    0    0 -0.00000000000E+00 -0.00000000000E+00 -0.18250000000E+03  0.18250000000E+03  0.00000000000E+00 0. -1.
        -11    1    1    2    0    0  0.10773495882E+00  0.15496899004E+01  0.10180386459E+03  0.10181571584E+03  0.00000000000E+00 0.  1.
         11    1    1    2    0    0  0.48647991007E+01  0.98698218614E+00 -0.18187585664E+03  0.18194358366E+03  0.00000000000E+00 0. -1.
        -15    1    1    2    0    0 -0.29790618689E+01  0.72295974917E+00  0.72407924493E+02  0.72494570409E+02  0.17770000000E+01 0.  1.
         15    1    1    2    0    0 -0.19934721907E+01 -0.32596318357E+01  0.76640675571E+01  0.87461300927E+01  0.17770000000E+01 0. -1.
</event>
<event>
 6    1  0.1045352E-002  0.1859394E+03  0.7546771E-02  0.1065750E+00
        -11   -1    0    0    0    0  0.00000000000E+00  0.00000000000E+00  0.18250000000E+03  0.18250000000E+03  0.00000000000E+00 0.  1.
         11   -1    0    0    0    0 -0.00000000000E+00 -0.00000000000E+00 -0.18250000000E+03  0.18250000000E+03  0.00000000000E+00 0. -1.
        -11    1    1    2    0    0 -0.17616322164E+01  0.21198999314E+01  0.16761128472E+03  0.16763394671E+03  0.00000000000E+00 0.  1.
         11    1    1    2    0    0 -0.69613780191E+01 -0.33165314231E+01 -0.17889445585E+03  0.17906056656E+03  0.00000000000E+00 0. -1.
        -15    1    1    2    0    0 -0.72483863284E+00 -0.87400956936E+00 -0.11904316698E+01  0.24215987139E+01  0.17770000000E+01 0.  1.
         15    1    1    2    0    0  0.94478488684E+01  0.20706410611E+01  0.12473602801E+02  0.15883888015E+02  0.17770000000E+01 0.  1.
</event>
<event>
 6    1  0.1045352E-002  0.1872548E+03  0.7546771E-02  0.1064732E+00
        -11   -1    0    0    0    0  0.00000000000E+00  0.00000000000E+00  0.18250000000E+03  0.18250000000E+03  0.00000000000E+00 0. -1.
         11   -1    0    0    0    0 -0.00000000000E+00 -0.00000000000E+00 -0.18250000000E+03  0.18250000000E+03  0.00000000000E+00 0. -1.
        -11    1    1    2    0    0  0.53882650859E+01 -0.29932376793E+01  0.16733672011E+03  0.16745020385E+03  0.00000000000E+00 0. -1.
         11    1    1    2    0    0  0.24391128433E+01 -0.73488690242E+00 -0.17772698561E+03  0.17774524113E+03  0.00000000000E+00 0. -1.
        -15    1    1    2    0    0 -0.17741545020E+00  0.27299202537E+01 -0.28804055263E+01  0.43518278723E+01  0.17770000000E+01 0. -1.
         15    1    1    2    0    0 -0.76499624791E+01  0.99820432801E+00  0.13270671026E+02  0.15452727147E+02  0.17770000000E+01 0.  1.
</event>
<event>
 6    1  0.1045352E-002  0.1832340E+03  0.7546771E-02  0.1067872E+00
        -11   -1    0    0    0    0  0.00000000000E+00  0.00000000000E+00  0.18250000000E+03  0.18250000000E+03  0.00000000000E+00 0.  1.
         11   -1    0    0    0    0 -0.00000000000E+00 -0.00000000000E+00 -0.18250000000E+03  0.18250000000E+03  0.00000000000E+00 0. -1.
        -11    1    1    2    0    0 -0.17755248126E+01 -0.11442232091E+01  0.11817554870E+03  0.11819442477E+03  0.00000000000E+00 0.  1.
         11    1    1    2    0    0  0.23122444192E+01 -0.23858378631E+01 -0.18173565733E+03  0.18176602499E+03  0.00000000000E+00 0. -1.
        -15    1    1    2    0    0  0.13778068488E+01 -0.64700993631E+00  0.55791290028E+02  0.55840332606E+02  0.17770000000E+01 0.  1.
         15    1    1    2    0    0 -0.19145264554E+01  0.41770710084E+01  0.77688185929E+01  0.91992176345E+01  0.17770000000E+01 0. -1.
</event>
<event>
 6    1  0.1045352E-002  0.1754899E+03  0.7546771E-02  0.1074176E+00
        -11   -1    0    0    0    0  0.00000000000E+00  0.00000000000E+00  0.18250000000E+03  0.18250000000E+03  0.00000000000E+00 0.  1.
         11   -1    0    0    0    0 -0.00000000000E+00 -0.00000000000E+00 -0.18250000000E+03  0.18250000000E+03  0.00000000000E+00 0.  1.
        -11    1    1    2    0    0  0.48944544695E+01 -0.53647804738E+01  0.17576249615E+03  0.17591245438E+03  0.00000000000E+00 0.  1.
         11    1    1    2    0    0  0.33321691368E+01  0.40117233246E+01 -0.17508928696E+03  0.17516693661E+03  0.00000000000E+00 0.  1.
        -15    1    1    2    0    0 -0.25614998641E+01 -0.32179368181E+01 -0.37282531988E+01  0.58287219726E+01  0.17770000000E+01 0. -1.
         15    1    1    2    0    0 -0.56651237421E+01  0.45709939674E+01  0.30550440098E+01  0.80918870337E+01  0.17770000000E+01 0.  1.
</event>
<event>
 6    1  0.1045352E-002  0.1834669E+03  0.7546771E-02  0.1067688E+00
        -11   -1    0    0    0    0  0.00000000000E+00  0.00000000000E+00  0.18250000000E+03  0.18250000000E+03  0.00000000000E+00 0.  1.
         11   -1    0    0    0    0 -0.00000000000E+00 -0.00000000000E+00 -0.18250000000E+03  0.18250000000E+03  0.00000000000E+00 0.  1.
        -11    1    1    2    0    0  0.38864937309E+01  0.31802632558E+01  0.18146366309E+03  0.18153313728E+03  0.00000000000E+00 0.  1.
         11    1    1    2    0    0 -0.14999389416E+01  0.13460327946E+01 -0.74927132228E+02  0.74954231135E+02  0.00000000000E+00 0.  1.
        -15    1    1    2    0    0  0.15592887950E+01 -0.36290618867E+01 -0.10229622913E+03  0.10238787865E+03  0.17770000000E+01 0.  1.
         15    1    1    2    0    0 -0.39458435843E+01 -0.89723416365E+00 -0.42403017324E+01  0.61247529353E+01  0.17770000000E+01 0. -1.
</event>
<event>
 6    1  0.1045352E-002  0.1640198E+03  0.7546771E-02  0.1084197E+00
        -11   -1    0    0    0    0  0.00000000000E+00  0.00000000000E+00  0.18250000000E+03  0.18250000000E+03  0.00000000000E+00 0.  1.
         11   -1    0    0    0    0 -0.00000000000E+00 -0.00000000000E+00 -0.18250000000E+03  0.18250000000E+03  0.00000000000E+00 0.  1.
        -11    1    1    2    0    0 -0.40140218417E+01 -0.17673517686E+02  0.16706363172E+03  0.16804381168E+03  0.00000000000E+00 0.  1.
         11    1    1    2    0    0 -0.16135636179E+01 -0.17839294462E+01 -0.16066474367E+03  0.16068274907E+03  0.00000000000E+00 0.  1.
        -15    1    1    2    0    0 -0.32277234716E+01 -0.13822244935E+01  0.83232748777E+01  0.92067028327E+01  0.17770000000E+01 0.  1.
         15    1    1    2    0    0  0.88553089312E+01  0.20839671626E+02 -0.14722162934E+02  0.27066736416E+02  0.17770000000E+01 0. -1.
</event>
<event>
 6    1  0.1045352E-002  0.1827849E+03  0.7546771E-02  0.1068228E+00
        -11   -1    0    0    0    0  0.00000000000E+00  0.00000000000E+00  0.18250000000E+03  0.18250000000E+03  0.00000000000E+00 0.  1.
         11   -1    0    0    0    0 -0.00000000000E+00 -0.00000000000E+00 -0.18250000000E+03  0.18250000000E+03  0.00000000000E+00 0. -1.
        -11    1    1    2    0    0 -0.17093544440E+01 -0.35131323762E+01  0.18217324831E+03  0.18221513766E+03  0.00000000000E+00 0.  1.
         11    1    1    2    0    0  0.33673967761E+01 -0.60173907726E+00 -0.90255086230E+02  0.90319887297E+02  0.00000000000E+00 0. -1.
        -15    1    1    2    0    0 -0.35503997423E+01  0.53977394563E+01 -0.75196985171E+02  0.75494935177E+02  0.17770000000E+01 0. -1.
         15    1    1    2    0    0  0.18923574101E+01 -0.12828680028E+01 -0.16721176910E+02  0.16970039868E+02  0.17770000000E+01 0.  1.
</event>
<event>
 6    1  0.1045352E-002  0.1831816E+03  0.7546771E-02  0.1067914E+00
        -11   -1    0    0    0    0  0.00000000000E+00  0.00000000000E+00  0.18250000000E+03  0.18250000000E+03  0.00000000000E+00 0.  1.
         11   -1    0    0    0    0 -0.00000000000E+00 -0.00000000000E+00 -0.18250000000E+03  0.18250000000E+03  0.00000000000E+00 0. -1.
        -11    1    1    2    0    0  0.22073082048E+01  0.41191957381E+00  0.14712275244E+03  0.14713988641E+03  0.00000000000E+00 0.  1.
         11    1    1    2    0    0  0.24022287136E+01  0.26845620562E+01 -0.18178273066E+03  0.18181842245E+03  0.00000000000E+00 0. -1.
        -15    1    1    2    0    0 -0.32225308872E+01 -0.40252807888E+01  0.11220695291E+02  0.12475949766E+02  0.17770000000E+01 0.  1.
         15    1    1    2    0    0 -0.13870060312E+01  0.92879915885E+00  0.23439282923E+02  0.23565741375E+02  0.17770000000E+01 0.  1.
</event>
<event>
 6    1  0.1045352E-002  0.1833002E+03  0.7546771E-02  0.1067820E+00
        -11   -1    0    0    0    0  0.00000000000E+00  0.00000000000E+00  0.18250000000E+03  0.18250000000E+03  0.00000000000E+00 0.  1.
         11   -1    0    0    0    0 -0.00000000000E+00 -0.00000000000E+00 -0.18250000000E+03  0.18250000000E+03  0.00000000000E+00 0. -1.
        -11    1    1    2    0    0  0.37847905340E+00 -0.58609976441E+01  0.16677128310E+03  0.16687466976E+03  0.00000000000E+00 0.  1.
         11    1    1    2    0    0 -0.69338296870E-01  0.28576314647E+01 -0.18167735105E+03  0.18169983696E+03  0.00000000000E+00 0. -1.
        -15    1    1    2    0    0 -0.14399651429E+01  0.39657299318E+01  0.95723815490E+01  0.10610783714E+02  0.17770000000E+01 0. -1.
         15    1    1    2    0    0  0.11308243864E+01 -0.96236375231E+00  0.53336864013E+01  0.58147095725E+01  0.17770000000E+01 0.  1.
</event>
<event>
 6    1  0.1045352E-002  0.1849314E+03  0.7546771E-02  0.1066536E+00
        -11   -1    0    0    0    0  0.00000000000E+00  0.00000000000E+00  0.18250000000E+03  0.18250000000E+03  0.00000000000E+00 0.  1.
         11   -1    0    0    0    0 -0.00000000000E+00 -0.00000000000E+00 -0.18250000000E+03  0.18250000000E+03  0.00000000000E+00 0. -1.
        -11    1    1    2    0    0 -0.52525229951E+01 -0.46116314212E+01  0.17993284209E+03  0.18006855307E+03  0.00000000000E+00 0.  1.
         11    1    1    2    0    0  0.27573488501E+01 -0.51390561683E+01 -0.13585054195E+03  0.13597566921E+03  0.00000000000E+00 0. -1.
        -15    1    1    2    0    0  0.48614638181E+01  0.31235831661E+01 -0.21753503370E+01  0.64249887423E+01  0.17770000000E+01 0. -1.
         15    1    1    2    0    0 -0.23662896730E+01  0.66271044234E+01 -0.41906949807E+02  0.42530788976E+02  0.17770000000E+01 0.  1.
</event>
<event>
 6    1  0.1045352E-002  0.1832049E+03  0.7546771E-02  0.1067895E+00
        -11   -1    0    0    0    0  0.00000000000E+00  0.00000000000E+00  0.18250000000E+03  0.18250000000E+03  0.00000000000E+00 0.  1.
         11   -1    0    0    0    0 -0.00000000000E+00 -0.00000000000E+00 -0.18250000000E+03  0.18250000000E+03  0.00000000000E+00 0. -1.
        -11    1    1    2    0    0 -0.83375215434E+01 -0.83552456201E+00  0.18160192280E+03  0.18179513396E+03  0.00000000000E+00 0.  1.
         11    1    1    2    0    0 -0.93653001884E+00 -0.57694093428E+01 -0.73989387954E+02  0.74219894250E+02  0.00000000000E+00 0. -1.
        -15    1    1    2    0    0 -0.15431733614E+01  0.27720106525E+01 -0.92471224656E+01  0.99364193739E+01  0.17770000000E+01 0.  1.
         15    1    1    2    0    0  0.10817224924E+02  0.38329232523E+01 -0.98365412376E+02  0.99048552420E+02  0.17770000000E+01 0. -1.
</event>
<event>
 6    1  0.1045352E-002  0.1855004E+03  0.7546771E-02  0.1066091E+00
        -11   -1    0    0    0    0  0.00000000000E+00  0.00000000000E+00  0.18250000000E+03  0.18250000000E+03  0.00000000000E+00 0.  1.
         11   -1    0    0    0    0 -0.00000000000E+00 -0.00000000000E+00 -0.18250000000E+03  0.18250000000E+03  0.00000000000E+00 0.  1.
        -11    1    1    2    0    0 -0.43764964809E+01  0.13350851280E+00  0.96594052889E+02  0.96693239679E+02  0.00000000000E+00 0.  1.
         11    1    1    2    0    0 -0.21300209754E+01 -0.15136402852E+02 -0.17884762012E+03  0.17949963483E+03  0.00000000000E+00 0.  1.
        -15    1    1    2    0    0  0.59291122013E+01  0.23574041647E+02  0.54539269266E+02  0.59737588101E+02  0.17770000000E+01 0.  1.
         15    1    1    2    0    0  0.57740525495E+00 -0.85711473079E+01  0.27714297969E+02  0.29069537388E+02  0.17770000000E+01 0. -1.
</event>
<event>
 6    1  0.1045352E-002  0.1879798E+03  0.7546771E-02  0.1064175E+00
        -11   -1    0    0    0    0  0.00000000000E+00  0.00000000000E+00  0.18250000000E+03  0.18250000000E+03  0.00000000000E+00 0. -1.
         11   -1    0    0    0    0 -0.00000000000E+00 -0.00000000000E+00 -0.18250000000E+03  0.18250000000E+03  0.00000000000E+00 0. -1.
        -11    1    1    2    0    0  0.42606500722E+01  0.70568994063E+00  0.16661584591E+03  0.16667180699E+03  0.00000000000E+00 0. -1.
         11    1    1    2    0    0  0.55162471625E+01  0.99484606711E+00 -0.17693141250E+03  0.17702017803E+03  0.00000000000E+00 0. -1.
        -15    1    1    2    0    0 -0.87615550641E+01 -0.24448409080E+01 -0.14162368552E+01  0.93757959682E+01  0.17770000000E+01 0. -1.
         15    1    1    2    0    0 -0.10153421706E+01  0.74430490023E+00  0.11731803440E+02  0.11932219009E+02  0.17770000000E+01 0.  1.
</event>
<event>
 6    1  0.1045352E-002  0.1829680E+03  0.7546771E-02  0.1068083E+00
        -11   -1    0    0    0    0  0.00000000000E+00  0.00000000000E+00  0.18250000000E+03  0.18250000000E+03  0.00000000000E+00 0. -1.
         11   -1    0    0    0    0 -0.00000000000E+00 -0.00000000000E+00 -0.18250000000E+03  0.18250000000E+03  0.00000000000E+00 0.  1.
        -11    1    1    2    0    0 -0.12536324315E+00  0.21700806000E+01  0.13444102607E+03  0.13445859756E+03  0.00000000000E+00 0. -1.
         11    1    1    2    0    0 -0.25216197586E+01 -0.25337834562E-01 -0.18201453317E+03  0.18203200129E+03  0.00000000000E+00 0.  1.
        -15    1    1    2    0    0 -0.23326761776E+01 -0.29200505543E+01  0.21054883649E+02  0.21457724201E+02  0.17770000000E+01 0. -1.
         15    1    1    2    0    0  0.49796591793E+01  0.77530778887E+00  0.26518623444E+02  0.27051676955E+02  0.17770000000E+01 0. -1.
</event>
<event>
 6    1  0.1045352E-002  0.2001852E+03  0.7546771E-02  0.1055189E+00
        -11   -1    0    0    0    0  0.00000000000E+00  0.00000000000E+00  0.18250000000E+03  0.18250000000E+03  0.00000000000E+00 0. -1.
         11   -1    0    0    0    0 -0.00000000000E+00 -0.00000000000E+00 -0.18250000000E+03  0.18250000000E+03  0.00000000000E+00 0.  1.
        -11    1    1    2    0    0 -0.38361207259E+01 -0.23986382169E+00  0.15651842977E+03  0.15656561633E+03  0.00000000000E+00 0. -1.
         11    1    1    2    0    0 -0.60800038445E+01 -0.82481134276E+00 -0.16470057218E+03  0.16481482105E+03  0.00000000000E+00 0.  1.
        -15    1    1    2    0    0 -0.11936589482E+01 -0.54502782114E+01  0.23100446376E+02  0.23831045005E+02  0.17770000000E+01 0. -1.
         15    1    1    2    0    0  0.11109783519E+02  0.65149533759E+01 -0.14918303971E+02  0.19788517622E+02  0.17770000000E+01 0. -1.
</event>
<event>
 6    1  0.1045352E-002  0.1869579E+03  0.7546771E-02  0.1064961E+00
        -11   -1    0    0    0    0  0.00000000000E+00  0.00000000000E+00  0.18250000000E+03  0.18250000000E+03  0.00000000000E+00 0. -1.
         11   -1    0    0    0    0 -0.00000000000E+00 -0.00000000000E+00 -0.18250000000E+03  0.18250000000E+03  0.00000000000E+00 0. -1.
        -11    1    1    2    0    0 -0.50089376947E+00 -0.28610251378E+01  0.17801843612E+03  0.17804212972E+03  0.00000000000E+00 0. -1.
         11    1    1    2    0    0  0.23857932304E+01  0.87450808799E+01 -0.14018698426E+03  0.14047974588E+03  0.00000000000E+00 0. -1.
        -15    1    1    2    0    0  0.86178804897E+01  0.75549485876E+00 -0.30904690579E+02  0.32141814905E+02  0.17770000000E+01 0.  1.
         15    1    1    2    0    0 -0.10502779951E+02 -0.66395506008E+01 -0.69267612809E+01  0.14336309487E+02  0.17770000000E+01 0. -1.
</event>
<event>
 6    1  0.1045352E-002  0.1850062E+03  0.7546771E-02  0.1066477E+00
        -11   -1    0    0    0    0  0.00000000000E+00  0.00000000000E+00  0.18250000000E+03  0.18250000000E+03  0.00000000000E+00 0.  1.
         11   -1    0    0    0    0 -0.00000000000E+00 -0.00000000000E+00 -0.18250000000E+03  0.18250000000E+03  0.00000000000E+00 0. -1.
        -11    1    1    2    0    0  0.13635498191E+01  0.18262051261E+01  0.12892638203E+03  0.12894652487E+03  0.00000000000E+00 0.  1.
         11    1    1    2    0    0 -0.48851367185E+01  0.77310633222E+01 -0.17976135091E+03  0.17999382540E+03  0.00000000000E+00 0. -1.
        -15    1    1    2    0    0 -0.75114540897E+01 -0.90535143114E+01  0.32165469972E+02  0.34295236571E+02  0.17770000000E+01 0. -1.
         15    1    1    2    0    0  0.11033040989E+02 -0.50375413697E+00  0.18669498905E+02  0.21764413157E+02  0.17770000000E+01 0.  1.
</event>
<event>
 6    1  0.1045352E-002  0.1826940E+03  0.7546771E-02  0.1068301E+00
        -11   -1    0    0    0    0  0.00000000000E+00  0.00000000000E+00  0.18250000000E+03  0.18250000000E+03  0.00000000000E+00 0. -1.
         11   -1    0    0    0    0 -0.00000000000E+00 -0.00000000000E+00 -0.18250000000E+03  0.18250000000E+03  0.00000000000E+00 0.  1.
        -11    1    1    2    0    0 -0.19703967855E+01 -0.28111399233E+01  0.18227369594E+03  0.18230602075E+03  0.00000000000E+00 0. -1.
         11    1    1    2    0    0  0.11768833381E+01 -0.71710564632E+00 -0.61777744344E+02  0.61793114432E+02  0.00000000000E+00 0.  1.
        -15    1    1    2    0    0 -0.22751419660E+01  0.41984030169E+00 -0.89567464586E+02  0.89614959567E+02  0.17770000000E+01 0. -1.
         15    1    1    2    0    0  0.30686554134E+01  0.31084052679E+01 -0.30928487011E+02  0.31285905247E+02  0.17770000000E+01 0. -1.
</event>
<event>
 6    1  0.1045352E-002  0.2094451E+03  0.7546771E-02  0.1048825E+00
        -11   -1    0    0    0    0  0.00000000000E+00  0.00000000000E+00  0.18250000000E+03  0.18250000000E+03  0.00000000000E+00 0.  1.
         11   -1    0    0    0    0 -0.00000000000E+00 -0.00000000000E+00 -0.18250000000E+03  0.18250000000E+03  0.00000000000E+00 0. -1.
        -11    1    1    2    0    0 -0.18569035566E+01  0.20541055762E+02  0.92822764449E+02  0.95086532498E+02  0.00000000000E+00 0.  1.
         11    1    1    2    0    0  0.14176710008E+02 -0.91000647675E+01 -0.15464006496E+03  0.15555494198E+03  0.00000000000E+00 0. -1.
        -15    1    1    2    0    0  0.13582126113E+01 -0.17788787962E+02  0.84876449905E+02  0.86749381531E+02  0.17770000000E+01 0.  1.
         15    1    1    2    0    0 -0.13678019062E+02  0.63477969671E+01 -0.23059149396E+02  0.27609143987E+02  0.17770000000E+01 0.  1.
</event>
<event>
 6    1  0.1045352E-002  0.1866371E+03  0.7546771E-02  0.1065209E+00
        -11   -1    0    0    0    0  0.00000000000E+00  0.00000000000E+00  0.18250000000E+03  0.18250000000E+03  0.00000000000E+00 0.  1.
         11   -1    0    0    0    0 -0.00000000000E+00 -0.00000000000E+00 -0.18250000000E+03  0.18250000000E+03  0.00000000000E+00 0.  1.
        -11    1    1    2    0    0 -0.67063425340E+01  0.22601667677E+01  0.17822240852E+03  0.17836286128E+03  0.00000000000E+00 0.  1.
         11    1    1    2    0    0 -0.42278144529E+01  0.77352388832E+01 -0.16070741386E+03  0.16094900188E+03  0.00000000000E+00 0.  1.
        -15    1    1    2    0    0  0.67498382531E+01 -0.10513811840E+02 -0.75068903342E+01  0.14683721849E+02  0.17770000000E+01 0.  1.
         15    1    1    2    0    0  0.41843187338E+01  0.51840618855E+00 -0.10008104321E+02  0.11004414993E+02  0.17770000000E+01 0. -1.
</event>
<event>
 6    1  0.1045352E-002  0.1829493E+03  0.7546771E-02  0.1068098E+00
        -11   -1    0    0    0    0  0.00000000000E+00  0.00000000000E+00  0.18250000000E+03  0.18250000000E+03  0.00000000000E+00 0.  1.
         11   -1    0    0    0    0 -0.00000000000E+00 -0.00000000000E+00 -0.18250000000E+03  0.18250000000E+03  0.00000000000E+00 0.  1.
        -11    1    1    2    0    0  0.11493165098E+01 -0.26924945171E+01  0.18202718215E+03  0.18205072232E+03  0.00000000000E+00 0.  1.
         11    1    1    2    0    0 -0.25984669743E+01  0.96339076064E+00 -0.98150487928E+02  0.98189604505E+02  0.00000000000E+00 0.  1.
        -15    1    1    2    0    0  0.34241206865E+01  0.58138006442E+00 -0.78946427081E+02  0.79042764900E+02  0.17770000000E+01 0.  1.
         15    1    1    2    0    0 -0.19749702220E+01  0.11477236921E+01 -0.49302671462E+01  0.57169082714E+01  0.17770000000E+01 0. -1.
</event>
<event>
 6    1  0.1045352E-002  0.1857495E+03  0.7546771E-02  0.1065897E+00
        -11   -1    0    0    0    0  0.00000000000E+00  0.00000000000E+00  0.18250000000E+03  0.18250000000E+03  0.00000000000E+00 0. -1.
         11   -1    0    0    0    0 -0.00000000000E+00 -0.00000000000E+00 -0.18250000000E+03  0.18250000000E+03  0.00000000000E+00 0. -1.
        -11    1    1    2    0    0 -0.22901283236E+01 -0.23838315761E+01  0.16034509482E+03  0.16037916564E+03  0.00000000000E+00 0. -1.
         11    1    1    2    0    0 -0.24516735810E+01 -0.93495932465E+00 -0.17923124615E+03  0.17925045174E+03  0.00000000000E+00 0. -1.
        -15    1    1    2    0    0  0.14845134398E+01 -0.48917674922E+01  0.12329295523E+01  0.55507669409E+01  0.17770000000E+01 0.  1.
         15    1    1    2    0    0  0.32572884648E+01  0.82105583929E+01  0.17653221783E+02  0.19819615677E+02  0.17770000000E+01 0. -1.
</event>
<event>
 6    1  0.1045352E-002  0.1777084E+03  0.7546771E-02  0.1072334E+00
        -11   -1    0    0    0    0  0.00000000000E+00  0.00000000000E+00  0.18250000000E+03  0.18250000000E+03  0.00000000000E+00 0. -1.
         11   -1    0    0    0    0 -0.00000000000E+00 -0.00000000000E+00 -0.18250000000E+03  0.18250000000E+03  0.00000000000E+00 0.  1.
        -11    1    1    2    0    0 -0.24062272575E+01  0.40360552764E+01  0.17836131896E+03  0.17842320413E+03  0.00000000000E+00 0. -1.
         11    1    1    2    0    0 -0.12454920136E+01 -0.31657697748E+01 -0.17698340616E+03  0.17701609928E+03  0.00000000000E+00 0.  1.
        -15    1    1    2    0    0 -0.14612899169E+01  0.21522037738E+01  0.22100765517E+00  0.31581517837E+01  0.17770000000E+01 0.  1.
         15    1    1    2    0    0  0.51130091880E+01 -0.30224892754E+01 -0.15989204520E+01  0.64025448057E+01  0.17770000000E+01 0. -1.
</event>
<event>
 6    1  0.1045352E-002  0.1829593E+03  0.7546771E-02  0.1068090E+00
        -11   -1    0    0    0    0  0.00000000000E+00  0.00000000000E+00  0.18250000000E+03  0.18250000000E+03  0.00000000000E+00 0.  1.
         11   -1    0    0    0    0 -0.00000000000E+00 -0.00000000000E+00 -0.18250000000E+03  0.18250000000E+03  0.00000000000E+00 0.  1.
        -11    1    1    2    0    0 -0.82734507136E-02  0.22698476821E+01  0.13466520224E+03  0.13468433083E+03  0.00000000000E+00 0.  1.
         11    1    1    2    0    0  0.38588965323E+01  0.13199243592E+01 -0.18199500831E+03  0.18204069966E+03  0.00000000000E+00 0.  1.
        -15    1    1    2    0    0  0.10344869770E+01 -0.21200654185E+01  0.71847877837E+01  0.77681236590E+01  0.17770000000E+01 0. -1.
         15    1    1    2    0    0 -0.48851100586E+01 -0.14697066227E+01  0.40145018287E+02  0.40506845842E+02  0.17770000000E+01 0.  1.
</event>
<event>
 6    1  0.1045352E-002  0.1827238E+03  0.7546771E-02  0.1068277E+00
        -11   -1    0    0    0    0  0.00000000000E+00  0.00000000000E+00  0.18250000000E+03  0.18250000000E+03  0.00000000000E+00 0.  1.
         11   -1    0    0    0    0 -0.00000000000E+00 -0.00000000000E+00 -0.18250000000E+03  0.18250000000E+03  0.00000000000E+00 0.  1.
        -11    1    1    2    0    0  0.21145495915E+01 -0.27087074825E+01  0.18224378059E+03  0.18227617502E+03  0.00000000000E+00 0.  1.
         11    1    1    2    0    0  0.14872049585E+01  0.21691979793E+01 -0.12767941628E+03  0.12770650156E+03  0.00000000000E+00 0.  1.
        -15    1    1    2    0    0  0.66660606953E+00  0.13373518948E+01 -0.15691144657E+02  0.15861986742E+02  0.17770000000E+01 0. -1.
         15    1    1    2    0    0 -0.42683606195E+01 -0.79784239160E+00 -0.38873219657E+02  0.39155336678E+02  0.17770000000E+01 0.  1.
</event>
<event>
 6    1  0.1045352E-002  0.1829567E+03  0.7546771E-02  0.1068092E+00
        -11   -1    0    0    0    0  0.00000000000E+00  0.00000000000E+00  0.18250000000E+03  0.18250000000E+03  0.00000000000E+00 0. -1.
         11   -1    0    0    0    0 -0.00000000000E+00 -0.00000000000E+00 -0.18250000000E+03  0.18250000000E+03  0.00000000000E+00 0. -1.
        -11    1    1    2    0    0  0.35640566396E+01  0.16680734095E+01  0.18200078132E+03  0.18204331729E+03  0.00000000000E+00 0. -1.
         11    1    1    2    0    0  0.21789585037E+01 -0.13456421215E+01 -0.14020182114E+03  0.14022520909E+03  0.00000000000E+00 0. -1.
        -15    1    1    2    0    0  0.11136717904E+00  0.82445400150E+00 -0.18899175912E+02  0.19000755411E+02  0.17770000000E+01 0. -1.
         15    1    1    2    0    0 -0.58543823224E+01 -0.11468852895E+01 -0.22899784271E+02  0.23730718213E+02  0.17770000000E+01 0. -1.
</event>
<event>
 6    1  0.1045352E-002  0.1833629E+03  0.7546771E-02  0.1067770E+00
        -11   -1    0    0    0    0  0.00000000000E+00  0.00000000000E+00  0.18250000000E+03  0.18250000000E+03  0.00000000000E+00 0.  1.
         11   -1    0    0    0    0 -0.00000000000E+00 -0.00000000000E+00 -0.18250000000E+03  0.18250000000E+03  0.00000000000E+00 0. -1.
        -11    1    1    2    0    0 -0.31624667976E+01  0.17232380006E+01  0.15865181957E+03  0.15869269233E+03  0.00000000000E+00 0.  1.
         11    1    1    2    0    0  0.23836375017E+01  0.81960563885E+00 -0.18161964694E+03  0.18163713727E+03  0.00000000000E+00 0. -1.
        -15    1    1    2    0    0  0.19052537431E+01 -0.15253095924E+01  0.21134217184E+01  0.36852193338E+01  0.17770000000E+01 0.  1.
         15    1    1    2    0    0 -0.11264244472E+01 -0.10175340471E+01  0.20854405649E+02  0.20984951073E+02  0.17770000000E+01 0. -1.
</event>
<event>
 6    1  0.1045352E-002  0.1735674E+03  0.7546771E-02  0.1075796E+00
        -11   -1    0    0    0    0  0.00000000000E+00  0.00000000000E+00  0.18250000000E+03  0.18250000000E+03  0.00000000000E+00 0.  1.
         11   -1    0    0    0    0 -0.00000000000E+00 -0.00000000000E+00 -0.18250000000E+03  0.18250000000E+03  0.00000000000E+00 0. -1.
        -11    1    1    2    0    0  0.62093740459E+01  0.36422528933E+01  0.17169376945E+03  0.17184461818E+03  0.00000000000E+00 0.  1.
         11    1    1    2    0    0 -0.46511995655E+01 -0.94288173345E+01 -0.17504255433E+03  0.17535801117E+03  0.00000000000E+00 0. -1.
        -15    1    1    2    0    0 -0.34366049036E+01  0.10694158797E+02  0.43209819754E+01  0.12165685344E+02  0.17770000000E+01 0. -1.
         15    1    1    2    0    0  0.18784304232E+01 -0.49075943562E+01 -0.97219709131E+00  0.56316853076E+01  0.17770000000E+01 0.  1.
</event>
<event>
 6    1  0.1045352E-002  0.1943405E+03  0.7546771E-02  0.1059402E+00
        -11   -1    0    0    0    0  0.00000000000E+00  0.00000000000E+00  0.18250000000E+03  0.18250000000E+03  0.00000000000E+00 0. -1.
         11   -1    0    0    0    0 -0.00000000000E+00 -0.00000000000E+00 -0.18250000000E+03  0.18250000000E+03  0.00000000000E+00 0.  1.
        -11    1    1    2    0    0  0.52171690487E+01 -0.11955639309E+01  0.17057552308E+03  0.17065947762E+03  0.00000000000E+00 0. -1.
         11    1    1    2    0    0 -0.42667279196E+01  0.23027531231E+01 -0.73890773741E+02  0.74049673079E+02  0.00000000000E+00 0.  1.
        -15    1    1    2    0    0 -0.12955972575E+02  0.58968903071E+01 -0.10365332375E+03  0.10464129106E+03  0.17770000000E+01 0.  1.
         15    1    1    2    0    0  0.12005531446E+02 -0.70040794993E+01  0.69685744081E+01  0.15649558243E+02  0.17770000000E+01 0. -1.
</event>
<event>
 6    1  0.1045352E-002  0.1846646E+03  0.7546771E-02  0.1066745E+00
        -11   -1    0    0    0    0  0.00000000000E+00  0.00000000000E+00  0.18250000000E+03  0.18250000000E+03  0.00000000000E+00 0.  1.
         11   -1    0    0    0    0 -0.00000000000E+00 -0.00000000000E+00 -0.18250000000E+03  0.18250000000E+03  0.00000000000E+00 0. -1.
        -11    1    1    2    0    0  0.76022877963E+01  0.90687168551E+00  0.18017275520E+03  0.18033535125E+03  0.00000000000E+00 0.  1.
         11    1    1    2    0    0  0.28106739606E+01  0.10271276361E+02 -0.91774950946E+02  0.92390695567E+02  0.00000000000E+00 0. -1.
        -15    1    1    2    0    0 -0.67190016572E+01 -0.10059002718E+02 -0.86919137269E+02  0.87774840766E+02  0.17770000000E+01 0. -1.
         15    1    1    2    0    0 -0.36939600997E+01 -0.11191453286E+01 -0.14786669817E+01  0.44991124156E+01  0.17770000000E+01 0.  1.
</event>
<event>
 6    1  0.1045352E-002  0.1836087E+03  0.7546771E-02  0.1067576E+00
        -11   -1    0    0    0    0  0.00000000000E+00  0.00000000000E+00  0.18250000000E+03  0.18250000000E+03  0.00000000000E+00 0. -1.
         11   -1    0    0    0    0 -0.00000000000E+00 -0.00000000000E+00 -0.18250000000E+03  0.18250000000E+03  0.00000000000E+00 0. -1.
        -11    1    1    2    0    0  0.41236639575E+01 -0.17154713383E+01  0.18133630912E+03  0.18139130203E+03  0.00000000000E+00 0. -1.
         11    1    1    2    0    0  0.92657821930E+01  0.51248779679E+01 -0.10440308984E+03  0.10493866905E+03  0.00000000000E+00 0. -1.
        -15    1    1    2    0    0 -0.13975906191E+02 -0.31363851812E+01 -0.70611260579E+02  0.72071289120E+02  0.17770000000E+01 0. -1.
         15    1    1    2    0    0  0.58646004040E+00 -0.27302144845E+00 -0.63219587076E+01  0.65987398032E+01  0.17770000000E+01 0.  1.
</event>
<event>
 6    1  0.1045352E-002  0.1830592E+03  0.7546771E-02  0.1068011E+00
        -11   -1    0    0    0    0  0.00000000000E+00  0.00000000000E+00  0.18250000000E+03  0.18250000000E+03  0.00000000000E+00 0.  1.
         11   -1    0    0    0    0 -0.00000000000E+00 -0.00000000000E+00 -0.18250000000E+03  0.18250000000E+03  0.00000000000E+00 0.  1.
        -11    1    1    2    0    0  0.23541980240E+01 -0.24374159061E+01  0.18190921227E+03  0.18194077266E+03  0.00000000000E+00 0.  1.
         11    1    1    2    0    0  0.20326160138E+01 -0.28236964759E+00 -0.14722404436E+03  0.14723834589E+03  0.00000000000E+00 0.  1.
        -15    1    1    2    0    0 -0.40337442188E+01  0.58570411355E+00 -0.30257433598E+02  0.30582415841E+02  0.17770000000E+01 0. -1.
         15    1    1    2    0    0 -0.35306981902E+00  0.21340814402E+01 -0.44277343115E+01  0.52384656173E+01  0.17770000000E+01 0.  1.
</event>
<event>
 6    1  0.1045352E-002  0.1829072E+03  0.7546771E-02  0.1068131E+00
        -11   -1    0    0    0    0  0.00000000000E+00  0.00000000000E+00  0.18250000000E+03  0.18250000000E+03  0.00000000000E+00 0.  1.
         11   -1    0    0    0    0 -0.00000000000E+00 -0.00000000000E+00 -0.18250000000E+03  0.18250000000E+03  0.00000000000E+00 0. -1.
        -11    1    1    2    0    0 -0.26085566735E+00  0.25373673486E+01  0.18207491762E+03  0.18209278378E+03  0.00000000000E+00 0.  1.
         11    1    1    2    0    0 -0.83455859110E+00 -0.68202397868E+00 -0.65514935604E+02  0.65523800499E+02  0.00000000000E+00 0. -1.
        -15    1    1    2    0    0  0.43323071493E+01 -0.26237936570E+01 -0.10657090500E+03  0.10670599186E+03  0.17770000000E+01 0. -1.
         15    1    1    2    0    0 -0.32368928909E+01  0.76845028705E+00 -0.99890770212E+01  0.10677423854E+02  0.17770000000E+01 0.  1.
</event>
<event>
 6    1  0.1045352E-002  0.1757183E+03  0.7546771E-02  0.1073985E+00
        -11   -1    0    0    0    0  0.00000000000E+00  0.00000000000E+00  0.18250000000E+03  0.18250000000E+03  0.00000000000E+00 0. -1.
         11   -1    0    0    0    0 -0.00000000000E+00 -0.00000000000E+00 -0.18250000000E+03  0.18250000000E+03  0.00000000000E+00 0.  1.
        -11    1    1    2    0    0  0.26004214714E+01  0.49359859610E+01  0.17760745879E+03  0.17769506343E+03  0.00000000000E+00 0. -1.
         11    1    1    2    0    0 -0.30213737618E+01  0.47048825458E+01 -0.17380470650E+03  0.17389462505E+03  0.00000000000E+00 0.  1.
        -15    1    1    2    0    0  0.55314282918E+00 -0.40094708741E+00 -0.35129743645E+01  0.39956780954E+01  0.17770000000E+01 0. -1.
         15    1    1    2    0    0 -0.13219053876E+00 -0.92399214194E+01 -0.28977792601E+00  0.94146334194E+01  0.17770000000E+01 0.  1.
</event>
<event>
 6    1  0.1045352E-002  0.1839085E+03  0.7546771E-02  0.1067339E+00
        -11   -1    0    0    0    0  0.00000000000E+00  0.00000000000E+00  0.18250000000E+03  0.18250000000E+03  0.00000000000E+00 0.  1.
         11   -1    0    0    0    0 -0.00000000000E+00 -0.00000000000E+00 -0.18250000000E+03  0.18250000000E+03  0.00000000000E+00 0.  1.
        -11    1    1    2    0    0  0.10595342441E+01  0.26762535268E+01  0.18106866431E+03  0.18109154077E+03  0.00000000000E+00 0.  1.
         11    1    1    2    0    0  0.27603273659E+01 -0.10062558096E+00 -0.17590687265E+03  0.17592855760E+03  0.00000000000E+00 0.  1.
        -15    1    1    2    0    0 -0.18781625577E+01 -0.22607961180E+01 -0.28838609666E+01  0.44847605014E+01  0.17770000000E+01 0.  1.
         15    1    1    2    0    0 -0.19416990523E+01 -0.31483182782E+00 -0.22779306891E+01  0.34951411293E+01  0.17770000000E+01 0. -1.
</event>
<event>
 6    1  0.1045352E-002  0.1833261E+03  0.7546771E-02  0.1067799E+00
        -11   -1    0    0    0    0  0.00000000000E+00  0.00000000000E+00  0.18250000000E+03  0.18250000000E+03  0.00000000000E+00 0. -1.
         11   -1    0    0    0    0 -0.00000000000E+00 -0.00000000000E+00 -0.18250000000E+03  0.18250000000E+03  0.00000000000E+00 0. -1.
        -11    1    1    2    0    0 -0.12761995632E+01 -0.19871981361E+01  0.13211561867E+03  0.13213672593E+03  0.00000000000E+00 0. -1.
         11    1    1    2    0    0 -0.27150162284E+01  0.42847455079E+00 -0.18165310290E+03  0.18167389657E+03  0.00000000000E+00 0. -1.
        -15    1    1    2    0    0  0.11823742558E+01  0.17643253084E+01  0.46790820797E+02  0.46872694531E+02  0.17770000000E+01 0. -1.
         15    1    1    2    0    0  0.28088415358E+01 -0.20560172301E+00  0.27466634276E+01  0.43166829657E+01  0.17770000000E+01 0. -1.
</event>
<event>
 6    1  0.1045352E-002  0.1847429E+03  0.7546771E-02  0.1066683E+00
        -11   -1    0    0    0    0  0.00000000000E+00  0.00000000000E+00  0.18250000000E+03  0.18250000000E+03  0.00000000000E+00 0.  1.
         11   -1    0    0    0    0 -0.00000000000E+00 -0.00000000000E+00 -0.18250000000E+03  0.18250000000E+03  0.00000000000E+00 0.  1.
        -11    1    1    2    0    0 -0.20668248232E+01  0.27649469782E+01  0.15880184132E+03  0.15883935753E+03  0.00000000000E+00 0.  1.
         11    1    1    2    0    0 -0.89669410296E+01 -0.20855244204E+01 -0.18002185243E+03  0.18025710193E+03  0.00000000000E+00 0.  1.
        -15    1    1    2    0    0  0.44826897219E+01  0.89243461211E+00  0.17143666529E+02  0.17831264053E+02  0.17770000000E+01 0.  1.
         15    1    1    2    0    0  0.65510761308E+01 -0.15718571698E+01  0.40763445855E+01  0.80722764828E+01  0.17770000000E+01 0. -1.
</event>
<event>
 6    1  0.1045352E-002  0.2090301E+03  0.7546771E-02  0.1049102E+00
        -11   -1    0    0    0    0  0.00000000000E+00  0.00000000000E+00  0.18250000000E+03  0.18250000000E+03  0.00000000000E+00 0. -1.
         11   -1    0    0    0    0 -0.00000000000E+00 -0.00000000000E+00 -0.18250000000E+03  0.18250000000E+03  0.00000000000E+00 0. -1.
        -11    1    1    2    0    0  0.16954777544E+01  0.36938553582E+01  0.15591695849E+03  0.15596992389E+03  0.00000000000E+00 0. -1.
         11    1    1    2    0    0  0.53429044883E+01  0.12130741617E+01 -0.12775904900E+03  0.12787647468E+03  0.00000000000E+00 0. -1.
        -15    1    1    2    0    0 -0.44698283061E+01  0.28271769571E+00  0.26108905958E+02  0.26549802140E+02  0.17770000000E+01 0. -1.
         15    1    1    2    0    0 -0.25685539366E+01 -0.51896472156E+01 -0.54266815457E+02  0.54603799286E+02  0.17770000000E+01 0. -1.
</event>
<event>
 6    1  0.1045352E-002  0.1839181E+03  0.7546771E-02  0.1067332E+00
        -11   -1    0    0    0    0  0.00000000000E+00  0.00000000000E+00  0.18250000000E+03  0.18250000000E+03  0.00000000000E+00 0. -1.
         11   -1    0    0    0    0 -0.00000000000E+00 -0.00000000000E+00 -0.18250000000E+03  0.18250000000E+03  0.00000000000E+00 0.  1.
        -11    1    1    2    0    0 -0.27330273484E+00  0.35639290224E+01  0.15257324366E+03  0.15261510726E+03  0.00000000000E+00 0. -1.
         11    1    1    2    0    0 -0.55107660039E+01 -0.34990489428E+01 -0.18096419578E+03  0.18108189318E+03  0.00000000000E+00 0.  1.
        -15    1    1    2    0    0  0.79867477005E+01 -0.13763095832E+01  0.26223284339E+02  0.27504558484E+02  0.17770000000E+01 0.  1.
         15    1    1    2    0    0 -0.22026789617E+01  0.13114295036E+01  0.21676677787E+01  0.37984410684E+01  0.17770000000E+01 0. -1.
</event>
<event>
 6    1  0.1045352E-002  0.1869375E+03  0.7546771E-02  0.1064976E+00
        -11   -1    0    0    0    0  0.00000000000E+00  0.00000000000E+00  0.18250000000E+03  0.18250000000E+03  0.00000000000E+00 0.  1.
         11   -1    0    0    0    0 -0.00000000000E+00 -0.00000000000E+00 -0.18250000000E+03  0.18250000000E+03  0.00000000000E+00 0. -1.
        -11    1    1    2    0    0  0.30192088706E+01  0.71439073239E+01  0.17789351781E+03  0.17806250226E+03  0.00000000000E+00 0.  1.
         11    1    1    2    0    0  0.48690384851E+01  0.89862732163E+01 -0.15978987978E+03  0.16011641491E+03  0.00000000000E+00 0. -1.
        -15    1    1    2    0    0  0.29131514475E+00 -0.63189029026E+00 -0.33006835827E+01  0.38126619265E+01  0.17770000000E+01 0.  1.
         15    1    1    2    0    0 -0.81795625005E+01 -0.15498290250E+02 -0.14802954444E+02  0.23008420907E+02  0.17770000000E+01 0. -1.
</event>
<event>
 6    1  0.1045352E-002  0.1840060E+03  0.7546771E-02  0.1067262E+00
        -11   -1    0    0    0    0  0.00000000000E+00  0.00000000000E+00  0.18250000000E+03  0.18250000000E+03  0.00000000000E+00 0. -1.
         11   -1    0    0    0    0 -0.00000000000E+00 -0.00000000000E+00 -0.18250000000E+03  0.18250000000E+03  0.00000000000E+00 0.  1.
        -11    1    1    2    0    0  0.91041876209E+00 -0.48862647519E+01  0.18092575954E+03  0.18099401899E+03  0.00000000000E+00 0. -1.
         11    1    1    2    0    0 -0.11829970714E+01  0.22942482250E+01 -0.16466087914E+03  0.16468111056E+03  0.00000000000E+00 0.  1.
        -15    1    1    2    0    0  0.96634616858E+00  0.43466666574E+01 -0.26750390891E+01  0.54900727751E+01  0.17770000000E+01 0.  1.
         15    1    1    2    0    0 -0.69376785928E+00 -0.17546501305E+01 -0.13589841311E+02  0.13834797677E+02  0.17770000000E+01 0.  1.
</event>
<event>
 6    1  0.1045352E-002  0.1830092E+03  0.7546771E-02  0.1068050E+00
        -11   -1    0    0    0    0  0.00000000000E+00  0.00000000000E+00  0.18250000000E+03  0.18250000000E+03  0.00000000000E+00 0.  1.
         11   -1    0    0    0    0 -0.00000000000E+00 -0.00000000000E+00 -0.18250000000E+03  0.18250000000E+03  0.00000000000E+00 0. -1.
        -11    1    1    2    0    0  0.15087725763E+01  0.18188663395E+01  0.16865481777E+03  0.16867137346E+03  0.00000000000E+00 0.  1.
         11    1    1    2    0    0  0.61756509100E+00 -0.28850189467E+01 -0.18196684584E+03  0.18199076270E+03  0.00000000000E+00 0. -1.
        -15    1    1    2    0    0 -0.11462186983E+01  0.88594183113E+00  0.27463669409E+01  0.35775648990E+01  0.17770000000E+01 0.  1.
         15    1    1    2    0    0 -0.98011896894E+00  0.18021077610E+00  0.10565661133E+02  0.10760298941E+02  0.17770000000E+01 0. -1.
</event>
<event>
 6    1  0.1045352E-002  0.1829469E+03  0.7546771E-02  0.1068100E+00
        -11   -1    0    0    0    0  0.00000000000E+00  0.00000000000E+00  0.18250000000E+03  0.18250000000E+03  0.00000000000E+00 0. -1.
         11   -1    0    0    0    0 -0.00000000000E+00 -0.00000000000E+00 -0.18250000000E+03  0.18250000000E+03  0.00000000000E+00 0.  1.
        -11    1    1    2    0    0 -0.17696196713E+01  0.21486940963E+01  0.88820863263E+02  0.88864470914E+02  0.00000000000E+00 0. -1.
         11    1    1    2    0    0  0.22233107932E+01  0.53116025709E+01 -0.18196198524E+03  0.18205307003E+03  0.00000000000E+00 0.  1.
        -15    1    1    2    0    0 -0.15214546219E+01  0.51583543567E+00  0.48682533186E+01  0.54257284982E+01  0.17770000000E+01 0.  1.
         15    1    1    2    0    0  0.10677634999E+01 -0.79761321029E+01  0.88272868663E+02  0.88656730558E+02  0.17770000000E+01 0. -1.
</event>
<event>
 6    1  0.1045352E-002  0.1850359E+03  0.7546771E-02  0.1066454E+00
        -11   -1    0    0    0    0  0.00000000000E+00  0.00000000000E+00  0.18250000000E+03  0.18250000000E+03  0.00000000000E+00 0.  1.
         11   -1    0    0    0    0 -0.00000000000E+00 -0.00000000000E+00 -0.18250000000E+03  0.18250000000E+03  0.00000000000E+00 0.  1.
        -11    1    1    2    0    0 -0.20253861705E+01 -0.77509903464E+00  0.80120312043E+02  0.80149656078E+02  0.00000000000E+00 0.  1.
         11    1    1    2    0    0 -0.18840646027E+02  0.91728762713E+01 -0.17873994245E+03  0.17996410372E+03  0.00000000000E+00 0.  1.
        -15    1    1    2    0    0  0.27397432888E+01  0.58699501287E+00 -0.80045385737E+00  0.34130941697E+01  0.17770000000E+01 0. -1.
         15    1    1    2    0    0  0.18126288909E+02 -0.89847722496E+01  0.99420084262E+02  0.10147314603E+03  0.17770000000E+01 0.  1.
</event>
<event>
 6    1  0.1045352E-002  0.1988732E+03  0.7546771E-02  0.1056121E+00
        -11   -1    0    0    0    0  0.00000000000E+00  0.00000000000E+00  0.18250000000E+03  0.18250000000E+03  0.00000000000E+00 0.  1.
         11   -1    0    0    0    0 -0.00000000000E+00 -0.00000000000E+00 -0.18250000000E+03  0.18250000000E+03  0.00000000000E+00 0.  1.
        -11    1    1    2    0    0  0.30580309319E+01 -0.21475130389E+01  0.15142542903E+03  0.15147152842E+03  0.00000000000E+00 0.  1.
         11    1    1    2    0    0  0.40426318371E+01 -0.21749968285E+01 -0.16606338823E+03  0.16612682623E+03  0.00000000000E+00 0.  1.
        -15    1    1    2    0    0  0.14565403042E+02  0.11046130664E+02 -0.30019731132E+01  0.18610146158E+02  0.17770000000E+01 0.  1.
         15    1    1    2    0    0 -0.21666065811E+02 -0.67236207965E+01  0.17639932315E+02  0.28791499187E+02  0.17770000000E+01 0. -1.
</event>
<event>
 6    1  0.1045352E-002  0.1862325E+03  0.7546771E-02  0.1065522E+00
        -11   -1    0    0    0    0  0.00000000000E+00  0.00000000000E+00  0.18250000000E+03  0.18250000000E+03  0.00000000000E+00 0.  1.
         11   -1    0    0    0    0 -0.00000000000E+00 -0.00000000000E+00 -0.18250000000E+03  0.18250000000E+03  0.00000000000E+00 0.  1.
        -11    1    1    2    0    0  0.30465558481E+01 -0.82697877253E+00  0.17873960770E+03  0.17876748239E+03  0.00000000000E+00 0.  1.
         11    1    1    2    0    0 -0.43133531863E+01 -0.69319815067E+00 -0.17675823745E+03  0.17681221690E+03  0.00000000000E+00 0.  1.
        -15    1    1    2    0    0  0.19252942528E+01  0.62262567969E+00 -0.50385727273E+01  0.57130871536E+01  0.17770000000E+01 0. -1.
         15    1    1    2    0    0 -0.65849691451E+00  0.89755124352E+00  0.30572024720E+01  0.37072135596E+01  0.17770000000E+01 0.  1.
</event>
<event>
 6    1  0.1045352E-002  0.1840719E+03  0.7546771E-02  0.1067210E+00
        -11   -1    0    0    0    0  0.00000000000E+00  0.00000000000E+00  0.18250000000E+03  0.18250000000E+03  0.00000000000E+00 0. -1.
         11   -1    0    0    0    0 -0.00000000000E+00 -0.00000000000E+00 -0.18250000000E+03  0.18250000000E+03  0.00000000000E+00 0. -1.
        -11    1    1    2    0    0 -0.31862981498E+01 -0.31098323558E+00  0.12151048371E+03  0.12155265056E+03  0.00000000000E+00 0. -1.
         11    1    1    2    0    0 -0.41823909250E+01 -0.26696097591E+01 -0.18086007058E+03  0.18092811927E+03  0.00000000000E+00 0. -1.
        -15    1    1    2    0    0  0.87644764345E+01  0.11580818289E+01  0.58894399285E+02  0.59580745185E+02  0.17770000000E+01 0. -1.
         15    1    1    2    0    0 -0.13957873597E+01  0.18225111659E+01  0.45518759215E+00  0.29384849918E+01  0.17770000000E+01 0. -1.
</event>
<event>
 6    1  0.1045352E-002  0.1840938E+03  0.7546771E-02  0.1067193E+00
        -11   -1    0    0    0    0  0.00000000000E+00  0.00000000000E+00  0.18250000000E+03  0.18250000000E+03  0.00000000000E+00 0.  1.
         11   -1    0    0    0    0 -0.00000000000E+00 -0.00000000000E+00 -0.18250000000E+03  0.18250000000E+03  0.00000000000E+00 0. -1.
        -11    1    1    2    0    0 -0.37587764691E+01  0.12077392108E+01  0.18086313364E+03  0.18090621920E+03  0.00000000000E+00 0.  1.
         11    1    1    2    0    0 -0.21709380963E+01  0.11368011284E+01 -0.10014236897E+03  0.10017234824E+03  0.00000000000E+00 0. -1.
        -15    1    1    2    0    0  0.23624343439E+01  0.24705714871E+01 -0.10327017743E+01  0.39886114697E+01  0.17770000000E+01 0. -1.
         15    1    1    2    0    0  0.35672802214E+01 -0.48151118262E+01 -0.79688062896E+02  0.79932821089E+02  0.17770000000E+01 0.  1.
</event>
<event>
 6    1  0.1045352E-002  0.1857275E+03  0.7546771E-02  0.1065914E+00
        -11   -1    0    0    0    0  0.00000000000E+00  0.00000000000E+00  0.18250000000E+03  0.18250000000E+03  0.00000000000E+00 0. -1.
         11   -1    0    0    0    0 -0.00000000000E+00 -0.00000000000E+00 -0.18250000000E+03  0.18250000000E+03  0.00000000000E+00 0. -1.
        -11    1    1    2    0    0 -0.28321150747E+01 -0.45083936557E+00  0.17031968479E+03  0.17034382630E+03  0.00000000000E+00 0. -1.
         11    1    1    2    0    0  0.28727599834E+01 -0.85484412221E+00 -0.17924739591E+03  0.17927245312E+03  0.00000000000E+00 0. -1.
        -15    1    1    2    0    0  0.55087266395E+01 -0.11510914601E+01  0.26369317954E+01  0.64639166944E+01  0.17770000000E+01 0. -1.
         15    1    1    2    0    0 -0.55493715482E+01  0.24567749479E+01  0.62907793261E+01  0.89198038798E+01  0.17770000000E+01 0. -1.
</event>
<event>
 6    1  0.1045352E-002  0.1835914E+03  0.7546771E-02  0.1067589E+00
        -11   -1    0    0    0    0  0.00000000000E+00  0.00000000000E+00  0.18250000000E+03  0.18250000000E+03  0.00000000000E+00 0. -1.
         11   -1    0    0    0    0 -0.00000000000E+00 -0.00000000000E+00 -0.18250000000E+03  0.18250000000E+03  0.00000000000E+00 0. -1.
        -11    1    1    2    0    0 -0.19776176037E+01 -0.23750210211E+01  0.15043192908E+03  0.15046367330E+03  0.00000000000E+00 0. -1.
         11    1    1    2    0    0  0.50706305080E+01 -0.66666350854E+01 -0.18121510603E+03  0.18140857194E+03  0.00000000000E+00 0. -1.
        -15    1    1    2    0    0 -0.20901567575E+01  0.23541456082E+01  0.37650206828E+01  0.52195657442E+01  0.17770000000E+01 0.  1.
         15    1    1    2    0    0 -0.10028561469E+01  0.66875104983E+01  0.27018156270E+02  0.27908189019E+02  0.17770000000E+01 0.  1.
</event>
<event>
 6    1  0.1045352E-002  0.1851332E+03  0.7546771E-02  0.1066378E+00
        -11   -1    0    0    0    0  0.00000000000E+00  0.00000000000E+00  0.18250000000E+03  0.18250000000E+03  0.00000000000E+00 0. -1.
         11   -1    0    0    0    0 -0.00000000000E+00 -0.00000000000E+00 -0.18250000000E+03  0.18250000000E+03  0.00000000000E+00 0. -1.
        -11    1    1    2    0    0  0.32187957447E+01 -0.10618481187E+01  0.17983486004E+03  0.17986679808E+03  0.00000000000E+00 0. -1.
         11    1    1    2    0    0  0.12112175596E+01 -0.20490153355E+01 -0.11060873026E+03  0.11063433789E+03  0.00000000000E+00 0. -1.
        -15    1    1    2    0    0 -0.65990261870E+01 -0.52027811356E+01 -0.55614787745E+01  0.10232490084E+02  0.17770000000E+01 0. -1.
         15    1    1    2    0    0  0.21690128827E+01  0.83136445897E+01 -0.63664651006E+02  0.64266373945E+02  0.17770000000E+01 0.  1.
</event>
<event>
 6    1  0.1045352E-002  0.2152025E+03  0.7546771E-02  0.1045045E+00
        -11   -1    0    0    0    0  0.00000000000E+00  0.00000000000E+00  0.18250000000E+03  0.18250000000E+03  0.00000000000E+00 0. -1.
         11   -1    0    0    0    0 -0.00000000000E+00 -0.00000000000E+00 -0.18250000000E+03  0.18250000000E+03  0.00000000000E+00 0. -1.
        -11    1    1    2    0    0 -0.42986113392E+01  0.16406521801E+01  0.14972682372E+03  0.14979750178E+03  0.00000000000E+00 0. -1.
         11    1    1    2    0    0  0.35819064282E+01 -0.23513611555E+01 -0.14747147243E+03  0.14753370507E+03  0.00000000000E+00 0. -1.
        -15    1    1    2    0    0  0.17801753525E+02 -0.19928713691E+02  0.19484900505E+02  0.33119105282E+02  0.17770000000E+01 0.  1.
         15    1    1    2    0    0 -0.17085048614E+02  0.20639422666E+02 -0.21740251797E+02  0.34549687862E+02  0.17770000000E+01 0. -1.
</event>
<event>
 6    1  0.1045352E-002  0.1845474E+03  0.7546771E-02  0.1066837E+00
        -11   -1    0    0    0    0  0.00000000000E+00  0.00000000000E+00  0.18250000000E+03  0.18250000000E+03  0.00000000000E+00 0.  1.
         11   -1    0    0    0    0 -0.00000000000E+00 -0.00000000000E+00 -0.18250000000E+03  0.18250000000E+03  0.00000000000E+00 0.  1.
        -11    1    1    2    0    0  0.24273017274E+01  0.24429363036E+01  0.16501543626E+03  0.16505136757E+03  0.00000000000E+00 0.  1.
         11    1    1    2    0    0  0.11305493396E+01 -0.25375174686E+01 -0.18043120752E+03  0.18045259152E+03  0.00000000000E+00 0.  1.
        -15    1    1    2    0    0 -0.39302136302E+00  0.15242316582E+01 -0.10345193917E+01  0.25895380498E+01  0.17770000000E+01 0. -1.
         15    1    1    2    0    0 -0.31648297039E+01 -0.14296504932E+01  0.16450290650E+02  0.16906502863E+02  0.17770000000E+01 0. -1.
</event>
<event>
 6    1  0.1045352E-002  0.1877514E+03  0.7546771E-02  0.1064350E+00
        -11   -1    0    0    0    0  0.00000000000E+00  0.00000000000E+00  0.18250000000E+03  0.18250000000E+03  0.00000000000E+00 0.  1.
         11   -1    0    0    0    0 -0.00000000000E+00 -0.00000000000E+00 -0.18250000000E+03  0.18250000000E+03  0.00000000000E+00 0. -1.
        -11    1    1    2    0    0 -0.20271562377E+01 -0.53307462991E+01  0.17715684793E+03  0.17724862479E+03  0.00000000000E+00 0.  1.
         11    1    1    2    0    0  0.57444450974E+01 -0.39466852104E+01 -0.49200595999E+02  0.49691786246E+02  0.00000000000E+00 0. -1.
        -15    1    1    2    0    0 -0.67783489351E+01 -0.67463357547E+01 -0.11893742518E+03  0.11933452098E+03  0.17770000000E+01 0. -1.
         15    1    1    2    0    0  0.30610600755E+01  0.16023767264E+02 -0.90188267574E+01  0.18725067989E+02  0.17770000000E+01 0.  1.
</event>
<event>
 6    1  0.1045352E-002  0.1942174E+03  0.7546771E-02  0.1059492E+00
        -11   -1    0    0    0    0  0.00000000000E+00  0.00000000000E+00  0.18250000000E+03  0.18250000000E+03  0.00000000000E+00 0.  1.
         11   -1    0    0    0    0 -0.00000000000E+00 -0.00000000000E+00 -0.18250000000E+03  0.18250000000E+03  0.00000000000E+00 0.  1.
        -11    1    1    2    0    0 -0.94393133888E+00  0.75312309519E+01  0.17061380689E+03  0.17078255633E+03  0.00000000000E+00 0.  1.
         11    1    1    2    0    0  0.97600273563E+00  0.27287915319E+01 -0.15927210514E+03  0.15929846943E+03  0.00000000000E+00 0.  1.
        -15    1    1    2    0    0  0.64430647817E+00 -0.15983769786E+02  0.55165621306E+01  0.17014294407E+02  0.17770000000E+01 0.  1.
         15    1    1    2    0    0 -0.67637787491E+00  0.57237473023E+01 -0.16858263873E+02  0.17904679836E+02  0.17770000000E+01 0.  1.
</event>
<event>
 6    1  0.1045352E-002  0.1764586E+03  0.7546771E-02  0.1073368E+00
        -11   -1    0    0    0    0  0.00000000000E+00  0.00000000000E+00  0.18250000000E+03  0.18250000000E+03  0.00000000000E+00 0.  1.
         11   -1    0    0    0    0 -0.00000000000E+00 -0.00000000000E+00 -0.18250000000E+03  0.18250000000E+03  0.00000000000E+00 0.  1.
        -11    1    1    2    0    0 -0.29791112726E+01  0.35243077147E+01  0.17609858879E+03  0.17615904411E+03  0.00000000000E+00 0.  1.
         11    1    1    2    0    0 -0.64367734963E+01  0.13432530634E+01 -0.17679567609E+03  0.17691791166E+03  0.00000000000E+00 0.  1.
        -15    1    1    2    0    0  0.87034977617E+01 -0.40505537816E+01  0.10220075348E+01  0.98163174168E+01  0.17770000000E+01 0.  1.
         15    1    1    2    0    0  0.71238700717E+00 -0.81700699648E+00 -0.32492023022E+00  0.21067268063E+01  0.17770000000E+01 0. -1.
</event>
<event>
 6    1  0.1045352E-002  0.1740816E+03  0.7546771E-02  0.1075361E+00
        -11   -1    0    0    0    0  0.00000000000E+00  0.00000000000E+00  0.18250000000E+03  0.18250000000E+03  0.00000000000E+00 0.  1.
         11   -1    0    0    0    0 -0.00000000000E+00 -0.00000000000E+00 -0.18250000000E+03  0.18250000000E+03  0.00000000000E+00 0.  1.
        -11    1    1    2    0    0 -0.15339754426E+01 -0.30465915868E+01  0.17380992671E+03  0.17384339339E+03  0.00000000000E+00 0.  1.
         11    1    1    2    0    0  0.71144341911E+01  0.56463946593E+01 -0.17413774050E+03  0.17437445229E+03  0.00000000000E+00 0.  1.
        -15    1    1    2    0    0  0.20133522724E+01 -0.32562174828E+01  0.58427377780E+01  0.72077634125E+01  0.17770000000E+01 0. -1.
         15    1    1    2    0    0 -0.75938110209E+01  0.65641441033E+00 -0.55149239921E+01  0.95743909121E+01  0.17770000000E+01 0.  1.
</event>
<event>
 6    1  0.1045352E-002  0.1852898E+03  0.7546771E-02  0.1066256E+00
        -11   -1    0    0    0    0  0.00000000000E+00  0.00000000000E+00  0.18250000000E+03  0.18250000000E+03  0.00000000000E+00 0. -1.
         11   -1    0    0    0    0 -0.00000000000E+00 -0.00000000000E+00 -0.18250000000E+03  0.18250000000E+03  0.00000000000E+00 0.  1.
        -11    1    1    2    0    0 -0.16946482489E+01  0.21657366674E+01  0.17548255198E+03  0.17550409767E+03  0.00000000000E+00 0. -1.
         11    1    1    2    0    0 -0.33365630904E+01 -0.25453128362E+01 -0.17966121730E+03  0.17971022306E+03  0.00000000000E+00 0.  1.
        -15    1    1    2    0    0  0.44672707025E+01 -0.10487303982E+01 -0.81022676662E-01  0.49214466016E+01  0.17770000000E+01 0. -1.
         15    1    1    2    0    0  0.56394063680E+00  0.14283065670E+01  0.42596879902E+01  0.48642326697E+01  0.17770000000E+01 0.  1.
</event>
<event>
 6    1  0.1045352E-002  0.1830662E+03  0.7546771E-02  0.1068005E+00
        -11   -1    0    0    0    0  0.00000000000E+00  0.00000000000E+00  0.18250000000E+03  0.18250000000E+03  0.00000000000E+00 0.  1.
         11   -1    0    0    0    0 -0.00000000000E+00 -0.00000000000E+00 -0.18250000000E+03  0.18250000000E+03  0.00000000000E+00 0.  1.
        -11    1    1    2    0    0  0.33341586533E+01 -0.33231447484E+01  0.18187290112E+03  0.18193381233E+03  0.00000000000E+00 0.  1.
         11    1    1    2    0    0 -0.28609303060E+01  0.15830204413E+01 -0.14607002598E+03  0.14610661644E+03  0.00000000000E+00 0.  1.
        -15    1    1    2    0    0  0.87412400070E+00 -0.10300016093E+01 -0.30458253803E+02  0.30539940239E+02  0.17770000000E+01 0.  1.
         15    1    1    2    0    0 -0.13473523480E+01  0.27701259164E+01 -0.53446213356E+01  0.64196309990E+01  0.17770000000E+01 0. -1.
</event>
<event>
 6    1  0.1045352E-002  0.1827792E+03  0.7546771E-02  0.1068233E+00
        -11   -1    0    0    0    0  0.00000000000E+00  0.00000000000E+00  0.18250000000E+03  0.18250000000E+03  0.00000000000E+00 0.  1.
         11   -1    0    0    0    0 -0.00000000000E+00 -0.00000000000E+00 -0.18250000000E+03  0.18250000000E+03  0.00000000000E+00 0. -1.
        -11    1    1    2    0    0  0.92144813619E+00  0.25588189432E+01  0.13681977838E+03  0.13684680623E+03  0.00000000000E+00 0.  1.
         11    1    1    2    0    0  0.13371465928E+00  0.24526057659E+01 -0.18220420334E+03  0.18222075861E+03  0.00000000000E+00 0. -1.
        -15    1    1    2    0    0 -0.88770417216E+00 -0.44987395827E+01  0.38053686767E+02  0.38370137895E+02  0.17770000000E+01 0. -1.
         15    1    1    2    0    0 -0.16745862331E+00 -0.51268512630E+00  0.73307381920E+01  0.75622972613E+01  0.17770000000E+01 0. -1.
</event>
<event>
 6    1  0.1045352E-002  0.1930297E+03  0.7546771E-02  0.1060369E+00
        -11   -1    0    0    0    0  0.00000000000E+00  0.00000000000E+00  0.18250000000E+03  0.18250000000E+03  0.00000000000E+00 0. -1.
         11   -1    0    0    0    0 -0.00000000000E+00 -0.00000000000E+00 -0.18250000000E+03  0.18250000000E+03  0.00000000000E+00 0. -1.
        -11    1    1    2    0    0 -0.14401761952E+01 -0.15199699629E+01  0.14879081141E+03  0.14880554417E+03  0.00000000000E+00 0. -1.
         11    1    1    2    0    0 -0.27896080684E+00  0.29222339459E+01 -0.17194529001E+03  0.17197034636E+03  0.00000000000E+00 0. -1.
        -15    1    1    2    0    0 -0.52835660945E+01  0.70139004024E+01  0.29919473280E+02  0.31232090546E+02  0.17770000000E+01 0.  1.
         15    1    1    2    0    0  0.70027030965E+01 -0.84161643853E+01 -0.67649946749E+01  0.12992018918E+02  0.17770000000E+01 0. -1.
</event>
<event>
 6    1  0.1045352E-002  0.1681404E+03  0.7546771E-02  0.1080497E+00
        -11   -1    0    0    0    0  0.00000000000E+00  0.00000000000E+00  0.18250000000E+03  0.18250000000E+03  0.00000000000E+00 0.  1.
         11   -1    0    0    0    0 -0.00000000000E+00 -0.00000000000E+00 -0.18250000000E+03  0.18250000000E+03  0.00000000000E+00 0.  1.
        -11    1    1    2    0    0  0.11375933512E+02  0.84300163470E+00  0.16758545915E+03  0.16797323785E+03  0.00000000000E+00 0.  1.
         11    1    1    2    0    0  0.26132041823E+01  0.88076944521E+00 -0.16858164758E+03  0.16860420069E+03  0.00000000000E+00 0.  1.
        -15    1    1    2    0    0 -0.19909371257E+00  0.76866587399E+00 -0.10208619317E+02  0.10392503206E+02  0.17770000000E+01 0. -1.
         15    1    1    2    0    0 -0.13790043981E+02 -0.24924369539E+01  0.11204807748E+02  0.18030058254E+02  0.17770000000E+01 0.  1.
</event>
<event>
 6    1  0.1045352E-002  0.1828084E+03  0.7546771E-02  0.1068210E+00
        -11   -1    0    0    0    0  0.00000000000E+00  0.00000000000E+00  0.18250000000E+03  0.18250000000E+03  0.00000000000E+00 0. -1.
         11   -1    0    0    0    0 -0.00000000000E+00 -0.00000000000E+00 -0.18250000000E+03  0.18250000000E+03  0.00000000000E+00 0.  1.
        -11    1    1    2    0    0  0.25384513873E+01  0.10483921332E+00  0.12443017039E+03  0.12445610483E+03  0.00000000000E+00 0. -1.
         11    1    1    2    0    0 -0.22907789081E+01  0.20838944176E+01 -0.18216530591E+03  0.18219162703E+03  0.00000000000E+00 0.  1.
        -15    1    1    2    0    0 -0.15339430232E+01  0.20452770231E+01  0.34038479622E+02  0.34180578744E+02  0.17770000000E+01 0.  1.
         15    1    1    2    0    0  0.12862705441E+01 -0.42340106540E+01  0.23696655903E+02  0.24171689393E+02  0.17770000000E+01 0.  1.
</event>
<event>
 6    1  0.1847737E-002  0.1564533E+03  0.7546771E-02  0.1091314E+00
        -11   -1    0    0    0    0  0.00000000000E+00  0.00000000000E+00  0.18250000000E+03  0.18250000000E+03  0.00000000000E+00 0.  1.
         11   -1    0    0    0    0 -0.00000000000E+00 -0.00000000000E+00 -0.18250000000E+03  0.18250000000E+03  0.00000000000E+00 0. -1.
        -11    1    1    2    0    0  0.23863562312E+01 -0.47004776163E+00  0.15335109927E+03  0.15337038596E+03  0.00000000000E+00 0.  1.
         11    1    1    2    0    0 -0.11834684350E+02  0.78651750975E+01 -0.15918757509E+03  0.15982053934E+03  0.00000000000E+00 0. -1.
        -15    1    1    2    0    0  0.78517932227E+01 -0.57472259564E+01 -0.21842812904E+02  0.23978062215E+02  0.17770000000E+01 0. -1.
         15    1    1    2    0    0  0.15965348961E+01 -0.16479013795E+01  0.27679288721E+02  0.27831012482E+02  0.17770000000E+01 0.  1.
</event>
<event>
 6    1  0.1045352E-002  0.1778117E+03  0.7546771E-02  0.1072249E+00
        -11   -1    0    0    0    0  0.00000000000E+00  0.00000000000E+00  0.18250000000E+03  0.18250000000E+03  0.00000000000E+00 0.  1.
         11   -1    0    0    0    0 -0.00000000000E+00 -0.00000000000E+00 -0.18250000000E+03  0.18250000000E+03  0.00000000000E+00 0. -1.
        -11    1    1    2    0    0 -0.20348346764E+01 -0.36198314390E+01  0.17842768252E+03  0.17847599732E+03  0.00000000000E+00 0.  1.
         11    1    1    2    0    0 -0.21696395330E+00  0.38288411728E+01 -0.17711553850E+03  0.17715705201E+03  0.00000000000E+00 0. -1.
        -15    1    1    2    0    0  0.14883163039E+01  0.18961816204E+01  0.29703341048E+01  0.42179620496E+01  0.17770000000E+01 0. -1.
         15    1    1    2    0    0  0.76348232586E+00 -0.21051913542E+01 -0.42824781252E+01  0.51489886184E+01  0.17770000000E+01 0.  1.
</event>
<event>
 6    1  0.1045352E-002  0.1835351E+03  0.7546771E-02  0.1067634E+00
        -11   -1    0    0    0    0  0.00000000000E+00  0.00000000000E+00  0.18250000000E+03  0.18250000000E+03  0.00000000000E+00 0.  1.
         11   -1    0    0    0    0 -0.00000000000E+00 -0.00000000000E+00 -0.18250000000E+03  0.18250000000E+03  0.00000000000E+00 0.  1.
        -11    1    1    2    0    0  0.22340018861E+01 -0.21130802237E+01  0.18143886582E+03  0.18146492196E+03  0.00000000000E+00 0.  1.
         11    1    1    2    0    0 -0.45794086218E+00  0.42422905760E+01 -0.16936315263E+03  0.16941689470E+03  0.00000000000E+00 0.  1.
        -15    1    1    2    0    0 -0.22610229264E+01 -0.13873009149E+01 -0.18265725977E+01  0.36784405605E+01  0.17770000000E+01 0.  1.
         15    1    1    2    0    0  0.48496190252E+00 -0.74190943738E+00 -0.10249140584E+02  0.10439742783E+02  0.17770000000E+01 0.  1.
</event>
<event>
 6    1  0.1045352E-002  0.1857401E+03  0.7546771E-02  0.1065905E+00
        -11   -1    0    0    0    0  0.00000000000E+00  0.00000000000E+00  0.18250000000E+03  0.18250000000E+03  0.00000000000E+00 0. -1.
         11   -1    0    0    0    0 -0.00000000000E+00 -0.00000000000E+00 -0.18250000000E+03  0.18250000000E+03  0.00000000000E+00 0.  1.
        -11    1    1    2    0    0 -0.36070795301E+00 -0.49833827461E+01  0.17746791749E+03  0.17753823800E+03  0.00000000000E+00 0. -1.
         11    1    1    2    0    0 -0.21330393302E+00  0.56272274391E+01 -0.17917147678E+03  0.17925994889E+03  0.00000000000E+00 0.  1.
        -15    1    1    2    0    0 -0.84098431866E+00 -0.29090098242E+01 -0.13607499041E+01  0.37654962599E+01  0.17770000000E+01 0. -1.
         15    1    1    2    0    0  0.14149962047E+01  0.22651651312E+01  0.30643091912E+01  0.44363168452E+01  0.17770000000E+01 0. -1.
</event>
<event>
 6    1  0.1053036E-002  0.1831759E+03  0.7546771E-02  0.1067918E+00
        -11   -1    0    0    0    0  0.00000000000E+00  0.00000000000E+00  0.18250000000E+03  0.18250000000E+03  0.00000000000E+00 0.  1.
         11   -1    0    0    0    0 -0.00000000000E+00 -0.00000000000E+00 -0.18250000000E+03  0.18250000000E+03  0.00000000000E+00 0. -1.
        -11    1    1    2    0    0  0.14409139814E+01 -0.80056166938E+00  0.91033404083E+02  0.91048326679E+02  0.00000000000E+00 0.  1.
         11    1    1    2    0    0 -0.67438646837E+01  0.22162317290E+01 -0.18168545598E+03  0.18182408066E+03  0.00000000000E+00 0. -1.
        -15    1    1    2    0    0 -0.17032989536E+01  0.22725097882E+00  0.72200704202E+02  0.72243008565E+02  0.17770000000E+01 0.  1.
         15    1    1    2    0    0  0.70062496558E+01 -0.16429210385E+01  0.18451347695E+02  0.19884584093E+02  0.17770000000E+01 0. -1.
</event>
<event>
 6    1  0.1045352E-002  0.1833544E+03  0.7546771E-02  0.1067777E+00
        -11   -1    0    0    0    0  0.00000000000E+00  0.00000000000E+00  0.18250000000E+03  0.18250000000E+03  0.00000000000E+00 0. -1.
         11   -1    0    0    0    0 -0.00000000000E+00 -0.00000000000E+00 -0.18250000000E+03  0.18250000000E+03  0.00000000000E+00 0.  1.
        -11    1    1    2    0    0  0.83879494034E+00 -0.74236333965E+00  0.51247570765E+02  0.51259810666E+02  0.00000000000E+00 0. -1.
         11    1    1    2    0    0 -0.17359347639E+01  0.32048900193E+01 -0.18160900909E+03  0.18164558066E+03  0.00000000000E+00 0.  1.
        -15    1    1    2    0    0 -0.34652669929E+01 -0.21970879042E+01  0.12445451754E+03  0.12453481415E+03  0.17770000000E+01 0. -1.
         15    1    1    2    0    0  0.43624068165E+01 -0.26543877545E+00  0.59069207873E+01  0.75597945186E+01  0.17770000000E+01 0.  1.
</event>
<event>
 6    1  0.1045352E-002  0.1867636E+03  0.7546771E-02  0.1065111E+00
        -11   -1    0    0    0    0  0.00000000000E+00  0.00000000000E+00  0.18250000000E+03  0.18250000000E+03  0.00000000000E+00 0. -1.
         11   -1    0    0    0    0 -0.00000000000E+00 -0.00000000000E+00 -0.18250000000E+03  0.18250000000E+03  0.00000000000E+00 0.  1.
        -11    1    1    2    0    0 -0.85967691323E+01 -0.76955414703E+01  0.15520344475E+03  0.15563172896E+03  0.00000000000E+00 0. -1.
         11    1    1    2    0    0 -0.49710136031E+01 -0.33356804466E+01 -0.17813584265E+03  0.17823640530E+03  0.00000000000E+00 0.  1.
        -15    1    1    2    0    0  0.13307822378E+02  0.51483634478E+01  0.19014001400E+02  0.23838912745E+02  0.17770000000E+01 0.  1.
         15    1    1    2    0    0  0.25996035766E+00  0.58828584692E+01  0.39183964967E+01  0.72929529864E+01  0.17770000000E+01 0. -1.
</event>
<event>
 6    1  0.1045352E-002  0.1885438E+03  0.7546771E-02  0.1063743E+00
        -11   -1    0    0    0    0  0.00000000000E+00  0.00000000000E+00  0.18250000000E+03  0.18250000000E+03  0.00000000000E+00 0.  1.
         11   -1    0    0    0    0 -0.00000000000E+00 -0.00000000000E+00 -0.18250000000E+03  0.18250000000E+03  0.00000000000E+00 0. -1.
        -11    1    1    2    0    0 -0.40355885058E+01  0.58040483609E+01  0.17631455008E+03  0.17645620851E+03  0.00000000000E+00 0.  1.
         11    1    1    2    0    0  0.97164241664E+00  0.12512875746E+01 -0.10680154146E+03  0.10681329069E+03  0.00000000000E+00 0. -1.
        -15    1    1    2    0    0 -0.80131992728E+01  0.42391811585E+01 -0.64328100720E+02  0.64988031904E+02  0.17770000000E+01 0. -1.
         15    1    1    2    0    0  0.11077145362E+02 -0.11294517094E+02 -0.51849079054E+01  0.16742468896E+02  0.17770000000E+01 0.  1.
</event>
<event>
 6    1  0.1045352E-002  0.1833262E+03  0.7546771E-02  0.1067799E+00
        -11   -1    0    0    0    0  0.00000000000E+00  0.00000000000E+00  0.18250000000E+03  0.18250000000E+03  0.00000000000E+00 0.  1.
         11   -1    0    0    0    0 -0.00000000000E+00 -0.00000000000E+00 -0.18250000000E+03  0.18250000000E+03  0.00000000000E+00 0.  1.
        -11    1    1    2    0    0  0.14513327791E+01  0.23011593772E+01  0.18165347249E+03  0.18167384448E+03  0.00000000000E+00 0.  1.
         11    1    1    2    0    0  0.26691271965E+00  0.21174021103E+01 -0.13827632755E+03  0.13829279589E+03  0.00000000000E+00 0.  1.
        -15    1    1    2    0    0  0.20192012683E+01 -0.11584363746E+01 -0.35099222330E+02  0.35221190863E+02  0.17770000000E+01 0.  1.
         15    1    1    2    0    0 -0.37374467670E+01 -0.32601251128E+01 -0.82779226115E+01  0.98121687638E+01  0.17770000000E+01 0.  1.
</event>
<event>
 6    1  0.1045352E-002  0.1830576E+03  0.7546771E-02  0.1068012E+00
        -11   -1    0    0    0    0  0.00000000000E+00  0.00000000000E+00  0.18250000000E+03  0.18250000000E+03  0.00000000000E+00 0. -1.
         11   -1    0    0    0    0 -0.00000000000E+00 -0.00000000000E+00 -0.18250000000E+03  0.18250000000E+03  0.00000000000E+00 0.  1.
        -11    1    1    2    0    0  0.27343610682E+01  0.70361853551E+00  0.18192049822E+03  0.18194240704E+03  0.00000000000E+00 0. -1.
         11    1    1    2    0    0  0.12229437966E+01  0.22960543014E+01 -0.12079866364E+03  0.12082667170E+03  0.00000000000E+00 0.  1.
        -15    1    1    2    0    0 -0.39313366578E+01 -0.24646524173E+01 -0.10947682974E+02  0.12022454448E+02  0.17770000000E+01 0. -1.
         15    1    1    2    0    0 -0.25968206987E-01 -0.53502041952E+00 -0.50174151605E+02  0.50208466811E+02  0.17770000000E+01 0.  1.
</event>
<event>
 6    1  0.1045352E-002  0.1833109E+03  0.7546771E-02  0.1067811E+00
        -11   -1    0    0    0    0  0.00000000000E+00  0.00000000000E+00  0.18250000000E+03  0.18250000000E+03  0.00000000000E+00 0.  1.
         11   -1    0    0    0    0 -0.00000000000E+00 -0.00000000000E+00 -0.18250000000E+03  0.18250000000E+03  0.00000000000E+00 0.  1.
        -11    1    1    2    0    0  0.17665314128E+01 -0.21626645808E+01  0.18166764464E+03  0.18168910496E+03  0.00000000000E+00 0.  1.
         11    1    1    2    0    0  0.11386336863E+01 -0.12681141106E+01 -0.12489654543E+03  0.12490817291E+03  0.00000000000E+00 0.  1.
        -15    1    1    2    0    0 -0.55994497089E+01  0.56695250973E+01 -0.49205529513E+02  0.49878243910E+02  0.17770000000E+01 0.  1.
         15    1    1    2    0    0  0.26942846098E+01 -0.22387464059E+01 -0.75655696983E+01  0.85244782180E+01  0.17770000000E+01 0.  1.
</event>
<event>
 6    1  0.1045352E-002  0.1861870E+03  0.7546771E-02  0.1065557E+00
        -11   -1    0    0    0    0  0.00000000000E+00  0.00000000000E+00  0.18250000000E+03  0.18250000000E+03  0.00000000000E+00 0. -1.
         11   -1    0    0    0    0 -0.00000000000E+00 -0.00000000000E+00 -0.18250000000E+03  0.18250000000E+03  0.00000000000E+00 0.  1.
        -11    1    1    2    0    0  0.15313988025E+01  0.56713414423E+01  0.17871650360E+03  0.17881302513E+03  0.00000000000E+00 0. -1.
         11    1    1    2    0    0 -0.89257821768E+01 -0.53446833981E+00 -0.16160034245E+03  0.16184753913E+03  0.00000000000E+00 0.  1.
        -15    1    1    2    0    0 -0.83713855694E+00 -0.61957559120E+01 -0.16633143199E+01  0.67091382316E+01  0.17770000000E+01 0. -1.
         15    1    1    2    0    0  0.82315219312E+01  0.10588828095E+01 -0.15452846832E+02  0.17630297511E+02  0.17770000000E+01 0. -1.
</event>
<event>
 6    1  0.1045352E-002  0.1833433E+03  0.7546771E-02  0.1067786E+00
        -11   -1    0    0    0    0  0.00000000000E+00  0.00000000000E+00  0.18250000000E+03  0.18250000000E+03  0.00000000000E+00 0. -1.
         11   -1    0    0    0    0 -0.00000000000E+00 -0.00000000000E+00 -0.18250000000E+03  0.18250000000E+03  0.00000000000E+00 0.  1.
        -11    1    1    2    0    0 -0.25742463571E+01 -0.12134777832E+01  0.18163439560E+03  0.18165668977E+03  0.00000000000E+00 0. -1.
         11    1    1    2    0    0  0.26496586435E+01 -0.13650427398E+01 -0.14539357053E+03  0.14542411899E+03  0.00000000000E+00 0.  1.
        -15    1    1    2    0    0  0.30968947734E+01  0.20386311251E+01 -0.50480103300E+01  0.65105231275E+01  0.17770000000E+01 0. -1.
         15    1    1    2    0    0 -0.31723070598E+01  0.53988939790E+00 -0.31192814740E+02  0.31408668120E+02  0.17770000000E+01 0. -1.
</event>
<event>
 6    1  0.1045352E-002  0.1839607E+03  0.7546771E-02  0.1067298E+00
        -11   -1    0    0    0    0  0.00000000000E+00  0.00000000000E+00  0.18250000000E+03  0.18250000000E+03  0.00000000000E+00 0. -1.
         11   -1    0    0    0    0 -0.00000000000E+00 -0.00000000000E+00 -0.18250000000E+03  0.18250000000E+03  0.00000000000E+00 0.  1.
        -11    1    1    2    0    0  0.20306217756E+01  0.16599073457E+01  0.18102026857E+03  0.18103926742E+03  0.00000000000E+00 0. -1.
         11    1    1    2    0    0  0.53101371488E+00  0.11332538372E+01 -0.43064115615E+02  0.43082296753E+02  0.00000000000E+00 0.  1.
        -15    1    1    2    0    0 -0.21339785503E+01 -0.11474218810E+02 -0.25808133486E+02  0.28380081832E+02  0.17770000000E+01 0. -1.
         15    1    1    2    0    0 -0.42765694025E+00  0.86810576273E+01 -0.11214801947E+03  0.11249835399E+03  0.17770000000E+01 0.  1.
</event>
<event>
 6    1  0.1045352E-002  0.1834423E+03  0.7546771E-02  0.1067707E+00
        -11   -1    0    0    0    0  0.00000000000E+00  0.00000000000E+00  0.18250000000E+03  0.18250000000E+03  0.00000000000E+00 0.  1.
         11   -1    0    0    0    0 -0.00000000000E+00 -0.00000000000E+00 -0.18250000000E+03  0.18250000000E+03  0.00000000000E+00 0.  1.
        -11    1    1    2    0    0 -0.65551544737E+01 -0.87317305269E+01  0.18122909733E+03  0.18155770126E+03  0.00000000000E+00 0.  1.
         11    1    1    2    0    0  0.61227896785E+00 -0.36068496636E+01 -0.55928910154E+02  0.56048436562E+02  0.00000000000E+00 0.  1.
        -15    1    1    2    0    0  0.91571855371E+01  0.84990372290E-01 -0.36318649786E+02  0.37497510872E+02  0.17770000000E+01 0. -1.
         15    1    1    2    0    0 -0.32143100313E+01  0.12253589818E+02 -0.88981537391E+02  0.89896351304E+02  0.17770000000E+01 0.  1.
</event>
<event>
 6    1  0.1045352E-002  0.1768704E+03  0.7546771E-02  0.1073026E+00
        -11   -1    0    0    0    0  0.00000000000E+00  0.00000000000E+00  0.18250000000E+03  0.18250000000E+03  0.00000000000E+00 0. -1.
         11   -1    0    0    0    0 -0.00000000000E+00 -0.00000000000E+00 -0.18250000000E+03  0.18250000000E+03  0.00000000000E+00 0. -1.
        -11    1    1    2    0    0 -0.25257418101E+01 -0.38428945298E-01  0.17744973063E+03  0.17746770904E+03  0.00000000000E+00 0. -1.
         11    1    1    2    0    0 -0.36449322275E+01  0.29697456880E+01 -0.17627830507E+03  0.17634099285E+03  0.00000000000E+00 0. -1.
        -15    1    1    2    0    0  0.64732486892E+01 -0.47171786861E+01  0.38693417525E+00  0.82135358041E+01  0.17770000000E+01 0.  1.
         15    1    1    2    0    0 -0.30257465150E+00  0.17858619434E+01 -0.15583597394E+01  0.29777623106E+01  0.17770000000E+01 0. -1.
</event>
<event>
 6    1  0.1045352E-002  0.1854240E+03  0.7546771E-02  0.1066151E+00
        -11   -1    0    0    0    0  0.00000000000E+00  0.00000000000E+00  0.18250000000E+03  0.18250000000E+03  0.00000000000E+00 0.  1.
         11   -1    0    0    0    0 -0.00000000000E+00 -0.00000000000E+00 -0.18250000000E+03  0.18250000000E+03  0.00000000000E+00 0.  1.
        -11    1    1    2    0    0  0.50914731852E+01  0.11424881467E+01  0.17950017291E+03  0.17957600189E+03  0.00000000000E+00 0.  1.
         11    1    1    2    0    0  0.14613251551E+01 -0.93752355207E+00 -0.12767025562E+03  0.12768206057E+03  0.00000000000E+00 0.  1.
        -15    1    1    2    0    0 -0.25539029905E+01  0.37572262985E+01 -0.51604365622E+02  0.51834423410E+02  0.17770000000E+01 0.  1.
         15    1    1    2    0    0 -0.39988953498E+01 -0.39621908931E+01 -0.22555166840E+00  0.59075141343E+01  0.17770000000E+01 0. -1.
</event>
<event>
 6    1  0.1045352E-002  0.1850892E+03  0.7546771E-02  0.1066412E+00
        -11   -1    0    0    0    0  0.00000000000E+00  0.00000000000E+00  0.18250000000E+03  0.18250000000E+03  0.00000000000E+00 0.  1.
         11   -1    0    0    0    0 -0.00000000000E+00 -0.00000000000E+00 -0.18250000000E+03  0.18250000000E+03  0.00000000000E+00 0. -1.
        -11    1    1    2    0    0  0.36391161202E+01 -0.58301240074E+01  0.17977945366E+03  0.17991077086E+03  0.00000000000E+00 0.  1.
         11    1    1    2    0    0 -0.57919503285E+01 -0.50463426657E+01 -0.15466329010E+03  0.15485394915E+03  0.00000000000E+00 0. -1.
        -15    1    1    2    0    0 -0.25500657681E+01  0.27721130008E+01 -0.97329020342E+00  0.42769695733E+01  0.17770000000E+01 0. -1.
         15    1    1    2    0    0  0.47028999764E+01  0.81043536724E+01 -0.24142873363E+02  0.25958310420E+02  0.17770000000E+01 0.  1.
</event>
<event>
 6    1  0.1045352E-002  0.1832968E+03  0.7546771E-02  0.1067822E+00
        -11   -1    0    0    0    0  0.00000000000E+00  0.00000000000E+00  0.18250000000E+03  0.18250000000E+03  0.00000000000E+00 0. -1.
         11   -1    0    0    0    0 -0.00000000000E+00 -0.00000000000E+00 -0.18250000000E+03  0.18250000000E+03  0.00000000000E+00 0. -1.
        -11    1    1    2    0    0  0.15458304487E+01  0.43231512900E+01  0.11389324628E+03  0.11398574813E+03  0.00000000000E+00 0. -1.
         11    1    1    2    0    0  0.28485544818E+01  0.63167663595E+01 -0.18157103415E+03  0.18170320922E+03  0.00000000000E+00 0. -1.
        -15    1    1    2    0    0 -0.30677943774E+01 -0.10167166972E+02  0.36609710499E+02  0.38160336455E+02  0.17770000000E+01 0.  1.
         15    1    1    2    0    0 -0.13265905531E+01 -0.47275067745E+00  0.31068077367E+02  0.31150706188E+02  0.17770000000E+01 0. -1.
</event>
<event>
 6    1  0.1045352E-002  0.1831530E+03  0.7546771E-02  0.1067936E+00
        -11   -1    0    0    0    0  0.00000000000E+00  0.00000000000E+00  0.18250000000E+03  0.18250000000E+03  0.00000000000E+00 0. -1.
         11   -1    0    0    0    0 -0.00000000000E+00 -0.00000000000E+00 -0.18250000000E+03  0.18250000000E+03  0.00000000000E+00 0.  1.
        -11    1    1    2    0    0  0.19025753715E+01  0.20222677817E+01  0.18182581889E+03  0.18184701750E+03  0.00000000000E+00 0. -1.
         11    1    1    2    0    0  0.32358286299E+01  0.24916745668E+00 -0.13154495558E+03  0.13158498398E+03  0.00000000000E+00 0.  1.
        -15    1    1    2    0    0 -0.62601524203E+01  0.10620128845E+01 -0.40327710198E+02  0.40863178027E+02  0.17770000000E+01 0. -1.
         15    1    1    2    0    0  0.11217484189E+01 -0.33334481229E+01 -0.99531531115E+01  0.10704820492E+02  0.17770000000E+01 0.  1.
</event>
<event>
 6    1  0.1045352E-002  0.1826049E+03  0.7546771E-02  0.1068371E+00
        -11   -1    0    0    0    0  0.00000000000E+00  0.00000000000E+00  0.18250000000E+03  0.18250000000E+03  0.00000000000E+00 0. -1.
         11   -1    0    0    0    0 -0.00000000000E+00 -0.00000000000E+00 -0.18250000000E+03  0.18250000000E+03  0.00000000000E+00 0.  1.
        -11    1    1    2    0    0 -0.18813364321E+01 -0.28304660944E+01  0.48300408913E+02  0.48419835463E+02  0.00000000000E+00 0. -1.
         11    1    1    2    0    0  0.28278839921E+01  0.22036774107E+01 -0.18235989106E+03  0.18239512875E+03  0.00000000000E+00 0.  1.
        -15    1    1    2    0    0 -0.18685766307E+01  0.81454953914E+00  0.11237356293E+03  0.11240609612E+03  0.17770000000E+01 0. -1.
         15    1    1    2    0    0  0.92202907072E+00 -0.18776085537E+00  0.21685919218E+02  0.21778939669E+02  0.17770000000E+01 0. -1.
</event>
<event>
 6    1  0.1045352E-002  0.1831730E+03  0.7546771E-02  0.1067920E+00
        -11   -1    0    0    0    0  0.00000000000E+00  0.00000000000E+00  0.18250000000E+03  0.18250000000E+03  0.00000000000E+00 0.  1.
         11   -1    0    0    0    0 -0.00000000000E+00 -0.00000000000E+00 -0.18250000000E+03  0.18250000000E+03  0.00000000000E+00 0.  1.
        -11    1    1    2    0    0 -0.33405989479E+01 -0.18403424406E+00  0.18179617767E+03  0.18182696084E+03  0.00000000000E+00 0.  1.
         11    1    1    2    0    0  0.11627062280E+01  0.25183094441E+01 -0.15753311813E+03  0.15755753577E+03  0.00000000000E+00 0.  1.
        -15    1    1    2    0    0 -0.13023475249E+01 -0.26380315859E+01 -0.17179075903E+02  0.17519523327E+02  0.17770000000E+01 0. -1.
         15    1    1    2    0    0  0.34802402448E+01  0.30375638579E+00 -0.70839836396E+01  0.80959800710E+01  0.17770000000E+01 0.  1.
</event>
<event>
 6    1  0.1045352E-002  0.1828215E+03  0.7546771E-02  0.1068199E+00
        -11   -1    0    0    0    0  0.00000000000E+00  0.00000000000E+00  0.18250000000E+03  0.18250000000E+03  0.00000000000E+00 0. -1.
         11   -1    0    0    0    0 -0.00000000000E+00 -0.00000000000E+00 -0.18250000000E+03  0.18250000000E+03  0.00000000000E+00 0. -1.
        -11    1    1    2    0    0 -0.15223082533E+01 -0.30019994773E+01  0.18214736762E+03  0.18217846457E+03  0.00000000000E+00 0. -1.
         11    1    1    2    0    0 -0.19256585481E+01  0.11413633063E+01 -0.15063138265E+03  0.15064801463E+03  0.00000000000E+00 0. -1.
        -15    1    1    2    0    0  0.34085630583E+00  0.54475207193E+00 -0.18887231938E+02  0.18981522519E+02  0.17770000000E+01 0.  1.
         15    1    1    2    0    0  0.31071104955E+01  0.13158840991E+01 -0.12628753031E+02  0.13191998283E+02  0.17770000000E+01 0. -1.
</event>
<event>
 6    1  0.1045352E-002  0.1874033E+03  0.7546771E-02  0.1064617E+00
        -11   -1    0    0    0    0  0.00000000000E+00  0.00000000000E+00  0.18250000000E+03  0.18250000000E+03  0.00000000000E+00 0. -1.
         11   -1    0    0    0    0 -0.00000000000E+00 -0.00000000000E+00 -0.18250000000E+03  0.18250000000E+03  0.00000000000E+00 0.  1.
        -11    1    1    2    0    0  0.22583871615E+01  0.81064025310E+01  0.17739725037E+03  0.17759673002E+03  0.00000000000E+00 0. -1.
         11    1    1    2    0    0  0.38965616842E+01  0.40572845244E+01 -0.16052164240E+03  0.16062018064E+03  0.00000000000E+00 0.  1.
        -15    1    1    2    0    0 -0.48593982237E+01 -0.31815127528E+01  0.14604430219E+01  0.62471111174E+01  0.17770000000E+01 0. -1.
         15    1    1    2    0    0 -0.12955506221E+01 -0.89821743026E+01 -0.18336050996E+02  0.20535978227E+02  0.17770000000E+01 0.  1.
</event>
<event>
 6    1  0.1045352E-002  0.1858598E+03  0.7546771E-02  0.1065811E+00
        -11   -1    0    0    0    0  0.00000000000E+00  0.00000000000E+00  0.18250000000E+03  0.18250000000E+03  0.00000000000E+00 0.  1.
         11   -1    0    0    0    0 -0.00000000000E+00 -0.00000000000E+00 -0.18250000000E+03  0.18250000000E+03  0.00000000000E+00 0.  1.
        -11    1    1    2    0    0  0.38208532558E+01 -0.12410264827E+01  0.17318022944E+03  0.17322681933E+03  0.00000000000E+00 0.  1.
         11    1    1    2    0    0 -0.51472063870E+00 -0.65261339020E+01 -0.17902053765E+03  0.17914019164E+03  0.00000000000E+00 0.  1.
        -15    1    1    2    0    0 -0.15704813214E+01  0.25761297184E+01 -0.10500504030E+01  0.36555698265E+01  0.17770000000E+01 0.  1.
         15    1    1    2    0    0 -0.17356512956E+01  0.51910306663E+01  0.68903586108E+01  0.89774192050E+01  0.17770000000E+01 0. -1.
</event>
<event>
 6    1  0.1045352E-002  0.1863219E+03  0.7546771E-02  0.1065453E+00
        -11   -1    0    0    0    0  0.00000000000E+00  0.00000000000E+00  0.18250000000E+03  0.18250000000E+03  0.00000000000E+00 0.  1.
         11   -1    0    0    0    0 -0.00000000000E+00 -0.00000000000E+00 -0.18250000000E+03  0.18250000000E+03  0.00000000000E+00 0. -1.
        -11    1    1    2    0    0 -0.10596955800E+02 -0.28275544271E+01  0.17834113110E+03  0.17867806126E+03  0.00000000000E+00 0.  1.
         11    1    1    2    0    0 -0.40702078841E+01 -0.12216429193E+00 -0.14688485831E+03  0.14694129140E+03  0.00000000000E+00 0. -1.
        -15    1    1    2    0    0  0.33294891428E+00  0.33481283490E+01 -0.21497765644E+02  0.21831914142E+02  0.17770000000E+01 0.  1.
         15    1    1    2    0    0  0.14334214770E+02 -0.39840962990E+00 -0.99585071413E+01  0.17548733196E+02  0.17770000000E+01 0. -1.
</event>
<event>
 6    1  0.1045352E-002  0.1854209E+03  0.7546771E-02  0.1066153E+00
        -11   -1    0    0    0    0  0.00000000000E+00  0.00000000000E+00  0.18250000000E+03  0.18250000000E+03  0.00000000000E+00 0.  1.
         11   -1    0    0    0    0 -0.00000000000E+00 -0.00000000000E+00 -0.18250000000E+03  0.18250000000E+03  0.00000000000E+00 0.  1.
        -11    1    1    2    0    0 -0.11336117937E+01  0.29003422128E+01  0.17758373638E+03  0.17761103706E+03  0.00000000000E+00 0.  1.
         11    1    1    2    0    0 -0.14534929320E+01 -0.29977167323E+01 -0.17954816818E+03  0.17957907351E+03  0.00000000000E+00 0.  1.
        -15    1    1    2    0    0 -0.16614801328E+01  0.35077937141E+00  0.20443769097E+01  0.31969936422E+01  0.17770000000E+01 0. -1.
         15    1    1    2    0    0  0.42485848585E+01 -0.25340485192E+00 -0.79945107529E-01  0.46128957867E+01  0.17770000000E+01 0. -1.
</event>
<event>
 6    1  0.1045352E-002  0.2224094E+03  0.7546771E-02  0.1040492E+00
        -11   -1    0    0    0    0  0.00000000000E+00  0.00000000000E+00  0.18250000000E+03  0.18250000000E+03  0.00000000000E+00 0.  1.
         11   -1    0    0    0    0 -0.00000000000E+00 -0.00000000000E+00 -0.18250000000E+03  0.18250000000E+03  0.00000000000E+00 0.  1.
        -11    1    1    2    0    0 -0.66841028346E+01  0.82086931030E+01  0.14219716092E+03  0.14259064642E+03  0.00000000000E+00 0.  1.
         11    1    1    2    0    0  0.12810370716E+02 -0.80466966799E+01 -0.10487351335E+03  0.10595899550E+03  0.00000000000E+00 0.  1.
        -15    1    1    2    0    0 -0.14103419487E+02  0.12864512272E+02 -0.74125557647E+02  0.76564731716E+02  0.17770000000E+01 0.  1.
         15    1    1    2    0    0  0.79771516051E+01 -0.13026508696E+02  0.36801910073E+02  0.39885626366E+02  0.17770000000E+01 0. -1.
</event>
<event>
 6    1  0.1045352E-002  0.1852589E+03  0.7546771E-02  0.1066280E+00
        -11   -1    0    0    0    0  0.00000000000E+00  0.00000000000E+00  0.18250000000E+03  0.18250000000E+03  0.00000000000E+00 0. -1.
         11   -1    0    0    0    0 -0.00000000000E+00 -0.00000000000E+00 -0.18250000000E+03  0.18250000000E+03  0.00000000000E+00 0.  1.
        -11    1    1    2    0    0  0.26768567237E+01  0.38849717807E+01  0.17365564842E+03  0.17371972483E+03  0.00000000000E+00 0. -1.
         11    1    1    2    0    0  0.25360836081E+01  0.59018710899E+00 -0.17972227008E+03  0.17974113164E+03  0.00000000000E+00 0.  1.
        -15    1    1    2    0    0 -0.46457580110E+01 -0.43010263083E+01  0.68618445627E+01  0.95039220643E+01  0.17770000000E+01 0. -1.
         15    1    1    2    0    0 -0.56718232077E+00 -0.17413258144E+00 -0.79522289996E+00  0.20352214625E+01  0.17770000000E+01 0.  1.
</event>
<event>
 6    1  0.1045352E-002  0.1826490E+03  0.7546771E-02  0.1068336E+00
        -11   -1    0    0    0    0  0.00000000000E+00  0.00000000000E+00  0.18250000000E+03  0.18250000000E+03  0.00000000000E+00 0.  1.
         11   -1    0    0    0    0 -0.00000000000E+00 -0.00000000000E+00 -0.18250000000E+03  0.18250000000E+03  0.00000000000E+00 0. -1.
        -11    1    1    2    0    0  0.21652263381E+01 -0.16666645657E+01  0.18233055901E+03  0.18235103160E+03  0.00000000000E+00 0.  1.
         11    1    1    2    0    0 -0.20097513788E+00  0.24892136942E+01 -0.10663407717E+03  0.10666331605E+03  0.00000000000E+00 0. -1.
        -15    1    1    2    0    0  0.82650699845E+00  0.81919762942E+00 -0.47610595152E+02  0.47657955246E+02  0.17770000000E+01 0. -1.
         15    1    1    2    0    0 -0.27907581987E+01 -0.16417467579E+01 -0.28085886685E+02  0.28327697111E+02  0.17770000000E+01 0.  1.
</event>
<event>
 6    1  0.1045352E-002  0.1832851E+03  0.7546771E-02  0.1067832E+00
        -11   -1    0    0    0    0  0.00000000000E+00  0.00000000000E+00  0.18250000000E+03  0.18250000000E+03  0.00000000000E+00 0.  1.
         11   -1    0    0    0    0 -0.00000000000E+00 -0.00000000000E+00 -0.18250000000E+03  0.18250000000E+03  0.00000000000E+00 0. -1.
        -11    1    1    2    0    0 -0.46244405154E+00  0.22510818100E+01  0.95646119663E+02  0.95673723825E+02  0.00000000000E+00 0.  1.
         11    1    1    2    0    0  0.14124317330E+01  0.24180788325E+01 -0.18169336764E+03  0.18171494686E+03  0.00000000000E+00 0. -1.
        -15    1    1    2    0    0 -0.22175985278E+00 -0.38464484387E+01  0.85280284495E+02  0.85385765767E+02  0.17770000000E+01 0.  1.
         15    1    1    2    0    0 -0.72822782872E+00 -0.82271220385E+00  0.76696347762E+00  0.22255635504E+01  0.17770000000E+01 0. -1.
</event>
<event>
 6    1  0.1045352E-002  0.1631285E+03  0.7546771E-02  0.1085014E+00
        -11   -1    0    0    0    0  0.00000000000E+00  0.00000000000E+00  0.18250000000E+03  0.18250000000E+03  0.00000000000E+00 0.  1.
         11   -1    0    0    0    0 -0.00000000000E+00 -0.00000000000E+00 -0.18250000000E+03  0.18250000000E+03  0.00000000000E+00 0.  1.
        -11    1    1    2    0    0  0.10525705007E+02  0.13280145079E+02  0.17321257572E+03  0.17403950444E+03  0.00000000000E+00 0.  1.
         11    1    1    2    0    0 -0.69651020572E+00  0.15038370200E+00 -0.20646420001E+02  0.20658712462E+02  0.00000000000E+00 0.  1.
        -15    1    1    2    0    0 -0.21238571775E+02 -0.25400188013E+02 -0.14981992257E+03  0.15344514789E+03  0.17770000000E+01 0.  1.
         15    1    1    2    0    0  0.11409376974E+02  0.11969659232E+02 -0.27462331457E+01  0.16856635209E+02  0.17770000000E+01 0. -1.
</event>
<event>
 6    1  0.1045352E-002  0.1841756E+03  0.7546771E-02  0.1067129E+00
        -11   -1    0    0    0    0  0.00000000000E+00  0.00000000000E+00  0.18250000000E+03  0.18250000000E+03  0.00000000000E+00 0.  1.
         11   -1    0    0    0    0 -0.00000000000E+00 -0.00000000000E+00 -0.18250000000E+03  0.18250000000E+03  0.00000000000E+00 0. -1.
        -11    1    1    2    0    0 -0.35464844547E-01 -0.30463450905E+01  0.17693133906E+03  0.17695756615E+03  0.00000000000E+00 0.  1.
         11    1    1    2    0    0 -0.26830113309E+01  0.31521244344E+00 -0.18080418627E+03  0.18082436694E+03  0.00000000000E+00 0. -1.
        -15    1    1    2    0    0  0.19938448384E+01  0.26068296094E+01  0.11901528005E+01  0.39172912249E+01  0.17770000000E+01 0.  1.
         15    1    1    2    0    0  0.72463133705E+00  0.12430303765E+00  0.26826944050E+01  0.33007756801E+01  0.17770000000E+01 0. -1.
</event>
<event>
 6    1  0.1045352E-002  0.1849229E+03  0.7546771E-02  0.1066542E+00
        -11   -1    0    0    0    0  0.00000000000E+00  0.00000000000E+00  0.18250000000E+03  0.18250000000E+03  0.00000000000E+00 0. -1.
         11   -1    0    0    0    0 -0.00000000000E+00 -0.00000000000E+00 -0.18250000000E+03  0.18250000000E+03  0.00000000000E+00 0.  1.
        -11    1    1    2    0    0  0.17894182477E+01  0.28000411637E+01  0.18004645267E+03  0.18007711505E+03  0.00000000000E+00 0. -1.
         11    1    1    2    0    0  0.62890026547E+01  0.36302495193E+01 -0.10312251732E+03  0.10337786922E+03  0.00000000000E+00 0.  1.
        -15    1    1    2    0    0 -0.11000688688E+02 -0.47835353631E+01 -0.76795342765E+02  0.77746895511E+02  0.17770000000E+01 0.  1.
         15    1    1    2    0    0  0.29222677853E+01 -0.16467553199E+01 -0.12859257971E+00  0.37981202119E+01  0.17770000000E+01 0. -1.
</event>
<event>
 6    1  0.1045352E-002  0.1831612E+03  0.7546771E-02  0.1067930E+00
        -11   -1    0    0    0    0  0.00000000000E+00  0.00000000000E+00  0.18250000000E+03  0.18250000000E+03  0.00000000000E+00 0. -1.
         11   -1    0    0    0    0 -0.00000000000E+00 -0.00000000000E+00 -0.18250000000E+03  0.18250000000E+03  0.00000000000E+00 0. -1.
        -11    1    1    2    0    0 -0.22454681193E+01 -0.10461987480E+01  0.18182195494E+03  0.18183882962E+03  0.00000000000E+00 0. -1.
         11    1    1    2    0    0  0.89726009555E-02 -0.56940600656E+01 -0.95869978006E+02  0.96038924835E+02  0.00000000000E+00 0. -1.
        -15    1    1    2    0    0  0.21438911046E+01  0.53805776080E+01 -0.15607370023E+02  0.16742001448E+02  0.17770000000E+01 0.  1.
         15    1    1    2    0    0  0.92604413767E-01  0.13596812057E+01 -0.70344606913E+02  0.70380244098E+02  0.17770000000E+01 0. -1.
</event>
<event>
 6    1  0.1045352E-002  0.1835574E+03  0.7546771E-02  0.1067616E+00
        -11   -1    0    0    0    0  0.00000000000E+00  0.00000000000E+00  0.18250000000E+03  0.18250000000E+03  0.00000000000E+00 0. -1.
         11   -1    0    0    0    0 -0.00000000000E+00 -0.00000000000E+00 -0.18250000000E+03  0.18250000000E+03  0.00000000000E+00 0.  1.
        -11    1    1    2    0    0  0.16358701781E+01 -0.49500101511E+01  0.18136766748E+03  0.18144257902E+03  0.00000000000E+00 0. -1.
         11    1    1    2    0    0 -0.96091123859E+00  0.13544694912E+01 -0.95333422652E+02  0.95347886251E+02  0.00000000000E+00 0.  1.
        -15    1    1    2    0    0 -0.66545723085E+01 -0.90136399549E+00 -0.70843500961E+02  0.71183250467E+02  0.17770000000E+01 0.  1.
         15    1    1    2    0    0  0.59796133690E+01  0.44969046553E+01 -0.15190743871E+02  0.17026284265E+02  0.17770000000E+01 0. -1.
</event>
<event>
 6    1  0.1045352E-002  0.1826535E+03  0.7546771E-02  0.1068333E+00
        -11   -1    0    0    0    0  0.00000000000E+00  0.00000000000E+00  0.18250000000E+03  0.18250000000E+03  0.00000000000E+00 0. -1.
         11   -1    0    0    0    0 -0.00000000000E+00 -0.00000000000E+00 -0.18250000000E+03  0.18250000000E+03  0.00000000000E+00 0.  1.
        -11    1    1    2    0    0 -0.99590209608E+00  0.17814259482E+01  0.14772465372E+03  0.14773875123E+03  0.00000000000E+00 0. -1.
         11    1    1    2    0    0  0.21033208477E+01 -0.30050029773E+01 -0.18230964882E+03  0.18234654385E+03  0.00000000000E+00 0.  1.
        -15    1    1    2    0    0  0.46585476250E+00  0.23164603719E+00  0.82938072941E+01  0.84979791114E+01  0.17770000000E+01 0. -1.
         15    1    1    2    0    0 -0.15732735141E+01  0.99193099187E+00  0.26291187813E+02  0.26416725805E+02  0.17770000000E+01 0. -1.
</event>
<event>
 6    1  0.1045352E-002  0.1833634E+03  0.7546771E-02  0.1067770E+00
        -11   -1    0    0    0    0  0.00000000000E+00  0.00000000000E+00  0.18250000000E+03  0.18250000000E+03  0.00000000000E+00 0.  1.
         11   -1    0    0    0    0 -0.00000000000E+00 -0.00000000000E+00 -0.18250000000E+03  0.18250000000E+03  0.00000000000E+00 0. -1.
        -11    1    1    2    0    0 -0.82323759181E-01  0.98090802221E+00  0.70282195027E+02  0.70289088026E+02  0.00000000000E+00 0.  1.
         11    1    1    2    0    0  0.73305609658E+01 -0.11206263715E+02 -0.18114236122E+03  0.18163664966E+03  0.00000000000E+00 0. -1.
        -15    1    1    2    0    0 -0.47550740921E+00 -0.15211327141E+01  0.68912144560E+02  0.68953472349E+02  0.17770000000E+01 0.  1.
         15    1    1    2    0    0 -0.67727297974E+01  0.11746488407E+02  0.41948021637E+02  0.44120789964E+02  0.17770000000E+01 0.  1.
</event>
<event>
 6    1  0.1045352E-002  0.1843728E+03  0.7546771E-02  0.1066974E+00
        -11   -1    0    0    0    0  0.00000000000E+00  0.00000000000E+00  0.18250000000E+03  0.18250000000E+03  0.00000000000E+00 0.  1.
         11   -1    0    0    0    0 -0.00000000000E+00 -0.00000000000E+00 -0.18250000000E+03  0.18250000000E+03  0.00000000000E+00 0. -1.
        -11    1    1    2    0    0  0.64037481833E+01 -0.28578098911E+01  0.18049098867E+03  0.18062716312E+03  0.00000000000E+00 0.  1.
         11    1    1    2    0    0 -0.52787948613E+01  0.45178518689E+01 -0.12262619995E+03  0.12282288701E+03  0.00000000000E+00 0. -1.
        -15    1    1    2    0    0  0.35481190415E+01 -0.81834745479E+01 -0.12568063564E+02  0.15513618377E+02  0.17770000000E+01 0. -1.
         15    1    1    2    0    0 -0.46730723635E+01  0.65234325701E+01 -0.45296725155E+02  0.46036331485E+02  0.17770000000E+01 0.  1.
</event>
<event>
 6    1  0.1045352E-002  0.1831799E+03  0.7546771E-02  0.1067915E+00
        -11   -1    0    0    0    0  0.00000000000E+00  0.00000000000E+00  0.18250000000E+03  0.18250000000E+03  0.00000000000E+00 0.  1.
         11   -1    0    0    0    0 -0.00000000000E+00 -0.00000000000E+00 -0.18250000000E+03  0.18250000000E+03  0.00000000000E+00 0. -1.
        -11    1    1    2    0    0  0.34556726885E+01  0.10959959261E+01  0.95858809353E+02  0.95927338186E+02  0.00000000000E+00 0.  1.
         11    1    1    2    0    0  0.80031155940E+00  0.28973536500E+01 -0.18179520501E+03  0.18182005313E+03  0.00000000000E+00 0. -1.
        -15    1    1    2    0    0  0.29973949059E+01 -0.65101178550E+00  0.58870331256E+02  0.58976960109E+02  0.17770000000E+01 0.  1.
         15    1    1    2    0    0 -0.72533791538E+01 -0.33423377906E+01  0.27066064400E+02  0.28275648572E+02  0.17770000000E+01 0. -1.
</event>
<event>
 6    1  0.1045352E-002  0.1720305E+03  0.7546771E-02  0.1077108E+00
        -11   -1    0    0    0    0  0.00000000000E+00  0.00000000000E+00  0.18250000000E+03  0.18250000000E+03  0.00000000000E+00 0. -1.
         11   -1    0    0    0    0 -0.00000000000E+00 -0.00000000000E+00 -0.18250000000E+03  0.18250000000E+03  0.00000000000E+00 0. -1.
        -11    1    1    2    0    0 -0.53381840613E+01  0.63701985509E+01  0.17079907519E+03  0.17100116878E+03  0.00000000000E+00 0. -1.
         11    1    1    2    0    0 -0.44993771279E+01  0.61298986093E+01 -0.17326951620E+03  0.17343628598E+03  0.00000000000E+00 0. -1.
        -15    1    1    2    0    0  0.61229330870E+01 -0.10021738766E+02  0.71423777523E+01  0.13859900665E+02  0.17770000000E+01 0. -1.
         15    1    1    2    0    0  0.37146281022E+01 -0.24783583944E+01 -0.46719367435E+01  0.67026445679E+01  0.17770000000E+01 0.  1.
</event>
<event>
 6    1  0.1045352E-002  0.1832351E+03  0.7546771E-02  0.1067871E+00
        -11   -1    0    0    0    0  0.00000000000E+00  0.00000000000E+00  0.18250000000E+03  0.18250000000E+03  0.00000000000E+00 0.  1.
         11   -1    0    0    0    0 -0.00000000000E+00 -0.00000000000E+00 -0.18250000000E+03  0.18250000000E+03  0.00000000000E+00 0. -1.
        -11    1    1    2    0    0  0.21865342115E+01  0.11955318554E+01  0.10446751751E+03  0.10449723653E+03  0.00000000000E+00 0.  1.
         11    1    1    2    0    0  0.47200796755E+01 -0.62096838788E+00 -0.18170252375E+03  0.18176488080E+03  0.00000000000E+00 0. -1.
        -15    1    1    2    0    0  0.36783595572E+01 -0.16075437829E+01  0.27424858406E+02  0.27774000677E+02  0.17770000000E+01 0.  1.
         15    1    1    2    0    0 -0.10584973444E+02  0.10329803153E+01  0.49810147837E+02  0.50963881992E+02  0.17770000000E+01 0. -1.
</event>
<event>
 6    1  0.1045352E-002  0.1844572E+03  0.7546771E-02  0.1066907E+00
        -11   -1    0    0    0    0  0.00000000000E+00  0.00000000000E+00  0.18250000000E+03  0.18250000000E+03  0.00000000000E+00 0.  1.
         11   -1    0    0    0    0 -0.00000000000E+00 -0.00000000000E+00 -0.18250000000E+03  0.18250000000E+03  0.00000000000E+00 0.  1.
        -11    1    1    2    0    0  0.13954111271E+02 -0.16655364070E+01  0.17999501416E+03  0.18054278262E+03  0.00000000000E+00 0.  1.
         11    1    1    2    0    0  0.10719772311E+01 -0.13254890380E+01 -0.11102059392E+03  0.11103368106E+03  0.00000000000E+00 0.  1.
        -15    1    1    2    0    0  0.64980214399E+00  0.15048582556E+01  0.22965481611E+00  0.24284380845E+01  0.17770000000E+01 0.  1.
         15    1    1    2    0    0 -0.15675890646E+02  0.14861671894E+01 -0.69204075057E+02  0.70995098239E+02  0.17770000000E+01 0.  1.
</event>
<event>
 6    1  0.1045352E-002  0.1854747E+03  0.7546771E-02  0.1066111E+00
        -11   -1    0    0    0    0  0.00000000000E+00  0.00000000000E+00  0.18250000000E+03  0.18250000000E+03  0.00000000000E+00 0. -1.
         11   -1    0    0    0    0 -0.00000000000E+00 -0.00000000000E+00 -0.18250000000E+03  0.18250000000E+03  0.00000000000E+00 0.  1.
        -11    1    1    2    0    0 -0.10539755619E+02  0.78729192118E+01  0.15794589209E+03  0.15849282045E+03  0.00000000000E+00 0. -1.
         11    1    1    2    0    0  0.37891230172E+01 -0.11657962186E+02 -0.17910628240E+03  0.17952527937E+03  0.00000000000E+00 0.  1.
        -15    1    1    2    0    0 -0.67581531755E+00  0.36485724879E+01  0.18410521346E+02  0.18864618543E+02  0.17770000000E+01 0. -1.
         15    1    1    2    0    0  0.74264479188E+01  0.13647048600E+00  0.27498689636E+01  0.81172816387E+01  0.17770000000E+01 0.  1.
</event>
<event>
 6    1  0.1045352E-002  0.1828458E+03  0.7546771E-02  0.1068180E+00
        -11   -1    0    0    0    0  0.00000000000E+00  0.00000000000E+00  0.18250000000E+03  0.18250000000E+03  0.00000000000E+00 0. -1.
         11   -1    0    0    0    0 -0.00000000000E+00 -0.00000000000E+00 -0.18250000000E+03  0.18250000000E+03  0.00000000000E+00 0. -1.
        -11    1    1    2    0    0 -0.20958704544E+01 -0.23375435479E+01  0.18212714231E+03  0.18215420047E+03  0.00000000000E+00 0. -1.
         11    1    1    2    0    0 -0.11777468509E+01  0.29616497187E+01 -0.15551796162E+03  0.15555061827E+03  0.00000000000E+00 0. -1.
        -15    1    1    2    0    0  0.37343811923E+01  0.19457104815E-01 -0.18062737138E+02  0.18530142562E+02  0.17770000000E+01 0. -1.
         15    1    1    2    0    0 -0.46076388701E+00 -0.64356327566E+00 -0.85464435527E+01  0.87650387021E+01  0.17770000000E+01 0. -1.
</event>
<event>
 6    1  0.1045352E-002  0.1848166E+03  0.7546771E-02  0.1066626E+00
        -11   -1    0    0    0    0  0.00000000000E+00  0.00000000000E+00  0.18250000000E+03  0.18250000000E+03  0.00000000000E+00 0.  1.
         11   -1    0    0    0    0 -0.00000000000E+00 -0.00000000000E+00 -0.18250000000E+03  0.18250000000E+03  0.00000000000E+00 0.  1.
        -11    1    1    2    0    0 -0.20796311314E+01  0.26857250168E+01  0.96834880308E+02  0.96894437553E+02  0.00000000000E+00 0.  1.
         11    1    1    2    0    0  0.62868058934E+01  0.10239718477E+02 -0.17978234477E+03  0.18018342669E+03  0.00000000000E+00 0.  1.
        -15    1    1    2    0    0  0.10649787550E+02 -0.32555773930E+01  0.29391235258E+02  0.31480457398E+02  0.17770000000E+01 0. -1.
         15    1    1    2    0    0 -0.14856962312E+02 -0.96698661005E+01  0.53556229208E+02  0.56441678355E+02  0.17770000000E+01 0.  1.
</event>
<event>
 6    1  0.1045352E-002  0.1743379E+03  0.7546771E-02  0.1075144E+00
        -11   -1    0    0    0    0  0.00000000000E+00  0.00000000000E+00  0.18250000000E+03  0.18250000000E+03  0.00000000000E+00 0. -1.
         11   -1    0    0    0    0 -0.00000000000E+00 -0.00000000000E+00 -0.18250000000E+03  0.18250000000E+03  0.00000000000E+00 0.  1.
        -11    1    1    2    0    0  0.32273896410E+01 -0.35960238651E+01  0.17534544860E+03  0.17541201149E+03  0.00000000000E+00 0. -1.
         11    1    1    2    0    0 -0.30375127766E+01 -0.27126421606E+01 -0.17327911847E+03  0.17332696793E+03  0.00000000000E+00 0.  1.
        -15    1    1    2    0    0  0.62729404631E+01  0.67108546632E+01 -0.18815429304E+01  0.95437563445E+01  0.17770000000E+01 0.  1.
         15    1    1    2    0    0 -0.64628173276E+01 -0.40218863746E+00 -0.18478719595E+00  0.67172642361E+01  0.17770000000E+01 0. -1.
</event>
<event>
 6    1  0.1045352E-002  0.1989607E+03  0.7546771E-02  0.1056058E+00
        -11   -1    0    0    0    0  0.00000000000E+00  0.00000000000E+00  0.18250000000E+03  0.18250000000E+03  0.00000000000E+00 0. -1.
         11   -1    0    0    0    0 -0.00000000000E+00 -0.00000000000E+00 -0.18250000000E+03  0.18250000000E+03  0.00000000000E+00 0. -1.
        -11    1    1    2    0    0 -0.20261867940E+01 -0.70106294368E+00  0.15452325783E+03  0.15453813165E+03  0.00000000000E+00 0. -1.
         11    1    1    2    0    0 -0.51349773454E+01 -0.51710521578E+01 -0.16587928564E+03  0.16603928805E+03  0.00000000000E+00 0. -1.
        -15    1    1    2    0    0  0.55484968266E+01  0.93283906827E+01 -0.14515238914E+02  0.18211385985E+02  0.17770000000E+01 0.  1.
         15    1    1    2    0    0  0.16126673128E+01 -0.34562755813E+01  0.25871266718E+02  0.26211194314E+02  0.17770000000E+01 0.  1.
</event>
<event>
 6    1  0.1045352E-002  0.1827171E+03  0.7546771E-02  0.1068282E+00
        -11   -1    0    0    0    0  0.00000000000E+00  0.00000000000E+00  0.18250000000E+03  0.18250000000E+03  0.00000000000E+00 0.  1.
         11   -1    0    0    0    0 -0.00000000000E+00 -0.00000000000E+00 -0.18250000000E+03  0.18250000000E+03  0.00000000000E+00 0.  1.
        -11    1    1    2    0    0  0.58954216943E+01 -0.24337631433E+01  0.18217131481E+03  0.18228293157E+03  0.00000000000E+00 0.  1.
         11    1    1    2    0    0  0.77717583491E+00 -0.10900776470E+01 -0.94205813234E+02  0.94215325285E+02  0.00000000000E+00 0.  1.
        -15    1    1    2    0    0 -0.13159716078E+01 -0.26331384482E+00 -0.39410766786E+02  0.39473628958E+02  0.17770000000E+01 0. -1.
         15    1    1    2    0    0 -0.53566259213E+01  0.37871546351E+01 -0.48554734791E+02  0.49028114191E+02  0.17770000000E+01 0.  1.
</event>
<event>
 6    1  0.1045352E-002  0.1834037E+03  0.7546771E-02  0.1067738E+00
        -11   -1    0    0    0    0  0.00000000000E+00  0.00000000000E+00  0.18250000000E+03  0.18250000000E+03  0.00000000000E+00 0. -1.
         11   -1    0    0    0    0 -0.00000000000E+00 -0.00000000000E+00 -0.18250000000E+03  0.18250000000E+03  0.00000000000E+00 0.  1.
        -11    1    1    2    0    0  0.52099550902E+00 -0.24235424125E+01  0.15703193441E+03  0.15705149926E+03  0.00000000000E+00 0. -1.
         11    1    1    2    0    0  0.29009295294E+01  0.24736400016E+00 -0.18157299898E+03  0.18159633956E+03  0.00000000000E+00 0.  1.
        -15    1    1    2    0    0 -0.57626320892E+00  0.28661714027E+01  0.21504016513E+02  0.21774468375E+02  0.17770000000E+01 0. -1.
         15    1    1    2    0    0 -0.28456618295E+01 -0.68999299041E+00  0.30370480586E+01  0.45776928124E+01  0.17770000000E+01 0. -1.
</event>
<event>
 6    1  0.1045352E-002  0.1827945E+03  0.7546771E-02  0.1068221E+00
        -11   -1    0    0    0    0  0.00000000000E+00  0.00000000000E+00  0.18250000000E+03  0.18250000000E+03  0.00000000000E+00 0. -1.
         11   -1    0    0    0    0 -0.00000000000E+00 -0.00000000000E+00 -0.18250000000E+03  0.18250000000E+03  0.00000000000E+00 0. -1.
        -11    1    1    2    0    0 -0.52965320826E+01 -0.24045712201E+01  0.18211259665E+03  0.18220546938E+03  0.00000000000E+00 0. -1.
         11    1    1    2    0    0  0.56923596727E+00  0.30706467482E+00 -0.38699062634E+02  0.38704467017E+02  0.00000000000E+00 0. -1.
        -15    1    1    2    0    0 -0.17424233458E+01  0.52523689040E+01 -0.86598432650E+02  0.86793258290E+02  0.17770000000E+01 0. -1.
         15    1    1    2    0    0  0.64697194611E+01 -0.31548623587E+01 -0.56815101366E+02  0.57296805309E+02  0.17770000000E+01 0.  1.
</event>
<event>
 6    1  0.1045352E-002  0.1753439E+03  0.7546771E-02  0.1074298E+00
        -11   -1    0    0    0    0  0.00000000000E+00  0.00000000000E+00  0.18250000000E+03  0.18250000000E+03  0.00000000000E+00 0.  1.
         11   -1    0    0    0    0 -0.00000000000E+00 -0.00000000000E+00 -0.18250000000E+03  0.18250000000E+03  0.00000000000E+00 0. -1.
        -11    1    1    2    0    0 -0.28773136848E+01 -0.23614103433E+01  0.17519930521E+03  0.17523884198E+03  0.00000000000E+00 0.  1.
         11    1    1    2    0    0 -0.40089535096E+01  0.24187748849E+01 -0.17545422488E+03  0.17551668641E+03  0.00000000000E+00 0. -1.
        -15    1    1    2    0    0  0.63969107654E+01 -0.44327390361E+01  0.32629312526E+01  0.86240415156E+01  0.17770000000E+01 0. -1.
         15    1    1    2    0    0  0.48935642903E+00  0.43753744945E+01 -0.30080115858E+01  0.56204300888E+01  0.17770000000E+01 0.  1.
</event>
<event>
 6    1  0.1045352E-002  0.1590754E+03  0.7546771E-02  0.1088799E+00
        -11   -1    0    0    0    0  0.00000000000E+00  0.00000000000E+00  0.18250000000E+03  0.18250000000E+03  0.00000000000E+00 0. -1.
         11   -1    0    0    0    0 -0.00000000000E+00 -0.00000000000E+00 -0.18250000000E+03  0.18250000000E+03  0.00000000000E+00 0. -1.
        -11    1    1    2    0    0 -0.46453110705E+01  0.71555217719E+00  0.16127341188E+03  0.16134188640E+03  0.00000000000E+00 0. -1.
         11    1    1    2    0    0 -0.18354546517E+02 -0.27702515450E+01 -0.15658376660E+03  0.15768018149E+03  0.00000000000E+00 0. -1.
        -15    1    1    2    0    0  0.60309249236E+01  0.60167491963E+01  0.16398327572E+02  0.18564379938E+02  0.17770000000E+01 0.  1.
         15    1    1    2    0    0  0.16968932664E+02 -0.39620498284E+01 -0.21087972851E+02  0.27413552170E+02  0.17770000000E+01 0. -1.
</event>
<event>
 6    1  0.1045352E-002  0.1828750E+03  0.7546771E-02  0.1068157E+00
        -11   -1    0    0    0    0  0.00000000000E+00  0.00000000000E+00  0.18250000000E+03  0.18250000000E+03  0.00000000000E+00 0. -1.
         11   -1    0    0    0    0 -0.00000000000E+00 -0.00000000000E+00 -0.18250000000E+03  0.18250000000E+03  0.00000000000E+00 0. -1.
        -11    1    1    2    0    0  0.22598762767E+01  0.13209712947E+01  0.18210621701E+03  0.18212502925E+03  0.00000000000E+00 0. -1.
         11    1    1    2    0    0  0.21938247436E+01 -0.29828443982E+01 -0.13646980678E+03  0.13652002927E+03  0.00000000000E+00 0. -1.
        -15    1    1    2    0    0 -0.24953661430E+01 -0.73734567758E+00 -0.88225739188E+01  0.93683547323E+01  0.17770000000E+01 0.  1.
         15    1    1    2    0    0 -0.19583348773E+01  0.23992187811E+01 -0.36813836311E+02  0.36986586747E+02  0.17770000000E+01 0. -1.
</event>
<event>
 6    1  0.1045352E-002  0.1835363E+03  0.7546771E-02  0.1067633E+00
        -11   -1    0    0    0    0  0.00000000000E+00  0.00000000000E+00  0.18250000000E+03  0.18250000000E+03  0.00000000000E+00 0.  1.
         11   -1    0    0    0    0 -0.00000000000E+00 -0.00000000000E+00 -0.18250000000E+03  0.18250000000E+03  0.00000000000E+00 0.  1.
        -11    1    1    2    0    0 -0.53470671272E+01 -0.27868845214E+01  0.14033239024E+03  0.14046187242E+03  0.00000000000E+00 0.  1.
         11    1    1    2    0    0  0.17877279469E+01 -0.21545211745E+01 -0.18144213919E+03  0.18146373689E+03  0.00000000000E+00 0.  1.
        -15    1    1    2    0    0  0.25733307929E+01 -0.42872816220E-01  0.22726884772E+01  0.38660976918E+01  0.17770000000E+01 0. -1.
         15    1    1    2    0    0  0.98600838740E+00  0.49842785121E+01  0.38837060471E+02  0.39208292999E+02  0.17770000000E+01 0. -1.
</event>
<event>
 6    1  0.1045352E-002  0.1774036E+03  0.7546771E-02  0.1072586E+00
        -11   -1    0    0    0    0  0.00000000000E+00  0.00000000000E+00  0.18250000000E+03  0.18250000000E+03  0.00000000000E+00 0.  1.
         11   -1    0    0    0    0 -0.00000000000E+00 -0.00000000000E+00 -0.18250000000E+03  0.18250000000E+03  0.00000000000E+00 0. -1.
        -11    1    1    2    0    0  0.21496901959E+01 -0.63515503739E+01  0.17926285082E+03  0.17938821880E+03  0.00000000000E+00 0.  1.
         11    1    1    2    0    0 -0.30951088941E+01 -0.41253045762E+00 -0.17547704032E+03  0.17550481919E+03  0.00000000000E+00 0. -1.
        -15    1    1    2    0    0 -0.15838788648E+01  0.51420929548E+01 -0.33666747311E+01  0.65910560579E+01  0.17770000000E+01 0.  1.
         15    1    1    2    0    0  0.25292975630E+01  0.16219878768E+01 -0.41913576808E+00  0.35159059468E+01  0.17770000000E+01 0. -1.
</event>
<event>
 6    1  0.1361449E-002  0.1998804E+03  0.7546771E-02  0.1055405E+00
        -11   -1    0    0    0    0  0.00000000000E+00  0.00000000000E+00  0.18250000000E+03  0.18250000000E+03  0.00000000000E+00 0.  1.
         11   -1    0    0    0    0 -0.00000000000E+00 -0.00000000000E+00 -0.18250000000E+03  0.18250000000E+03  0.00000000000E+00 0. -1.
        -11    1    1    2    0    0  0.16519560348E+02  0.68574169728E+00  0.16428977334E+03  0.16511964069E+03  0.00000000000E+00 0.  1.
         11    1    1    2    0    0  0.21961476676E+01 -0.78783954519E+00 -0.14736904587E+03  0.14738751452E+03  0.00000000000E+00 0. -1.
        -15    1    1    2    0    0 -0.14924187930E+02  0.20758435524E+01  0.14348707312E+02  0.20882615793E+02  0.17770000000E+01 0.  1.
         15    1    1    2    0    0 -0.37915200864E+01 -0.19737457045E+01 -0.31269434787E+02  0.31610229002E+02  0.17770000000E+01 0. -1.
</event>
<event>
 6    1  0.1045352E-002  0.1870435E+03  0.7546771E-02  0.1064895E+00
        -11   -1    0    0    0    0  0.00000000000E+00  0.00000000000E+00  0.18250000000E+03  0.18250000000E+03  0.00000000000E+00 0. -1.
         11   -1    0    0    0    0 -0.00000000000E+00 -0.00000000000E+00 -0.18250000000E+03  0.18250000000E+03  0.00000000000E+00 0. -1.
        -11    1    1    2    0    0  0.17961202877E+01  0.22967595362E+01  0.17793263350E+03  0.17795652058E+03  0.00000000000E+00 0. -1.
         11    1    1    2    0    0 -0.23943823878E+01 -0.84091808892E+00 -0.16149658131E+03  0.16151651924E+03  0.00000000000E+00 0. -1.
        -15    1    1    2    0    0  0.60745216233E+01  0.66355420083E+01 -0.10569433112E+02  0.13992886622E+02  0.17770000000E+01 0.  1.
         15    1    1    2    0    0 -0.54762595233E+01 -0.80913834555E+01 -0.58666190732E+01  0.11534073562E+02  0.17770000000E+01 0. -1.
</event>
<event>
 6    1  0.1045352E-002  0.1831627E+03  0.7546771E-02  0.1067929E+00
        -11   -1    0    0    0    0  0.00000000000E+00  0.00000000000E+00  0.18250000000E+03  0.18250000000E+03  0.00000000000E+00 0. -1.
         11   -1    0    0    0    0 -0.00000000000E+00 -0.00000000000E+00 -0.18250000000E+03  0.18250000000E+03  0.00000000000E+00 0.  1.
        -11    1    1    2    0    0 -0.80528778325E+00 -0.60603228941E+01  0.18173450393E+03  0.18183730618E+03  0.00000000000E+00 0. -1.
         11    1    1    2    0    0  0.33247060301E+01 -0.10125996391E+01 -0.15452788021E+03  0.15456695893E+03  0.00000000000E+00 0.  1.
        -15    1    1    2    0    0 -0.43347031817E+00  0.28712665492E+01 -0.71171732437E+01  0.78894836393E+01  0.17770000000E+01 0. -1.
         15    1    1    2    0    0 -0.20859479287E+01  0.42016559840E+01 -0.20089450470E+02  0.20706251253E+02  0.17770000000E+01 0.  1.
</event>
<event>
 6    1  0.1045352E-002  0.1828446E+03  0.7546771E-02  0.1068181E+00
        -11   -1    0    0    0    0  0.00000000000E+00  0.00000000000E+00  0.18250000000E+03  0.18250000000E+03  0.00000000000E+00 0.  1.
         11   -1    0    0    0    0 -0.00000000000E+00 -0.00000000000E+00 -0.18250000000E+03  0.18250000000E+03  0.00000000000E+00 0. -1.
        -11    1    1    2    0    0  0.21522720372E+01  0.34216377956E+01  0.18211050104E+03  0.18215535806E+03  0.00000000000E+00 0.  1.
         11    1    1    2    0    0  0.24882406978E+01 -0.24366951048E+00 -0.53431165461E+02  0.53489626650E+02  0.00000000000E+00 0. -1.
        -15    1    1    2    0    0  0.30320713688E+01 -0.35185343170E+01 -0.36145129838E+02  0.36485636633E+02  0.17770000000E+01 0.  1.
         15    1    1    2    0    0 -0.76725841038E+01  0.34056603193E+00 -0.92534205739E+02  0.92869378661E+02  0.17770000000E+01 0. -1.
</event>
<event>
 6    1  0.1045352E-002  0.1826913E+03  0.7546771E-02  0.1068303E+00
        -11   -1    0    0    0    0  0.00000000000E+00  0.00000000000E+00  0.18250000000E+03  0.18250000000E+03  0.00000000000E+00 0.  1.
         11   -1    0    0    0    0 -0.00000000000E+00 -0.00000000000E+00 -0.18250000000E+03  0.18250000000E+03  0.00000000000E+00 0.  1.
        -11    1    1    2    0    0 -0.17568972824E+01 -0.19414396978E+01  0.18228992140E+03  0.18230872530E+03  0.00000000000E+00 0.  1.
         11    1    1    2    0    0  0.34001261527E+00  0.14299179616E+01 -0.82189601125E+02  0.82202742090E+02  0.00000000000E+00 0.  1.
        -15    1    1    2    0    0  0.72878475359E+00  0.15515996081E+00 -0.48538528955E+01  0.52223384380E+01  0.17770000000E+01 0.  1.
         15    1    1    2    0    0  0.68809991353E+00  0.35636177544E+00 -0.95246467379E+02  0.95266194174E+02  0.17770000000E+01 0.  1.
</event>
<event>
 6    1  0.1045352E-002  0.1856821E+03  0.7546771E-02  0.1065950E+00
        -11   -1    0    0    0    0  0.00000000000E+00  0.00000000000E+00  0.18250000000E+03  0.18250000000E+03  0.00000000000E+00 0.  1.
         11   -1    0    0    0    0 -0.00000000000E+00 -0.00000000000E+00 -0.18250000000E+03  0.18250000000E+03  0.00000000000E+00 0. -1.
        -11    1    1    2    0    0 -0.97724758517E+00  0.23852187253E+01  0.17929938830E+03  0.17931791580E+03  0.00000000000E+00 0.  1.
         11    1    1    2    0    0 -0.28659926038E+01  0.41856092668E+01 -0.16689569943E+03  0.16697277541E+03  0.00000000000E+00 0. -1.
        -15    1    1    2    0    0 -0.80846652858E+00 -0.38973775061E+01 -0.12307513429E+02  0.13056637597E+02  0.17770000000E+01 0.  1.
         15    1    1    2    0    0  0.46517067176E+01 -0.26734504860E+01 -0.96175441843E-01  0.56526711918E+01  0.17770000000E+01 0. -1.
</event>
<event>
 6    1  0.1045352E-002  0.1864136E+03  0.7546771E-02  0.1065382E+00
        -11   -1    0    0    0    0  0.00000000000E+00  0.00000000000E+00  0.18250000000E+03  0.18250000000E+03  0.00000000000E+00 0. -1.
         11   -1    0    0    0    0 -0.00000000000E+00 -0.00000000000E+00 -0.18250000000E+03  0.18250000000E+03  0.00000000000E+00 0.  1.
        -11    1    1    2    0    0 -0.19583228830E+01 -0.20057879415E+01  0.16957532243E+03  0.16959849112E+03  0.00000000000E+00 0. -1.
         11    1    1    2    0    0  0.35326222652E+01 -0.82563783961E-01 -0.17855147626E+03  0.17858643821E+03  0.00000000000E+00 0.  1.
        -15    1    1    2    0    0 -0.59654376950E+01  0.54790280232E+01  0.42764063970E+01  0.93301433882E+01  0.17770000000E+01 0. -1.
         15    1    1    2    0    0  0.43911383128E+01 -0.33906762977E+01  0.46997474383E+01  0.74849272823E+01  0.17770000000E+01 0.  1.
</event>
<event>
 6    1  0.1045352E-002  0.1836841E+03  0.7546771E-02  0.1067516E+00
        -11   -1    0    0    0    0  0.00000000000E+00  0.00000000000E+00  0.18250000000E+03  0.18250000000E+03  0.00000000000E+00 0.  1.
         11   -1    0    0    0    0 -0.00000000000E+00 -0.00000000000E+00 -0.18250000000E+03  0.18250000000E+03  0.00000000000E+00 0. -1.
        -11    1    1    2    0    0  0.54790986498E+01 -0.32110130821E+01  0.18120460948E+03  0.18131586148E+03  0.00000000000E+00 0.  1.
         11    1    1    2    0    0 -0.15522442288E+01  0.12077183619E+01 -0.74159238136E+02  0.74185312877E+02  0.00000000000E+00 0. -1.
        -15    1    1    2    0    0 -0.88628860876E+01  0.26276292547E+01 -0.10113192421E+03  0.10156908490E+03  0.17770000000E+01 0.  1.
         15    1    1    2    0    0  0.49360316666E+01 -0.62433453451E+00 -0.59134471349E+01  0.79297407424E+01  0.17770000000E+01 0. -1.
</event>
<event>
 6    1  0.1045352E-002  0.1951705E+03  0.7546771E-02  0.1058794E+00
        -11   -1    0    0    0    0  0.00000000000E+00  0.00000000000E+00  0.18250000000E+03  0.18250000000E+03  0.00000000000E+00 0.  1.
         11   -1    0    0    0    0 -0.00000000000E+00 -0.00000000000E+00 -0.18250000000E+03  0.18250000000E+03  0.00000000000E+00 0.  1.
        -11    1    1    2    0    0 -0.38920123225E+01 -0.51432573204E+01  0.12281800251E+03  0.12298724567E+03  0.00000000000E+00 0.  1.
         11    1    1    2    0    0  0.16055705162E+02  0.11409999586E+02 -0.16868342394E+03  0.16982953592E+03  0.00000000000E+00 0.  1.
        -15    1    1    2    0    0 -0.23970271155E+02 -0.80192344311E+01  0.60929583671E+00  0.25345827872E+02  0.17770000000E+01 0.  1.
         15    1    1    2    0    0  0.11806578315E+02  0.17524921657E+01  0.45256125589E+02  0.46837390541E+02  0.17770000000E+01 0.  1.
</event>
<event>
 6    1  0.1045352E-002  0.1900176E+03  0.7546771E-02  0.1062623E+00
        -11   -1    0    0    0    0  0.00000000000E+00  0.00000000000E+00  0.18250000000E+03  0.18250000000E+03  0.00000000000E+00 0. -1.
         11   -1    0    0    0    0 -0.00000000000E+00 -0.00000000000E+00 -0.18250000000E+03  0.18250000000E+03  0.00000000000E+00 0. -1.
        -11    1    1    2    0    0  0.63681754784E+01  0.15803589009E+02  0.78586957088E+02  0.80412790704E+02  0.00000000000E+00 0. -1.
         11    1    1    2    0    0  0.37626276108E+01  0.55146225266E+00 -0.17494111248E+03  0.17498244001E+03  0.00000000000E+00 0. -1.
        -15    1    1    2    0    0 -0.77496004627E+01 -0.22273688103E+02  0.99500664946E+02  0.10227274096E+03  0.17770000000E+01 0. -1.
         15    1    1    2    0    0 -0.23812026265E+01  0.59186368419E+01 -0.31465095537E+01  0.73320283269E+01  0.17770000000E+01 0.  1.
</event>
<event>
 6    1  0.1045352E-002  0.1835851E+03  0.7546771E-02  0.1067594E+00
        -11   -1    0    0    0    0  0.00000000000E+00  0.00000000000E+00  0.18250000000E+03  0.18250000000E+03  0.00000000000E+00 0. -1.
         11   -1    0    0    0    0 -0.00000000000E+00 -0.00000000000E+00 -0.18250000000E+03  0.18250000000E+03  0.00000000000E+00 0. -1.
        -11    1    1    2    0    0 -0.50668161192E+00 -0.27678011849E+01  0.12151585296E+03  0.12154842645E+03  0.00000000000E+00 0. -1.
         11    1    1    2    0    0 -0.22204362331E+01  0.45283919859E+01 -0.18134474701E+03  0.18141486692E+03  0.00000000000E+00 0. -1.
        -15    1    1    2    0    0 -0.51611344517E+01 -0.50163393183E+01  0.33192238203E+02  0.34010048146E+02  0.17770000000E+01 0. -1.
         15    1    1    2    0    0  0.78882522967E+01  0.32557485173E+01  0.26636655842E+02  0.28026658490E+02  0.17770000000E+01 0.  1.
</event>
<event>
 6    1  0.1045352E-002  0.1849346E+03  0.7546771E-02  0.1066533E+00
        -11   -1    0    0    0    0  0.00000000000E+00  0.00000000000E+00  0.18250000000E+03  0.18250000000E+03  0.00000000000E+00 0.  1.
         11   -1    0    0    0    0 -0.00000000000E+00 -0.00000000000E+00 -0.18250000000E+03  0.18250000000E+03  0.00000000000E+00 0. -1.
        -11    1    1    2    0    0 -0.12403159147E+01  0.21196156031E+01  0.16839137325E+03  0.16840928045E+03  0.00000000000E+00 0.  1.
         11    1    1    2    0    0 -0.46669092066E+01 -0.30929277927E+01 -0.17997834819E+03  0.18006541051E+03  0.00000000000E+00 0. -1.
        -15    1    1    2    0    0  0.49988302862E+01 -0.15118351582E+01  0.12098880691E+02  0.13297164839E+02  0.17770000000E+01 0. -1.
         15    1    1    2    0    0  0.90839483515E+00  0.24851473478E+01 -0.51190575245E+00  0.32281442062E+01  0.17770000000E+01 0.  1.
</event>
<event>
 6    1  0.1045352E-002  0.1826229E+03  0.7546771E-02  0.1068357E+00
        -11   -1    0    0    0    0  0.00000000000E+00  0.00000000000E+00  0.18250000000E+03  0.18250000000E+03  0.00000000000E+00 0.  1.
         11   -1    0    0    0    0 -0.00000000000E+00 -0.00000000000E+00 -0.18250000000E+03  0.18250000000E+03  0.00000000000E+00 0.  1.
        -11    1    1    2    0    0 -0.19239013066E+01 -0.28304014227E-01  0.11232840559E+03  0.11234488372E+03  0.00000000000E+00 0.  1.
         11    1    1    2    0    0  0.41171422634E+00  0.26530702711E+01 -0.18235735445E+03  0.18237711756E+03  0.00000000000E+00 0.  1.
        -15    1    1    2    0    0  0.61965144548E-01  0.64479291198E+00  0.25695979543E+02  0.25765494198E+02  0.17770000000E+01 0.  1.
         15    1    1    2    0    0  0.14502219357E+01 -0.32695591689E+01  0.44332969315E+02  0.44512504514E+02  0.17770000000E+01 0.  1.
</event>
<event>
 6    1  0.1045352E-002  0.1953948E+03  0.7546771E-02  0.1058630E+00
        -11   -1    0    0    0    0  0.00000000000E+00  0.00000000000E+00  0.18250000000E+03  0.18250000000E+03  0.00000000000E+00 0. -1.
         11   -1    0    0    0    0 -0.00000000000E+00 -0.00000000000E+00 -0.18250000000E+03  0.18250000000E+03  0.00000000000E+00 0. -1.
        -11    1    1    2    0    0 -0.47599487117E+01 -0.43540931371E+01  0.10712164232E+03  0.10731570944E+03  0.00000000000E+00 0. -1.
         11    1    1    2    0    0 -0.48860603397E+01 -0.60710992148E+00 -0.16953367994E+03  0.16960516149E+03  0.00000000000E+00 0. -1.
        -15    1    1    2    0    0 -0.32503051756E+01  0.22547777959E+02  0.62127914085E+02  0.66196693363E+02  0.17770000000E+01 0. -1.
         15    1    1    2    0    0  0.12896314227E+02 -0.17586574900E+02  0.28412353693E+00  0.21882435709E+02  0.17770000000E+01 0.  1.
</event>
<event>
 6    1  0.1045352E-002  0.1945201E+03  0.7546771E-02  0.1059270E+00
        -11   -1    0    0    0    0  0.00000000000E+00  0.00000000000E+00  0.18250000000E+03  0.18250000000E+03  0.00000000000E+00 0. -1.
         11   -1    0    0    0    0 -0.00000000000E+00 -0.00000000000E+00 -0.18250000000E+03  0.18250000000E+03  0.00000000000E+00 0.  1.
        -11    1    1    2    0    0  0.51076363504E+01  0.74976012925E+01  0.17023839061E+03  0.17047994490E+03  0.00000000000E+00 0. -1.
         11    1    1    2    0    0  0.76602917249E+00 -0.10669525934E+02 -0.10532088169E+03  0.10586271159E+03  0.00000000000E+00 0.  1.
        -15    1    1    2    0    0 -0.13270794306E+02 -0.15529563663E+01  0.76774148718E+01  0.15512126969E+02  0.17770000000E+01 0. -1.
         15    1    1    2    0    0  0.73971287831E+01  0.47248810079E+01 -0.72594923791E+02  0.73145216549E+02  0.17770000000E+01 0.  1.
</event>
<event>
 6    1  0.1045352E-002  0.1847530E+03  0.7546771E-02  0.1066675E+00
        -11   -1    0    0    0    0  0.00000000000E+00  0.00000000000E+00  0.18250000000E+03  0.18250000000E+03  0.00000000000E+00 0. -1.
         11   -1    0    0    0    0 -0.00000000000E+00 -0.00000000000E+00 -0.18250000000E+03  0.18250000000E+03  0.00000000000E+00 0. -1.
        -11    1    1    2    0    0 -0.13612503240E+01  0.25399623114E+01  0.18022397156E+03  0.18024700923E+03  0.00000000000E+00 0. -1.
         11    1    1    2    0    0 -0.20329649220E+01  0.42947366023E+01 -0.16594458827E+03  0.16601260219E+03  0.00000000000E+00 0. -1.
        -15    1    1    2    0    0  0.43248357311E+01 -0.16050215164E+01 -0.21709046490E+01  0.53991530969E+01  0.17770000000E+01 0.  1.
         15    1    1    2    0    0 -0.93062048513E+00 -0.52296773973E+01 -0.12108478640E+02  0.13341235480E+02  0.17770000000E+01 0. -1.
</event>
<event>
 6    1  0.1045352E-002  0.1873545E+03  0.7546771E-02  0.1064655E+00
        -11   -1    0    0    0    0  0.00000000000E+00  0.00000000000E+00  0.18250000000E+03  0.18250000000E+03  0.00000000000E+00 0.  1.
         11   -1    0    0    0    0 -0.00000000000E+00 -0.00000000000E+00 -0.18250000000E+03  0.18250000000E+03  0.00000000000E+00 0. -1.
        -11    1    1    2    0    0  0.15357850263E+01  0.17479666069E+01  0.16253105080E+03  0.16254770529E+03  0.00000000000E+00 0.  1.
         11    1    1    2    0    0  0.51269724383E+01 -0.15658493134E+01 -0.17756456683E+03  0.17764547031E+03  0.00000000000E+00 0. -1.
        -15    1    1    2    0    0 -0.40604580281E+01  0.18556856683E+01 -0.34697416862E+01  0.59268646911E+01  0.17770000000E+01 0.  1.
         15    1    1    2    0    0 -0.26022994365E+01 -0.20378029617E+01  0.18503257717E+02  0.18879959704E+02  0.17770000000E+01 0. -1.
</event>
<event>
 6    1  0.1045352E-002  0.1846379E+03  0.7546771E-02  0.1066766E+00
        -11   -1    0    0    0    0  0.00000000000E+00  0.00000000000E+00  0.18250000000E+03  0.18250000000E+03  0.00000000000E+00 0.  1.
         11   -1    0    0    0    0 -0.00000000000E+00 -0.00000000000E+00 -0.18250000000E+03  0.18250000000E+03  0.00000000000E+00 0. -1.
        -11    1    1    2    0    0 -0.52481207281E+01  0.42507930432E+01  0.16437330655E+03  0.16451199324E+03  0.00000000000E+00 0.  1.
         11    1    1    2    0    0  0.13659806120E+01  0.22748754287E+01 -0.18034253661E+03  0.18036205664E+03  0.00000000000E+00 0. -1.
        -15    1    1    2    0    0  0.21649648653E+00 -0.32803238801E+01  0.45959211560E+00  0.37651493197E+01  0.17770000000E+01 0.  1.
         15    1    1    2    0    0  0.36656436296E+01 -0.32453445918E+01  0.15509637951E+02  0.16360800808E+02  0.17770000000E+01 0. -1.
</event>
<event>
 6    1  0.1045352E-002  0.1837216E+03  0.7546771E-02  0.1067487E+00
        -11   -1    0    0    0    0  0.00000000000E+00  0.00000000000E+00  0.18250000000E+03  0.18250000000E+03  0.00000000000E+00 0. -1.
         11   -1    0    0    0    0 -0.00000000000E+00 -0.00000000000E+00 -0.18250000000E+03  0.18250000000E+03  0.00000000000E+00 0. -1.
        -11    1    1    2    0    0  0.12597638120E+01 -0.47959331822E+01  0.18121057545E+03  0.18127840642E+03  0.00000000000E+00 0. -1.
         11    1    1    2    0    0  0.94621653157E+00  0.22015445799E+01 -0.16326176771E+03  0.16327935240E+03  0.00000000000E+00 0. -1.
        -15    1    1    2    0    0 -0.30316331610E+01 -0.39056375623E+00 -0.15976593731E+02  0.16363148105E+02  0.17770000000E+01 0. -1.
         15    1    1    2    0    0  0.82565281745E+00  0.29849523586E+01 -0.19722140075E+01  0.40790930670E+01  0.17770000000E+01 0.  1.
</event>
<event>
 6    1  0.1045352E-002  0.1970591E+03  0.7546771E-02  0.1057422E+00
        -11   -1    0    0    0    0  0.00000000000E+00  0.00000000000E+00  0.18250000000E+03  0.18250000000E+03  0.00000000000E+00 0. -1.
         11   -1    0    0    0    0 -0.00000000000E+00 -0.00000000000E+00 -0.18250000000E+03  0.18250000000E+03  0.00000000000E+00 0. -1.
        -11    1    1    2    0    0 -0.13109891415E+02  0.39116616459E+01  0.16738269540E+03  0.16794087373E+03  0.00000000000E+00 0. -1.
         11    1    1    2    0    0  0.13906906657E+02 -0.15722193530E+02 -0.13245696121E+03  0.13410979083E+03  0.00000000000E+00 0. -1.
        -15    1    1    2    0    0 -0.22069307987E+02  0.13347525585E+02 -0.32322773776E+02  0.41389977384E+02  0.17770000000E+01 0. -1.
         15    1    1    2    0    0  0.21272292744E+02 -0.15369937012E+01 -0.26029604111E+01  0.21559358064E+02  0.17770000000E+01 0.  1.
</event>
<event>
 6    1  0.1045352E-002  0.1883782E+03  0.7546771E-02  0.1063870E+00
        -11   -1    0    0    0    0  0.00000000000E+00  0.00000000000E+00  0.18250000000E+03  0.18250000000E+03  0.00000000000E+00 0.  1.
         11   -1    0    0    0    0 -0.00000000000E+00 -0.00000000000E+00 -0.18250000000E+03  0.18250000000E+03  0.00000000000E+00 0.  1.
        -11    1    1    2    0    0 -0.33916719524E+01 -0.79060314213E+01  0.17641218235E+03  0.17662181873E+03  0.00000000000E+00 0.  1.
         11    1    1    2    0    0 -0.34469373490E+01  0.93407974157E+01 -0.15547606468E+03  0.15579453957E+03  0.00000000000E+00 0.  1.
        -15    1    1    2    0    0  0.14335917218E+02  0.23711663505E+01 -0.70373135080E+01  0.16242612559E+02  0.17770000000E+01 0. -1.
         15    1    1    2    0    0 -0.74973079165E+01 -0.38059323449E+01 -0.13898804163E+02  0.16341029134E+02  0.17770000000E+01 0.  1.
</event>
<event>
 6    1  0.1045352E-002  0.1842983E+03  0.7546771E-02  0.1067032E+00
        -11   -1    0    0    0    0  0.00000000000E+00  0.00000000000E+00  0.18250000000E+03  0.18250000000E+03  0.00000000000E+00 0. -1.
         11   -1    0    0    0    0 -0.00000000000E+00 -0.00000000000E+00 -0.18250000000E+03  0.18250000000E+03  0.00000000000E+00 0. -1.
        -11    1    1    2    0    0 -0.72387739086E+00  0.13766905266E+00  0.24515616362E+02  0.24526687442E+02  0.00000000000E+00 0. -1.
         11    1    1    2    0    0 -0.23731638258E+00 -0.26739462626E+02 -0.17871222136E+03  0.18070172452E+03  0.00000000000E+00 0. -1.
        -15    1    1    2    0    0 -0.10967504902E+02  0.13261659256E+02  0.33117286001E+02  0.37364021880E+02  0.17770000000E+01 0. -1.
         15    1    1    2    0    0  0.11928698676E+02  0.13340134317E+02  0.12107931900E+03  0.12240756616E+03  0.17770000000E+01 0.  1.
</event>
<event>
 6    1  0.1045352E-002  0.1827827E+03  0.7546771E-02  0.1068230E+00
        -11   -1    0    0    0    0  0.00000000000E+00  0.00000000000E+00  0.18250000000E+03  0.18250000000E+03  0.00000000000E+00 0.  1.
         11   -1    0    0    0    0 -0.00000000000E+00 -0.00000000000E+00 -0.18250000000E+03  0.18250000000E+03  0.00000000000E+00 0. -1.
        -11    1    1    2    0    0 -0.10467541437E+01  0.34877923147E+01  0.12963508669E+03  0.12968622166E+03  0.00000000000E+00 0.  1.
         11    1    1    2    0    0  0.45592157531E+01 -0.27904953083E+01 -0.18213890258E+03  0.18221732395E+03  0.00000000000E+00 0. -1.
        -15    1    1    2    0    0 -0.43357212418E+01  0.13785302036E+00  0.20821527327E+02  0.21342708623E+02  0.17770000000E+01 0. -1.
         15    1    1    2    0    0  0.82325963240E+00 -0.83515002673E+00  0.31682288570E+02  0.31753745764E+02  0.17770000000E+01 0. -1.
</event>
<event>
 6    1  0.1045352E-002  0.1826529E+03  0.7546771E-02  0.1068333E+00
        -11   -1    0    0    0    0  0.00000000000E+00  0.00000000000E+00  0.18250000000E+03  0.18250000000E+03  0.00000000000E+00 0.  1.
         11   -1    0    0    0    0 -0.00000000000E+00 -0.00000000000E+00 -0.18250000000E+03  0.18250000000E+03  0.00000000000E+00 0.  1.
        -11    1    1    2    0    0  0.11577298995E+00  0.18297551468E+01  0.41508373947E+02  0.41548844930E+02  0.00000000000E+00 0.  1.
         11    1    1    2    0    0 -0.18159640739E+00 -0.33832305478E+01 -0.18231563361E+03  0.18234711263E+03  0.00000000000E+00 0.  1.
        -15    1    1    2    0    0 -0.42909941337E+00  0.41203409730E+01  0.41056148768E+02  0.41302862089E+02  0.17770000000E+01 0. -1.
         15    1    1    2    0    0  0.49492283081E+00 -0.25668655721E+01  0.99751110890E+02  0.99801180355E+02  0.17770000000E+01 0.  1.
</event>
<event>
 6    1  0.1045352E-002  0.1858006E+03  0.7546771E-02  0.1065857E+00
        -11   -1    0    0    0    0  0.00000000000E+00  0.00000000000E+00  0.18250000000E+03  0.18250000000E+03  0.00000000000E+00 0. -1.
         11   -1    0    0    0    0 -0.00000000000E+00 -0.00000000000E+00 -0.18250000000E+03  0.18250000000E+03  0.00000000000E+00 0.  1.
        -11    1    1    2    0    0  0.12533610935E+01 -0.19794920079E+01  0.16336341375E+03  0.16338021378E+03  0.00000000000E+00 0. -1.
         11    1    1    2    0    0 -0.86739882532E+01 -0.93728315078E+00 -0.17898686493E+03  0.17919937050E+03  0.00000000000E+00 0.  1.
        -15    1    1    2    0    0  0.25366962603E+01 -0.18206655280E+00 -0.20641470614E+01  0.37264471334E+01  0.17770000000E+01 0. -1.
         15    1    1    2    0    0  0.48839308994E+01  0.30988417115E+01  0.17687598235E+02  0.18693968581E+02  0.17770000000E+01 0.  1.
</event>
<event>
 6    1  0.1045352E-002  0.1828735E+03  0.7546771E-02  0.1068158E+00
        -11   -1    0    0    0    0  0.00000000000E+00  0.00000000000E+00  0.18250000000E+03  0.18250000000E+03  0.00000000000E+00 0.  1.
         11   -1    0    0    0    0 -0.00000000000E+00 -0.00000000000E+00 -0.18250000000E+03  0.18250000000E+03  0.00000000000E+00 0.  1.
        -11    1    1    2    0    0 -0.30381402295E+01  0.11912914264E+01  0.18209722447E+03  0.18212646329E+03  0.00000000000E+00 0.  1.
         11    1    1    2    0    0  0.20137304683E+00 -0.27508651573E+01 -0.15266830290E+03  0.15269321701E+03  0.00000000000E+00 0.  1.
        -15    1    1    2    0    0  0.15655993511E+01  0.19316223528E+01 -0.69482630159E+01  0.75906754759E+01  0.17770000000E+01 0.  1.
         15    1    1    2    0    0  0.12711678316E+01 -0.37204862197E+00 -0.22480658559E+02  0.22589644222E+02  0.17770000000E+01 0. -1.
</event>
<event>
 6    1  0.1045352E-002  0.1883168E+03  0.7546771E-02  0.1063917E+00
        -11   -1    0    0    0    0  0.00000000000E+00  0.00000000000E+00  0.18250000000E+03  0.18250000000E+03  0.00000000000E+00 0. -1.
         11   -1    0    0    0    0 -0.00000000000E+00 -0.00000000000E+00 -0.18250000000E+03  0.18250000000E+03  0.00000000000E+00 0. -1.
        -11    1    1    2    0    0  0.10261512138E+02  0.88509625755E+00  0.17638277198E+03  0.17668323145E+03  0.00000000000E+00 0. -1.
         11    1    1    2    0    0  0.97621163300E+00 -0.25056475843E+01 -0.12977630363E+03  0.12980416111E+03  0.00000000000E+00 0. -1.
        -15    1    1    2    0    0  0.19639435940E+01  0.10437856917E+02 -0.17671169738E+01  0.10912669832E+02  0.17770000000E+01 0. -1.
         15    1    1    2    0    0 -0.13201667365E+02 -0.88173055903E+01 -0.44839351372E+02  0.47599937601E+02  0.17770000000E+01 0.  1.
</event>
<event>
 6    1  0.1045352E-002  0.1783301E+03  0.7546771E-02  0.1071823E+00
        -11   -1    0    0    0    0  0.00000000000E+00  0.00000000000E+00  0.18250000000E+03  0.18250000000E+03  0.00000000000E+00 0.  1.
         11   -1    0    0    0    0 -0.00000000000E+00 -0.00000000000E+00 -0.18250000000E+03  0.18250000000E+03  0.00000000000E+00 0. -1.
        -11    1    1    2    0    0 -0.20467867365E+01 -0.14517186315E+01  0.17883259545E+03  0.17885019994E+03  0.00000000000E+00 0.  1.
         11    1    1    2    0    0  0.15566222674E+01 -0.25888144401E+01 -0.17780912261E+03  0.17783478039E+03  0.00000000000E+00 0. -1.
        -15    1    1    2    0    0 -0.88725378983E+00  0.12787015787E+00 -0.28252995989E+01  0.34559538320E+01  0.17770000000E+01 0.  1.
         15    1    1    2    0    0  0.13774182589E+01  0.39126629137E+01  0.18018267595E+01  0.48590658369E+01  0.17770000000E+01 0. -1.
</event>
<event>
 6    1  0.1045352E-002  0.1837386E+03  0.7546771E-02  0.1067473E+00
        -11   -1    0    0    0    0  0.00000000000E+00  0.00000000000E+00  0.18250000000E+03  0.18250000000E+03  0.00000000000E+00 0.  1.
         11   -1    0    0    0    0 -0.00000000000E+00 -0.00000000000E+00 -0.18250000000E+03  0.18250000000E+03  0.00000000000E+00 0.  1.
        -11    1    1    2    0    0 -0.26302053990E+01  0.17747912220E+01  0.18123358976E+03  0.18126136357E+03  0.00000000000E+00 0.  1.
         11    1    1    2    0    0  0.10802201937E+01 -0.24844067317E+01 -0.16981936600E+03  0.16984097333E+03  0.00000000000E+00 0.  1.
        -15    1    1    2    0    0  0.31728899331E+01 -0.13141008989E+01 -0.29358604371E+01  0.48550074362E+01  0.17770000000E+01 0.  1.
         15    1    1    2    0    0 -0.16229047278E+01  0.20237164086E+01 -0.84783633261E+01  0.90426556690E+01  0.17770000000E+01 0. -1.
</event>
<event>
 6    1  0.1045352E-002  0.1898279E+03  0.7546771E-02  0.1062767E+00
        -11   -1    0    0    0    0  0.00000000000E+00  0.00000000000E+00  0.18250000000E+03  0.18250000000E+03  0.00000000000E+00 0. -1.
         11   -1    0    0    0    0 -0.00000000000E+00 -0.00000000000E+00 -0.18250000000E+03  0.18250000000E+03  0.00000000000E+00 0.  1.
        -11    1    1    2    0    0 -0.33168203826E+01  0.18447162627E+01  0.17513097553E+03  0.17517209500E+03  0.00000000000E+00 0. -1.
         11    1    1    2    0    0 -0.50123560549E+01 -0.17940245048E+01 -0.12599570963E+03  0.12610813250E+03  0.00000000000E+00 0.  1.
        -15    1    1    2    0    0  0.14958396399E+02 -0.59979676166E+01 -0.51781472681E+02  0.54260555474E+02  0.17770000000E+01 0.  1.
         15    1    1    2    0    0 -0.66292199615E+01  0.59472758587E+01  0.26462067799E+01  0.94592170268E+01  0.17770000000E+01 0. -1.
</event>
<event>
 6    1  0.1045352E-002  0.1830685E+03  0.7546771E-02  0.1068003E+00
        -11   -1    0    0    0    0  0.00000000000E+00  0.00000000000E+00  0.18250000000E+03  0.18250000000E+03  0.00000000000E+00 0.  1.
         11   -1    0    0    0    0 -0.00000000000E+00 -0.00000000000E+00 -0.18250000000E+03  0.18250000000E+03  0.00000000000E+00 0.  1.
        -11    1    1    2    0    0  0.57616123466E+00 -0.21363287227E+01  0.43690614393E+02  0.43746607277E+02  0.00000000000E+00 0.  1.
         11    1    1    2    0    0 -0.16112660012E+01  0.25865506715E+01 -0.18190597890E+03  0.18193150245E+03  0.00000000000E+00 0.  1.
        -15    1    1    2    0    0  0.23344862623E+01 -0.14397480943E+01  0.43805428772E+01  0.54653074555E+01  0.17770000000E+01 0. -1.
         15    1    1    2    0    0 -0.12993814958E+01  0.98952614545E+00  0.13383482163E+03  0.13385658282E+03  0.17770000000E+01 0.  1.
</event>
<event>
 6    1  0.1045352E-002  0.1874560E+03  0.7546771E-02  0.1064577E+00
        -11   -1    0    0    0    0  0.00000000000E+00  0.00000000000E+00  0.18250000000E+03  0.18250000000E+03  0.00000000000E+00 0. -1.
         11   -1    0    0    0    0 -0.00000000000E+00 -0.00000000000E+00 -0.18250000000E+03  0.18250000000E+03  0.00000000000E+00 0. -1.
        -11    1    1    2    0    0  0.10696772418E+01  0.21747219626E+01  0.17752750672E+03  0.17754404881E+03  0.00000000000E+00 0. -1.
         11    1    1    2    0    0  0.26156668499E+01 -0.38272674480E+01 -0.10633857652E+03  0.10643957227E+03  0.00000000000E+00 0. -1.
        -15    1    1    2    0    0 -0.56658235929E+01 -0.48425220155E+01  0.16518255745E+01  0.78382289572E+01  0.17770000000E+01 0.  1.
         15    1    1    2    0    0  0.19804795013E+01  0.64950675009E+01 -0.72840755774E+02  0.73178149961E+02  0.17770000000E+01 0. -1.
</event>
<event>
 6    1  0.1045352E-002  0.1948664E+03  0.7546771E-02  0.1059016E+00
        -11   -1    0    0    0    0  0.00000000000E+00  0.00000000000E+00  0.18250000000E+03  0.18250000000E+03  0.00000000000E+00 0.  1.
         11   -1    0    0    0    0 -0.00000000000E+00 -0.00000000000E+00 -0.18250000000E+03  0.18250000000E+03  0.00000000000E+00 0.  1.
        -11    1    1    2    0    0 -0.65237651880E+00 -0.26023671561E+01  0.14480116010E+03  0.14482601243E+03  0.00000000000E+00 0.  1.
         11    1    1    2    0    0  0.22814248321E+01  0.39021322234E+01 -0.17007351409E+03  0.17013357026E+03  0.00000000000E+00 0.  1.
        -15    1    1    2    0    0 -0.39326330142E+00 -0.59908306947E+01  0.36841698735E+02  0.37369950536E+02  0.17770000000E+01 0.  1.
         15    1    1    2    0    0 -0.12357850119E+01  0.46910656275E+01 -0.11569344744E+02  0.12670466768E+02  0.17770000000E+01 0. -1.
</event>
<event>
 6    1  0.1045352E-002  0.1849759E+03  0.7546771E-02  0.1066501E+00
        -11   -1    0    0    0    0  0.00000000000E+00  0.00000000000E+00  0.18250000000E+03  0.18250000000E+03  0.00000000000E+00 0.  1.
         11   -1    0    0    0    0 -0.00000000000E+00 -0.00000000000E+00 -0.18250000000E+03  0.18250000000E+03  0.00000000000E+00 0. -1.
        -11    1    1    2    0    0  0.21240180915E+01 -0.31208080792E+01  0.16387978741E+03  0.16392326137E+03  0.00000000000E+00 0.  1.
         11    1    1    2    0    0  0.49409319090E+01  0.10063904637E+00 -0.17995621353E+03  0.18002405874E+03  0.00000000000E+00 0. -1.
        -15    1    1    2    0    0 -0.11525848035E+01 -0.13623194555E+01 -0.72802158790E+00  0.26214710490E+01  0.17770000000E+01 0. -1.
         15    1    1    2    0    0 -0.59123651969E+01  0.43824884884E+01  0.16804447706E+02  0.18431208839E+02  0.17770000000E+01 0.  1.
</event>
<event>
 6    1  0.1045352E-002  0.1922382E+03  0.7546771E-02  0.1060957E+00
        -11   -1    0    0    0    0  0.00000000000E+00  0.00000000000E+00  0.18250000000E+03  0.18250000000E+03  0.00000000000E+00 0. -1.
         11   -1    0    0    0    0 -0.00000000000E+00 -0.00000000000E+00 -0.18250000000E+03  0.18250000000E+03  0.00000000000E+00 0. -1.
        -11    1    1    2    0    0 -0.38645580649E+01 -0.32666875115E+00  0.17271826226E+03  0.17276180029E+03  0.00000000000E+00 0. -1.
         11    1    1    2    0    0 -0.27260326070E+01 -0.62698247507E+01 -0.10631725673E+03  0.10653685295E+03  0.00000000000E+00 0. -1.
        -15    1    1    2    0    0  0.88800926368E+01  0.28741268890E+01  0.72175563125E+01  0.11931785228E+02  0.17770000000E+01 0. -1.
         15    1    1    2    0    0 -0.22895019649E+01  0.37223666128E+01 -0.73618561840E+02  0.73769561534E+02  0.17770000000E+01 0. -1.
</event>
<event>
 6    1  0.1045352E-002  0.1854676E+03  0.7546771E-02  0.1066117E+00
        -11   -1    0    0    0    0  0.00000000000E+00  0.00000000000E+00  0.18250000000E+03  0.18250000000E+03  0.00000000000E+00 0.  1.
         11   -1    0    0    0    0 -0.00000000000E+00 -0.00000000000E+00 -0.18250000000E+03  0.18250000000E+03  0.00000000000E+00 0. -1.
        -11    1    1    2    0    0 -0.23241881881E+01 -0.60148235151E+01  0.17408355198E+03  0.17420293632E+03  0.00000000000E+00 0.  1.
         11    1    1    2    0    0  0.12887579822E+01  0.20714550868E+01 -0.17951578623E+03  0.17953236290E+03  0.00000000000E+00 0. -1.
        -15    1    1    2    0    0  0.11143092427E+01 -0.19487628628E+01  0.40446962853E+01  0.49554675686E+01  0.17770000000E+01 0.  1.
         15    1    1    2    0    0 -0.78879036922E-01  0.58921312911E+01  0.13875379602E+01  0.63092332058E+01  0.17770000000E+01 0. -1.
</event>
<event>
 6    1  0.1045352E-002  0.1831201E+03  0.7546771E-02  0.1067962E+00
        -11   -1    0    0    0    0  0.00000000000E+00  0.00000000000E+00  0.18250000000E+03  0.18250000000E+03  0.00000000000E+00 0. -1.
         11   -1    0    0    0    0 -0.00000000000E+00 -0.00000000000E+00 -0.18250000000E+03  0.18250000000E+03  0.00000000000E+00 0. -1.
        -11    1    1    2    0    0 -0.22866600226E+01  0.37781572232E+01  0.12666046527E+03  0.12673743231E+03  0.00000000000E+00 0. -1.
         11    1    1    2    0    0 -0.76067272098E+01 -0.26489371010E+01 -0.18170145007E+03  0.18187989478E+03  0.00000000000E+00 0. -1.
        -15    1    1    2    0    0  0.60319967911E+00  0.14332836839E+01  0.85480194541E+01  0.88681744209E+01  0.17770000000E+01 0. -1.
         15    1    1    2    0    0  0.92901875533E+01 -0.25625038062E+01  0.46492965348E+02  0.47514498486E+02  0.17770000000E+01 0.  1.
</event>
<event>
 6    1  0.1045352E-002  0.1886245E+03  0.7546771E-02  0.1063682E+00
        -11   -1    0    0    0    0  0.00000000000E+00  0.00000000000E+00  0.18250000000E+03  0.18250000000E+03  0.00000000000E+00 0.  1.
         11   -1    0    0    0    0 -0.00000000000E+00 -0.00000000000E+00 -0.18250000000E+03  0.18250000000E+03  0.00000000000E+00 0. -1.
        -11    1    1    2    0    0 -0.19348428898E+01  0.54530438996E+00  0.14055608417E+03  0.14057045839E+03  0.00000000000E+00 0.  1.
         11    1    1    2    0    0  0.25438126377E+01 -0.51867579882E+01 -0.17628084316E+03  0.17637547762E+03  0.00000000000E+00 0. -1.
        -15    1    1    2    0    0 -0.61916267408E+01  0.15687647782E+02  0.10624617750E+02  0.20011965570E+02  0.17770000000E+01 0. -1.
         15    1    1    2    0    0  0.55826569928E+01 -0.11046194184E+02  0.25100141231E+02  0.28042098421E+02  0.17770000000E+01 0.  1.
</event>
<event>
 6    1  0.1045352E-002  0.1864437E+03  0.7546771E-02  0.1065358E+00
        -11   -1    0    0    0    0  0.00000000000E+00  0.00000000000E+00  0.18250000000E+03  0.18250000000E+03  0.00000000000E+00 0.  1.
         11   -1    0    0    0    0 -0.00000000000E+00 -0.00000000000E+00 -0.18250000000E+03  0.18250000000E+03  0.00000000000E+00 0.  1.
        -11    1    1    2    0    0 -0.36308080394E+01 -0.79938149528E+01  0.17834029457E+03  0.17855627827E+03  0.00000000000E+00 0.  1.
         11    1    1    2    0    0  0.75191896876E+00 -0.21800956703E+01 -0.15794794780E+03  0.15796478219E+03  0.00000000000E+00 0.  1.
        -15    1    1    2    0    0  0.27752661215E+01  0.61552618413E+00 -0.18207771257E+02  0.18513822881E+02  0.17770000000E+01 0.  1.
         15    1    1    2    0    0  0.10362294914E+00  0.95583844389E+01 -0.21845755098E+01  0.99651166554E+01  0.17770000000E+01 0. -1.
</event>
<event>
 6    1  0.1045352E-002  0.2064147E+03  0.7546771E-02  0.1050867E+00
        -11   -1    0    0    0    0  0.00000000000E+00  0.00000000000E+00  0.18250000000E+03  0.18250000000E+03  0.00000000000E+00 0.  1.
         11   -1    0    0    0    0 -0.00000000000E+00 -0.00000000000E+00 -0.18250000000E+03  0.18250000000E+03  0.00000000000E+00 0. -1.
        -11    1    1    2    0    0  0.49775151948E+01  0.85343503206E+00  0.13194936617E+03  0.13204597397E+03  0.00000000000E+00 0.  1.
         11    1    1    2    0    0  0.27605333878E+01  0.52646238339E+01 -0.15847381377E+03  0.15858526558E+03  0.00000000000E+00 0. -1.
        -15    1    1    2    0    0 -0.88595199340E+01  0.63531182452E+00 -0.22803288268E+02  0.24536552313E+02  0.17770000000E+01 0.  1.
         15    1    1    2    0    0  0.11214713514E+01 -0.67533706905E+01  0.49327735865E+02  0.49832208142E+02  0.17770000000E+01 0. -1.
</event>
<event>
 6    1  0.1336673E-002  0.1922670E+03  0.7546771E-02  0.1060936E+00
        -11   -1    0    0    0    0  0.00000000000E+00  0.00000000000E+00  0.18250000000E+03  0.18250000000E+03  0.00000000000E+00 0. -1.
         11   -1    0    0    0    0 -0.00000000000E+00 -0.00000000000E+00 -0.18250000000E+03  0.18250000000E+03  0.00000000000E+00 0.  1.
        -11    1    1    2    0    0 -0.27389089727E+01  0.27893129642E+01  0.17268875542E+03  0.17273299666E+03  0.00000000000E+00 0. -1.
         11    1    1    2    0    0  0.82643691880E+00 -0.42360761609E+01 -0.16946832579E+03  0.16952327506E+03  0.00000000000E+00 0.  1.
        -15    1    1    2    0    0  0.17741526809E+01 -0.14053082434E+01  0.93231393340E+01  0.97571084361E+01  0.17770000000E+01 0. -1.
         15    1    1    2    0    0  0.13831937304E+00  0.28520714401E+01 -0.12543568956E+02  0.12986619841E+02  0.17770000000E+01 0. -1.
</event>
<event>
 6    1  0.1045352E-002  0.1857023E+03  0.7546771E-02  0.1065934E+00
        -11   -1    0    0    0    0  0.00000000000E+00  0.00000000000E+00  0.18250000000E+03  0.18250000000E+03  0.00000000000E+00 0.  1.
         11   -1    0    0    0    0 -0.00000000000E+00 -0.00000000000E+00 -0.18250000000E+03  0.18250000000E+03  0.00000000000E+00 0. -1.
        -11    1    1    2    0    0 -0.11367031000E+02  0.36394575534E+01  0.15036356371E+03  0.15083652189E+03  0.00000000000E+00 0.  1.
         11    1    1    2    0    0  0.32309268318E+01 -0.55694656295E+00 -0.17926772320E+03  0.17929770121E+03  0.00000000000E+00 0. -1.
        -15    1    1    2    0    0  0.35059180446E+01  0.11786550628E+01 -0.10259407083E+01  0.42297721487E+01  0.17770000000E+01 0.  1.
         15    1    1    2    0    0  0.46301861235E+01 -0.42611660532E+01  0.29930100201E+02  0.30636004745E+02  0.17770000000E+01 0.  1.
</event>
<event>
 6    1  0.1045352E-002  0.1835144E+03  0.7546771E-02  0.1067650E+00
        -11   -1    0    0    0    0  0.00000000000E+00  0.00000000000E+00  0.18250000000E+03  0.18250000000E+03  0.00000000000E+00 0. -1.
         11   -1    0    0    0    0 -0.00000000000E+00 -0.00000000000E+00 -0.18250000000E+03  0.18250000000E+03  0.00000000000E+00 0.  1.
        -11    1    1    2    0    0 -0.19191060935E+01  0.17449753073E+01  0.18146703938E+03  0.18148557598E+03  0.00000000000E+00 0. -1.
         11    1    1    2    0    0  0.81616849392E+01  0.19022914640E+01 -0.15588826572E+03  0.15611336651E+03  0.00000000000E+00 0.  1.
        -15    1    1    2    0    0 -0.24624358559E+01 -0.22489482826E+01 -0.45434170863E+01  0.59094607658E+01  0.17770000000E+01 0.  1.
         15    1    1    2    0    0 -0.37801429898E+01 -0.13983184888E+01 -0.21035356572E+02  0.21491596747E+02  0.17770000000E+01 0. -1.
</event>
<event>
 6    1  0.1045352E-002  0.1840312E+03  0.7546771E-02  0.1067242E+00
        -11   -1    0    0    0    0  0.00000000000E+00  0.00000000000E+00  0.18250000000E+03  0.18250000000E+03  0.00000000000E+00 0. -1.
         11   -1    0    0    0    0 -0.00000000000E+00 -0.00000000000E+00 -0.18250000000E+03  0.18250000000E+03  0.00000000000E+00 0. -1.
        -11    1    1    2    0    0 -0.27859287635E+01  0.10946450944E+01  0.69565268398E+02  0.69629636034E+02  0.00000000000E+00 0. -1.
         11    1    1    2    0    0 -0.41477490113E+01  0.11707761248E+01 -0.18091748433E+03  0.18096881133E+03  0.00000000000E+00 0. -1.
        -15    1    1    2    0    0  0.34486033903E+01 -0.10148165958E+01  0.12182156266E+01  0.41910018348E+01  0.17770000000E+01 0. -1.
         15    1    1    2    0    0  0.34850743846E+01 -0.12506046234E+01  0.11013400031E+03  0.11021055080E+03  0.17770000000E+01 0.  1.
</event>
<event>
 6    1  0.1045352E-002  0.1861298E+03  0.7546771E-02  0.1065602E+00
        -11   -1    0    0    0    0  0.00000000000E+00  0.00000000000E+00  0.18250000000E+03  0.18250000000E+03  0.00000000000E+00 0. -1.
         11   -1    0    0    0    0 -0.00000000000E+00 -0.00000000000E+00 -0.18250000000E+03  0.18250000000E+03  0.00000000000E+00 0.  1.
        -11    1    1    2    0    0 -0.49248966311E+01  0.41260565395E+01  0.16536041668E+03  0.16548518470E+03  0.00000000000E+00 0. -1.
         11    1    1    2    0    0 -0.86099347269E+00  0.28193877022E+01 -0.17884589095E+03  0.17887018468E+03  0.00000000000E+00 0.  1.
        -15    1    1    2    0    0  0.30599025123E+01 -0.92545437316E+01  0.46394763136E+01  0.10940386306E+02  0.17770000000E+01 0. -1.
         15    1    1    2    0    0  0.27259875915E+01  0.23090994899E+01  0.88459979582E+01  0.97042443127E+01  0.17770000000E+01 0.  1.
</event>
<event>
 6    1  0.1045352E-002  0.1747024E+03  0.7546771E-02  0.1074837E+00
        -11   -1    0    0    0    0  0.00000000000E+00  0.00000000000E+00  0.18250000000E+03  0.18250000000E+03  0.00000000000E+00 0. -1.
         11   -1    0    0    0    0 -0.00000000000E+00 -0.00000000000E+00 -0.18250000000E+03  0.18250000000E+03  0.00000000000E+00 0.  1.
        -11    1    1    2    0    0 -0.29606382581E+00 -0.39067009979E+01  0.17226797906E+03  0.17231252589E+03  0.00000000000E+00 0. -1.
         11    1    1    2    0    0 -0.23503583588E+01 -0.49755080165E+01 -0.17716409466E+03  0.17724953117E+03  0.00000000000E+00 0.  1.
        -15    1    1    2    0    0 -0.25526704729E+01  0.42602351381E+01 -0.18462373368E+01  0.55885643307E+01  0.17770000000E+01 0.  1.
         15    1    1    2    0    0  0.51990926575E+01  0.46219738764E+01  0.67423529306E+01  0.98493786107E+01  0.17770000000E+01 0. -1.
</event>
<event>
 6    1  0.1045352E-002  0.1742848E+03  0.7546771E-02  0.1075189E+00
        -11   -1    0    0    0    0  0.00000000000E+00  0.00000000000E+00  0.18250000000E+03  0.18250000000E+03  0.00000000000E+00 0.  1.
         11   -1    0    0    0    0 -0.00000000000E+00 -0.00000000000E+00 -0.18250000000E+03  0.18250000000E+03  0.00000000000E+00 0. -1.
        -11    1    1    2    0    0  0.43942971836E+00 -0.86071568092E+01  0.17455429161E+03  0.17476692183E+03  0.00000000000E+00 0.  1.
         11    1    1    2    0    0  0.24282116212E+01 -0.18964492207E+01 -0.17394583706E+03  0.17397312138E+03  0.00000000000E+00 0. -1.
        -15    1    1    2    0    0 -0.17781191606E+01  0.18548915217E+01 -0.53376639175E+01  0.61847162750E+01  0.17770000000E+01 0. -1.
         15    1    1    2    0    0 -0.10895221790E+01  0.86487145081E+01  0.47292093641E+01  0.10075240515E+02  0.17770000000E+01 0. -1.
</event>
<event>
 6    1  0.1045352E-002  0.1837061E+03  0.7546771E-02  0.1067499E+00
        -11   -1    0    0    0    0  0.00000000000E+00  0.00000000000E+00  0.18250000000E+03  0.18250000000E+03  0.00000000000E+00 0.  1.
         11   -1    0    0    0    0 -0.00000000000E+00 -0.00000000000E+00 -0.18250000000E+03  0.18250000000E+03  0.00000000000E+00 0.  1.
        -11    1    1    2    0    0 -0.15533398330E+01 -0.18612233190E+01  0.16593288809E+03  0.16595059616E+03  0.00000000000E+00 0.  1.
         11    1    1    2    0    0  0.37024595743E+01 -0.41214517214E+01 -0.18120918054E+03  0.18129385451E+03  0.00000000000E+00 0.  1.
        -15    1    1    2    0    0 -0.16583581862E+01  0.12369907966E+01  0.10229636209E+02  0.10586948761E+02  0.17770000000E+01 0.  1.
         15    1    1    2    0    0 -0.49076155508E+00  0.47456842438E+01  0.50466562438E+01  0.71686005670E+01  0.17770000000E+01 0. -1.
</event>
<event>
 6    1  0.1045352E-002  0.1748672E+03  0.7546771E-02  0.1074698E+00
        -11   -1    0    0    0    0  0.00000000000E+00  0.00000000000E+00  0.18250000000E+03  0.18250000000E+03  0.00000000000E+00 0.  1.
         11   -1    0    0    0    0 -0.00000000000E+00 -0.00000000000E+00 -0.18250000000E+03  0.18250000000E+03  0.00000000000E+00 0.  1.
        -11    1    1    2    0    0  0.28834843553E+01  0.25360238816E+01  0.17519960381E+03  0.17524168190E+03  0.00000000000E+00 0.  1.
         11    1    1    2    0    0  0.24125406840E+01  0.14032839497E+01 -0.17453336950E+03  0.17455568346E+03  0.00000000000E+00 0.  1.
        -15    1    1    2    0    0 -0.94340493519E+01 -0.45845582481E+01 -0.43882871022E+00  0.10647523709E+02  0.17770000000E+01 0.  1.
         15    1    1    2    0    0  0.41380243127E+01  0.64525041681E+00 -0.22740560156E+00  0.45551109339E+01  0.17770000000E+01 0.  1.
</event>
<event>
 6    1  0.1045352E-002  0.1854060E+03  0.7546771E-02  0.1066165E+00
        -11   -1    0    0    0    0  0.00000000000E+00  0.00000000000E+00  0.18250000000E+03  0.18250000000E+03  0.00000000000E+00 0.  1.
         11   -1    0    0    0    0 -0.00000000000E+00 -0.00000000000E+00 -0.18250000000E+03  0.18250000000E+03  0.00000000000E+00 0.  1.
        -11    1    1    2    0    0  0.87589440415E+00 -0.71589336541E+00  0.80947906458E+02  0.80955810503E+02  0.00000000000E+00 0.  1.
         11    1    1    2    0    0  0.10999671181E+01  0.31374521612E+01 -0.17956322667E+03  0.17959400297E+03  0.00000000000E+00 0.  1.
        -15    1    1    2    0    0 -0.10764954241E+02  0.80820740437E+00  0.85583891665E+01  0.13890327323E+02  0.17770000000E+01 0.  1.
         15    1    1    2    0    0  0.87890927185E+01 -0.32297662002E+01  0.90056931042E+02  0.90559859199E+02  0.17770000000E+01 0. -1.
</event>
<event>
 6    1  0.1045352E-002  0.1830311E+03  0.7546771E-02  0.1068033E+00
        -11   -1    0    0    0    0  0.00000000000E+00  0.00000000000E+00  0.18250000000E+03  0.18250000000E+03  0.00000000000E+00 0.  1.
         11   -1    0    0    0    0 -0.00000000000E+00 -0.00000000000E+00 -0.18250000000E+03  0.18250000000E+03  0.00000000000E+00 0. -1.
        -11    1    1    2    0    0  0.27226979607E+01  0.18423119384E+01  0.18193917228E+03  0.18196886989E+03  0.00000000000E+00 0.  1.
         11    1    1    2    0    0  0.25547559442E+01 -0.40655238260E+00 -0.15230779509E+03  0.15232976238E+03  0.00000000000E+00 0. -1.
        -15    1    1    2    0    0 -0.19688400041E+01  0.51397837428E+00 -0.47652441994E+01  0.54777537377E+01  0.17770000000E+01 0.  1.
         15    1    1    2    0    0 -0.33086139008E+01 -0.19497379301E+01 -0.24866132993E+02  0.25223613995E+02  0.17770000000E+01 0. -1.
</event>
<event>
 6    1  0.1045352E-002  0.1830631E+03  0.7546771E-02  0.1068007E+00
        -11   -1    0    0    0    0  0.00000000000E+00  0.00000000000E+00  0.18250000000E+03  0.18250000000E+03  0.00000000000E+00 0.  1.
         11   -1    0    0    0    0 -0.00000000000E+00 -0.00000000000E+00 -0.18250000000E+03  0.18250000000E+03  0.00000000000E+00 0.  1.
        -11    1    1    2    0    0 -0.28345253173E+01 -0.23419806244E+00  0.62106534223E+02  0.62171625166E+02  0.00000000000E+00 0.  1.
         11    1    1    2    0    0  0.15147309647E+00 -0.24518086531E+01 -0.18192035110E+03  0.18193693538E+03  0.00000000000E+00 0.  1.
        -15    1    1    2    0    0 -0.67063681775E+00  0.70432473109E+01  0.99631256496E+02  0.99897958369E+02  0.17770000000E+01 0.  1.
         15    1    1    2    0    0  0.33536890386E+01 -0.43572405954E+01  0.20182560380E+02  0.20993481090E+02  0.17770000000E+01 0. -1.
</event>
<event>
 6    1  0.1045352E-002  0.1826372E+03  0.7546771E-02  0.1068346E+00
        -11   -1    0    0    0    0  0.00000000000E+00  0.00000000000E+00  0.18250000000E+03  0.18250000000E+03  0.00000000000E+00 0. -1.
         11   -1    0    0    0    0 -0.00000000000E+00 -0.00000000000E+00 -0.18250000000E+03  0.18250000000E+03  0.00000000000E+00 0.  1.
        -11    1    1    2    0    0  0.68346168046E+00  0.14088246276E+01  0.86738056351E+02  0.86752189172E+02  0.00000000000E+00 0. -1.
         11    1    1    2    0    0  0.46242343480E-01  0.29277063193E+01 -0.18233932248E+03  0.18236283099E+03  0.00000000000E+00 0.  1.
        -15    1    1    2    0    0  0.41905748869E+00 -0.92040405071E+00  0.63538272774E+02  0.63571161613E+02  0.17770000000E+01 0. -1.
         15    1    1    2    0    0 -0.11487615126E+01 -0.34161268962E+01  0.32062993361E+02  0.32313818224E+02  0.17770000000E+01 0. -1.
</event>
<event>
 6    1  0.1045352E-002  0.1829735E+03  0.7546771E-02  0.1068079E+00
        -11   -1    0    0    0    0  0.00000000000E+00  0.00000000000E+00  0.18250000000E+03  0.18250000000E+03  0.00000000000E+00 0. -1.
         11   -1    0    0    0    0 -0.00000000000E+00 -0.00000000000E+00 -0.18250000000E+03  0.18250000000E+03  0.00000000000E+00 0.  1.
        -11    1    1    2    0    0  0.21920212559E+01 -0.13664483965E+01  0.15064878459E+03  0.15067092765E+03  0.00000000000E+00 0. -1.
         11    1    1    2    0    0  0.21757088771E+01  0.14116928217E+01 -0.18200806913E+03  0.18202654700E+03  0.00000000000E+00 0.  1.
        -15    1    1    2    0    0 -0.48971543924E+01  0.95781892448E+00  0.26183054338E+02  0.26713472289E+02  0.17770000000E+01 0. -1.
         15    1    1    2    0    0  0.52942425936E+00 -0.10030633497E+01  0.51762301935E+01  0.55890530635E+01  0.17770000000E+01 0.  1.
</event>
<event>
 6    1  0.1045352E-002  0.1830148E+03  0.7546771E-02  0.1068046E+00
        -11   -1    0    0    0    0  0.00000000000E+00  0.00000000000E+00  0.18250000000E+03  0.18250000000E+03  0.00000000000E+00 0.  1.
         11   -1    0    0    0    0 -0.00000000000E+00 -0.00000000000E+00 -0.18250000000E+03  0.18250000000E+03  0.00000000000E+00 0.  1.
        -11    1    1    2    0    0  0.21434995314E+00  0.38632952562E+01  0.18194402059E+03  0.18198515770E+03  0.00000000000E+00 0.  1.
         11    1    1    2    0    0  0.14757857021E+00 -0.38875694557E+01 -0.13229530766E+03  0.13235249678E+03  0.00000000000E+00 0.  1.
        -15    1    1    2    0    0  0.24528052663E+01  0.96282392520E+00 -0.43433826991E+02  0.43549952235E+02  0.17770000000E+01 0. -1.
         15    1    1    2    0    0 -0.28147337896E+01 -0.93854972571E+00 -0.62148859399E+01  0.71123932779E+01  0.17770000000E+01 0.  1.
</event>
<event>
 6    1  0.1045352E-002  0.1833681E+03  0.7546771E-02  0.1067766E+00
        -11   -1    0    0    0    0  0.00000000000E+00  0.00000000000E+00  0.18250000000E+03  0.18250000000E+03  0.00000000000E+00 0. -1.
         11   -1    0    0    0    0 -0.00000000000E+00 -0.00000000000E+00 -0.18250000000E+03  0.18250000000E+03  0.00000000000E+00 0.  1.
        -11    1    1    2    0    0 -0.22423265692E+01  0.26451328768E+01  0.18159876592E+03  0.18163187094E+03  0.00000000000E+00 0. -1.
         11    1    1    2    0    0 -0.19837405035E+01 -0.78690713648E+00 -0.13019579320E+03  0.13021328279E+03  0.00000000000E+00 0.  1.
        -15    1    1    2    0    0  0.44945560670E+01 -0.11696250669E+01 -0.63714354157E+01  0.80822011416E+01  0.17770000000E+01 0. -1.
         15    1    1    2    0    0 -0.26848899431E+00 -0.68860067343E+00 -0.45031537311E+02  0.45072645128E+02  0.17770000000E+01 0.  1.
</event>
<event>
 6    1  0.1045352E-002  0.1646831E+03  0.7546771E-02  0.1083594E+00
        -11   -1    0    0    0    0  0.00000000000E+00  0.00000000000E+00  0.18250000000E+03  0.18250000000E+03  0.00000000000E+00 0.  1.
         11   -1    0    0    0    0 -0.00000000000E+00 -0.00000000000E+00 -0.18250000000E+03  0.18250000000E+03  0.00000000000E+00 0. -1.
        -11    1    1    2    0    0 -0.46996866087E+01 -0.11199492278E+01  0.16557340307E+03  0.16564387445E+03  0.00000000000E+00 0.  1.
         11    1    1    2    0    0 -0.10055475320E+02 -0.89320368254E+01 -0.16365971664E+03  0.16421143905E+03  0.00000000000E+00 0. -1.
        -15    1    1    2    0    0  0.10901904442E+02  0.89884468473E+01  0.13195789673E+02  0.19414692665E+02  0.17770000000E+01 0.  1.
         15    1    1    2    0    0  0.38532574865E+01  0.10635392059E+01 -0.15109476101E+02  0.15729993832E+02  0.17770000000E+01 0. -1.
</event>
<event>
 6    1  0.1045352E-002  0.1955490E+03  0.7546771E-02  0.1058518E+00
        -11   -1    0    0    0    0  0.00000000000E+00  0.00000000000E+00  0.18250000000E+03  0.18250000000E+03  0.00000000000E+00 0. -1.
         11   -1    0    0    0    0 -0.00000000000E+00 -0.00000000000E+00 -0.18250000000E+03  0.18250000000E+03  0.00000000000E+00 0. -1.
        -11    1    1    2    0    0  0.20776720435E+01  0.16169716756E+01  0.12105230672E+03  0.12108093277E+03  0.00000000000E+00 0. -1.
         11    1    1    2    0    0 -0.28345742078E+02 -0.12949114098E+02 -0.16656074145E+03  0.16945099953E+03  0.00000000000E+00 0. -1.
        -15    1    1    2    0    0 -0.11472989065E+02  0.91262364867E+01 -0.64439346419E+00  0.14781428971E+02  0.17770000000E+01 0.  1.
         15    1    1    2    0    0  0.37741059100E+02  0.22059059355E+01  0.46152828196E+02  0.59686638726E+02  0.17770000000E+01 0. -1.
</event>
<event>
 6    1  0.1045352E-002  0.1832279E+03  0.7546771E-02  0.1067877E+00
        -11   -1    0    0    0    0  0.00000000000E+00  0.00000000000E+00  0.18250000000E+03  0.18250000000E+03  0.00000000000E+00 0. -1.
         11   -1    0    0    0    0 -0.00000000000E+00 -0.00000000000E+00 -0.18250000000E+03  0.18250000000E+03  0.00000000000E+00 0.  1.
        -11    1    1    2    0    0 -0.43867365657E+01  0.11914361455E+01  0.14539372760E+03  0.14546476895E+03  0.00000000000E+00 0. -1.
         11    1    1    2    0    0  0.89597573851E+00 -0.27934643909E+01 -0.18174846375E+03  0.18177213838E+03  0.00000000000E+00 0.  1.
        -15    1    1    2    0    0  0.57870738866E+01  0.29804985416E+01  0.28240517218E+02  0.29035463445E+02  0.17770000000E+01 0. -1.
         15    1    1    2    0    0 -0.22963130594E+01 -0.13784702962E+01  0.81142189325E+01  0.87276292261E+01  0.17770000000E+01 0.  1.
</event>
<event>
 6    1  0.1045352E-002  0.1827952E+03  0.7546771E-02  0.1068220E+00
        -11   -1    0    0    0    0  0.00000000000E+00  0.00000000000E+00  0.18250000000E+03  0.18250000000E+03  0.00000000000E+00 0.  1.
         11   -1    0    0    0    0 -0.00000000000E+00 -0.00000000000E+00 -0.18250000000E+03  0.18250000000E+03  0.00000000000E+00 0. -1.
        -11    1    1    2    0    0 -0.19264588438E+01  0.44779468762E+00  0.14021935230E+03  0.14023330034E+03  0.00000000000E+00 0.  1.
         11    1    1    2    0    0  0.21157788603E+01  0.35077675993E+01 -0.18215874501E+03  0.18220480053E+03  0.00000000000E+00 0. -1.
        -15    1    1    2    0    0 -0.19958824490E+01 -0.32769349002E+01  0.18548770718E+02  0.19024628071E+02  0.17770000000E+01 0. -1.
         15    1    1    2    0    0  0.18065624325E+01 -0.67862738674E+00  0.23390621990E+02  0.23537271062E+02  0.17770000000E+01 0.  1.
</event>
<event>
 6    1  0.1045352E-002  0.1850617E+03  0.7546771E-02  0.1066434E+00
        -11   -1    0    0    0    0  0.00000000000E+00  0.00000000000E+00  0.18250000000E+03  0.18250000000E+03  0.00000000000E+00 0.  1.
         11   -1    0    0    0    0 -0.00000000000E+00 -0.00000000000E+00 -0.18250000000E+03  0.18250000000E+03  0.00000000000E+00 0.  1.
        -11    1    1    2    0    0 -0.17864966929E+01  0.17149720215E+01  0.10614588400E+03  0.10617476815E+03  0.00000000000E+00 0.  1.
         11    1    1    2    0    0 -0.84988473972E+01 -0.30876668050E+01 -0.17971097351E+03  0.17993831747E+03  0.00000000000E+00 0.  1.
        -15    1    1    2    0    0  0.13846941132E+02  0.47257267790E+01  0.18865219029E+02  0.23940018595E+02  0.17770000000E+01 0.  1.
         15    1    1    2    0    0 -0.35615970422E+01 -0.33530319954E+01  0.54699870481E+02  0.54946895788E+02  0.17770000000E+01 0. -1.
</event>
<event>
 6    1  0.1045352E-002  0.1753501E+03  0.7546771E-02  0.1074293E+00
        -11   -1    0    0    0    0  0.00000000000E+00  0.00000000000E+00  0.18250000000E+03  0.18250000000E+03  0.00000000000E+00 0.  1.
         11   -1    0    0    0    0 -0.00000000000E+00 -0.00000000000E+00 -0.18250000000E+03  0.18250000000E+03  0.00000000000E+00 0.  1.
        -11    1    1    2    0    0  0.51894643727E+01  0.11960724502E+01  0.17343856355E+03  0.17352030560E+03  0.00000000000E+00 0.  1.
         11    1    1    2    0    0  0.24225960705E+01  0.35847547574E+01 -0.17726311057E+03  0.17731590399E+03  0.00000000000E+00 0.  1.
        -15    1    1    2    0    0 -0.67082104431E+01 -0.22895631981E+01 -0.19527385755E+01  0.75639344214E+01  0.17770000000E+01 0. -1.
         15    1    1    2    0    0 -0.90385000011E+00 -0.24912640095E+01  0.57772855966E+01  0.65998559873E+01  0.17770000000E+01 0.  1.
</event>
<event>
 6    1  0.1045352E-002  0.1757718E+03  0.7546771E-02  0.1073940E+00
        -11   -1    0    0    0    0  0.00000000000E+00  0.00000000000E+00  0.18250000000E+03  0.18250000000E+03  0.00000000000E+00 0. -1.
         11   -1    0    0    0    0 -0.00000000000E+00 -0.00000000000E+00 -0.18250000000E+03  0.18250000000E+03  0.00000000000E+00 0. -1.
        -11    1    1    2    0    0 -0.31565265014E+01  0.85317925034E-02  0.17511756281E+03  0.17514600919E+03  0.00000000000E+00 0. -1.
         11    1    1    2    0    0  0.32397192362E+01 -0.80658417501E+01 -0.17627772009E+03  0.17649189269E+03  0.00000000000E+00 0. -1.
        -15    1    1    2    0    0  0.48711163949E+01  0.43051159215E+01 -0.25851284857E+00  0.67443573395E+01  0.17770000000E+01 0. -1.
         15    1    1    2    0    0 -0.49543091298E+01  0.37521940361E+01  0.14186701326E+01  0.66177407763E+01  0.17770000000E+01 0.  1.
</event>
<event>
 6    1  0.1045352E-002  0.1856586E+03  0.7546771E-02  0.1065968E+00
        -11   -1    0    0    0    0  0.00000000000E+00  0.00000000000E+00  0.18250000000E+03  0.18250000000E+03  0.00000000000E+00 0.  1.
         11   -1    0    0    0    0 -0.00000000000E+00 -0.00000000000E+00 -0.18250000000E+03  0.18250000000E+03  0.00000000000E+00 0. -1.
        -11    1    1    2    0    0  0.19476975354E+01  0.23680878424E+01  0.17931521171E+03  0.17934142443E+03  0.00000000000E+00 0.  1.
         11    1    1    2    0    0  0.65145286634E+00 -0.98270919175E+01 -0.16786083263E+03  0.16814950269E+03  0.00000000000E+00 0. -1.
        -15    1    1    2    0    0  0.13217022276E+01 -0.77147986489E+00 -0.66508982473E+01  0.70522517295E+01  0.17770000000E+01 0. -1.
         15    1    1    2    0    0 -0.39208526294E+01  0.82304839400E+01 -0.48034808403E+01  0.10456821143E+02  0.17770000000E+01 0.  1.
</event>
<event>
 6    1  0.1045352E-002  0.1827791E+03  0.7546771E-02  0.1068233E+00
        -11   -1    0    0    0    0  0.00000000000E+00  0.00000000000E+00  0.18250000000E+03  0.18250000000E+03  0.00000000000E+00 0.  1.
         11   -1    0    0    0    0 -0.00000000000E+00 -0.00000000000E+00 -0.18250000000E+03  0.18250000000E+03  0.00000000000E+00 0.  1.
        -11    1    1    2    0    0 -0.38529969641E+01 -0.34238446373E+01  0.68854694272E+02  0.69047354916E+02  0.00000000000E+00 0.  1.
         11    1    1    2    0    0  0.33078342960E+01  0.25375409686E+01 -0.18217316509E+03  0.18222086313E+03  0.00000000000E+00 0.  1.
        -15    1    1    2    0    0 -0.11194443339E+00 -0.92384803423E+00  0.50814512565E+01  0.54630488391E+01  0.17770000000E+01 0. -1.
         15    1    1    2    0    0  0.65710710147E+00  0.18101517030E+01  0.10823701956E+03  0.10826873312E+03  0.17770000000E+01 0.  1.
</event>
<event>
 6    1  0.1045352E-002  0.1848219E+03  0.7546771E-02  0.1066621E+00
        -11   -1    0    0    0    0  0.00000000000E+00  0.00000000000E+00  0.18250000000E+03  0.18250000000E+03  0.00000000000E+00 0. -1.
         11   -1    0    0    0    0 -0.00000000000E+00 -0.00000000000E+00 -0.18250000000E+03  0.18250000000E+03  0.00000000000E+00 0. -1.
        -11    1    1    2    0    0 -0.38351505484E+01  0.14946998353E+01  0.18013111140E+03  0.18017813353E+03  0.00000000000E+00 0. -1.
         11    1    1    2    0    0 -0.26801838451E+01  0.84441467479E-01 -0.17076620854E+03  0.17078726093E+03  0.00000000000E+00 0. -1.
        -15    1    1    2    0    0 -0.93006330016E+00  0.21366521925E+00 -0.30610682830E+00  0.20401227803E+01  0.17770000000E+01 0.  1.
         15    1    1    2    0    0  0.74453976937E+01 -0.17928065221E+01 -0.90587960319E+01  0.11994482756E+02  0.17770000000E+01 0.  1.
</event>
<event>
 6    1  0.1045352E-002  0.1847461E+03  0.7546771E-02  0.1066681E+00
        -11   -1    0    0    0    0  0.00000000000E+00  0.00000000000E+00  0.18250000000E+03  0.18250000000E+03  0.00000000000E+00 0. -1.
         11   -1    0    0    0    0 -0.00000000000E+00 -0.00000000000E+00 -0.18250000000E+03  0.18250000000E+03  0.00000000000E+00 0.  1.
        -11    1    1    2    0    0 -0.32966281378E+01  0.49878972934E+00  0.18022307809E+03  0.18025391653E+03  0.00000000000E+00 0. -1.
         11    1    1    2    0    0 -0.45322680409E+01  0.13254821098E+00 -0.16515803139E+03  0.16522026013E+03  0.00000000000E+00 0.  1.
        -15    1    1    2    0    0  0.56423360714E+01  0.25100257441E+01 -0.37285181347E+01  0.74293850391E+01  0.17770000000E+01 0.  1.
         15    1    1    2    0    0  0.21865601073E+01 -0.31413636844E+01 -0.11336528560E+02  0.12096438306E+02  0.17770000000E+01 0. -1.
</event>
<event>
 6    1  0.1045352E-002  0.1840287E+03  0.7546771E-02  0.1067244E+00
        -11   -1    0    0    0    0  0.00000000000E+00  0.00000000000E+00  0.18250000000E+03  0.18250000000E+03  0.00000000000E+00 0. -1.
         11   -1    0    0    0    0 -0.00000000000E+00 -0.00000000000E+00 -0.18250000000E+03  0.18250000000E+03  0.00000000000E+00 0. -1.
        -11    1    1    2    0    0  0.24603292199E+01  0.46894027089E+01  0.18089376857E+03  0.18097126630E+03  0.00000000000E+00 0. -1.
         11    1    1    2    0    0 -0.10257012367E+01 -0.80549775512E-02 -0.54062789838E+02  0.54072519573E+02  0.00000000000E+00 0. -1.
        -15    1    1    2    0    0 -0.36347310740E+01  0.73809823708E-01 -0.12242187623E+01  0.42276658393E+01  0.17770000000E+01 0.  1.
         15    1    1    2    0    0  0.22001030907E+01 -0.47551575551E+01 -0.12560675997E+03  0.12572854829E+03  0.17770000000E+01 0. -1.
</event>
<event>
 6    1  0.1045352E-002  0.1862093E+03  0.7546771E-02  0.1065540E+00
        -11   -1    0    0    0    0  0.00000000000E+00  0.00000000000E+00  0.18250000000E+03  0.18250000000E+03  0.00000000000E+00 0. -1.
         11   -1    0    0    0    0 -0.00000000000E+00 -0.00000000000E+00 -0.18250000000E+03  0.18250000000E+03  0.00000000000E+00 0.  1.
        -11    1    1    2    0    0  0.27495314730E+01  0.78754683768E+00  0.43439208438E+02  0.43533262950E+02  0.00000000000E+00 0. -1.
         11    1    1    2    0    0  0.13161698742E+01  0.12031430476E+02 -0.17838059671E+03  0.17879072936E+03  0.00000000000E+00 0.  1.
        -15    1    1    2    0    0 -0.82535992778E+01  0.15451284670E+01  0.12339543303E+03  0.12369357277E+03  0.17770000000E+01 0. -1.
         15    1    1    2    0    0  0.41878979306E+01 -0.14364105780E+02  0.11545955250E+02  0.18982434922E+02  0.17770000000E+01 0.  1.
</event>
<event>
 6    1  0.1045352E-002  0.1823654E+03  0.7546771E-02  0.1068562E+00
        -11   -1    0    0    0    0  0.00000000000E+00  0.00000000000E+00  0.18250000000E+03  0.18250000000E+03  0.00000000000E+00 0. -1.
         11   -1    0    0    0    0 -0.00000000000E+00 -0.00000000000E+00 -0.18250000000E+03  0.18250000000E+03  0.00000000000E+00 0. -1.
        -11    1    1    2    0    0  0.95546292350E+00  0.35494926071E+01  0.18117623618E+03  0.18121352147E+03  0.00000000000E+00 0. -1.
         11    1    1    2    0    0 -0.48971135497E+00 -0.15883001168E+00 -0.27205712866E+01  0.27688539704E+01  0.00000000000E+00 0. -1.
        -15    1    1    2    0    0  0.19805643100E+01  0.24513826641E+01 -0.17114453844E+03  0.17118277565E+03  0.17770000000E+01 0. -1.
         15    1    1    2    0    0 -0.24463158786E+01 -0.58420452595E+01 -0.73111264526E+01  0.98348489159E+01  0.17770000000E+01 0.  1.
</event>
<event>
 6    1  0.1045352E-002  0.2011641E+03  0.7546771E-02  0.1054498E+00
        -11   -1    0    0    0    0  0.00000000000E+00  0.00000000000E+00  0.18250000000E+03  0.18250000000E+03  0.00000000000E+00 0. -1.
         11   -1    0    0    0    0 -0.00000000000E+00 -0.00000000000E+00 -0.18250000000E+03  0.18250000000E+03  0.00000000000E+00 0. -1.
        -11    1    1    2    0    0 -0.15868496620E+02 -0.11630082934E+01  0.13488275658E+03  0.13581796566E+03  0.00000000000E+00 0. -1.
         11    1    1    2    0    0 -0.40511829109E+01 -0.13262058862E+01 -0.16378044558E+03  0.16383590955E+03  0.00000000000E+00 0. -1.
        -15    1    1    2    0    0 -0.32093621155E+01 -0.59139808146E+01 -0.14127621168E+02  0.15748732747E+02  0.17770000000E+01 0.  1.
         15    1    1    2    0    0  0.23129041646E+02  0.84031949943E+01  0.43025310166E+02  0.49597392043E+02  0.17770000000E+01 0. -1.
</event>
<event>
 6    1  0.1045352E-002  0.1834324E+03  0.7546771E-02  0.1067715E+00
        -11   -1    0    0    0    0  0.00000000000E+00  0.00000000000E+00  0.18250000000E+03  0.18250000000E+03  0.00000000000E+00 0.  1.
         11   -1    0    0    0    0 -0.00000000000E+00 -0.00000000000E+00 -0.18250000000E+03  0.18250000000E+03  0.00000000000E+00 0.  1.
        -11    1    1    2    0    0  0.67470320834E+01 -0.85341802467E+00  0.18144017699E+03  0.18156758684E+03  0.00000000000E+00 0.  1.
         11    1    1    2    0    0  0.12673049366E+01  0.22493381442E+01 -0.12197225197E+03  0.12199957310E+03  0.00000000000E+00 0.  1.
        -15    1    1    2    0    0  0.31161836992E+01  0.54390900649E-01 -0.87431118949E+01  0.94505710846E+01  0.17770000000E+01 0. -1.
         15    1    1    2    0    0 -0.11130520719E+02 -0.14503110202E+01 -0.50724813120E+02  0.51982268983E+02  0.17770000000E+01 0.  1.
</event>
<event>
 6    1  0.1045352E-002  0.1835024E+03  0.7546771E-02  0.1067660E+00
        -11   -1    0    0    0    0  0.00000000000E+00  0.00000000000E+00  0.18250000000E+03  0.18250000000E+03  0.00000000000E+00 0. -1.
         11   -1    0    0    0    0 -0.00000000000E+00 -0.00000000000E+00 -0.18250000000E+03  0.18250000000E+03  0.00000000000E+00 0.  1.
        -11    1    1    2    0    0 -0.22157876477E+01  0.17261829519E+00  0.13197232650E+03  0.13199103937E+03  0.00000000000E+00 0. -1.
         11    1    1    2    0    0  0.30262153482E+01 -0.70707731265E+00 -0.18147100562E+03  0.18149761381E+03  0.00000000000E+00 0.  1.
        -15    1    1    2    0    0  0.26093127438E+01 -0.55848100080E+01  0.15944762676E+02  0.17186966038E+02  0.17770000000E+01 0. -1.
         15    1    1    2    0    0 -0.34197404443E+01  0.61192690254E+01  0.33553916449E+02  0.34324380784E+02  0.17770000000E+01 0.  1.
</event>
<event>
 6    1  0.1045352E-002  0.1838027E+03  0.7546771E-02  0.1067423E+00
        -11   -1    0    0    0    0  0.00000000000E+00  0.00000000000E+00  0.18250000000E+03  0.18250000000E+03  0.00000000000E+00 0. -1.
         11   -1    0    0    0    0 -0.00000000000E+00 -0.00000000000E+00 -0.18250000000E+03  0.18250000000E+03  0.00000000000E+00 0.  1.
        -11    1    1    2    0    0 -0.10331537554E+01 -0.27501223723E+01  0.96525480647E+02  0.96570176524E+02  0.00000000000E+00 0. -1.
         11    1    1    2    0    0 -0.24993257915E+01  0.15803226584E+01 -0.18117315341E+03  0.18119728355E+03  0.00000000000E+00 0.  1.
        -15    1    1    2    0    0  0.61804697552E+01  0.28944093970E+00  0.83474604755E+02  0.83722454279E+02  0.17770000000E+01 0. -1.
         15    1    1    2    0    0 -0.26479902083E+01  0.88035877420E+00  0.11730680060E+01  0.35100856487E+01  0.17770000000E+01 0. -1.
</event>
<event>
 6    1  0.1045352E-002  0.1844374E+03  0.7546771E-02  0.1066923E+00
        -11   -1    0    0    0    0  0.00000000000E+00  0.00000000000E+00  0.18250000000E+03  0.18250000000E+03  0.00000000000E+00 0.  1.
         11   -1    0    0    0    0 -0.00000000000E+00 -0.00000000000E+00 -0.18250000000E+03  0.18250000000E+03  0.00000000000E+00 0. -1.
        -11    1    1    2    0    0  0.16254977721E+01  0.60793786488E+00  0.94309009810E+02  0.94324976347E+02  0.00000000000E+00 0.  1.
         11    1    1    2    0    0  0.70002421040E+01  0.14286244488E+02 -0.17986034198E+03  0.18056257305E+03  0.00000000000E+00 0. -1.
        -15    1    1    2    0    0  0.19913512143E+01 -0.42569316622E+01  0.61440269017E+02  0.61645367488E+02  0.17770000000E+01 0.  1.
         15    1    1    2    0    0 -0.10617091090E+02 -0.10637250691E+02  0.24111063152E+02  0.28467083111E+02  0.17770000000E+01 0. -1.
</event>
<event>
 6    1  0.1045352E-002  0.1825500E+03  0.7546771E-02  0.1068415E+00
        -11   -1    0    0    0    0  0.00000000000E+00  0.00000000000E+00  0.18250000000E+03  0.18250000000E+03  0.00000000000E+00 0. -1.
         11   -1    0    0    0    0 -0.00000000000E+00 -0.00000000000E+00 -0.18250000000E+03  0.18250000000E+03  0.00000000000E+00 0.  1.
        -11    1    1    2    0    0  0.46763657338E+01  0.18258265099E+01  0.18238096252E+03  0.18245004118E+03  0.00000000000E+00 0. -1.
         11    1    1    2    0    0 -0.46302677732E+00  0.72394726988E+00 -0.43183375501E+02  0.43191925322E+02  0.00000000000E+00 0.  1.
        -15    1    1    2    0    0 -0.28267241676E+01 -0.11688536377E+00 -0.76205124738E+02  0.76278324556E+02  0.17770000000E+01 0.  1.
         15    1    1    2    0    0 -0.13866147889E+01 -0.24328884160E+01 -0.62992462280E+02  0.63079708938E+02  0.17770000000E+01 0. -1.
</event>
<event>
 6    1  0.1045352E-002  0.1788467E+03  0.7546771E-02  0.1071401E+00
        -11   -1    0    0    0    0  0.00000000000E+00  0.00000000000E+00  0.18250000000E+03  0.18250000000E+03  0.00000000000E+00 0. -1.
         11   -1    0    0    0    0 -0.00000000000E+00 -0.00000000000E+00 -0.18250000000E+03  0.18250000000E+03  0.00000000000E+00 0. -1.
        -11    1    1    2    0    0  0.15677646350E+01  0.25761268092E+01  0.17855079779E+03  0.17857626300E+03  0.00000000000E+00 0. -1.
         11    1    1    2    0    0 -0.40833476014E+01 -0.21829611770E+01 -0.17906681384E+03  0.17912666709E+03  0.00000000000E+00 0. -1.
        -15    1    1    2    0    0  0.14940215527E+01 -0.36385069382E+00  0.31684746160E+01  0.39448001369E+01  0.17770000000E+01 0. -1.
         15    1    1    2    0    0  0.10215614137E+01 -0.29314938312E-01 -0.26524585749E+01  0.33522697652E+01  0.17770000000E+01 0.  1.
</event>
<event>
 6    1  0.1045352E-002  0.1842214E+03  0.7546771E-02  0.1067093E+00
        -11   -1    0    0    0    0  0.00000000000E+00  0.00000000000E+00  0.18250000000E+03  0.18250000000E+03  0.00000000000E+00 0.  1.
         11   -1    0    0    0    0 -0.00000000000E+00 -0.00000000000E+00 -0.18250000000E+03  0.18250000000E+03  0.00000000000E+00 0.  1.
        -11    1    1    2    0    0  0.55609540558E+01  0.23917899063E+00  0.18069288829E+03  0.18077859745E+03  0.00000000000E+00 0.  1.
         11    1    1    2    0    0  0.11316119653E+01 -0.28286312115E+01 -0.16769933857E+03  0.16772700992E+03  0.00000000000E+00 0.  1.
        -15    1    1    2    0    0 -0.44764146693E+00  0.11790554622E+01 -0.34400788998E+00  0.22060428587E+01  0.17770000000E+01 0.  1.
         15    1    1    2    0    0 -0.62449245542E+01  0.14103967586E+01 -0.12649541828E+02  0.14288349770E+02  0.17770000000E+01 0. -1.
</event>
<event>
 6    1  0.1045352E-002  0.1831784E+03  0.7546771E-02  0.1067916E+00
        -11   -1    0    0    0    0  0.00000000000E+00  0.00000000000E+00  0.18250000000E+03  0.18250000000E+03  0.00000000000E+00 0. -1.
         11   -1    0    0    0    0 -0.00000000000E+00 -0.00000000000E+00 -0.18250000000E+03  0.18250000000E+03  0.00000000000E+00 0.  1.
        -11    1    1    2    0    0  0.15256822526E+01 -0.17486605981E+01  0.12475444171E+03  0.12477602432E+03  0.00000000000E+00 0. -1.
         11    1    1    2    0    0  0.30326413448E+01 -0.20631090627E+01 -0.18178464145E+03  0.18182164118E+03  0.00000000000E+00 0.  1.
        -15    1    1    2    0    0 -0.76847804805E+01  0.40047963586E+01  0.44186846433E+02  0.45063614719E+02  0.17770000000E+01 0. -1.
         15    1    1    2    0    0  0.31264568831E+01 -0.19302669782E+00  0.12843353314E+02  0.13338719777E+02  0.17770000000E+01 0. -1.
</event>
<event>
 6    1  0.1045352E-002  0.1909155E+03  0.7546771E-02  0.1061947E+00
        -11   -1    0    0    0    0  0.00000000000E+00  0.00000000000E+00  0.18250000000E+03  0.18250000000E+03  0.00000000000E+00 0. -1.
         11   -1    0    0    0    0 -0.00000000000E+00 -0.00000000000E+00 -0.18250000000E+03  0.18250000000E+03  0.00000000000E+00 0.  1.
        -11    1    1    2    0    0 -0.12251961846E+01  0.41519250495E+01  0.16414581177E+03  0.16420288398E+03  0.00000000000E+00 0. -1.
         11    1    1    2    0    0  0.35712162466E+01 -0.13981172737E+01 -0.17404225712E+03  0.17408450701E+03  0.00000000000E+00 0.  1.
        -15    1    1    2    0    0 -0.26571525728E+00 -0.47008849581E+01  0.17601911996E+02  0.18307210571E+02  0.17770000000E+01 0.  1.
         15    1    1    2    0    0 -0.20803048047E+01  0.19470771823E+01 -0.77054666467E+01  0.84053984366E+01  0.17770000000E+01 0.  1.
</event>
<event>
 6    1  0.1045352E-002  0.1826455E+03  0.7546771E-02  0.1068339E+00
        -11   -1    0    0    0    0  0.00000000000E+00  0.00000000000E+00  0.18250000000E+03  0.18250000000E+03  0.00000000000E+00 0.  1.
         11   -1    0    0    0    0 -0.00000000000E+00 -0.00000000000E+00 -0.18250000000E+03  0.18250000000E+03  0.00000000000E+00 0. -1.
        -11    1    1    2    0    0 -0.25289812574E+01 -0.31550628829E+00  0.18233666341E+03  0.18235447380E+03  0.00000000000E+00 0.  1.
         11    1    1    2    0    0 -0.21615574767E+01  0.77621327636E+00 -0.24545783819E+02  0.24652998622E+02  0.00000000000E+00 0. -1.
        -15    1    1    2    0    0  0.49306146808E+01  0.13002281087E+01 -0.11669584050E+03  0.11682071081E+03  0.17770000000E+01 0. -1.
         15    1    1    2    0    0 -0.24007594676E+00 -0.17609350968E+01 -0.41095039096E+02  0.41171816770E+02  0.17770000000E+01 0. -1.
</event>
<event>
 6    1  0.1045352E-002  0.1708862E+03  0.7546771E-02  0.1078095E+00
        -11   -1    0    0    0    0  0.00000000000E+00  0.00000000000E+00  0.18250000000E+03  0.18250000000E+03  0.00000000000E+00 0. -1.
         11   -1    0    0    0    0 -0.00000000000E+00 -0.00000000000E+00 -0.18250000000E+03  0.18250000000E+03  0.00000000000E+00 0.  1.
        -11    1    1    2    0    0  0.12806313189E+01  0.21203413669E+01  0.17303991029E+03  0.17305763900E+03  0.00000000000E+00 0. -1.
         11    1    1    2    0    0  0.43508309158E+01  0.48469305543E+01 -0.16873351857E+03  0.16885918025E+03  0.00000000000E+00 0.  1.
        -15    1    1    2    0    0 -0.29120599371E+01 -0.91335988553E+00  0.81362994673E+01  0.88696909404E+01  0.17770000000E+01 0.  1.
         15    1    1    2    0    0 -0.27194022976E+01 -0.60539120357E+01 -0.12442691183E+02  0.14213489813E+02  0.17770000000E+01 0.  1.
</event>
<event>
 6    1  0.1045352E-002  0.1841295E+03  0.7546771E-02  0.1067165E+00
        -11   -1    0    0    0    0  0.00000000000E+00  0.00000000000E+00  0.18250000000E+03  0.18250000000E+03  0.00000000000E+00 0. -1.
         11   -1    0    0    0    0 -0.00000000000E+00 -0.00000000000E+00 -0.18250000000E+03  0.18250000000E+03  0.00000000000E+00 0.  1.
        -11    1    1    2    0    0  0.50819053546E+01 -0.12598568132E+01  0.14936711476E+03  0.14945885043E+03  0.00000000000E+00 0. -1.
         11    1    1    2    0    0  0.26676464503E+01 -0.81966842546E+00 -0.18084892212E+03  0.18087045316E+03  0.00000000000E+00 0.  1.
        -15    1    1    2    0    0 -0.83156556449E+01  0.33915348489E+01  0.31021889220E+02  0.32344520049E+02  0.17770000000E+01 0.  1.
         15    1    1    2    0    0  0.56610383994E+00 -0.13120096102E+01  0.45991813609E+00  0.23261763619E+01  0.17770000000E+01 0.  1.
</event>
<event>
 6    1  0.1045352E-002  0.1740024E+03  0.7546771E-02  0.1075428E+00
        -11   -1    0    0    0    0  0.00000000000E+00  0.00000000000E+00  0.18250000000E+03  0.18250000000E+03  0.00000000000E+00 0. -1.
         11   -1    0    0    0    0 -0.00000000000E+00 -0.00000000000E+00 -0.18250000000E+03  0.18250000000E+03  0.00000000000E+00 0. -1.
        -11    1    1    2    0    0 -0.58788490690E+01 -0.51816318834E+01  0.17450724426E+03  0.17468310872E+03  0.00000000000E+00 0. -1.
         11    1    1    2    0    0  0.25990118169E+01 -0.24834282689E+01 -0.17338599239E+03  0.17342325287E+03  0.00000000000E+00 0. -1.
        -15    1    1    2    0    0  0.54807003069E+01  0.72764091142E+01  0.47047333411E+01  0.10405597064E+02  0.17770000000E+01 0.  1.
         15    1    1    2    0    0 -0.22008630548E+01  0.38865103807E+00 -0.58259852080E+01  0.64880413423E+01  0.17770000000E+01 0. -1.
</event>
<event>
 6    1  0.1045352E-002  0.1828105E+03  0.7546771E-02  0.1068208E+00
        -11   -1    0    0    0    0  0.00000000000E+00  0.00000000000E+00  0.18250000000E+03  0.18250000000E+03  0.00000000000E+00 0.  1.
         11   -1    0    0    0    0 -0.00000000000E+00 -0.00000000000E+00 -0.18250000000E+03  0.18250000000E+03  0.00000000000E+00 0. -1.
        -11    1    1    2    0    0  0.48471156977E+01  0.26391470939E+00  0.18212480234E+03  0.18218948325E+03  0.00000000000E+00 0.  1.
         11    1    1    2    0    0 -0.99541132115E+00 -0.78297730537E+00 -0.77460692381E+02  0.77471044664E+02  0.00000000000E+00 0. -1.
        -15    1    1    2    0    0  0.33094133837E+01 -0.89723554138E+00 -0.22161770516E+02  0.22495756266E+02  0.17770000000E+01 0. -1.
         15    1    1    2    0    0 -0.71611177602E+01  0.14162981373E+01 -0.82502339441E+02  0.82843715816E+02  0.17770000000E+01 0. -1.
</event>
<event>
 6    1  0.1045352E-002  0.1915513E+03  0.7546771E-02  0.1061470E+00
        -11   -1    0    0    0    0  0.00000000000E+00  0.00000000000E+00  0.18250000000E+03  0.18250000000E+03  0.00000000000E+00 0. -1.
         11   -1    0    0    0    0 -0.00000000000E+00 -0.00000000000E+00 -0.18250000000E+03  0.18250000000E+03  0.00000000000E+00 0. -1.
        -11    1    1    2    0    0 -0.12428115398E+02 -0.22455940427E+00  0.13276843310E+03  0.13334903564E+03  0.00000000000E+00 0. -1.
         11    1    1    2    0    0  0.66968072130E+01  0.12728004476E+02 -0.17285137090E+03  0.17344868332E+03  0.00000000000E+00 0. -1.
        -15    1    1    2    0    0 -0.44274740440E+01 -0.25493469038E+01 -0.70797463135E+01  0.89096707520E+01  0.17770000000E+01 0.  1.
         15    1    1    2    0    0  0.10158782229E+02 -0.99540981678E+01  0.47162684117E+02  0.49292610286E+02  0.17770000000E+01 0. -1.
</event>
<event>
 6    1  0.1045352E-002  0.1845043E+03  0.7546771E-02  0.1066870E+00
        -11   -1    0    0    0    0  0.00000000000E+00  0.00000000000E+00  0.18250000000E+03  0.18250000000E+03  0.00000000000E+00 0. -1.
         11   -1    0    0    0    0 -0.00000000000E+00 -0.00000000000E+00 -0.18250000000E+03  0.18250000000E+03  0.00000000000E+00 0.  1.
        -11    1    1    2    0    0 -0.54747006897E+01 -0.27173597975E+01  0.18039216567E+03  0.18049567814E+03  0.00000000000E+00 0. -1.
         11    1    1    2    0    0  0.42933058980E+01 -0.23929967915E+01 -0.17043526501E+03  0.17050612443E+03  0.00000000000E+00 0.  1.
        -15    1    1    2    0    0 -0.17758743384E+00  0.70070152260E+00  0.86179681938E+00  0.21030793324E+01  0.17770000000E+01 0. -1.
         15    1    1    2    0    0  0.13589822255E+01  0.44096550663E+01 -0.10818697475E+02  0.11895118098E+02  0.17770000000E+01 0.  1.
</event>
<event>
 6    1  0.1045352E-002  0.1827056E+03  0.7546771E-02  0.1068291E+00
        -11   -1    0    0    0    0  0.00000000000E+00  0.00000000000E+00  0.18250000000E+03  0.18250000000E+03  0.00000000000E+00 0.  1.
         11   -1    0    0    0    0 -0.00000000000E+00 -0.00000000000E+00 -0.18250000000E+03  0.18250000000E+03  0.00000000000E+00 0.  1.
        -11    1    1    2    0    0  0.11349525837E+01 -0.30731001475E+00  0.38571585141E+02  0.38589502939E+02  0.00000000000E+00 0.  1.
         11    1    1    2    0    0  0.19386449681E+01 -0.31184333028E+01 -0.18225742473E+03  0.18229440978E+03  0.00000000000E+00 0.  1.
        -15    1    1    2    0    0 -0.23682584985E+01  0.64824406568E+01  0.75700581810E+02  0.76035297728E+02  0.17770000000E+01 0.  1.
         15    1    1    2    0    0 -0.70533905324E+00 -0.30566973392E+01  0.67985257775E+02  0.68080789549E+02  0.17770000000E+01 0. -1.
</event>
<event>
 6    1  0.1045352E-002  0.1833902E+03  0.7546771E-02  0.1067748E+00
        -11   -1    0    0    0    0  0.00000000000E+00  0.00000000000E+00  0.18250000000E+03  0.18250000000E+03  0.00000000000E+00 0. -1.
         11   -1    0    0    0    0 -0.00000000000E+00 -0.00000000000E+00 -0.18250000000E+03  0.18250000000E+03  0.00000000000E+00 0. -1.
        -11    1    1    2    0    0  0.73921143697E+00 -0.15211559795E+00  0.14006369549E+02  0.14026687444E+02  0.00000000000E+00 0. -1.
         11    1    1    2    0    0  0.25508587836E+02  0.33537371137E+01 -0.17977810674E+03  0.18160975543E+03  0.00000000000E+00 0. -1.
        -15    1    1    2    0    0  0.37933801931E+01 -0.11630386299E+01  0.15708427611E+02  0.16298920797E+02  0.17770000000E+01 0.  1.
         15    1    1    2    0    0 -0.30041179466E+02 -0.20385828858E+01  0.15006330958E+03  0.15306463633E+03  0.17770000000E+01 0. -1.
</event>
<event>
 6    1  0.1045352E-002  0.1876470E+03  0.7546771E-02  0.1064430E+00
        -11   -1    0    0    0    0  0.00000000000E+00  0.00000000000E+00  0.18250000000E+03  0.18250000000E+03  0.00000000000E+00 0. -1.
         11   -1    0    0    0    0 -0.00000000000E+00 -0.00000000000E+00 -0.18250000000E+03  0.18250000000E+03  0.00000000000E+00 0.  1.
        -11    1    1    2    0    0 -0.74561479115E+01 -0.14445297832E+02  0.17660641751E+03  0.17735300245E+03  0.00000000000E+00 0. -1.
         11    1    1    2    0    0  0.48436633901E+01  0.21582966735E+02 -0.13946116185E+03  0.14120446591E+03  0.00000000000E+00 0.  1.
        -15    1    1    2    0    0 -0.97686051024E+01 -0.10926839938E+02 -0.18401540586E+02  0.23592284790E+02  0.17770000000E+01 0. -1.
         15    1    1    2    0    0  0.12381089624E+02  0.37891710346E+01 -0.18743715072E+02  0.22850246850E+02  0.17770000000E+01 0.  1.
</event>
<event>
 6    1  0.1045352E-002  0.1956389E+03  0.7546771E-02  0.1058452E+00
        -11   -1    0    0    0    0  0.00000000000E+00  0.00000000000E+00  0.18250000000E+03  0.18250000000E+03  0.00000000000E+00 0. -1.
         11   -1    0    0    0    0 -0.00000000000E+00 -0.00000000000E+00 -0.18250000000E+03  0.18250000000E+03  0.00000000000E+00 0. -1.
        -11    1    1    2    0    0 -0.90866724478E+01  0.28945901653E+01  0.14447918524E+03  0.14479358147E+03  0.00000000000E+00 0. -1.
         11    1    1    2    0    0 -0.37101185865E+01 -0.38411679619E+00 -0.16932004982E+03  0.16936112836E+03  0.00000000000E+00 0. -1.
        -15    1    1    2    0    0  0.14860140201E+02 -0.43644910343E+00  0.36097658589E+02  0.39079571891E+02  0.17770000000E+01 0. -1.
         15    1    1    2    0    0 -0.20633491666E+01 -0.20740242657E+01 -0.11256794003E+02  0.11765718281E+02  0.17770000000E+01 0.  1.
</event>
<event>
 6    1  0.1045352E-002  0.1838343E+03  0.7546771E-02  0.1067398E+00
        -11   -1    0    0    0    0  0.00000000000E+00  0.00000000000E+00  0.18250000000E+03  0.18250000000E+03  0.00000000000E+00 0. -1.
         11   -1    0    0    0    0 -0.00000000000E+00 -0.00000000000E+00 -0.18250000000E+03  0.18250000000E+03  0.00000000000E+00 0.  1.
        -11    1    1    2    0    0 -0.29810990904E+01 -0.55982031138E+00  0.18114028497E+03  0.18116567884E+03  0.00000000000E+00 0. -1.
         11    1    1    2    0    0  0.22275236283E+01 -0.11211873721E+01 -0.16964500313E+03  0.16966333136E+03  0.00000000000E+00 0.  1.
        -15    1    1    2    0    0  0.17239772026E+01 -0.22931552231E+01 -0.73245064974E+01  0.80645385921E+01  0.17770000000E+01 0. -1.
         15    1    1    2    0    0 -0.97040174048E+00  0.39741629067E+01 -0.41707753441E+01  0.61064512048E+01  0.17770000000E+01 0.  1.
</event>
<event>
 6    1  0.1045352E-002  0.1846315E+03  0.7546771E-02  0.1066771E+00
        -11   -1    0    0    0    0  0.00000000000E+00  0.00000000000E+00  0.18250000000E+03  0.18250000000E+03  0.00000000000E+00 0.  1.
         11   -1    0    0    0    0 -0.00000000000E+00 -0.00000000000E+00 -0.18250000000E+03  0.18250000000E+03  0.00000000000E+00 0.  1.
        -11    1    1    2    0    0 -0.35834945087E+01 -0.78878750501E+00  0.18033120608E+03  0.18036853247E+03  0.00000000000E+00 0.  1.
         11    1    1    2    0    0 -0.26740581348E+01  0.12915659959E+00 -0.13472635044E+03  0.13475294717E+03  0.00000000000E+00 0.  1.
        -15    1    1    2    0    0  0.15234736958E+01  0.81809923769E+00  0.12323530981E+01  0.27688773217E+01  0.17770000000E+01 0. -1.
         15    1    1    2    0    0  0.47340789477E+01 -0.15846833226E+00 -0.46837208738E+02  0.47109643037E+02  0.17770000000E+01 0.  1.
</event>
<event>
 6    1  0.1045352E-002  0.1846765E+03  0.7546771E-02  0.1066735E+00
        -11   -1    0    0    0    0  0.00000000000E+00  0.00000000000E+00  0.18250000000E+03  0.18250000000E+03  0.00000000000E+00 0.  1.
         11   -1    0    0    0    0 -0.00000000000E+00 -0.00000000000E+00 -0.18250000000E+03  0.18250000000E+03  0.00000000000E+00 0. -1.
        -11    1    1    2    0    0 -0.37586257943E+01 -0.32137590421E+00  0.16750127006E+03  0.16754374361E+03  0.00000000000E+00 0.  1.
         11    1    1    2    0    0  0.30444482465E+01  0.39465797865E+01 -0.18025462317E+03  0.18032352406E+03  0.00000000000E+00 0. -1.
        -15    1    1    2    0    0 -0.17775900576E+01 -0.42476024878E+01  0.10846883230E+01  0.50533386058E+01  0.17770000000E+01 0. -1.
         15    1    1    2    0    0  0.24917676054E+01  0.62239860550E+00  0.11668664781E+02  0.12079393718E+02  0.17770000000E+01 0.  1.
</event>
<event>
 6    1  0.1045352E-002  0.1837658E+03  0.7546771E-02  0.1067452E+00
        -11   -1    0    0    0    0  0.00000000000E+00  0.00000000000E+00  0.18250000000E+03  0.18250000000E+03  0.00000000000E+00 0.  1.
         11   -1    0    0    0    0 -0.00000000000E+00 -0.00000000000E+00 -0.18250000000E+03  0.18250000000E+03  0.00000000000E+00 0.  1.
        -11    1    1    2    0    0  0.49301741453E+00 -0.58905307061E+00  0.32668514740E+02  0.32677544354E+02  0.00000000000E+00 0.  1.
         11    1    1    2    0    0 -0.43308671798E+00  0.94434167573E+01 -0.18098752683E+03  0.18123424221E+03  0.00000000000E+00 0.  1.
        -15    1    1    2    0    0  0.67714811442E+01  0.78743936766E+01  0.48506533333E+02  0.49637692711E+02  0.17770000000E+01 0. -1.
         15    1    1    2    0    0 -0.68314118408E+01 -0.16728757363E+02  0.99812478753E+02  0.10145052072E+03  0.17770000000E+01 0.  1.
</event>
<event>
 6    1  0.1045352E-002  0.1851663E+03  0.7546771E-02  0.1066352E+00
        -11   -1    0    0    0    0  0.00000000000E+00  0.00000000000E+00  0.18250000000E+03  0.18250000000E+03  0.00000000000E+00 0.  1.
         11   -1    0    0    0    0 -0.00000000000E+00 -0.00000000000E+00 -0.18250000000E+03  0.18250000000E+03  0.00000000000E+00 0.  1.
        -11    1    1    2    0    0  0.11736869363E+01 -0.45095514466E+01  0.17977332049E+03  0.17983370194E+03  0.00000000000E+00 0.  1.
         11    1    1    2    0    0 -0.66748730786E+01 -0.12019805747E+01 -0.16491259256E+03  0.16505199748E+03  0.00000000000E+00 0.  1.
        -15    1    1    2    0    0  0.47714772401E+01  0.44906259406E+01 -0.16135451317E+02  0.17505520118E+02  0.17770000000E+01 0.  1.
         15    1    1    2    0    0  0.72970890225E+00  0.12209060808E+01  0.12747233895E+01  0.26087804545E+01  0.17770000000E+01 0. -1.
</event>
<event>
 6    1  0.1045352E-002  0.1849428E+03  0.7546771E-02  0.1066527E+00
        -11   -1    0    0    0    0  0.00000000000E+00  0.00000000000E+00  0.18250000000E+03  0.18250000000E+03  0.00000000000E+00 0.  1.
         11   -1    0    0    0    0 -0.00000000000E+00 -0.00000000000E+00 -0.18250000000E+03  0.18250000000E+03  0.00000000000E+00 0.  1.
        -11    1    1    2    0    0 -0.44869181729E+01  0.28663477696E+01  0.16105161715E+03  0.16113960336E+03  0.00000000000E+00 0.  1.
         11    1    1    2    0    0  0.41004148874E+01  0.55889425445E+01 -0.17992373020E+03  0.18005720860E+03  0.00000000000E+00 0.  1.
        -15    1    1    2    0    0 -0.17780939703E+01 -0.41563464481E+00  0.13495817926E+02  0.13734234628E+02  0.17770000000E+01 0.  1.
         15    1    1    2    0    0  0.21645972557E+01 -0.80396556692E+01  0.53762951214E+01  0.10068953411E+02  0.17770000000E+01 0. -1.
</event>
<event>
 6    1  0.1045352E-002  0.1832019E+03  0.7546771E-02  0.1067897E+00
        -11   -1    0    0    0    0  0.00000000000E+00  0.00000000000E+00  0.18250000000E+03  0.18250000000E+03  0.00000000000E+00 0. -1.
         11   -1    0    0    0    0 -0.00000000000E+00 -0.00000000000E+00 -0.18250000000E+03  0.18250000000E+03  0.00000000000E+00 0. -1.
        -11    1    1    2    0    0  0.10003532596E+01  0.47007318000E+01  0.18173459142E+03  0.18179812789E+03  0.00000000000E+00 0. -1.
         11    1    1    2    0    0  0.41811990281E+01 -0.13864269060E+01 -0.15273817352E+03  0.15280168277E+03  0.00000000000E+00 0. -1.
        -15    1    1    2    0    0 -0.25611663984E+01  0.66961570799E+00 -0.18041102449E+02  0.18320673161E+02  0.17770000000E+01 0.  1.
         15    1    1    2    0    0 -0.26203858892E+01 -0.39839206020E+01 -0.10955315449E+02  0.12079516181E+02  0.17770000000E+01 0. -1.
</event>
<event>
 6    1  0.1045352E-002  0.1831207E+03  0.7546771E-02  0.1067962E+00
        -11   -1    0    0    0    0  0.00000000000E+00  0.00000000000E+00  0.18250000000E+03  0.18250000000E+03  0.00000000000E+00 0.  1.
         11   -1    0    0    0    0 -0.00000000000E+00 -0.00000000000E+00 -0.18250000000E+03  0.18250000000E+03  0.00000000000E+00 0.  1.
        -11    1    1    2    0    0 -0.24009537737E+01  0.22984265753E+01  0.12819797738E+03  0.12824105719E+03  0.00000000000E+00 0.  1.
         11    1    1    2    0    0  0.50210833151E+01  0.38833689696E+01 -0.18176848879E+03  0.18187928785E+03  0.00000000000E+00 0.  1.
        -15    1    1    2    0    0 -0.79979188667E+00 -0.24278339133E+01  0.45625652354E+02  0.45731738719E+02  0.17770000000E+01 0.  1.
         15    1    1    2    0    0 -0.18203376548E+01 -0.37539616316E+01  0.79448590539E+01  0.91479162379E+01  0.17770000000E+01 0. -1.
</event>
<event>
 6    1  0.1045352E-002  0.1847733E+03  0.7546771E-02  0.1066660E+00
        -11   -1    0    0    0    0  0.00000000000E+00  0.00000000000E+00  0.18250000000E+03  0.18250000000E+03  0.00000000000E+00 0.  1.
         11   -1    0    0    0    0 -0.00000000000E+00 -0.00000000000E+00 -0.18250000000E+03  0.18250000000E+03  0.00000000000E+00 0.  1.
        -11    1    1    2    0    0 -0.51137395590E+01  0.29429281410E+01  0.18013011235E+03  0.18022671426E+03  0.00000000000E+00 0.  1.
         11    1    1    2    0    0 -0.39650636204E+01  0.16294338294E+01 -0.13726030984E+03  0.13732723488E+03  0.00000000000E+00 0.  1.
        -15    1    1    2    0    0  0.78674422223E+01  0.56406991740E+00 -0.40658395423E+02  0.41454525318E+02  0.17770000000E+01 0. -1.
         15    1    1    2    0    0  0.12113609571E+01 -0.51364318877E+01 -0.22114070902E+01  0.59915255340E+01  0.17770000000E+01 0.  1.
</event>
<event>
 6    1  0.1045352E-002  0.1740985E+03  0.7546771E-02  0.1075346E+00
        -11   -1    0    0    0    0  0.00000000000E+00  0.00000000000E+00  0.18250000000E+03  0.18250000000E+03  0.00000000000E+00 0. -1.
         11   -1    0    0    0    0 -0.00000000000E+00 -0.00000000000E+00 -0.18250000000E+03  0.18250000000E+03  0.00000000000E+00 0. -1.
        -11    1    1    2    0    0  0.15791817589E+01  0.30037699374E+01  0.17284980099E+03  0.17288311124E+03  0.00000000000E+00 0. -1.
         11    1    1    2    0    0  0.49210810760E+01 -0.21657544952E+01 -0.17530177187E+03  0.17538420326E+03  0.00000000000E+00 0. -1.
        -15    1    1    2    0    0  0.48997708490E+00  0.27446224136E+01 -0.48447595661E+01  0.58653605166E+01  0.17770000000E+01 0.  1.
         15    1    1    2    0    0 -0.69902399198E+01 -0.35826378558E+01  0.72967304440E+01  0.10867324984E+02  0.17770000000E+01 0. -1.
</event>
<event>
 6    1  0.1045352E-002  0.1834818E+03  0.7546771E-02  0.1067676E+00
        -11   -1    0    0    0    0  0.00000000000E+00  0.00000000000E+00  0.18250000000E+03  0.18250000000E+03  0.00000000000E+00 0. -1.
         11   -1    0    0    0    0 -0.00000000000E+00 -0.00000000000E+00 -0.18250000000E+03  0.18250000000E+03  0.00000000000E+00 0. -1.
        -11    1    1    2    0    0 -0.14506470742E+01 -0.28761403414E+01  0.18148960269E+03  0.18151818764E+03  0.00000000000E+00 0. -1.
         11    1    1    2    0    0  0.41018791700E+01  0.35716885027E+01 -0.12223865967E+03  0.12235960236E+03  0.00000000000E+00 0. -1.
        -15    1    1    2    0    0 -0.24326665765E+01  0.63516202674E+01 -0.19900682267E+02  0.21105824561E+02  0.17770000000E+01 0.  1.
         15    1    1    2    0    0 -0.21856551937E+00 -0.70471684286E+01 -0.39350260748E+02  0.40016385440E+02  0.17770000000E+01 0. -1.
</event>
<event>
 6    1  0.1045352E-002  0.1884502E+03  0.7546771E-02  0.1063815E+00
        -11   -1    0    0    0    0  0.00000000000E+00  0.00000000000E+00  0.18250000000E+03  0.18250000000E+03  0.00000000000E+00 0. -1.
         11   -1    0    0    0    0 -0.00000000000E+00 -0.00000000000E+00 -0.18250000000E+03  0.18250000000E+03  0.00000000000E+00 0. -1.
        -11    1    1    2    0    0 -0.12978513074E+02 -0.76214922166E+01  0.17590712377E+03  0.17654983755E+03  0.00000000000E+00 0. -1.
         11    1    1    2    0    0  0.18143238296E+01 -0.20901473742E+01 -0.16130952065E+03  0.16133326358E+03  0.00000000000E+00 0. -1.
        -15    1    1    2    0    0 -0.17202505148E+01  0.20463518123E+01 -0.11188177931E+02  0.11639582123E+02  0.17770000000E+01 0. -1.
         15    1    1    2    0    0  0.12884439759E+02  0.76652877785E+01 -0.34094251909E+01  0.15477316749E+02  0.17770000000E+01 0. -1.
</event>
<event>
 6    1  0.1045352E-002  0.1842392E+03  0.7546771E-02  0.1067079E+00
        -11   -1    0    0    0    0  0.00000000000E+00  0.00000000000E+00  0.18250000000E+03  0.18250000000E+03  0.00000000000E+00 0.  1.
         11   -1    0    0    0    0 -0.00000000000E+00 -0.00000000000E+00 -0.18250000000E+03  0.18250000000E+03  0.00000000000E+00 0.  1.
        -11    1    1    2    0    0  0.23369569184E+00 -0.23172721356E+01  0.16214335795E+03  0.16216008415E+03  0.00000000000E+00 0.  1.
         11    1    1    2    0    0 -0.27157458989E+01  0.22413200501E+01 -0.18072647079E+03  0.18076077018E+03  0.00000000000E+00 0.  1.
        -15    1    1    2    0    0  0.12973985485E+00  0.18374840016E+01 -0.56867040833E+00  0.26218876634E+01  0.17770000000E+01 0. -1.
         15    1    1    2    0    0  0.23523103522E+01 -0.17615319162E+01  0.19151783248E+02  0.19457258010E+02  0.17770000000E+01 0.  1.
</event>
<event>
 6    1  0.1045352E-002  0.1842487E+03  0.7546771E-02  0.1067071E+00
        -11   -1    0    0    0    0  0.00000000000E+00  0.00000000000E+00  0.18250000000E+03  0.18250000000E+03  0.00000000000E+00 0. -1.
         11   -1    0    0    0    0 -0.00000000000E+00 -0.00000000000E+00 -0.18250000000E+03  0.18250000000E+03  0.00000000000E+00 0. -1.
        -11    1    1    2    0    0 -0.18611428233E+01 -0.13957483085E+01  0.10972566136E+03  0.10975031994E+03  0.00000000000E+00 0. -1.
         11    1    1    2    0    0 -0.48726955185E+01  0.53625947196E+00 -0.18068476916E+03  0.18075125599E+03  0.00000000000E+00 0. -1.
        -15    1    1    2    0    0  0.10235469631E+02  0.42096548742E+01  0.67160985892E+02  0.68089953647E+02  0.17770000000E+01 0.  1.
         15    1    1    2    0    0 -0.35016312897E+01 -0.33501660377E+01  0.37981219077E+01  0.64084704255E+01  0.17770000000E+01 0. -1.
</event>
<event>
 6    1  0.1045352E-002  0.1901203E+03  0.7546771E-02  0.1062546E+00
        -11   -1    0    0    0    0  0.00000000000E+00  0.00000000000E+00  0.18250000000E+03  0.18250000000E+03  0.00000000000E+00 0. -1.
         11   -1    0    0    0    0 -0.00000000000E+00 -0.00000000000E+00 -0.18250000000E+03  0.18250000000E+03  0.00000000000E+00 0. -1.
        -11    1    1    2    0    0  0.22487230379E+00  0.64088648628E+01  0.17476208721E+03  0.17487970506E+03  0.00000000000E+00 0. -1.
         11    1    1    2    0    0 -0.54421629527E+01 -0.22899898405E+01 -0.16268044465E+03  0.16278755561E+03  0.00000000000E+00 0. -1.
        -15    1    1    2    0    0  0.12698454001E+01  0.85058472904E+00  0.68747620103E+01  0.72633383110E+01  0.17770000000E+01 0. -1.
         15    1    1    2    0    0  0.39474452488E+01 -0.49694597513E+01 -0.18956404565E+02  0.20069401019E+02  0.17770000000E+01 0.  1.
</event>
<event>
 6    1  0.1045352E-002  0.1848326E+03  0.7546771E-02  0.1066613E+00
        -11   -1    0    0    0    0  0.00000000000E+00  0.00000000000E+00  0.18250000000E+03  0.18250000000E+03  0.00000000000E+00 0.  1.
         11   -1    0    0    0    0 -0.00000000000E+00 -0.00000000000E+00 -0.18250000000E+03  0.18250000000E+03  0.00000000000E+00 0.  1.
        -11    1    1    2    0    0 -0.27451517589E+01 -0.43972033978E+00  0.14319195615E+03  0.14321894259E+03  0.00000000000E+00 0.  1.
         11    1    1    2    0    0  0.43755409356E+00 -0.26413920644E+01 -0.18014747948E+03  0.18016737432E+03  0.00000000000E+00 0.  1.
        -15    1    1    2    0    0 -0.18520394880E+01  0.19301867311E+01 -0.10067533770E+01  0.33655538094E+01  0.17770000000E+01 0.  1.
         15    1    1    2    0    0  0.41596371533E+01  0.11509256731E+01  0.37962276711E+02  0.38248129278E+02  0.17770000000E+01 0. -1.
</event>
<event>
 6    1  0.1045352E-002  0.1827814E+03  0.7546771E-02  0.1068231E+00
        -11   -1    0    0    0    0  0.00000000000E+00  0.00000000000E+00  0.18250000000E+03  0.18250000000E+03  0.00000000000E+00 0.  1.
         11   -1    0    0    0    0 -0.00000000000E+00 -0.00000000000E+00 -0.18250000000E+03  0.18250000000E+03  0.00000000000E+00 0.  1.
        -11    1    1    2    0    0 -0.65400159368E+00 -0.30065745124E+01  0.18219262098E+03  0.18221860044E+03  0.00000000000E+00 0.  1.
         11    1    1    2    0    0  0.25255320103E-01  0.47153899618E+01 -0.10394196315E+03  0.10404886950E+03  0.00000000000E+00 0.  1.
        -15    1    1    2    0    0 -0.15315864053E+01  0.25234135131E+01 -0.39756829288E+02  0.39905846398E+02  0.17770000000E+01 0. -1.
         15    1    1    2    0    0  0.21603326789E+01 -0.42322289625E+01 -0.38493828537E+02  0.38826683656E+02  0.17770000000E+01 0. -1.
</event>
<event>
 6    1  0.1045352E-002  0.1826765E+03  0.7546771E-02  0.1068314E+00
        -11   -1    0    0    0    0  0.00000000000E+00  0.00000000000E+00  0.18250000000E+03  0.18250000000E+03  0.00000000000E+00 0.  1.
         11   -1    0    0    0    0 -0.00000000000E+00 -0.00000000000E+00 -0.18250000000E+03  0.18250000000E+03  0.00000000000E+00 0.  1.
        -11    1    1    2    0    0  0.39997272613E+01  0.39581039743E+00  0.18227920228E+03  0.18232350937E+03  0.00000000000E+00 0.  1.
         11    1    1    2    0    0  0.14402842666E+01 -0.12915208294E+01 -0.58238987509E+02  0.58271108715E+02  0.00000000000E+00 0.  1.
        -15    1    1    2    0    0  0.10915768037E+01  0.17060568654E+01 -0.32263786116E+02  0.32376099109E+02  0.17770000000E+01 0.  1.
         15    1    1    2    0    0 -0.65315883317E+01 -0.81034643342E+00 -0.91776428659E+02  0.92029282806E+02  0.17770000000E+01 0. -1.
</event>
<event>
 6    1  0.1045352E-002  0.1837396E+03  0.7546771E-02  0.1067472E+00
        -11   -1    0    0    0    0  0.00000000000E+00  0.00000000000E+00  0.18250000000E+03  0.18250000000E+03  0.00000000000E+00 0.  1.
         11   -1    0    0    0    0 -0.00000000000E+00 -0.00000000000E+00 -0.18250000000E+03  0.18250000000E+03  0.00000000000E+00 0. -1.
        -11    1    1    2    0    0  0.35221523206E+01 -0.19700225293E+01  0.16452959766E+03  0.16457908450E+03  0.00000000000E+00 0.  1.
         11    1    1    2    0    0 -0.16715928888E+01 -0.20129259984E+01 -0.18124152087E+03  0.18126040655E+03  0.00000000000E+00 0. -1.
        -15    1    1    2    0    0 -0.22420082259E+01  0.12293160289E+00  0.13550230625E+02  0.13849483458E+02  0.17770000000E+01 0.  1.
         15    1    1    2    0    0  0.39144879412E+00  0.38600169248E+01  0.31616925843E+01  0.53110254957E+01  0.17770000000E+01 0.  1.
</event>
<event>
 6    1  0.1045352E-002  0.1844658E+03  0.7546771E-02  0.1066901E+00
        -11   -1    0    0    0    0  0.00000000000E+00  0.00000000000E+00  0.18250000000E+03  0.18250000000E+03  0.00000000000E+00 0. -1.
         11   -1    0    0    0    0 -0.00000000000E+00 -0.00000000000E+00 -0.18250000000E+03  0.18250000000E+03  0.00000000000E+00 0.  1.
        -11    1    1    2    0    0 -0.84695301696E+00 -0.15895369357E+01  0.11340663235E+03  0.11342093377E+03  0.00000000000E+00 0. -1.
         11    1    1    2    0    0 -0.73763329212E+00  0.27100783751E+01 -0.18051236483E+03  0.18053421417E+03  0.00000000000E+00 0.  1.
        -15    1    1    2    0    0 -0.84169812800E+00  0.26565143377E+01  0.66011632069E+02  0.66094317619E+02  0.17770000000E+01 0.  1.
         15    1    1    2    0    0  0.24262844371E+01 -0.37770557771E+01  0.10941004157E+01  0.49505344391E+01  0.17770000000E+01 0. -1.
</event>
<event>
 6    1  0.1045352E-002  0.1850556E+03  0.7546771E-02  0.1066439E+00
        -11   -1    0    0    0    0  0.00000000000E+00  0.00000000000E+00  0.18250000000E+03  0.18250000000E+03  0.00000000000E+00 0.  1.
         11   -1    0    0    0    0 -0.00000000000E+00 -0.00000000000E+00 -0.18250000000E+03  0.18250000000E+03  0.00000000000E+00 0. -1.
        -11    1    1    2    0    0 -0.10791981324E+01  0.41289365281E+00  0.52081011460E+02  0.52093827892E+02  0.00000000000E+00 0.  1.
         11    1    1    2    0    0  0.59214238786E+01 -0.40084756042E+01 -0.17980224236E+03  0.17994437334E+03  0.00000000000E+00 0. -1.
        -15    1    1    2    0    0 -0.94809018059E+01  0.65100458000E+00  0.66067790835E+01  0.11709763656E+02  0.17770000000E+01 0. -1.
         15    1    1    2    0    0  0.46386760597E+01  0.29445773714E+01  0.12111445182E+03  0.12125203512E+03  0.17770000000E+01 0.  1.
</event>
<event>
 6    1  0.1045352E-002  0.1827583E+03  0.7546771E-02  0.1068249E+00
        -11   -1    0    0    0    0  0.00000000000E+00  0.00000000000E+00  0.18250000000E+03  0.18250000000E+03  0.00000000000E+00 0. -1.
         11   -1    0    0    0    0 -0.00000000000E+00 -0.00000000000E+00 -0.18250000000E+03  0.18250000000E+03  0.00000000000E+00 0.  1.
        -11    1    1    2    0    0 -0.21497088379E+01  0.13385439215E+01  0.18222408955E+03  0.18224168502E+03  0.00000000000E+00 0. -1.
         11    1    1    2    0    0 -0.24202097811E+01 -0.16060277844E+01 -0.94657944757E+02  0.94702498627E+02  0.00000000000E+00 0.  1.
        -15    1    1    2    0    0 -0.16137781632E+01  0.13300676107E+01 -0.27643562981E+02  0.27779446775E+02  0.17770000000E+01 0.  1.
         15    1    1    2    0    0  0.61836967821E+01 -0.10625837478E+01 -0.59922581808E+02  0.60276369579E+02  0.17770000000E+01 0.  1.
</event>
<event>
 6    1  0.1045352E-002  0.1827784E+03  0.7546771E-02  0.1068233E+00
        -11   -1    0    0    0    0  0.00000000000E+00  0.00000000000E+00  0.18250000000E+03  0.18250000000E+03  0.00000000000E+00 0. -1.
         11   -1    0    0    0    0 -0.00000000000E+00 -0.00000000000E+00 -0.18250000000E+03  0.18250000000E+03  0.00000000000E+00 0.  1.
        -11    1    1    2    0    0 -0.38153399603E+01 -0.13108546039E+00  0.18218165351E+03  0.18222164767E+03  0.00000000000E+00 0. -1.
         11    1    1    2    0    0  0.16468607995E+01  0.75170810773E+00 -0.10361127419E+03  0.10362708794E+03  0.00000000000E+00 0.  1.
        -15    1    1    2    0    0 -0.33923635820E+00 -0.21515134915E+01 -0.67547562489E+02  0.67606027977E+02  0.17770000000E+01 0.  1.
         15    1    1    2    0    0  0.25077155191E+01  0.15308908441E+01 -0.11022816836E+02  0.11545236416E+02  0.17770000000E+01 0. -1.
</event>
<event>
 6    1  0.1045352E-002  0.1825853E+03  0.7546771E-02  0.1068387E+00
        -11   -1    0    0    0    0  0.00000000000E+00  0.00000000000E+00  0.18250000000E+03  0.18250000000E+03  0.00000000000E+00 0. -1.
         11   -1    0    0    0    0 -0.00000000000E+00 -0.00000000000E+00 -0.18250000000E+03  0.18250000000E+03  0.00000000000E+00 0.  1.
        -11    1    1    2    0    0 -0.10176591439E+01  0.32121744651E+01  0.18238361919E+03  0.18241474239E+03  0.00000000000E+00 0. -1.
         11    1    1    2    0    0  0.24578683425E+01 -0.22598834606E+01 -0.77657551424E+02  0.77729296171E+02  0.00000000000E+00 0.  1.
        -15    1    1    2    0    0 -0.22959031243E+01 -0.29229778013E+00 -0.75283895951E+02  0.75340422933E+02  0.17770000000E+01 0.  1.
         15    1    1    2    0    0  0.85569392573E+00 -0.65999322436E+00 -0.29442171812E+02  0.29515538504E+02  0.17770000000E+01 0. -1.
</event>
<event>
 6    1  0.1045352E-002  0.1847964E+03  0.7546771E-02  0.1066641E+00
        -11   -1    0    0    0    0  0.00000000000E+00  0.00000000000E+00  0.18250000000E+03  0.18250000000E+03  0.00000000000E+00 0.  1.
         11   -1    0    0    0    0 -0.00000000000E+00 -0.00000000000E+00 -0.18250000000E+03  0.18250000000E+03  0.00000000000E+00 0. -1.
        -11    1    1    2    0    0  0.11887801988E+00  0.21187457959E+01  0.14662990674E+03  0.14664526165E+03  0.00000000000E+00 0.  1.
         11    1    1    2    0    0  0.55410488684E+01 -0.57137174640E+01 -0.18002777273E+03  0.18020363133E+03  0.00000000000E+00 0. -1.
        -15    1    1    2    0    0 -0.89954140103E+01  0.43854457960E+01  0.32679656598E+02  0.34223782556E+02  0.17770000000E+01 0.  1.
         15    1    1    2    0    0  0.33354871220E+01 -0.79047412794E+00  0.71820939528E+00  0.39273244612E+01  0.17770000000E+01 0. -1.
</event>
<event>
 6    1  0.1045352E-002  0.1920344E+03  0.7546771E-02  0.1061109E+00
        -11   -1    0    0    0    0  0.00000000000E+00  0.00000000000E+00  0.18250000000E+03  0.18250000000E+03  0.00000000000E+00 0.  1.
         11   -1    0    0    0    0 -0.00000000000E+00 -0.00000000000E+00 -0.18250000000E+03  0.18250000000E+03  0.00000000000E+00 0. -1.
        -11    1    1    2    0    0 -0.17506032613E+01 -0.31362239755E+01  0.17292831505E+03  0.17296561121E+03  0.00000000000E+00 0.  1.
         11    1    1    2    0    0 -0.11338353220E+01 -0.21647737891E+01 -0.16764421618E+03  0.16766202625E+03  0.00000000000E+00 0. -1.
        -15    1    1    2    0    0  0.64262013640E+00  0.11261379892E+02 -0.10833875840E+02  0.15740464810E+02  0.17770000000E+01 0. -1.
         15    1    1    2    0    0  0.22418184469E+01 -0.59603821271E+01  0.55497769680E+01  0.86318977314E+01  0.17770000000E+01 0.  1.
</event>
<event>
 6    1  0.1045352E-002  0.1838525E+03  0.7546771E-02  0.1067383E+00
        -11   -1    0    0    0    0  0.00000000000E+00  0.00000000000E+00  0.18250000000E+03  0.18250000000E+03  0.00000000000E+00 0.  1.
         11   -1    0    0    0    0 -0.00000000000E+00 -0.00000000000E+00 -0.18250000000E+03  0.18250000000E+03  0.00000000000E+00 0. -1.
        -11    1    1    2    0    0 -0.10283330511E+02  0.59403095849E+01  0.18075784750E+03  0.18114754648E+03  0.00000000000E+00 0.  1.
         11    1    1    2    0    0 -0.95013898287E+00  0.11565235371E+01 -0.11053835344E+03  0.11054848661E+03  0.00000000000E+00 0. -1.
        -15    1    1    2    0    0  0.13843120085E+02 -0.83972870251E+00 -0.49097248182E+02  0.51049335216E+02  0.17770000000E+01 0. -1.
         15    1    1    2    0    0 -0.26096505914E+01 -0.62571044196E+01 -0.21122245876E+02  0.22254631692E+02  0.17770000000E+01 0. -1.
</event>
<event>
 6    1  0.1045352E-002  0.1837947E+03  0.7546771E-02  0.1067429E+00
        -11   -1    0    0    0    0  0.00000000000E+00  0.00000000000E+00  0.18250000000E+03  0.18250000000E+03  0.00000000000E+00 0. -1.
         11   -1    0    0    0    0 -0.00000000000E+00 -0.00000000000E+00 -0.18250000000E+03  0.18250000000E+03  0.00000000000E+00 0.  1.
        -11    1    1    2    0    0 -0.50616082830E+01  0.49252258509E+01  0.18106766573E+03  0.18120534568E+03  0.00000000000E+00 0. -1.
         11    1    1    2    0    0  0.17372206643E+01  0.13483526836E+01 -0.15568831688E+03  0.15570384710E+03  0.00000000000E+00 0.  1.
        -15    1    1    2    0    0 -0.10969545455E+01 -0.16310611635E+01 -0.17840861072E+02  0.18036566264E+02  0.17770000000E+01 0. -1.
         15    1    1    2    0    0  0.44213421642E+01 -0.46425173710E+01 -0.75384877862E+01  0.10054240955E+02  0.17770000000E+01 0. -1.
</event>
<event>
 6    1  0.1045352E-002  0.1847090E+03  0.7546771E-02  0.1066710E+00
        -11   -1    0    0    0    0  0.00000000000E+00  0.00000000000E+00  0.18250000000E+03  0.18250000000E+03  0.00000000000E+00 0. -1.
         11   -1    0    0    0    0 -0.00000000000E+00 -0.00000000000E+00 -0.18250000000E+03  0.18250000000E+03  0.00000000000E+00 0. -1.
        -11    1    1    2    0    0  0.37209422683E+01 -0.77603257211E+00  0.18025096161E+03  0.18029103361E+03  0.00000000000E+00 0. -1.
         11    1    1    2    0    0  0.23019587535E+01 -0.31278023743E+01 -0.10525327120E+03  0.10532489383E+03  0.00000000000E+00 0. -1.
        -15    1    1    2    0    0 -0.35764011178E+01  0.45190432182E+00  0.22140572398E+00  0.40251226026E+01  0.17770000000E+01 0. -1.
         15    1    1    2    0    0 -0.24464999040E+01  0.34519306246E+01 -0.75219096131E+02  0.75358949957E+02  0.17770000000E+01 0. -1.
</event>
<event>
 6    1  0.1045352E-002  0.1834401E+03  0.7546771E-02  0.1067709E+00
        -11   -1    0    0    0    0  0.00000000000E+00  0.00000000000E+00  0.18250000000E+03  0.18250000000E+03  0.00000000000E+00 0. -1.
         11   -1    0    0    0    0 -0.00000000000E+00 -0.00000000000E+00 -0.18250000000E+03  0.18250000000E+03  0.00000000000E+00 0. -1.
        -11    1    1    2    0    0 -0.50485727144E+01  0.25768888936E+01  0.15868275023E+03  0.15878395279E+03  0.00000000000E+00 0. -1.
         11    1    1    2    0    0  0.19382284544E+01  0.25292800540E+01 -0.18153188988E+03  0.18155985523E+03  0.00000000000E+00 0. -1.
        -15    1    1    2    0    0  0.35099479830E+01 -0.12207020176E+01  0.16403393418E+02  0.16912684379E+02  0.17770000000E+01 0.  1.
         15    1    1    2    0    0 -0.39960372296E+00 -0.38854669300E+01  0.64457462374E+01  0.77435076003E+01  0.17770000000E+01 0. -1.
</event>
<event>
 6    1  0.1806673E-002  0.1856923E+03  0.7546771E-02  0.1065942E+00
        -11   -1    0    0    0    0  0.00000000000E+00  0.00000000000E+00  0.18250000000E+03  0.18250000000E+03  0.00000000000E+00 0.  1.
         11   -1    0    0    0    0 -0.00000000000E+00 -0.00000000000E+00 -0.18250000000E+03  0.18250000000E+03  0.00000000000E+00 0. -1.
        -11    1    1    2    0    0  0.76335694316E+00  0.37731858833E+01  0.17926636086E+03  0.17930769025E+03  0.00000000000E+00 0.  1.
         11    1    1    2    0    0 -0.87805730536E+01  0.89699244918E+00 -0.13185243412E+03  0.13214752151E+03  0.00000000000E+00 0. -1.
        -15    1    1    2    0    0  0.64759811226E+00 -0.44173801940E+01  0.68291266893E+00  0.48535275632E+01  0.17770000000E+01 0. -1.
         15    1    1    2    0    0  0.73696179982E+01 -0.25279813851E+00 -0.48096839410E+02  0.48691260680E+02  0.17770000000E+01 0. -1.
</event>
<event>
 6    1  0.1045352E-002  0.1837217E+03  0.7546771E-02  0.1067487E+00
        -11   -1    0    0    0    0  0.00000000000E+00  0.00000000000E+00  0.18250000000E+03  0.18250000000E+03  0.00000000000E+00 0. -1.
         11   -1    0    0    0    0 -0.00000000000E+00 -0.00000000000E+00 -0.18250000000E+03  0.18250000000E+03  0.00000000000E+00 0.  1.
        -11    1    1    2    0    0 -0.33946094649E+01  0.50511315231E+01  0.14132264452E+03  0.14145362193E+03  0.00000000000E+00 0. -1.
         11    1    1    2    0    0 -0.96670235951E+00  0.27466246833E+01 -0.18125495991E+03  0.18127834662E+03  0.00000000000E+00 0.  1.
        -15    1    1    2    0    0  0.42879924043E+01 -0.30360336787E+01  0.34028382177E+02  0.34477425976E+02  0.17770000000E+01 0. -1.
         15    1    1    2    0    0  0.73319420068E-01 -0.47617225277E+01  0.59039332188E+01  0.77906054720E+01  0.17770000000E+01 0. -1.
</event>
<event>
 6    1  0.1045352E-002  0.1832079E+03  0.7546771E-02  0.1067893E+00
        -11   -1    0    0    0    0  0.00000000000E+00  0.00000000000E+00  0.18250000000E+03  0.18250000000E+03  0.00000000000E+00 0.  1.
         11   -1    0    0    0    0 -0.00000000000E+00 -0.00000000000E+00 -0.18250000000E+03  0.18250000000E+03  0.00000000000E+00 0.  1.
        -11    1    1    2    0    0  0.16832716310E+01  0.48283432138E+01  0.18172012715E+03  0.18179205404E+03  0.00000000000E+00 0.  1.
         11    1    1    2    0    0 -0.17749424001E+01 -0.18761780658E+01 -0.15460048794E+03  0.15462205967E+03  0.00000000000E+00 0.  1.
        -15    1    1    2    0    0  0.30598212544E+01 -0.34668842827E+00 -0.19500022160E+02  0.19821485621E+02  0.17770000000E+01 0.  1.
         15    1    1    2    0    0 -0.29681504854E+01 -0.26054767197E+01 -0.76196170411E+01  0.87644006694E+01  0.17770000000E+01 0. -1.
</event>
<event>
 6    1  0.1045352E-002  0.1867548E+03  0.7546771E-02  0.1065118E+00
        -11   -1    0    0    0    0  0.00000000000E+00  0.00000000000E+00  0.18250000000E+03  0.18250000000E+03  0.00000000000E+00 0.  1.
         11   -1    0    0    0    0 -0.00000000000E+00 -0.00000000000E+00 -0.18250000000E+03  0.18250000000E+03  0.00000000000E+00 0. -1.
        -11    1    1    2    0    0 -0.71149934663E+01  0.10885380184E+01  0.16318121712E+03  0.16333988389E+03  0.00000000000E+00 0.  1.
         11    1    1    2    0    0  0.42840982490E+01 -0.82735752921E+01 -0.17800151916E+03  0.17824518610E+03  0.00000000000E+00 0. -1.
        -15    1    1    2    0    0 -0.62432744629E+01  0.59365044799E+01  0.70766423339E+01  0.11289692519E+02  0.17770000000E+01 0. -1.
         15    1    1    2    0    0  0.90741696802E+01  0.12485327938E+01  0.77436597027E+01  0.12125237487E+02  0.17770000000E+01 0.  1.
</event>
<event>
 6    1  0.1045352E-002  0.1840291E+03  0.7546771E-02  0.1067244E+00
        -11   -1    0    0    0    0  0.00000000000E+00  0.00000000000E+00  0.18250000000E+03  0.18250000000E+03  0.00000000000E+00 0.  1.
         11   -1    0    0    0    0 -0.00000000000E+00 -0.00000000000E+00 -0.18250000000E+03  0.18250000000E+03  0.00000000000E+00 0.  1.
        -11    1    1    2    0    0  0.18821262246E+01 -0.29078769311E+01  0.15997262104E+03  0.16001011728E+03  0.00000000000E+00 0.  1.
         11    1    1    2    0    0  0.28312357971E+01  0.44119067011E+01 -0.18089498973E+03  0.18097093172E+03  0.00000000000E+00 0.  1.
        -15    1    1    2    0    0 -0.63296847851E+01 -0.87940079389E+00  0.20441589432E+02  0.21490801817E+02  0.17770000000E+01 0.  1.
         15    1    1    2    0    0  0.16163227634E+01 -0.62462897611E+00  0.48077925349E+00  0.25281491894E+01  0.17770000000E+01 0.  1.
</event>
<event>
 6    1  0.1045352E-002  0.1867924E+03  0.7546771E-02  0.1065089E+00
        -11   -1    0    0    0    0  0.00000000000E+00  0.00000000000E+00  0.18250000000E+03  0.18250000000E+03  0.00000000000E+00 0. -1.
         11   -1    0    0    0    0 -0.00000000000E+00 -0.00000000000E+00 -0.18250000000E+03  0.18250000000E+03  0.00000000000E+00 0.  1.
        -11    1    1    2    0    0  0.32645471734E+01  0.11507917057E+01  0.17817401551E+03  0.17820763561E+03  0.00000000000E+00 0. -1.
         11    1    1    2    0    0  0.34057049105E+01  0.16488882040E+01 -0.14974245760E+03  0.14979025758E+03  0.00000000000E+00 0.  1.
        -15    1    1    2    0    0  0.27957433819E+00 -0.56691584429E+00  0.36199706154E+01  0.40818465970E+01  0.17770000000E+01 0.  1.
         15    1    1    2    0    0 -0.69498264221E+01 -0.22327640654E+01 -0.32051528523E+02  0.32920260210E+02  0.17770000000E+01 0. -1.
</event>
<event>
 6    1  0.1045352E-002  0.1873354E+03  0.7546771E-02  0.1064670E+00
        -11   -1    0    0    0    0  0.00000000000E+00  0.00000000000E+00  0.18250000000E+03  0.18250000000E+03  0.00000000000E+00 0. -1.
         11   -1    0    0    0    0 -0.00000000000E+00 -0.00000000000E+00 -0.18250000000E+03  0.18250000000E+03  0.00000000000E+00 0.  1.
        -11    1    1    2    0    0 -0.26095501393E+01  0.21627734850E+01  0.17763231219E+03  0.17766464385E+03  0.00000000000E+00 0. -1.
         11    1    1    2    0    0  0.19724625091E+01  0.20317246432E+01 -0.16857551770E+03  0.16859929917E+03  0.00000000000E+00 0.  1.
        -15    1    1    2    0    0 -0.18121811034E+01 -0.61081746580E+01  0.21627443415E+01  0.69590940568E+01  0.17770000000E+01 0.  1.
         15    1    1    2    0    0  0.24492687336E+01  0.19136765299E+01 -0.11219538830E+02  0.11776962926E+02  0.17770000000E+01 0. -1.
</event>
<event>
 6    1  0.1045352E-002  0.1826782E+03  0.7546771E-02  0.1068313E+00
        -11   -1    0    0    0    0  0.00000000000E+00  0.00000000000E+00  0.18250000000E+03  0.18250000000E+03  0.00000000000E+00 0.  1.
         11   -1    0    0    0    0 -0.00000000000E+00 -0.00000000000E+00 -0.18250000000E+03  0.18250000000E+03  0.00000000000E+00 0.  1.
        -11    1    1    2    0    0  0.41495104110E+01  0.95535702601E+00  0.18227209359E+03  0.18232182329E+03  0.00000000000E+00 0.  1.
         11    1    1    2    0    0  0.40024372270E+00  0.15331990121E+01 -0.87151108970E+02  0.87165513186E+02  0.00000000000E+00 0.  1.
        -15    1    1    2    0    0 -0.36159760667E+01 -0.21526961781E+01 -0.28763853543E+02  0.29124326317E+02  0.17770000000E+01 0.  1.
         15    1    1    2    0    0 -0.93377806696E+00 -0.33585986004E+00 -0.66357131080E+02  0.66388337210E+02  0.17770000000E+01 0.  1.
</event>
<event>
 6    1  0.1045352E-002  0.2062198E+03  0.7546771E-02  0.1051000E+00
        -11   -1    0    0    0    0  0.00000000000E+00  0.00000000000E+00  0.18250000000E+03  0.18250000000E+03  0.00000000000E+00 0. -1.
         11   -1    0    0    0    0 -0.00000000000E+00 -0.00000000000E+00 -0.18250000000E+03  0.18250000000E+03  0.00000000000E+00 0.  1.
        -11    1    1    2    0    0 -0.47228724208E+01  0.66868963069E+01  0.13785277583E+03  0.13809564768E+03  0.00000000000E+00 0. -1.
         11    1    1    2    0    0  0.49067353036E+01  0.15654660278E+01 -0.15869668360E+03  0.15878023845E+03  0.00000000000E+00 0.  1.
        -15    1    1    2    0    0  0.91220605766E+01 -0.89882994224E+01  0.42527671932E+02  0.44449545832E+02  0.17770000000E+01 0. -1.
         15    1    1    2    0    0 -0.93059234594E+01  0.73593708774E+00 -0.21683764155E+02  0.23674568037E+02  0.17770000000E+01 0.  1.
</event>
<event>
 6    1  0.1045352E-002  0.1850778E+03  0.7546771E-02  0.1066421E+00
        -11   -1    0    0    0    0  0.00000000000E+00  0.00000000000E+00  0.18250000000E+03  0.18250000000E+03  0.00000000000E+00 0.  1.
         11   -1    0    0    0    0 -0.00000000000E+00 -0.00000000000E+00 -0.18250000000E+03  0.18250000000E+03  0.00000000000E+00 0. -1.
        -11    1    1    2    0    0 -0.85215475574E+01  0.70179550769E+01  0.17958318024E+03  0.17992216953E+03  0.00000000000E+00 0.  1.
         11    1    1    2    0    0 -0.87435162595E+00  0.19677150616E+01 -0.14946332133E+03  0.14947883066E+03  0.00000000000E+00 0. -1.
        -15    1    1    2    0    0 -0.10110265854E+01 -0.26062614427E+01 -0.18013057575E+02  0.18315096114E+02  0.17770000000E+01 0. -1.
         15    1    1    2    0    0  0.10406925769E+02 -0.63794086958E+01 -0.12106801328E+02  0.17283903687E+02  0.17770000000E+01 0.  1.
</event>
<event>
 6    1  0.1045352E-002  0.1831613E+03  0.7546771E-02  0.1067930E+00
        -11   -1    0    0    0    0  0.00000000000E+00  0.00000000000E+00  0.18250000000E+03  0.18250000000E+03  0.00000000000E+00 0. -1.
         11   -1    0    0    0    0 -0.00000000000E+00 -0.00000000000E+00 -0.18250000000E+03  0.18250000000E+03  0.00000000000E+00 0.  1.
        -11    1    1    2    0    0 -0.97218371484E+00  0.69335034075E+01  0.12525180268E+03  0.12544733032E+03  0.00000000000E+00 0. -1.
         11    1    1    2    0    0  0.50742368505E+00 -0.38189958115E+01 -0.18179788631E+03  0.18183870236E+03  0.00000000000E+00 0.  1.
        -15    1    1    2    0    0  0.39787287614E+01 -0.40035980366E+00  0.99076497436E+01  0.10830965930E+02  0.17770000000E+01 0.  1.
         15    1    1    2    0    0 -0.35139687316E+01 -0.27141477923E+01  0.46638433892E+02  0.46883001391E+02  0.17770000000E+01 0. -1.
</event>
<event>
 6    1  0.1045352E-002  0.1857876E+03  0.7546771E-02  0.1065868E+00
        -11   -1    0    0    0    0  0.00000000000E+00  0.00000000000E+00  0.18250000000E+03  0.18250000000E+03  0.00000000000E+00 0.  1.
         11   -1    0    0    0    0 -0.00000000000E+00 -0.00000000000E+00 -0.18250000000E+03  0.18250000000E+03  0.00000000000E+00 0.  1.
        -11    1    1    2    0    0  0.15149851732E+01  0.47839821087E+01  0.14926599316E+03  0.14935032099E+03  0.00000000000E+00 0.  1.
         11    1    1    2    0    0 -0.15597258076E+02  0.67205137662E+00 -0.17853106701E+03  0.17921235448E+03  0.00000000000E+00 0.  1.
        -15    1    1    2    0    0  0.20880555685E+01 -0.66359679012E+01  0.19640352404E+02  0.20911652675E+02  0.17770000000E+01 0. -1.
         15    1    1    2    0    0  0.11994217334E+02  0.11799344159E+01  0.96247214383E+01  0.15525671852E+02  0.17770000000E+01 0.  1.
</event>
<event>
 6    1  0.1045352E-002  0.1837523E+03  0.7546771E-02  0.1067462E+00
        -11   -1    0    0    0    0  0.00000000000E+00  0.00000000000E+00  0.18250000000E+03  0.18250000000E+03  0.00000000000E+00 0. -1.
         11   -1    0    0    0    0 -0.00000000000E+00 -0.00000000000E+00 -0.18250000000E+03  0.18250000000E+03  0.00000000000E+00 0.  1.
        -11    1    1    2    0    0 -0.13761171035E+02 -0.12740000355E+01  0.18072008670E+03  0.18124773830E+03  0.00000000000E+00 0. -1.
         11    1    1    2    0    0  0.22311906814E+00  0.90431705232E+00 -0.68059912843E+02  0.68066286130E+02  0.00000000000E+00 0.  1.
        -15    1    1    2    0    0  0.13233243080E+01 -0.12031696568E+00 -0.88709811090E+02  0.88737556739E+02  0.17770000000E+01 0.  1.
         15    1    1    2    0    0  0.12214727659E+02  0.48999994890E+00 -0.23950362765E+02  0.26948418827E+02  0.17770000000E+01 0.  1.
</event>
<event>
 6    1  0.1045352E-002  0.1842209E+03  0.7546771E-02  0.1067093E+00
        -11   -1    0    0    0    0  0.00000000000E+00  0.00000000000E+00  0.18250000000E+03  0.18250000000E+03  0.00000000000E+00 0.  1.
         11   -1    0    0    0    0 -0.00000000000E+00 -0.00000000000E+00 -0.18250000000E+03  0.18250000000E+03  0.00000000000E+00 0. -1.
        -11    1    1    2    0    0 -0.25352698580E+01 -0.84176927212E+00  0.18075931749E+03  0.18077905583E+03  0.00000000000E+00 0.  1.
         11    1    1    2    0    0 -0.26047514986E+01 -0.11744425870E+02 -0.86383644327E+02  0.87217259052E+02  0.00000000000E+00 0. -1.
        -15    1    1    2    0    0  0.34111836674E+00  0.15229327748E+02 -0.81024021618E+02  0.82462710321E+02  0.17770000000E+01 0. -1.
         15    1    1    2    0    0  0.47989029898E+01 -0.26431326056E+01 -0.13351651547E+02  0.14540974792E+02  0.17770000000E+01 0.  1.
</event>
<event>
 6    1  0.1045352E-002  0.1869770E+03  0.7546771E-02  0.1064946E+00
        -11   -1    0    0    0    0  0.00000000000E+00  0.00000000000E+00  0.18250000000E+03  0.18250000000E+03  0.00000000000E+00 0. -1.
         11   -1    0    0    0    0 -0.00000000000E+00 -0.00000000000E+00 -0.18250000000E+03  0.18250000000E+03  0.00000000000E+00 0. -1.
        -11    1    1    2    0    0  0.15223067883E+01 -0.36398657140E+01  0.17797923172E+03  0.17802295628E+03  0.00000000000E+00 0. -1.
         11    1    1    2    0    0 -0.12152530585E+01  0.38317421925E+01 -0.17497839817E+03  0.17502456660E+03  0.00000000000E+00 0. -1.
        -15    1    1    2    0    0 -0.18650215225E+01  0.15050410709E+01  0.36375311958E+01  0.47045526998E+01  0.17770000000E+01 0.  1.
         15    1    1    2    0    0  0.15579677927E+01 -0.16969175494E+01 -0.66383647496E+01  0.72479244175E+01  0.17770000000E+01 0. -1.
</event>
<event>
 6    1  0.1045352E-002  0.1955007E+03  0.7546771E-02  0.1058553E+00
        -11   -1    0    0    0    0  0.00000000000E+00  0.00000000000E+00  0.18250000000E+03  0.18250000000E+03  0.00000000000E+00 0.  1.
         11   -1    0    0    0    0 -0.00000000000E+00 -0.00000000000E+00 -0.18250000000E+03  0.18250000000E+03  0.00000000000E+00 0.  1.
        -11    1    1    2    0    0 -0.23449470684E+01  0.43326421324E+00  0.13254790309E+03  0.13256935207E+03  0.00000000000E+00 0.  1.
         11    1    1    2    0    0  0.52685771733E+01  0.57978517298E+01 -0.16931820660E+03  0.16949934536E+03  0.00000000000E+00 0.  1.
        -15    1    1    2    0    0  0.84456316386E+00  0.11621686500E+01  0.48444599819E+02  0.48498462899E+02  0.17770000000E+01 0. -1.
         15    1    1    2    0    0 -0.37681932687E+01 -0.73932845931E+01 -0.11674296307E+02  0.14432839667E+02  0.17770000000E+01 0.  1.
</event>
<event>
 6    1  0.1045352E-002  0.1761173E+03  0.7546771E-02  0.1073652E+00
        -11   -1    0    0    0    0  0.00000000000E+00  0.00000000000E+00  0.18250000000E+03  0.18250000000E+03  0.00000000000E+00 0.  1.
         11   -1    0    0    0    0 -0.00000000000E+00 -0.00000000000E+00 -0.18250000000E+03  0.18250000000E+03  0.00000000000E+00 0. -1.
        -11    1    1    2    0    0 -0.23195481653E+01  0.26805681455E+01  0.17727460110E+03  0.17731003904E+03  0.00000000000E+00 0.  1.
         11    1    1    2    0    0 -0.68035146209E+01  0.14441223817E+01 -0.17493638893E+03  0.17507459403E+03  0.00000000000E+00 0. -1.
        -15    1    1    2    0    0  0.72344262862E+01 -0.35108692631E+01  0.10530005818E+01  0.83023891681E+01  0.17770000000E+01 0. -1.
         15    1    1    2    0    0  0.18886365000E+01 -0.61382126404E+00 -0.33912127443E+01  0.43129777707E+01  0.17770000000E+01 0.  1.
</event>
<event>
 6    1  0.1045352E-002  0.1801104E+03  0.7546771E-02  0.1070373E+00
        -11   -1    0    0    0    0  0.00000000000E+00  0.00000000000E+00  0.18250000000E+03  0.18250000000E+03  0.00000000000E+00 0.  1.
         11   -1    0    0    0    0 -0.00000000000E+00 -0.00000000000E+00 -0.18250000000E+03  0.18250000000E+03  0.00000000000E+00 0. -1.
        -11    1    1    2    0    0  0.88719673629E+01  0.83378916447E+01  0.18157030833E+03  0.18197804568E+03  0.00000000000E+00 0.  1.
         11    1    1    2    0    0 -0.42433510882E+00  0.10891266285E+01 -0.54730609177E+01  0.55964857639E+01  0.00000000000E+00 0. -1.
        -15    1    1    2    0    0  0.11507013556E+01 -0.29695048063E+01 -0.12297920463E+03  0.12303326612E+03  0.17770000000E+01 0. -1.
         15    1    1    2    0    0 -0.95983336097E+01 -0.64575134669E+01 -0.53118042778E+02  0.54392202436E+02  0.17770000000E+01 0.  1.
</event>
<event>
 6    1  0.1045352E-002  0.1845917E+03  0.7546771E-02  0.1066802E+00
        -11   -1    0    0    0    0  0.00000000000E+00  0.00000000000E+00  0.18250000000E+03  0.18250000000E+03  0.00000000000E+00 0. -1.
         11   -1    0    0    0    0 -0.00000000000E+00 -0.00000000000E+00 -0.18250000000E+03  0.18250000000E+03  0.00000000000E+00 0.  1.
        -11    1    1    2    0    0  0.23052191636E+01 -0.34685463525E+01  0.18036027189E+03  0.18040834938E+03  0.00000000000E+00 0. -1.
         11    1    1    2    0    0 -0.16779245286E+01 -0.50934216620E+01 -0.15478984269E+03  0.15488270973E+03  0.00000000000E+00 0.  1.
        -15    1    1    2    0    0  0.29179615223E+01 -0.17539960030E+01 -0.45005595117E+01  0.59163980886E+01  0.17770000000E+01 0. -1.
         15    1    1    2    0    0 -0.35452561573E+01  0.10315964017E+02 -0.21069869694E+02  0.23792542797E+02  0.17770000000E+01 0.  1.
</event>
<event>
 6    1  0.1045352E-002  0.1699840E+03  0.7546771E-02  0.1078878E+00
        -11   -1    0    0    0    0  0.00000000000E+00  0.00000000000E+00  0.18250000000E+03  0.18250000000E+03  0.00000000000E+00 0.  1.
         11   -1    0    0    0    0 -0.00000000000E+00 -0.00000000000E+00 -0.18250000000E+03  0.18250000000E+03  0.00000000000E+00 0. -1.
        -11    1    1    2    0    0  0.34976310751E+01  0.25940512340E+01  0.16975273577E+03  0.16980857996E+03  0.00000000000E+00 0.  1.
         11    1    1    2    0    0  0.16042976334E+02 -0.25801514719E+01 -0.16994544506E+03  0.17072049838E+03  0.00000000000E+00 0. -1.
        -15    1    1    2    0    0 -0.71813755008E-01 -0.22349170417E+01  0.35020401443E+01  0.45190735301E+01  0.17770000000E+01 0. -1.
         15    1    1    2    0    0 -0.19468793654E+02  0.22210172796E+01 -0.33093308570E+01  0.19951848130E+02  0.17770000000E+01 0.  1.
</event>
<event>
 6    1  0.1045352E-002  0.1837202E+03  0.7546771E-02  0.1067488E+00
        -11   -1    0    0    0    0  0.00000000000E+00  0.00000000000E+00  0.18250000000E+03  0.18250000000E+03  0.00000000000E+00 0.  1.
         11   -1    0    0    0    0 -0.00000000000E+00 -0.00000000000E+00 -0.18250000000E+03  0.18250000000E+03  0.00000000000E+00 0.  1.
        -11    1    1    2    0    0 -0.40865343062E+01  0.18681690879E+01  0.18122408094E+03  0.18127977640E+03  0.00000000000E+00 0.  1.
         11    1    1    2    0    0 -0.28357851809E+01 -0.48069825869E+00 -0.16853899522E+03  0.16856353597E+03  0.00000000000E+00 0.  1.
        -15    1    1    2    0    0  0.34120907235E+01 -0.18544407435E+01 -0.75060129752E+01  0.86359292124E+01  0.17770000000E+01 0.  1.
         15    1    1    2    0    0  0.35102287636E+01  0.46696991434E+00 -0.51790727417E+01  0.65207584174E+01  0.17770000000E+01 0. -1.
</event>
<event>
 6    1  0.1045352E-002  0.1691574E+03  0.7546771E-02  0.1079601E+00
        -11   -1    0    0    0    0  0.00000000000E+00  0.00000000000E+00  0.18250000000E+03  0.18250000000E+03  0.00000000000E+00 0. -1.
         11   -1    0    0    0    0 -0.00000000000E+00 -0.00000000000E+00 -0.18250000000E+03  0.18250000000E+03  0.00000000000E+00 0. -1.
        -11    1    1    2    0    0 -0.94751874185E+01 -0.63299303183E+01  0.16830368456E+03  0.16868899617E+03  0.00000000000E+00 0. -1.
         11    1    1    2    0    0 -0.29632420348E+01  0.20220633991E+01 -0.16984741755E+03  0.16988529893E+03  0.00000000000E+00 0. -1.
        -15    1    1    2    0    0 -0.49952098951E+00  0.55961976345E+01  0.94268834594E+01  0.11117140367E+02  0.17770000000E+01 0. -1.
         15    1    1    2    0    0  0.12937950443E+02 -0.12883307153E+01 -0.78831504687E+01  0.15308564531E+02  0.17770000000E+01 0.  1.
</event>
<event>
 6    1  0.1045352E-002  0.1849062E+03  0.7546771E-02  0.1066555E+00
        -11   -1    0    0    0    0  0.00000000000E+00  0.00000000000E+00  0.18250000000E+03  0.18250000000E+03  0.00000000000E+00 0. -1.
         11   -1    0    0    0    0 -0.00000000000E+00 -0.00000000000E+00 -0.18250000000E+03  0.18250000000E+03  0.00000000000E+00 0. -1.
        -11    1    1    2    0    0  0.49752064861E+01  0.11519997207E+01  0.18002141058E+03  0.18009383124E+03  0.00000000000E+00 0. -1.
         11    1    1    2    0    0  0.14070212919E+01  0.41493937740E+01 -0.75307012939E+02  0.75434364685E+02  0.00000000000E+00 0. -1.
        -15    1    1    2    0    0 -0.15503011149E+00  0.98682914912E+00 -0.98481188086E+02  0.98502284247E+02  0.17770000000E+01 0. -1.
         15    1    1    2    0    0 -0.62271976665E+01 -0.62882226438E+01 -0.62332095597E+01  0.10969519826E+02  0.17770000000E+01 0.  1.
</event>
<event>
 6    1  0.1045352E-002  0.1878003E+03  0.7546771E-02  0.1064312E+00
        -11   -1    0    0    0    0  0.00000000000E+00  0.00000000000E+00  0.18250000000E+03  0.18250000000E+03  0.00000000000E+00 0.  1.
         11   -1    0    0    0    0 -0.00000000000E+00 -0.00000000000E+00 -0.18250000000E+03  0.18250000000E+03  0.00000000000E+00 0. -1.
        -11    1    1    2    0    0 -0.96341153428E+00  0.27144193481E+01  0.17717629895E+03  0.17719970977E+03  0.00000000000E+00 0.  1.
         11    1    1    2    0    0  0.25453215748E+01 -0.69672607028E+01 -0.16527534092E+03  0.16544171089E+03  0.00000000000E+00 0. -1.
        -15    1    1    2    0    0  0.14973857128E+01  0.79687364238E+01 -0.14415115617E+02  0.16634188030E+02  0.17770000000E+01 0. -1.
         15    1    1    2    0    0 -0.30792957534E+01 -0.37158950692E+01  0.25141575954E+01  0.57243913140E+01  0.17770000000E+01 0.  1.
</event>
<event>
 6    1  0.1045352E-002  0.1847756E+03  0.7546771E-02  0.1066658E+00
        -11   -1    0    0    0    0  0.00000000000E+00  0.00000000000E+00  0.18250000000E+03  0.18250000000E+03  0.00000000000E+00 0.  1.
         11   -1    0    0    0    0 -0.00000000000E+00 -0.00000000000E+00 -0.18250000000E+03  0.18250000000E+03  0.00000000000E+00 0. -1.
        -11    1    1    2    0    0 -0.23800800155E+00 -0.19041619530E+01  0.11394227593E+03  0.11395843420E+03  0.00000000000E+00 0.  1.
         11    1    1    2    0    0  0.59297332701E+01  0.53275314835E+00 -0.18012608540E+03  0.18022444952E+03  0.00000000000E+00 0. -1.
        -15    1    1    2    0    0 -0.25813797232E+01  0.75205788115E+00  0.67011339166E+02  0.67088795027E+02  0.17770000000E+01 0.  1.
         15    1    1    2    0    0 -0.31103455453E+01  0.61935092347E+00 -0.82752970324E+00  0.37283212559E+01  0.17770000000E+01 0. -1.
</event>
<event>
 6    1  0.1045352E-002  0.1853038E+03  0.7546771E-02  0.1066245E+00
        -11   -1    0    0    0    0  0.00000000000E+00  0.00000000000E+00  0.18250000000E+03  0.18250000000E+03  0.00000000000E+00 0. -1.
         11   -1    0    0    0    0 -0.00000000000E+00 -0.00000000000E+00 -0.18250000000E+03  0.18250000000E+03  0.00000000000E+00 0. -1.
        -11    1    1    2    0    0  0.11786158977E+01  0.27713184138E+01  0.17967099912E+03  0.17969623609E+03  0.00000000000E+00 0. -1.
         11    1    1    2    0    0 -0.65113747536E+00  0.48768789136E+01 -0.14422011654E+03  0.14430401915E+03  0.00000000000E+00 0. -1.
        -15    1    1    2    0    0 -0.24386592015E+01 -0.83465737556E+01 -0.36887381859E+02  0.37940071449E+02  0.17770000000E+01 0. -1.
         15    1    1    2    0    0  0.19111807791E+01  0.69837642817E+00  0.14364992806E+01  0.30596733141E+01  0.17770000000E+01 0.  1.
</event>
<event>
 6    1  0.1045352E-002  0.1859473E+03  0.7546771E-02  0.1065743E+00
        -11   -1    0    0    0    0  0.00000000000E+00  0.00000000000E+00  0.18250000000E+03  0.18250000000E+03  0.00000000000E+00 0. -1.
         11   -1    0    0    0    0 -0.00000000000E+00 -0.00000000000E+00 -0.18250000000E+03  0.18250000000E+03  0.00000000000E+00 0. -1.
        -11    1    1    2    0    0  0.69217959996E+01  0.27979124866E+01  0.17889694034E+03  0.17905265940E+03  0.00000000000E+00 0. -1.
         11    1    1    2    0    0 -0.51712496397E+01 -0.26177737156E+01 -0.13242765260E+03  0.13255443310E+03  0.00000000000E+00 0. -1.
        -15    1    1    2    0    0  0.72505227801E+01  0.77228410312E+00 -0.42820727427E+02  0.43473427858E+02  0.17770000000E+01 0. -1.
         15    1    1    2    0    0 -0.90010691400E+01 -0.95242287411E+00 -0.36485603136E+01  0.99194796414E+01  0.17770000000E+01 0. -1.
</event>
<event>
 6    1  0.1045352E-002  0.1860330E+03  0.7546771E-02  0.1065677E+00
        -11   -1    0    0    0    0  0.00000000000E+00  0.00000000000E+00  0.18250000000E+03  0.18250000000E+03  0.00000000000E+00 0. -1.
         11   -1    0    0    0    0 -0.00000000000E+00 -0.00000000000E+00 -0.18250000000E+03  0.18250000000E+03  0.00000000000E+00 0. -1.
        -11    1    1    2    0    0 -0.71142835366E+01 -0.58566596721E+00  0.17882453610E+03  0.17896695434E+03  0.00000000000E+00 0. -1.
         11    1    1    2    0    0  0.17365027197E+01  0.17537356777E+01 -0.17387628574E+03  0.17389380027E+03  0.00000000000E+00 0. -1.
        -15    1    1    2    0    0  0.55351737678E+01  0.48631656843E+00  0.80848588787E+00  0.58894847717E+01  0.17770000000E+01 0.  1.
         15    1    1    2    0    0 -0.15739295090E+00 -0.16543862789E+01 -0.57567362478E+01  0.62497606136E+01  0.17770000000E+01 0.  1.
</event>
<event>
 6    1  0.1045352E-002  0.1838018E+03  0.7546771E-02  0.1067423E+00
        -11   -1    0    0    0    0  0.00000000000E+00  0.00000000000E+00  0.18250000000E+03  0.18250000000E+03  0.00000000000E+00 0.  1.
         11   -1    0    0    0    0 -0.00000000000E+00 -0.00000000000E+00 -0.18250000000E+03  0.18250000000E+03  0.00000000000E+00 0.  1.
        -11    1    1    2    0    0 -0.42686717968E+01 -0.33038133709E+01  0.18111781658E+03  0.18119823461E+03  0.00000000000E+00 0.  1.
         11    1    1    2    0    0  0.18297596398E+01 -0.22736745401E+01 -0.17099078419E+03  0.17101568903E+03  0.00000000000E+00 0.  1.
        -15    1    1    2    0    0  0.22672743133E+01  0.27973765499E+01 -0.32845218261E+01  0.51876450341E+01  0.17770000000E+01 0.  1.
         15    1    1    2    0    0  0.17163784375E+00  0.27801113611E+01 -0.68425105707E+01  0.75984313276E+01  0.17770000000E+01 0. -1.
</event>
<event>
 6    1  0.1045352E-002  0.1828563E+03  0.7546771E-02  0.1068172E+00
        -11   -1    0    0    0    0  0.00000000000E+00  0.00000000000E+00  0.18250000000E+03  0.18250000000E+03  0.00000000000E+00 0.  1.
         11   -1    0    0    0    0 -0.00000000000E+00 -0.00000000000E+00 -0.18250000000E+03  0.18250000000E+03  0.00000000000E+00 0. -1.
        -11    1    1    2    0    0  0.15353914320E+01 -0.21860995931E+01  0.14766966828E+03  0.14769382990E+03  0.00000000000E+00 0.  1.
         11    1    1    2    0    0 -0.13276728439E+01  0.47389089140E+01 -0.18207723248E+03  0.18214373050E+03  0.00000000000E+00 0. -1.
        -15    1    1    2    0    0  0.33514582838E+00 -0.22664535789E+01  0.57158379993E+01  0.64091861875E+01  0.17770000000E+01 0. -1.
         15    1    1    2    0    0 -0.54286441650E+00 -0.28635574201E+00  0.28691726193E+02  0.28753253422E+02  0.17770000000E+01 0.  1.
</event>
<event>
 6    1  0.1045352E-002  0.1882880E+03  0.7546771E-02  0.1063939E+00
        -11   -1    0    0    0    0  0.00000000000E+00  0.00000000000E+00  0.18250000000E+03  0.18250000000E+03  0.00000000000E+00 0. -1.
         11   -1    0    0    0    0 -0.00000000000E+00 -0.00000000000E+00 -0.18250000000E+03  0.18250000000E+03  0.00000000000E+00 0.  1.
        -11    1    1    2    0    0  0.28653792050E+01 -0.33197428251E+01  0.17665756927E+03  0.17671199131E+03  0.00000000000E+00 0. -1.
         11    1    1    2    0    0  0.32739564886E+01  0.22212141884E+00 -0.17230952638E+03  0.17234077002E+03  0.00000000000E+00 0.  1.
        -15    1    1    2    0    0 -0.65170237906E+01  0.52434470419E+01 -0.77452953801E+01  0.11537446229E+02  0.17770000000E+01 0. -1.
         15    1    1    2    0    0  0.37768809699E+00 -0.21458256357E+01  0.33972524888E+01  0.44097924475E+01  0.17770000000E+01 0.  1.
</event>
<event>
 6    1  0.1045352E-002  0.1997216E+03  0.7546771E-02  0.1055517E+00
        -11   -1    0    0    0    0  0.00000000000E+00  0.00000000000E+00  0.18250000000E+03  0.18250000000E+03  0.00000000000E+00 0.  1.
         11   -1    0    0    0    0 -0.00000000000E+00 -0.00000000000E+00 -0.18250000000E+03  0.18250000000E+03  0.00000000000E+00 0.  1.
        -11    1    1    2    0    0 -0.68243009688E+00  0.44941905201E+01  0.16521589370E+03  0.16527841659E+03  0.00000000000E+00 0.  1.
         11    1    1    2    0    0 -0.71667772109E+01 -0.37003574265E+01 -0.79996890834E+02  0.80402474364E+02  0.00000000000E+00 0.  1.
        -15    1    1    2    0    0 -0.13792300072E+02  0.14850916119E+02 -0.89879206468E+02  0.92153169968E+02  0.17770000000E+01 0.  1.
         15    1    1    2    0    0  0.21641507380E+02 -0.15644749212E+02  0.46602036051E+01  0.27165939082E+02  0.17770000000E+01 0. -1.
</event>
<event>
 6    1  0.1045352E-002  0.1828875E+03  0.7546771E-02  0.1068147E+00
        -11   -1    0    0    0    0  0.00000000000E+00  0.00000000000E+00  0.18250000000E+03  0.18250000000E+03  0.00000000000E+00 0.  1.
         11   -1    0    0    0    0 -0.00000000000E+00 -0.00000000000E+00 -0.18250000000E+03  0.18250000000E+03  0.00000000000E+00 0.  1.
        -11    1    1    2    0    0  0.45153419709E+01 -0.29922466153E+01  0.18203194446E+03  0.18211252196E+03  0.00000000000E+00 0.  1.
         11    1    1    2    0    0  0.13512753499E+01  0.38829951706E+00 -0.93698424570E+02  0.93708972294E+02  0.00000000000E+00 0.  1.
        -15    1    1    2    0    0 -0.69805999398E+01  0.24712956906E+01 -0.84178586576E+02  0.84522353522E+02  0.17770000000E+01 0.  1.
         15    1    1    2    0    0  0.11139826189E+01  0.13265140766E+00 -0.41549333115E+01  0.46561522198E+01  0.17770000000E+01 0.  1.
</event>
<event>
 6    1  0.1045352E-002  0.1837752E+03  0.7546771E-02  0.1067444E+00
        -11   -1    0    0    0    0  0.00000000000E+00  0.00000000000E+00  0.18250000000E+03  0.18250000000E+03  0.00000000000E+00 0. -1.
         11   -1    0    0    0    0 -0.00000000000E+00 -0.00000000000E+00 -0.18250000000E+03  0.18250000000E+03  0.00000000000E+00 0. -1.
        -11    1    1    2    0    0 -0.14918770335E+01  0.24715247975E+01  0.15623481733E+03  0.15626148687E+03  0.00000000000E+00 0. -1.
         11    1    1    2    0    0  0.23762551965E+00  0.26986432491E+01 -0.18120451662E+03  0.18122476648E+03  0.00000000000E+00 0. -1.
        -15    1    1    2    0    0 -0.30175476289E+01 -0.56632491737E+01  0.11838204601E+02  0.13582297379E+02  0.17770000000E+01 0.  1.
         15    1    1    2    0    0  0.42717991427E+01  0.49308112715E+00  0.13131494689E+02  0.13931449267E+02  0.17770000000E+01 0.  1.
</event>
<event>
 6    1  0.1045352E-002  0.1851521E+03  0.7546771E-02  0.1066363E+00
        -11   -1    0    0    0    0  0.00000000000E+00  0.00000000000E+00  0.18250000000E+03  0.18250000000E+03  0.00000000000E+00 0.  1.
         11   -1    0    0    0    0 -0.00000000000E+00 -0.00000000000E+00 -0.18250000000E+03  0.18250000000E+03  0.00000000000E+00 0. -1.
        -11    1    1    2    0    0 -0.76826782968E+01 -0.31592091494E+01  0.17965593701E+03  0.17984787975E+03  0.00000000000E+00 0.  1.
         11    1    1    2    0    0 -0.32182966177E+01 -0.31711851447E+01 -0.15174188288E+03  0.15180913302E+03  0.00000000000E+00 0. -1.
        -15    1    1    2    0    0  0.43842806533E+00  0.98866342819E+00  0.83045272314E+00  0.22398784048E+01  0.17770000000E+01 0. -1.
         15    1    1    2    0    0  0.10462546849E+02  0.53417308659E+01 -0.28744506851E+02  0.31103108821E+02  0.17770000000E+01 0.  1.
</event>
<event>
 6    1  0.1045352E-002  0.1888281E+03  0.7546771E-02  0.1063526E+00
        -11   -1    0    0    0    0  0.00000000000E+00  0.00000000000E+00  0.18250000000E+03  0.18250000000E+03  0.00000000000E+00 0. -1.
         11   -1    0    0    0    0 -0.00000000000E+00 -0.00000000000E+00 -0.18250000000E+03  0.18250000000E+03  0.00000000000E+00 0. -1.
        -11    1    1    2    0    0  0.24420223038E+01  0.49580412081E+01  0.16261703038E+03  0.16271092224E+03  0.00000000000E+00 0. -1.
         11    1    1    2    0    0 -0.98324737459E+01 -0.37256744189E+01 -0.17585785404E+03  0.17617191325E+03  0.00000000000E+00 0. -1.
        -15    1    1    2    0    0  0.88711565185E+01  0.42187970732E+01 -0.16261909294E+01  0.10114242070E+02  0.17770000000E+01 0. -1.
         15    1    1    2    0    0 -0.14807050763E+01 -0.54511638623E+01  0.14867014586E+02  0.16002922442E+02  0.17770000000E+01 0.  1.
</event>
<event>
 6    1  0.1045352E-002  0.1949105E+03  0.7546771E-02  0.1058984E+00
        -11   -1    0    0    0    0  0.00000000000E+00  0.00000000000E+00  0.18250000000E+03  0.18250000000E+03  0.00000000000E+00 0.  1.
         11   -1    0    0    0    0 -0.00000000000E+00 -0.00000000000E+00 -0.18250000000E+03  0.18250000000E+03  0.00000000000E+00 0. -1.
        -11    1    1    2    0    0 -0.40319204348E+00 -0.48473225554E+01  0.12423548454E+03  0.12433066685E+03  0.00000000000E+00 0.  1.
         11    1    1    2    0    0 -0.84781905895E+01 -0.23859162405E+01 -0.16986134264E+03  0.17008952947E+03  0.00000000000E+00 0. -1.
        -15    1    1    2    0    0  0.11107293985E+02 -0.49127380141E+01  0.54115235941E+02  0.55489850102E+02  0.17770000000E+01 0.  1.
         15    1    1    2    0    0 -0.22259113522E+01  0.12145976810E+02 -0.84893778427E+01  0.15089953584E+02  0.17770000000E+01 0. -1.
</event>
<event>
 6    1  0.1045352E-002  0.1826692E+03  0.7546771E-02  0.1068320E+00
        -11   -1    0    0    0    0  0.00000000000E+00  0.00000000000E+00  0.18250000000E+03  0.18250000000E+03  0.00000000000E+00 0. -1.
         11   -1    0    0    0    0 -0.00000000000E+00 -0.00000000000E+00 -0.18250000000E+03  0.18250000000E+03  0.00000000000E+00 0. -1.
        -11    1    1    2    0    0  0.27057717060E+01  0.24731568252E+01  0.18229397464E+03  0.18233082815E+03  0.00000000000E+00 0. -1.
         11    1    1    2    0    0 -0.21989819730E+01 -0.15394170519E+01 -0.20584504960E+02  0.20758785394E+02  0.00000000000E+00 0. -1.
        -15    1    1    2    0    0 -0.18958261367E+01 -0.33124214302E+01 -0.59697949384E+02  0.59846212764E+02  0.17770000000E+01 0.  1.
         15    1    1    2    0    0  0.13890364036E+01  0.23786816569E+01 -0.10201152030E+03  0.10206417369E+03  0.17770000000E+01 0. -1.
</event>
<event>
 6    1  0.2018290E-002  0.1834929E+03  0.7546771E-02  0.1067667E+00
        -11   -1    0    0    0    0  0.00000000000E+00  0.00000000000E+00  0.18250000000E+03  0.18250000000E+03  0.00000000000E+00 0. -1.
         11   -1    0    0    0    0 -0.00000000000E+00 -0.00000000000E+00 -0.18250000000E+03  0.18250000000E+03  0.00000000000E+00 0. -1.
        -11    1    1    2    0    0 -0.27589365451E+01  0.27008979582E+00  0.18148589336E+03  0.18150706368E+03  0.00000000000E+00 0. -1.
         11    1    1    2    0    0  0.10003702010E+01  0.17376347395E+01 -0.10386013885E+03  0.10387949055E+03  0.00000000000E+00 0. -1.
        -15    1    1    2    0    0  0.26889045550E+01 -0.35295559479E+00 -0.17334294755E+01  0.36765870184E+01  0.17770000000E+01 0.  1.
         15    1    1    2    0    0 -0.93033821085E+00 -0.16547689405E+01 -0.75892325028E+02  0.75936858749E+02  0.17770000000E+01 0. -1.
</event>
<event>
 6    1  0.1045352E-002  0.1856100E+03  0.7546771E-02  0.1066006E+00
        -11   -1    0    0    0    0  0.00000000000E+00  0.00000000000E+00  0.18250000000E+03  0.18250000000E+03  0.00000000000E+00 0.  1.
         11   -1    0    0    0    0 -0.00000000000E+00 -0.00000000000E+00 -0.18250000000E+03  0.18250000000E+03  0.00000000000E+00 0. -1.
        -11    1    1    2    0    0 -0.77660008245E+01  0.80263286138E+00  0.17922006936E+03  0.17939004501E+03  0.00000000000E+00 0.  1.
         11    1    1    2    0    0 -0.25353943153E+01 -0.41811500873E+01 -0.16922000930E+03  0.16929064294E+03  0.00000000000E+00 0. -1.
        -15    1    1    2    0    0  0.44646360903E+01 -0.10113864930E+01 -0.61630571730E+01  0.78801574080E+01  0.17770000000E+01 0. -1.
         15    1    1    2    0    0  0.58367590496E+01  0.43899037190E+01 -0.38370028895E+01  0.84391546401E+01  0.17770000000E+01 0.  1.
</event>
<event>
 6    1  0.1045352E-002  0.1829823E+03  0.7546771E-02  0.1068072E+00
        -11   -1    0    0    0    0  0.00000000000E+00  0.00000000000E+00  0.18250000000E+03  0.18250000000E+03  0.00000000000E+00 0. -1.
         11   -1    0    0    0    0 -0.00000000000E+00 -0.00000000000E+00 -0.18250000000E+03  0.18250000000E+03  0.00000000000E+00 0.  1.
        -11    1    1    2    0    0  0.30234191472E+01  0.17215003360E+01  0.18198446456E+03  0.18201771883E+03  0.00000000000E+00 0. -1.
         11    1    1    2    0    0  0.20225826879E+01  0.64420870073E+00 -0.96589433228E+02  0.96612755146E+02  0.00000000000E+00 0.  1.
        -15    1    1    2    0    0  0.25573293573E+01 -0.13541316797E+01 -0.49727482771E+02  0.49843293208E+02  0.17770000000E+01 0. -1.
         15    1    1    2    0    0 -0.76033311925E+01 -0.10115773570E+01 -0.35667548564E+02  0.36526232813E+02  0.17770000000E+01 0.  1.
</event>
<event>
 6    1  0.1045352E-002  0.1825586E+03  0.7546771E-02  0.1068408E+00
        -11   -1    0    0    0    0  0.00000000000E+00  0.00000000000E+00  0.18250000000E+03  0.18250000000E+03  0.00000000000E+00 0. -1.
         11   -1    0    0    0    0 -0.00000000000E+00 -0.00000000000E+00 -0.18250000000E+03  0.18250000000E+03  0.00000000000E+00 0. -1.
        -11    1    1    2    0    0  0.48035161387E+01  0.88617305379E-01  0.18237808295E+03  0.18244135156E+03  0.00000000000E+00 0. -1.
         11    1    1    2    0    0 -0.80680819764E+00  0.53348890705E+00 -0.45127406528E+02  0.45137770989E+02  0.00000000000E+00 0. -1.
        -15    1    1    2    0    0  0.25791845953E+00 -0.12434877626E+01 -0.42931022243E+02  0.42986546542E+02  0.17770000000E+01 0. -1.
         15    1    1    2    0    0 -0.42546264006E+01  0.62138155015E+00 -0.94319654176E+02  0.94434330906E+02  0.17770000000E+01 0. -1.
</event>
<event>
 6    1  0.1045352E-002  0.1828220E+03  0.7546771E-02  0.1068199E+00
        -11   -1    0    0    0    0  0.00000000000E+00  0.00000000000E+00  0.18250000000E+03  0.18250000000E+03  0.00000000000E+00 0. -1.
         11   -1    0    0    0    0 -0.00000000000E+00 -0.00000000000E+00 -0.18250000000E+03  0.18250000000E+03  0.00000000000E+00 0. -1.
        -11    1    1    2    0    0  0.50989941288E+01 -0.13750262453E+00  0.18210655523E+03  0.18217797920E+03  0.00000000000E+00 0. -1.
         11    1    1    2    0    0  0.51477334028E+00  0.20809354478E+01 -0.98737427303E+02  0.98760694784E+02  0.00000000000E+00 0. -1.
        -15    1    1    2    0    0 -0.37753385857E+01 -0.18899246202E+01 -0.15976922282E+02  0.16620612838E+02  0.17770000000E+01 0.  1.
         15    1    1    2    0    0 -0.18384288834E+01 -0.53508203056E-01 -0.67392205642E+02  0.67440713180E+02  0.17770000000E+01 0. -1.
</event>
<event>
 6    1  0.1045352E-002  0.1755284E+03  0.7546771E-02  0.1074144E+00
        -11   -1    0    0    0    0  0.00000000000E+00  0.00000000000E+00  0.18250000000E+03  0.18250000000E+03  0.00000000000E+00 0. -1.
         11   -1    0    0    0    0 -0.00000000000E+00 -0.00000000000E+00 -0.18250000000E+03  0.18250000000E+03  0.00000000000E+00 0. -1.
        -11    1    1    2    0    0 -0.13971444135E+00 -0.43867615026E+01  0.17529400251E+03  0.17534893929E+03  0.00000000000E+00 0. -1.
         11    1    1    2    0    0  0.27626694750E+01  0.37032440445E+01 -0.17565783446E+03  0.17571858514E+03  0.00000000000E+00 0. -1.
        -15    1    1    2    0    0 -0.19314716541E+01  0.44310041805E+01  0.53393254501E+01  0.74182549201E+01  0.17770000000E+01 0. -1.
         15    1    1    2    0    0 -0.69148337950E+00 -0.37474867224E+01 -0.49754935003E+01  0.65142206418E+01  0.17770000000E+01 0.  1.
</event>
<event>
 6    1  0.1045352E-002  0.1835855E+03  0.7546771E-02  0.1067594E+00
        -11   -1    0    0    0    0  0.00000000000E+00  0.00000000000E+00  0.18250000000E+03  0.18250000000E+03  0.00000000000E+00 0.  1.
         11   -1    0    0    0    0 -0.00000000000E+00 -0.00000000000E+00 -0.18250000000E+03  0.18250000000E+03  0.00000000000E+00 0.  1.
        -11    1    1    2    0    0 -0.32994509086E+01  0.55794109635E+00  0.18138367367E+03  0.18141453842E+03  0.00000000000E+00 0.  1.
         11    1    1    2    0    0  0.24614816558E+01 -0.14918970901E+01 -0.16203730726E+03  0.16206286926E+03  0.00000000000E+00 0.  1.
        -15    1    1    2    0    0  0.44123998492E+01  0.85408136847E+00 -0.67013659933E+01  0.82622492452E+01  0.17770000000E+01 0.  1.
         15    1    1    2    0    0 -0.35744305965E+01  0.79874625280E-01 -0.12645000413E+02  0.13260343076E+02  0.17770000000E+01 0.  1.
</event>
<event>
 6    1  0.1045352E-002  0.1827032E+03  0.7546771E-02  0.1068293E+00
        -11   -1    0    0    0    0  0.00000000000E+00  0.00000000000E+00  0.18250000000E+03  0.18250000000E+03  0.00000000000E+00 0. -1.
         11   -1    0    0    0    0 -0.00000000000E+00 -0.00000000000E+00 -0.18250000000E+03  0.18250000000E+03  0.00000000000E+00 0. -1.
        -11    1    1    2    0    0 -0.28184466459E+01  0.61621954289E-01  0.18227500575E+03  0.18229680513E+03  0.00000000000E+00 0. -1.
         11    1    1    2    0    0  0.38879154776E+01  0.26149790450E+01 -0.89696736047E+02  0.89819031723E+02  0.00000000000E+00 0. -1.
        -15    1    1    2    0    0 -0.27758269003E+01 -0.36158940482E+01 -0.58932275651E+02  0.59135021325E+02  0.17770000000E+01 0.  1.
         15    1    1    2    0    0  0.17063580686E+01  0.93929304893E+00 -0.33645994050E+02  0.33749141825E+02  0.17770000000E+01 0. -1.
</event>
<event>
 6    1  0.2223592E-002  0.1798344E+03  0.7546771E-02  0.1070597E+00
        -11   -1    0    0    0    0  0.00000000000E+00  0.00000000000E+00  0.18250000000E+03  0.18250000000E+03  0.00000000000E+00 0. -1.
         11   -1    0    0    0    0 -0.00000000000E+00 -0.00000000000E+00 -0.18250000000E+03  0.18250000000E+03  0.00000000000E+00 0.  1.
        -11    1    1    2    0    0  0.85383500791E+01 -0.23023604099E+00  0.17920437881E+03  0.17940781983E+03  0.00000000000E+00 0. -1.
         11    1    1    2    0    0 -0.55698061699E+01  0.36544253462E+01 -0.40992280576E+01  0.78218435199E+01  0.00000000000E+00 0.  1.
        -15    1    1    2    0    0  0.20789054434E+01 -0.92696922864E+01 -0.17707531187E+02  0.20173334694E+02  0.17770000000E+01 0. -1.
         15    1    1    2    0    0 -0.50474493526E+01  0.58455029812E+01 -0.15739761957E+03  0.15759700195E+03  0.17770000000E+01 0.  1.
</event>
<event>
 6    1  0.1045352E-002  0.1866189E+03  0.7546771E-02  0.1065223E+00
        -11   -1    0    0    0    0  0.00000000000E+00  0.00000000000E+00  0.18250000000E+03  0.18250000000E+03  0.00000000000E+00 0. -1.
         11   -1    0    0    0    0 -0.00000000000E+00 -0.00000000000E+00 -0.18250000000E+03  0.18250000000E+03  0.00000000000E+00 0.  1.
        -11    1    1    2    0    0 -0.58801117537E+01  0.46982390538E+01  0.13183626558E+03  0.13205093747E+03  0.00000000000E+00 0. -1.
         11    1    1    2    0    0 -0.22754966777E+01 -0.32341195198E+01 -0.17833728254E+03  0.17838111940E+03  0.00000000000E+00 0.  1.
        -15    1    1    2    0    0  0.80366296248E+01 -0.73061071993E+01  0.41237848927E+01  0.11752869819E+02  0.17770000000E+01 0.  1.
         15    1    1    2    0    0  0.11897880648E+00  0.58419876652E+01  0.42377232068E+02  0.42815073310E+02  0.17770000000E+01 0. -1.
</event>
<event>
 6    1  0.1045352E-002  0.1862601E+03  0.7546771E-02  0.1065501E+00
        -11   -1    0    0    0    0  0.00000000000E+00  0.00000000000E+00  0.18250000000E+03  0.18250000000E+03  0.00000000000E+00 0. -1.
         11   -1    0    0    0    0 -0.00000000000E+00 -0.00000000000E+00 -0.18250000000E+03  0.18250000000E+03  0.00000000000E+00 0.  1.
        -11    1    1    2    0    0  0.26825424248E+01  0.78858470493E+01  0.17854572919E+03  0.17873992288E+03  0.00000000000E+00 0. -1.
         11    1    1    2    0    0  0.47773819820E+01  0.24795177199E+01 -0.14050475029E+03  0.14060781002E+03  0.00000000000E+00 0.  1.
        -15    1    1    2    0    0 -0.26229416858E+01 -0.10145261522E+02 -0.42124294036E+01  0.11432779404E+02  0.17770000000E+01 0.  1.
         15    1    1    2    0    0 -0.48369827210E+01 -0.22010324755E+00 -0.33828549504E+02  0.34219487691E+02  0.17770000000E+01 0. -1.
</event>
<event>
 6    1  0.1045352E-002  0.1846546E+03  0.7546771E-02  0.1066753E+00
        -11   -1    0    0    0    0  0.00000000000E+00  0.00000000000E+00  0.18250000000E+03  0.18250000000E+03  0.00000000000E+00 0. -1.
         11   -1    0    0    0    0 -0.00000000000E+00 -0.00000000000E+00 -0.18250000000E+03  0.18250000000E+03  0.00000000000E+00 0. -1.
        -11    1    1    2    0    0  0.25993278292E+01 -0.27639397330E+01  0.18030547224E+03  0.18034538860E+03  0.00000000000E+00 0. -1.
         11    1    1    2    0    0 -0.40166187933E+01 -0.95358656252E+00 -0.17437700630E+03  0.17442586643E+03  0.00000000000E+00 0. -1.
        -15    1    1    2    0    0 -0.74805034790E+00  0.12192251606E+01  0.88742570083E+00  0.24477219388E+01  0.17770000000E+01 0.  1.
         15    1    1    2    0    0  0.21653413120E+01  0.24983011349E+01 -0.68158916432E+01  0.77810230337E+01  0.17770000000E+01 0. -1.
</event>
<event>
 6    1  0.1045352E-002  0.1828619E+03  0.7546771E-02  0.1068167E+00
        -11   -1    0    0    0    0  0.00000000000E+00  0.00000000000E+00  0.18250000000E+03  0.18250000000E+03  0.00000000000E+00 0. -1.
         11   -1    0    0    0    0 -0.00000000000E+00 -0.00000000000E+00 -0.18250000000E+03  0.18250000000E+03  0.00000000000E+00 0. -1.
        -11    1    1    2    0    0 -0.12342100153E+01 -0.16660703706E+01  0.18763542257E+02  0.18877753650E+02  0.00000000000E+00 0. -1.
         11    1    1    2    0    0 -0.12328288423E+01 -0.23289828762E+01 -0.18211901137E+03  0.18213807491E+03  0.00000000000E+00 0. -1.
        -15    1    1    2    0    0  0.14313861877E+01  0.13102300084E+01  0.55465623180E+01  0.61390269294E+01  0.17770000000E+01 0.  1.
         15    1    1    2    0    0  0.10356526699E+01  0.26848232383E+01  0.15780890680E+03  0.15784514451E+03  0.17770000000E+01 0. -1.
</event>
<event>
 6    1  0.1045352E-002  0.1825631E+03  0.7546771E-02  0.1068405E+00
        -11   -1    0    0    0    0  0.00000000000E+00  0.00000000000E+00  0.18250000000E+03  0.18250000000E+03  0.00000000000E+00 0.  1.
         11   -1    0    0    0    0 -0.00000000000E+00 -0.00000000000E+00 -0.18250000000E+03  0.18250000000E+03  0.00000000000E+00 0.  1.
        -11    1    1    2    0    0  0.20182126166E+01 -0.16757962273E+01  0.18241806816E+03  0.18243692901E+03  0.00000000000E+00 0.  1.
         11    1    1    2    0    0  0.62691054366E+00  0.54279069809E+00 -0.15557353886E+02  0.15579438325E+02  0.00000000000E+00 0.  1.
        -15    1    1    2    0    0  0.11155277078E+01  0.47356868661E-01 -0.50767537827E+02  0.50810897165E+02  0.17770000000E+01 0.  1.
         15    1    1    2    0    0 -0.37606508681E+01  0.10856486606E+01 -0.11609317644E+03  0.11617273550E+03  0.17770000000E+01 0.  1.
</event>
<event>
 6    1  0.1045352E-002  0.1835566E+03  0.7546771E-02  0.1067617E+00
        -11   -1    0    0    0    0  0.00000000000E+00  0.00000000000E+00  0.18250000000E+03  0.18250000000E+03  0.00000000000E+00 0. -1.
         11   -1    0    0    0    0 -0.00000000000E+00 -0.00000000000E+00 -0.18250000000E+03  0.18250000000E+03  0.00000000000E+00 0.  1.
        -11    1    1    2    0    0 -0.78589421752E+01 -0.82843961624E+00  0.18127120742E+03  0.18144337939E+03  0.00000000000E+00 0. -1.
         11    1    1    2    0    0 -0.26321621870E+01  0.10923720171E+01 -0.74651373352E+02  0.74705750098E+02  0.00000000000E+00 0.  1.
        -15    1    1    2    0    0  0.73411139788E+01 -0.52726658806E+01 -0.96879945423E+02  0.97316876820E+02  0.17770000000E+01 0.  1.
         15    1    1    2    0    0  0.31499903834E+01  0.50087334798E+01 -0.97398886502E+01  0.11533993688E+02  0.17770000000E+01 0. -1.
</event>
<event>
 6    1  0.1098223E-002  0.1894919E+03  0.7546771E-02  0.1063022E+00
        -11   -1    0    0    0    0  0.00000000000E+00  0.00000000000E+00  0.18250000000E+03  0.18250000000E+03  0.00000000000E+00 0. -1.
         11   -1    0    0    0    0 -0.00000000000E+00 -0.00000000000E+00 -0.18250000000E+03  0.18250000000E+03  0.00000000000E+00 0.  1.
        -11    1    1    2    0    0 -0.45979151475E-01 -0.16407207796E+01  0.11741761134E+03  0.11742908298E+03  0.00000000000E+00 0. -1.
         11    1    1    2    0    0  0.37659501148E+01 -0.49082640204E-01 -0.17546763750E+03  0.17550805280E+03  0.00000000000E+00 0.  1.
        -15    1    1    2    0    0 -0.90215413125E+00 -0.15777496167E+01  0.64251563027E+02  0.64301821563E+02  0.17770000000E+01 0. -1.
         15    1    1    2    0    0 -0.28178168321E+01  0.32675530365E+01 -0.62015368672E+01  0.77610426530E+01  0.17770000000E+01 0.  1.
</event>
<event>
 6    1  0.1045352E-002  0.1936377E+03  0.7546771E-02  0.1059919E+00
        -11   -1    0    0    0    0  0.00000000000E+00  0.00000000000E+00  0.18250000000E+03  0.18250000000E+03  0.00000000000E+00 0. -1.
         11   -1    0    0    0    0 -0.00000000000E+00 -0.00000000000E+00 -0.18250000000E+03  0.18250000000E+03  0.00000000000E+00 0. -1.
        -11    1    1    2    0    0  0.24112777659E+01 -0.18046064284E+01  0.16765953863E+03  0.16768658789E+03  0.00000000000E+00 0. -1.
         11    1    1    2    0    0 -0.25512270289E+01 -0.79395333222E-01 -0.17134329871E+03  0.17136230938E+03  0.00000000000E+00 0. -1.
        -15    1    1    2    0    0  0.64333383332E+01 -0.55768162447E+01  0.10707926896E+02  0.13795149472E+02  0.17770000000E+01 0.  1.
         15    1    1    2    0    0 -0.62933890702E+01  0.74608180063E+01 -0.70241668105E+01  0.12155953261E+02  0.17770000000E+01 0. -1.
</event>
<event>
 6    1  0.1045352E-002  0.1852386E+03  0.7546771E-02  0.1066296E+00
        -11   -1    0    0    0    0  0.00000000000E+00  0.00000000000E+00  0.18250000000E+03  0.18250000000E+03  0.00000000000E+00 0.  1.
         11   -1    0    0    0    0 -0.00000000000E+00 -0.00000000000E+00 -0.18250000000E+03  0.18250000000E+03  0.00000000000E+00 0.  1.
        -11    1    1    2    0    0 -0.56663187672E+01 -0.94113372322E+01  0.28587626410E+02  0.30625688901E+02  0.00000000000E+00 0.  1.
         11    1    1    2    0    0 -0.11914705338E+02 -0.30492884032E+01 -0.17934019756E+03  0.17976141083E+03  0.00000000000E+00 0.  1.
        -15    1    1    2    0    0 -0.49467336172E+01 -0.21245070000E+00  0.60123318754E+02  0.60353015632E+02  0.17770000000E+01 0.  1.
         15    1    1    2    0    0  0.22527757722E+02  0.12673076335E+02  0.90629252399E+02  0.94259884634E+02  0.17770000000E+01 0. -1.
</event>
<event>
 6    1  0.1045352E-002  0.1827639E+03  0.7546771E-02  0.1068245E+00
        -11   -1    0    0    0    0  0.00000000000E+00  0.00000000000E+00  0.18250000000E+03  0.18250000000E+03  0.00000000000E+00 0. -1.
         11   -1    0    0    0    0 -0.00000000000E+00 -0.00000000000E+00 -0.18250000000E+03  0.18250000000E+03  0.00000000000E+00 0.  1.
        -11    1    1    2    0    0 -0.63117859082E+00  0.71064997648E+01  0.18209637770E+03  0.18223608725E+03  0.00000000000E+00 0. -1.
         11    1    1    2    0    0  0.19689046103E+01 -0.59700051365E+00 -0.12767179563E+03  0.12768837220E+03  0.00000000000E+00 0.  1.
        -15    1    1    2    0    0 -0.70688065888E+00 -0.41811436875E+01 -0.43671106666E+02  0.43912468949E+02  0.17770000000E+01 0.  1.
         15    1    1    2    0    0 -0.63084536061E+00 -0.23283555636E+01 -0.10753475398E+02  0.11163071604E+02  0.17770000000E+01 0. -1.
</event>
<event>
 6    1  0.1045352E-002  0.1827244E+03  0.7546771E-02  0.1068276E+00
        -11   -1    0    0    0    0  0.00000000000E+00  0.00000000000E+00  0.18250000000E+03  0.18250000000E+03  0.00000000000E+00 0. -1.
         11   -1    0    0    0    0 -0.00000000000E+00 -0.00000000000E+00 -0.18250000000E+03  0.18250000000E+03  0.00000000000E+00 0.  1.
        -11    1    1    2    0    0 -0.24791334711E+01 -0.11649841946E+01  0.18225500879E+03  0.18227559222E+03  0.00000000000E+00 0. -1.
         11    1    1    2    0    0 -0.79253177705E+00  0.98358595682E+00 -0.58096640246E+02  0.58110370467E+02  0.00000000000E+00 0.  1.
        -15    1    1    2    0    0 -0.23425244492E+01 -0.19618775199E+01 -0.70935780685E+02  0.71023792454E+02  0.17770000000E+01 0.  1.
         15    1    1    2    0    0  0.56141896973E+01  0.21432757576E+01 -0.53222587856E+02  0.53590244859E+02  0.17770000000E+01 0. -1.
</event>
<event>
 6    1  0.1045352E-002  0.1864915E+03  0.7546771E-02  0.1065321E+00
        -11   -1    0    0    0    0  0.00000000000E+00  0.00000000000E+00  0.18250000000E+03  0.18250000000E+03  0.00000000000E+00 0. -1.
         11   -1    0    0    0    0 -0.00000000000E+00 -0.00000000000E+00 -0.18250000000E+03  0.18250000000E+03  0.00000000000E+00 0.  1.
        -11    1    1    2    0    0 -0.10741634392E+01 -0.25557901015E+01  0.66729774863E+02  0.66787339694E+02  0.00000000000E+00 0. -1.
         11    1    1    2    0    0 -0.39917245135E+01  0.68859306858E+01 -0.17833101604E+03  0.17850854654E+03  0.00000000000E+00 0.  1.
        -15    1    1    2    0    0  0.64385084131E+01 -0.34884115554E+01  0.11516359281E+03  0.11540985332E+03  0.17770000000E+01 0. -1.
         15    1    1    2    0    0 -0.13726204604E+01 -0.84172902893E+00 -0.35623516327E+01  0.42942604534E+01  0.17770000000E+01 0.  1.
</event>
<event>
 6    1  0.1045352E-002  0.1854562E+03  0.7546771E-02  0.1066126E+00
        -11   -1    0    0    0    0  0.00000000000E+00  0.00000000000E+00  0.18250000000E+03  0.18250000000E+03  0.00000000000E+00 0. -1.
         11   -1    0    0    0    0 -0.00000000000E+00 -0.00000000000E+00 -0.18250000000E+03  0.18250000000E+03  0.00000000000E+00 0. -1.
        -11    1    1    2    0    0  0.67776957671E+00  0.22132387630E+01  0.15073327592E+03  0.15075104732E+03  0.00000000000E+00 0. -1.
         11    1    1    2    0    0  0.93476559620E+01  0.58633980951E+01 -0.17920439688E+03  0.17954379402E+03  0.00000000000E+00 0. -1.
        -15    1    1    2    0    0  0.37942383067E+01 -0.18263066441E+01  0.68496841833E+01  0.82345335446E+01  0.17770000000E+01 0. -1.
         15    1    1    2    0    0 -0.13819663845E+02 -0.62503302141E+01  0.21621436780E+02  0.26470625116E+02  0.17770000000E+01 0.  1.
</event>
<event>
 6    1  0.1045352E-002  0.1860850E+03  0.7546771E-02  0.1065636E+00
        -11   -1    0    0    0    0  0.00000000000E+00  0.00000000000E+00  0.18250000000E+03  0.18250000000E+03  0.00000000000E+00 0. -1.
         11   -1    0    0    0    0 -0.00000000000E+00 -0.00000000000E+00 -0.18250000000E+03  0.18250000000E+03  0.00000000000E+00 0. -1.
        -11    1    1    2    0    0 -0.12482403337E+01 -0.25227113677E+01  0.90036962801E+02  0.90080946082E+02  0.00000000000E+00 0. -1.
         11    1    1    2    0    0 -0.43133996967E+00  0.27467596634E+01 -0.17889335727E+03  0.17891496309E+03  0.00000000000E+00 0. -1.
        -15    1    1    2    0    0 -0.40622289115E+01 -0.66793833086E+01  0.86505064352E+02  0.86875771955E+02  0.17770000000E+01 0. -1.
         15    1    1    2    0    0  0.57418092148E+01  0.64553350129E+01  0.23513301131E+01  0.91283188753E+01  0.17770000000E+01 0.  1.
</event>
<event>
 6    1  0.1045352E-002  0.1827213E+03  0.7546771E-02  0.1068279E+00
        -11   -1    0    0    0    0  0.00000000000E+00  0.00000000000E+00  0.18250000000E+03  0.18250000000E+03  0.00000000000E+00 0. -1.
         11   -1    0    0    0    0 -0.00000000000E+00 -0.00000000000E+00 -0.18250000000E+03  0.18250000000E+03  0.00000000000E+00 0. -1.
        -11    1    1    2    0    0 -0.25927406329E+01 -0.18023269803E+01  0.18225133849E+03  0.18227869065E+03  0.00000000000E+00 0. -1.
         11    1    1    2    0    0  0.54686178673E+00  0.96993747512E-01 -0.12730001120E+02  0.12742111055E+02  0.00000000000E+00 0. -1.
        -15    1    1    2    0    0 -0.19082389170E+01  0.12213178849E+01 -0.14760035382E+03  0.14762843618E+03  0.17770000000E+01 0. -1.
         15    1    1    2    0    0  0.39541177631E+01  0.48401534789E+00 -0.21920983545E+02  0.22350762106E+02  0.17770000000E+01 0.  1.
</event>
<event>
 6    1  0.1045352E-002  0.1873326E+03  0.7546771E-02  0.1064672E+00
        -11   -1    0    0    0    0  0.00000000000E+00  0.00000000000E+00  0.18250000000E+03  0.18250000000E+03  0.00000000000E+00 0. -1.
         11   -1    0    0    0    0 -0.00000000000E+00 -0.00000000000E+00 -0.18250000000E+03  0.18250000000E+03  0.00000000000E+00 0.  1.
        -11    1    1    2    0    0  0.20407937369E+01  0.26244596113E+01  0.16813186208E+03  0.16816472779E+03  0.00000000000E+00 0. -1.
         11    1    1    2    0    0  0.90679654977E+01 -0.42092623438E+00 -0.17743533519E+03  0.17766739529E+03  0.00000000000E+00 0.  1.
        -15    1    1    2    0    0  0.17955894851E+00 -0.28707251812E+01  0.65857068216E+01  0.74028756454E+01  0.17770000000E+01 0. -1.
         15    1    1    2    0    0 -0.11288318183E+02  0.66719180428E+00  0.27177662903E+01  0.11765001271E+02  0.17770000000E+01 0.  1.
</event>
<event>
 6    1  0.1045352E-002  0.1847388E+03  0.7546771E-02  0.1066687E+00
        -11   -1    0    0    0    0  0.00000000000E+00  0.00000000000E+00  0.18250000000E+03  0.18250000000E+03  0.00000000000E+00 0.  1.
         11   -1    0    0    0    0 -0.00000000000E+00 -0.00000000000E+00 -0.18250000000E+03  0.18250000000E+03  0.00000000000E+00 0.  1.
        -11    1    1    2    0    0 -0.44422640386E+01  0.18649356861E+01  0.18019679096E+03  0.18026118597E+03  0.00000000000E+00 0.  1.
         11    1    1    2    0    0 -0.39468239984E+01 -0.22505343462E+01 -0.88580466655E+02  0.88696907485E+02  0.00000000000E+00 0.  1.
        -15    1    1    2    0    0  0.59679072793E+01  0.10205484165E+01 -0.23661816334E+01  0.67389896043E+01  0.17770000000E+01 0. -1.
         15    1    1    2    0    0  0.24211807577E+01 -0.63494975643E+00 -0.89250142674E+02  0.89302916939E+02  0.17770000000E+01 0.  1.
</event>
<event>
 6    1  0.1045352E-002  0.1829537E+03  0.7546771E-02  0.1068094E+00
        -11   -1    0    0    0    0  0.00000000000E+00  0.00000000000E+00  0.18250000000E+03  0.18250000000E+03  0.00000000000E+00 0.  1.
         11   -1    0    0    0    0 -0.00000000000E+00 -0.00000000000E+00 -0.18250000000E+03  0.18250000000E+03  0.00000000000E+00 0.  1.
        -11    1    1    2    0    0  0.46826479653E+01 -0.40418607552E+01  0.18194121242E+03  0.18204633643E+03  0.00000000000E+00 0.  1.
         11    1    1    2    0    0  0.39340574675E+00 -0.28509857443E+01 -0.26890193873E+02  0.27043768494E+02  0.00000000000E+00 0.  1.
        -15    1    1    2    0    0 -0.71446732766E+01  0.74692390360E+01 -0.67096414079E+02  0.67911136047E+02  0.17770000000E+01 0. -1.
         15    1    1    2    0    0  0.20686195646E+01 -0.57639253658E+00 -0.87954604467E+02  0.87998759032E+02  0.17770000000E+01 0.  1.
</event>
<event>
 6    1  0.1045352E-002  0.1893030E+03  0.7546771E-02  0.1063165E+00
        -11   -1    0    0    0    0  0.00000000000E+00  0.00000000000E+00  0.18250000000E+03  0.18250000000E+03  0.00000000000E+00 0.  1.
         11   -1    0    0    0    0 -0.00000000000E+00 -0.00000000000E+00 -0.18250000000E+03  0.18250000000E+03  0.00000000000E+00 0.  1.
        -11    1    1    2    0    0 -0.38997915187E+01 -0.25211367995E+01  0.17563562023E+03  0.17569699940E+03  0.00000000000E+00 0.  1.
         11    1    1    2    0    0  0.27623592054E+01 -0.51153448355E+01 -0.13968567525E+03  0.13980659946E+03  0.00000000000E+00 0.  1.
        -15    1    1    2    0    0  0.40137742062E+01  0.15212395368E+02 -0.37855042154E+01  0.16279285223E+02  0.17770000000E+01 0.  1.
         15    1    1    2    0    0 -0.28763418930E+01 -0.75759137334E+01 -0.32164440759E+02  0.33217115919E+02  0.17770000000E+01 0. -1.
</event>
<event>
 6    1  0.1045352E-002  0.1902432E+03  0.7546771E-02  0.1062453E+00
        -11   -1    0    0    0    0  0.00000000000E+00  0.00000000000E+00  0.18250000000E+03  0.18250000000E+03  0.00000000000E+00 0. -1.
         11   -1    0    0    0    0 -0.00000000000E+00 -0.00000000000E+00 -0.18250000000E+03  0.18250000000E+03  0.00000000000E+00 0.  1.
        -11    1    1    2    0    0  0.18814101514E+00 -0.25920819236E+01  0.17473745375E+03  0.17475677964E+03  0.00000000000E+00 0. -1.
         11    1    1    2    0    0  0.19137995906E+01  0.62333287670E+00 -0.14451560752E+03  0.14452962323E+03  0.00000000000E+00 0.  1.
        -15    1    1    2    0    0 -0.13305443295E+01  0.31073075999E+01  0.72394717144E+01  0.81849488964E+01  0.17770000000E+01 0.  1.
         15    1    1    2    0    0 -0.77139627620E+00 -0.11385585530E+01 -0.37461317943E+02  0.37528648241E+02  0.17770000000E+01 0.  1.
</event>
<event>
 6    1  0.1045352E-002  0.1838328E+03  0.7546771E-02  0.1067399E+00
        -11   -1    0    0    0    0  0.00000000000E+00  0.00000000000E+00  0.18250000000E+03  0.18250000000E+03  0.00000000000E+00 0.  1.
         11   -1    0    0    0    0 -0.00000000000E+00 -0.00000000000E+00 -0.18250000000E+03  0.18250000000E+03  0.00000000000E+00 0. -1.
        -11    1    1    2    0    0 -0.27080379114E+01  0.33228720393E+00  0.18114666797E+03  0.18116721337E+03  0.00000000000E+00 0.  1.
         11    1    1    2    0    0  0.21288375709E+00  0.59574918262E+00 -0.48391685696E+01  0.48803472241E+01  0.00000000000E+00 0. -1.
        -15    1    1    2    0    0  0.25388084364E+01  0.66503221522E+00 -0.17652697528E+03  0.17655542628E+03  0.17770000000E+01 0. -1.
         15    1    1    2    0    0 -0.43654282109E-01 -0.15930686018E+01  0.21947587878E+00  0.23970131263E+01  0.17770000000E+01 0.  1.
</event>
<event>
 6    1  0.1045352E-002  0.1829589E+03  0.7546771E-02  0.1068090E+00
        -11   -1    0    0    0    0  0.00000000000E+00  0.00000000000E+00  0.18250000000E+03  0.18250000000E+03  0.00000000000E+00 0.  1.
         11   -1    0    0    0    0 -0.00000000000E+00 -0.00000000000E+00 -0.18250000000E+03  0.18250000000E+03  0.00000000000E+00 0. -1.
        -11    1    1    2    0    0  0.72288571047E+00  0.14525185930E+00  0.23484273510E+02  0.23495845679E+02  0.00000000000E+00 0.  1.
         11    1    1    2    0    0 -0.22585030209E+01  0.64106101324E+01 -0.18191412575E+03  0.18204105555E+03  0.00000000000E+00 0. -1.
        -15    1    1    2    0    0 -0.42783708253E+01  0.28168850895E+01  0.25799517291E+02  0.26363082520E+02  0.17770000000E+01 0. -1.
         15    1    1    2    0    0  0.58139881357E+01 -0.93727470812E+01  0.13263033495E+03  0.13310001625E+03  0.17770000000E+01 0.  1.
</event>
<event>
 6    1  0.1045352E-002  0.1854197E+03  0.7546771E-02  0.1066154E+00
        -11   -1    0    0    0    0  0.00000000000E+00  0.00000000000E+00  0.18250000000E+03  0.18250000000E+03  0.00000000000E+00 0. -1.
         11   -1    0    0    0    0 -0.00000000000E+00 -0.00000000000E+00 -0.18250000000E+03  0.18250000000E+03  0.00000000000E+00 0.  1.
        -11    1    1    2    0    0  0.47808001374E+01 -0.33435587276E+01  0.17948547727E+03  0.17958026614E+03  0.00000000000E+00 0. -1.
         11    1    1    2    0    0  0.22511640634E+01  0.87598759329E+00 -0.15410909803E+03  0.15412802856E+03  0.00000000000E+00 0.  1.
        -15    1    1    2    0    0 -0.51241153309E+01 -0.36956048686E+01 -0.18306086593E+01  0.68134360151E+01  0.17770000000E+01 0. -1.
         15    1    1    2    0    0 -0.19078488699E+01  0.61631760028E+01 -0.23545770585E+02  0.24478269285E+02  0.17770000000E+01 0.  1.
</event>
<event>
 6    1  0.1045352E-002  0.1862843E+03  0.7546771E-02  0.1065482E+00
        -11   -1    0    0    0    0  0.00000000000E+00  0.00000000000E+00  0.18250000000E+03  0.18250000000E+03  0.00000000000E+00 0.  1.
         11   -1    0    0    0    0 -0.00000000000E+00 -0.00000000000E+00 -0.18250000000E+03  0.18250000000E+03  0.00000000000E+00 0.  1.
        -11    1    1    2    0    0  0.63455181552E+01  0.35530800620E+00  0.65311098200E+02  0.65619596102E+02  0.00000000000E+00 0.  1.
         11    1    1    2    0    0  0.19414134506E+01 -0.21648576484E+01 -0.17869205168E+03  0.17871571008E+03  0.00000000000E+00 0.  1.
        -15    1    1    2    0    0  0.42590924208E+00 -0.74476666764E+00 -0.31771070400E+01  0.37400286383E+01  0.17770000000E+01 0. -1.
         15    1    1    2    0    0 -0.87128408479E+01  0.25543163099E+01  0.11655806052E+03  0.11692466518E+03  0.17770000000E+01 0.  1.
</event>
<event>
 6    1  0.1045352E-002  0.1831195E+03  0.7546771E-02  0.1067963E+00
        -11   -1    0    0    0    0  0.00000000000E+00  0.00000000000E+00  0.18250000000E+03  0.18250000000E+03  0.00000000000E+00 0.  1.
         11   -1    0    0    0    0 -0.00000000000E+00 -0.00000000000E+00 -0.18250000000E+03  0.18250000000E+03  0.00000000000E+00 0. -1.
        -11    1    1    2    0    0  0.89308209425E+00  0.41155405481E+01  0.14632043220E+03  0.14638102387E+03  0.00000000000E+00 0.  1.
         11    1    1    2    0    0  0.19907387098E+01 -0.14735542839E+01 -0.18186367913E+03  0.18188054374E+03  0.00000000000E+00 0. -1.
        -15    1    1    2    0    0 -0.28009036166E+01  0.18487851724E+01  0.22728678213E+02  0.23043732553E+02  0.17770000000E+01 0. -1.
         15    1    1    2    0    0 -0.82917187414E-01 -0.44907714366E+01  0.12814568717E+02  0.13694699842E+02  0.17770000000E+01 0.  1.
</event>
<event>
 6    1  0.1045352E-002  0.1837229E+03  0.7546771E-02  0.1067486E+00
        -11   -1    0    0    0    0  0.00000000000E+00  0.00000000000E+00  0.18250000000E+03  0.18250000000E+03  0.00000000000E+00 0.  1.
         11   -1    0    0    0    0 -0.00000000000E+00 -0.00000000000E+00 -0.18250000000E+03  0.18250000000E+03  0.00000000000E+00 0.  1.
        -11    1    1    2    0    0  0.62714787925E+00  0.20106775809E+01  0.14256366936E+03  0.14257922696E+03  0.00000000000E+00 0.  1.
         11    1    1    2    0    0 -0.47525200656E+01 -0.18700218498E+00 -0.18121472024E+03  0.18127712555E+03  0.00000000000E+00 0.  1.
        -15    1    1    2    0    0 -0.41603337382E+01  0.17346700471E+01  0.15304740470E+02  0.16053356871E+02  0.17770000000E+01 0. -1.
         15    1    1    2    0    0  0.82857059246E+01 -0.35583454430E+01  0.23346310406E+02  0.25090290623E+02  0.17770000000E+01 0.  1.
</event>
<event>
 6    1  0.1045352E-002  0.1964486E+03  0.7546771E-02  0.1057864E+00
        -11   -1    0    0    0    0  0.00000000000E+00  0.00000000000E+00  0.18250000000E+03  0.18250000000E+03  0.00000000000E+00 0. -1.
         11   -1    0    0    0    0 -0.00000000000E+00 -0.00000000000E+00 -0.18250000000E+03  0.18250000000E+03  0.00000000000E+00 0.  1.
        -11    1    1    2    0    0 -0.11146326434E+02 -0.29412711310E+02  0.16559051381E+03  0.16855137627E+03  0.00000000000E+00 0. -1.
         11    1    1    2    0    0 -0.14365023206E+01 -0.13486454399E+02 -0.12281910807E+03  0.12356569628E+03  0.00000000000E+00 0.  1.
        -15    1    1    2    0    0 -0.59756493667E+01  0.20957075374E+02 -0.66686926961E+00  0.21874867708E+02  0.17770000000E+01 0.  1.
         15    1    1    2    0    0  0.18558478121E+02  0.21942090335E+02 -0.42104536467E+02  0.51008059741E+02  0.17770000000E+01 0. -1.
</event>
<event>
 6    1  0.1045352E-002  0.1827021E+03  0.7546771E-02  0.1068294E+00
        -11   -1    0    0    0    0  0.00000000000E+00  0.00000000000E+00  0.18250000000E+03  0.18250000000E+03  0.00000000000E+00 0.  1.
         11   -1    0    0    0    0 -0.00000000000E+00 -0.00000000000E+00 -0.18250000000E+03  0.18250000000E+03  0.00000000000E+00 0.  1.
        -11    1    1    2    0    0 -0.28813953557E+01  0.57529158029E+00  0.18227424035E+03  0.18229792126E+03  0.00000000000E+00 0.  1.
         11    1    1    2    0    0  0.21942206630E+01 -0.13156542370E+01 -0.16026517433E+03  0.16028559403E+03  0.00000000000E+00 0.  1.
        -15    1    1    2    0    0  0.81604846328E-01  0.13008856689E+01 -0.93171105631E+01  0.95741966305E+01  0.17770000000E+01 0. -1.
         15    1    1    2    0    0  0.60556984632E+00 -0.56052301212E+00 -0.12691955452E+02  0.12842288078E+02  0.17770000000E+01 0. -1.
</event>
<event>
 6    1  0.1045352E-002  0.1842864E+03  0.7546771E-02  0.1067042E+00
        -11   -1    0    0    0    0  0.00000000000E+00  0.00000000000E+00  0.18250000000E+03  0.18250000000E+03  0.00000000000E+00 0. -1.
         11   -1    0    0    0    0 -0.00000000000E+00 -0.00000000000E+00 -0.18250000000E+03  0.18250000000E+03  0.00000000000E+00 0. -1.
        -11    1    1    2    0    0 -0.35478248008E+01 -0.13935488658E+01  0.18067341946E+03  0.18071362300E+03  0.00000000000E+00 0. -1.
         11    1    1    2    0    0 -0.62271499107E+01 -0.42504646042E+01 -0.13016919857E+03  0.13038736174E+03  0.00000000000E+00 0. -1.
        -15    1    1    2    0    0  0.45778619424E+01  0.32508705882E+01 -0.42603390949E+01  0.72686448357E+01  0.17770000000E+01 0.  1.
         15    1    1    2    0    0  0.51971127691E+01  0.23931428818E+01 -0.46243881792E+02  0.46630370427E+02  0.17770000000E+01 0.  1.
</event>
<event>
 6    1  0.1045352E-002  0.1931648E+03  0.7546771E-02  0.1060269E+00
        -11   -1    0    0    0    0  0.00000000000E+00  0.00000000000E+00  0.18250000000E+03  0.18250000000E+03  0.00000000000E+00 0.  1.
         11   -1    0    0    0    0 -0.00000000000E+00 -0.00000000000E+00 -0.18250000000E+03  0.18250000000E+03  0.00000000000E+00 0.  1.
        -11    1    1    2    0    0  0.54372315145E+01 -0.36273407045E+01  0.17171082554E+03  0.17183517886E+03  0.00000000000E+00 0.  1.
         11    1    1    2    0    0  0.45620725040E+01  0.18631649044E+01 -0.15554265362E+03  0.15562069587E+03  0.00000000000E+00 0.  1.
        -15    1    1    2    0    0  0.44019463117E+00  0.44235498159E+01  0.89530879265E+01  0.10152688152E+02  0.17770000000E+01 0. -1.
         15    1    1    2    0    0 -0.10439498650E+02 -0.26593740159E+01 -0.25121259846E+02  0.27391437119E+02  0.17770000000E+01 0.  1.
</event>
<event>
 6    1  0.1045352E-002  0.1828474E+03  0.7546771E-02  0.1068179E+00
        -11   -1    0    0    0    0  0.00000000000E+00  0.00000000000E+00  0.18250000000E+03  0.18250000000E+03  0.00000000000E+00 0.  1.
         11   -1    0    0    0    0 -0.00000000000E+00 -0.00000000000E+00 -0.18250000000E+03  0.18250000000E+03  0.00000000000E+00 0. -1.
        -11    1    1    2    0    0 -0.23478752156E+01  0.98627182098E+00  0.12429701911E+03  0.12432310409E+03  0.00000000000E+00 0.  1.
         11    1    1    2    0    0 -0.74971663300E+00  0.32317836076E+01 -0.18212242507E+03  0.18215263988E+03  0.00000000000E+00 0. -1.
        -15    1    1    2    0    0  0.71206541083E+00 -0.54242300636E+01  0.33911131761E+02  0.34395521442E+02  0.17770000000E+01 0.  1.
         15    1    1    2    0    0  0.23855264378E+01  0.12061746350E+01  0.23914274199E+02  0.24128734594E+02  0.17770000000E+01 0. -1.
</event>
<event>
 6    1  0.1045352E-002  0.1855301E+03  0.7546771E-02  0.1066068E+00
        -11   -1    0    0    0    0  0.00000000000E+00  0.00000000000E+00  0.18250000000E+03  0.18250000000E+03  0.00000000000E+00 0. -1.
         11   -1    0    0    0    0 -0.00000000000E+00 -0.00000000000E+00 -0.18250000000E+03  0.18250000000E+03  0.00000000000E+00 0. -1.
        -11    1    1    2    0    0  0.19799734828E+01 -0.22850861699E+01  0.17944447878E+03  0.17946994979E+03  0.00000000000E+00 0. -1.
         11    1    1    2    0    0 -0.11201983386E+02  0.43249358377E+01 -0.11108524983E+03  0.11173236877E+03  0.00000000000E+00 0. -1.
        -15    1    1    2    0    0  0.14781330793E+02 -0.36358394643E+01 -0.65190145269E+02  0.66967304244E+02  0.17770000000E+01 0.  1.
         15    1    1    2    0    0 -0.55593208897E+01  0.15959897964E+01 -0.31690836868E+01  0.68303771930E+01  0.17770000000E+01 0. -1.
</event>
<event>
 6    1  0.1045352E-002  0.1851723E+03  0.7546771E-02  0.1066347E+00
        -11   -1    0    0    0    0  0.00000000000E+00  0.00000000000E+00  0.18250000000E+03  0.18250000000E+03  0.00000000000E+00 0. -1.
         11   -1    0    0    0    0 -0.00000000000E+00 -0.00000000000E+00 -0.18250000000E+03  0.18250000000E+03  0.00000000000E+00 0.  1.
        -11    1    1    2    0    0 -0.22410041086E+01 -0.14980495854E+00  0.16146748671E+03  0.16148310687E+03  0.00000000000E+00 0. -1.
         11    1    1    2    0    0  0.79134228856E+00 -0.26168683262E+01 -0.17980695017E+03  0.17982773299E+03  0.00000000000E+00 0.  1.
        -15    1    1    2    0    0 -0.21884516301E+01 -0.85313211864E+00  0.18008762549E+02  0.18248024893E+02  0.17770000000E+01 0.  1.
         15    1    1    2    0    0  0.36381134501E+01  0.36198054034E+01  0.33070091141E+00  0.54411352425E+01  0.17770000000E+01 0. -1.
</event>
<event>
 6    1  0.1045352E-002  0.1765443E+03  0.7546771E-02  0.1073297E+00
        -11   -1    0    0    0    0  0.00000000000E+00  0.00000000000E+00  0.18250000000E+03  0.18250000000E+03  0.00000000000E+00 0.  1.
         11   -1    0    0    0    0 -0.00000000000E+00 -0.00000000000E+00 -0.18250000000E+03  0.18250000000E+03  0.00000000000E+00 0.  1.
        -11    1    1    2    0    0  0.72575053462E+00 -0.39764157680E+00  0.13710985845E+02  0.13735937009E+02  0.00000000000E+00 0.  1.
         11    1    1    2    0    0 -0.79608081809E-01  0.28478013711E+01 -0.18137846330E+03  0.18140083588E+03  0.00000000000E+00 0.  1.
        -15    1    1    2    0    0  0.12376888151E+02 -0.20380538708E+01  0.55502006637E+02  0.56929530945E+02  0.17770000000E+01 0. -1.
         15    1    1    2    0    0 -0.13023030603E+02 -0.41210592351E+00  0.11216547081E+03  0.11293369617E+03  0.17770000000E+01 0.  1.
</event>
<event>
 6    1  0.1045352E-002  0.1829036E+03  0.7546771E-02  0.1068134E+00
        -11   -1    0    0    0    0  0.00000000000E+00  0.00000000000E+00  0.18250000000E+03  0.18250000000E+03  0.00000000000E+00 0. -1.
         11   -1    0    0    0    0 -0.00000000000E+00 -0.00000000000E+00 -0.18250000000E+03  0.18250000000E+03  0.00000000000E+00 0. -1.
        -11    1    1    2    0    0  0.38503416424E+01 -0.15762664084E+00  0.13399533051E+03  0.13405073135E+03  0.00000000000E+00 0. -1.
         11    1    1    2    0    0  0.31400211017E+01  0.11059150251E+01 -0.18206595471E+03  0.18209638833E+03  0.00000000000E+00 0. -1.
        -15    1    1    2    0    0 -0.13108530366E+01 -0.15600376680E+01  0.16591833246E+02  0.16810672583E+02  0.17770000000E+01 0. -1.
         15    1    1    2    0    0 -0.56795097076E+01  0.61174928376E+00  0.31478790954E+02  0.32042207737E+02  0.17770000000E+01 0.  1.
</event>
<event>
 6    1  0.1045352E-002  0.1837578E+03  0.7546771E-02  0.1067458E+00
        -11   -1    0    0    0    0  0.00000000000E+00  0.00000000000E+00  0.18250000000E+03  0.18250000000E+03  0.00000000000E+00 0.  1.
         11   -1    0    0    0    0 -0.00000000000E+00 -0.00000000000E+00 -0.18250000000E+03  0.18250000000E+03  0.00000000000E+00 0.  1.
        -11    1    1    2    0    0 -0.27076583239E+00  0.19961588378E+01  0.57071062388E+02  0.57106603176E+02  0.00000000000E+00 0.  1.
         11    1    1    2    0    0  0.64198256295E+00 -0.51800672894E+01 -0.18116702990E+03  0.18124220800E+03  0.00000000000E+00 0.  1.
        -15    1    1    2    0    0  0.22892638957E+01  0.38280658940E+01  0.33345075900E+01  0.58456383348E+01  0.17770000000E+01 0. -1.
         15    1    1    2    0    0 -0.26604806263E+01 -0.64415744245E+00  0.12076145992E+03  0.12080555048E+03  0.17770000000E+01 0.  1.
</event>
<event>
 6    1  0.1045352E-002  0.1919090E+03  0.7546771E-02  0.1061203E+00
        -11   -1    0    0    0    0  0.00000000000E+00  0.00000000000E+00  0.18250000000E+03  0.18250000000E+03  0.00000000000E+00 0. -1.
         11   -1    0    0    0    0 -0.00000000000E+00 -0.00000000000E+00 -0.18250000000E+03  0.18250000000E+03  0.00000000000E+00 0. -1.
        -11    1    1    2    0    0  0.46044328093E+01 -0.20975321396E+01  0.17301706210E+03  0.17309102871E+03  0.00000000000E+00 0. -1.
         11    1    1    2    0    0 -0.12374081196E+01  0.19469734183E+01 -0.13750218720E+03  0.13752153784E+03  0.00000000000E+00 0. -1.
        -15    1    1    2    0    0 -0.28179655642E+01  0.18212257612E+02 -0.55109707610E+01  0.19317240615E+02  0.17770000000E+01 0.  1.
         15    1    1    2    0    0 -0.54905912555E+00 -0.18061698891E+02 -0.30003904140E+02  0.35070192834E+02  0.17770000000E+01 0. -1.
</event>
<event>
 6    1  0.1045352E-002  0.1832658E+03  0.7546771E-02  0.1067847E+00
        -11   -1    0    0    0    0  0.00000000000E+00  0.00000000000E+00  0.18250000000E+03  0.18250000000E+03  0.00000000000E+00 0.  1.
         11   -1    0    0    0    0 -0.00000000000E+00 -0.00000000000E+00 -0.18250000000E+03  0.18250000000E+03  0.00000000000E+00 0. -1.
        -11    1    1    2    0    0  0.11207724401E+01  0.29361017760E+01  0.18170703598E+03  0.18173421183E+03  0.00000000000E+00 0.  1.
         11    1    1    2    0    0 -0.28725983436E+01 -0.29884235010E+01 -0.16741737861E+03  0.16746868709E+03  0.00000000000E+00 0. -1.
        -15    1    1    2    0    0 -0.11739910971E+01 -0.18234096532E+01 -0.52802290309E+01  0.59784300178E+01  0.17770000000E+01 0. -1.
         15    1    1    2    0    0  0.29258170005E+01  0.18757313783E+01 -0.90094283432E+01  0.98186710606E+01  0.17770000000E+01 0. -1.
</event>
<event>
 6    1  0.1045352E-002  0.1601906E+03  0.7546771E-02  0.1087745E+00
        -11   -1    0    0    0    0  0.00000000000E+00  0.00000000000E+00  0.18250000000E+03  0.18250000000E+03  0.00000000000E+00 0.  1.
         11   -1    0    0    0    0 -0.00000000000E+00 -0.00000000000E+00 -0.18250000000E+03  0.18250000000E+03  0.00000000000E+00 0.  1.
        -11    1    1    2    0    0 -0.11750902721E+02 -0.13378782659E+02  0.16071343611E+03  0.16169688954E+03  0.00000000000E+00 0.  1.
         11    1    1    2    0    0 -0.58990411102E+01 -0.11563825689E+02 -0.15961303054E+03  0.16014006453E+03  0.00000000000E+00 0.  1.
        -15    1    1    2    0    0  0.44543441077E+00  0.19522185053E+02  0.98949991638E+01  0.21963216033E+02  0.17770000000E+01 0. -1.
         15    1    1    2    0    0  0.17204509421E+02  0.54204232942E+01 -0.10995404739E+02  0.21199829893E+02  0.17770000000E+01 0.  1.
</event>
<event>
 6    1  0.1045352E-002  0.1826097E+03  0.7546771E-02  0.1068368E+00
        -11   -1    0    0    0    0  0.00000000000E+00  0.00000000000E+00  0.18250000000E+03  0.18250000000E+03  0.00000000000E+00 0. -1.
         11   -1    0    0    0    0 -0.00000000000E+00 -0.00000000000E+00 -0.18250000000E+03  0.18250000000E+03  0.00000000000E+00 0.  1.
        -11    1    1    2    0    0 -0.34027136765E+00  0.33352150131E+01  0.18235946328E+03  0.18239027741E+03  0.00000000000E+00 0. -1.
         11    1    1    2    0    0  0.12096297538E+01 -0.17851552475E+01 -0.11857707061E+03  0.11859667642E+03  0.00000000000E+00 0.  1.
        -15    1    1    2    0    0  0.12295810237E+01 -0.32045243930E+00 -0.18084673633E+02  0.18216138688E+02  0.17770000000E+01 0. -1.
         15    1    1    2    0    0 -0.20989394099E+01 -0.12296073263E+01 -0.45697719044E+02  0.45796907490E+02  0.17770000000E+01 0.  1.
</event>
<event>
 6    1  0.1045352E-002  0.1826223E+03  0.7546771E-02  0.1068358E+00
        -11   -1    0    0    0    0  0.00000000000E+00  0.00000000000E+00  0.18250000000E+03  0.18250000000E+03  0.00000000000E+00 0. -1.
         11   -1    0    0    0    0 -0.00000000000E+00 -0.00000000000E+00 -0.18250000000E+03  0.18250000000E+03  0.00000000000E+00 0. -1.
        -11    1    1    2    0    0 -0.23971922452E+01 -0.28421860894E+01  0.18233982974E+03  0.18237773455E+03  0.00000000000E+00 0. -1.
         11    1    1    2    0    0  0.92780148636E+00 -0.10809127781E+01 -0.10183368323E+03  0.10184364599E+03  0.00000000000E+00 0. -1.
        -15    1    1    2    0    0  0.13655692591E+00  0.32096340129E+01 -0.64378381720E+02  0.64482975739E+02  0.17770000000E+01 0. -1.
         15    1    1    2    0    0  0.13328338329E+01  0.71346485450E+00 -0.16127764788E+02  0.16295643718E+02  0.17770000000E+01 0.  1.
</event>
<event>
 6    1  0.1045352E-002  0.1865446E+03  0.7546771E-02  0.1065280E+00
        -11   -1    0    0    0    0  0.00000000000E+00  0.00000000000E+00  0.18250000000E+03  0.18250000000E+03  0.00000000000E+00 0.  1.
         11   -1    0    0    0    0 -0.00000000000E+00 -0.00000000000E+00 -0.18250000000E+03  0.18250000000E+03  0.00000000000E+00 0.  1.
        -11    1    1    2    0    0  0.83142317951E+00 -0.48358913133E+01  0.15854751517E+03  0.15862342727E+03  0.00000000000E+00 0.  1.
         11    1    1    2    0    0 -0.81710386965E+01 -0.68466466830E+01 -0.17813672659E+03  0.17845541685E+03  0.00000000000E+00 0.  1.
        -15    1    1    2    0    0  0.34181280260E+01  0.35401650893E+01 -0.10352775966E+01  0.53334694865E+01  0.17770000000E+01 0. -1.
         15    1    1    2    0    0  0.39214874910E+01  0.81423729071E+01  0.20624489012E+02  0.22587686395E+02  0.17770000000E+01 0.  1.
</event>
<event>
 6    1  0.1045352E-002  0.1838441E+03  0.7546771E-02  0.1067390E+00
        -11   -1    0    0    0    0  0.00000000000E+00  0.00000000000E+00  0.18250000000E+03  0.18250000000E+03  0.00000000000E+00 0.  1.
         11   -1    0    0    0    0 -0.00000000000E+00 -0.00000000000E+00 -0.18250000000E+03  0.18250000000E+03  0.00000000000E+00 0.  1.
        -11    1    1    2    0    0 -0.36772037138E+01  0.11915708957E+01  0.18111468097E+03  0.18115592547E+03  0.00000000000E+00 0.  1.
         11    1    1    2    0    0 -0.11965958965E+01  0.48444001229E+01 -0.12977313471E+03  0.12986903614E+03  0.00000000000E+00 0.  1.
        -15    1    1    2    0    0 -0.27194118137E+01 -0.26303421011E+01 -0.37462478977E+02  0.37694946084E+02  0.17770000000E+01 0. -1.
         15    1    1    2    0    0  0.75932114239E+01 -0.34056289175E+01 -0.13879067282E+02  0.16280092311E+02  0.17770000000E+01 0.  1.
</event>
<event>
 6    1  0.1045352E-002  0.1828219E+03  0.7546771E-02  0.1068199E+00
        -11   -1    0    0    0    0  0.00000000000E+00  0.00000000000E+00  0.18250000000E+03  0.18250000000E+03  0.00000000000E+00 0. -1.
         11   -1    0    0    0    0 -0.00000000000E+00 -0.00000000000E+00 -0.18250000000E+03  0.18250000000E+03  0.00000000000E+00 0.  1.
        -11    1    1    2    0    0  0.23402635675E+01 -0.21303780429E+01  0.18215059506E+03  0.18217808492E+03  0.00000000000E+00 0. -1.
         11    1    1    2    0    0 -0.21481508492E+01  0.16107140464E+01 -0.15234002311E+03  0.15236368201E+03  0.00000000000E+00 0.  1.
        -15    1    1    2    0    0 -0.13069302305E+01  0.34210116861E+00 -0.26074222599E+02  0.26169599022E+02  0.17770000000E+01 0.  1.
         15    1    1    2    0    0  0.11148175122E+01  0.17756282788E+00 -0.37363493437E+01  0.42886340554E+01  0.17770000000E+01 0.  1.
</event>
<event>
 6    1  0.1045352E-002  0.1831817E+03  0.7546771E-02  0.1067913E+00
        -11   -1    0    0    0    0  0.00000000000E+00  0.00000000000E+00  0.18250000000E+03  0.18250000000E+03  0.00000000000E+00 0. -1.
         11   -1    0    0    0    0 -0.00000000000E+00 -0.00000000000E+00 -0.18250000000E+03  0.18250000000E+03  0.00000000000E+00 0.  1.
        -11    1    1    2    0    0  0.25170029083E+01  0.68284743397E+01  0.18167256211E+03  0.18181826968E+03  0.00000000000E+00 0. -1.
         11    1    1    2    0    0  0.49879443629E+00 -0.25809912466E+01 -0.12124346288E+03  0.12127195720E+03  0.00000000000E+00 0.  1.
        -15    1    1    2    0    0 -0.40020616832E+01 -0.49217564040E+01 -0.14449761077E+02  0.15880601625E+02  0.17770000000E+01 0.  1.
         15    1    1    2    0    0  0.98626433856E+00  0.67427331084E+00 -0.45979338162E+02  0.46029171496E+02  0.17770000000E+01 0. -1.
</event>
<event>
 6    1  0.1045352E-002  0.1830374E+03  0.7546771E-02  0.1068028E+00
        -11   -1    0    0    0    0  0.00000000000E+00  0.00000000000E+00  0.18250000000E+03  0.18250000000E+03  0.00000000000E+00 0. -1.
         11   -1    0    0    0    0 -0.00000000000E+00 -0.00000000000E+00 -0.18250000000E+03  0.18250000000E+03  0.00000000000E+00 0.  1.
        -11    1    1    2    0    0 -0.30325040127E+01  0.13464317319E+01  0.14950299731E+03  0.14953981130E+03  0.00000000000E+00 0. -1.
         11    1    1    2    0    0  0.46774672357E+00 -0.24446467375E+01 -0.18194555849E+03  0.18196258225E+03  0.00000000000E+00 0.  1.
        -15    1    1    2    0    0  0.43940166441E+01 -0.11253062200E+01  0.16726538963E+02  0.17421496234E+02  0.17770000000E+01 0.  1.
         15    1    1    2    0    0 -0.18292593549E+01  0.22235212256E+01  0.15716022212E+02  0.16076110213E+02  0.17770000000E+01 0. -1.
</event>
<event>
 6    1  0.1045352E-002  0.1836045E+03  0.7546771E-02  0.1067579E+00
        -11   -1    0    0    0    0  0.00000000000E+00  0.00000000000E+00  0.18250000000E+03  0.18250000000E+03  0.00000000000E+00 0. -1.
         11   -1    0    0    0    0 -0.00000000000E+00 -0.00000000000E+00 -0.18250000000E+03  0.18250000000E+03  0.00000000000E+00 0. -1.
        -11    1    1    2    0    0  0.27464431232E+01  0.14161003884E+01  0.18136917111E+03  0.18139549201E+03  0.00000000000E+00 0. -1.
         11    1    1    2    0    0  0.17098333843E+01  0.15421953344E+01 -0.12374617195E+03  0.12376759257E+03  0.00000000000E+00 0. -1.
        -15    1    1    2    0    0 -0.84744503133E+01 -0.92313629999E+00 -0.50363642770E+02  0.51110886617E+02  0.17770000000E+01 0.  1.
         15    1    1    2    0    0  0.40181738058E+01 -0.20351594227E+01 -0.72593563872E+01  0.87260288084E+01  0.17770000000E+01 0.  1.
</event>
<event>
 6    1  0.1045352E-002  0.2063513E+03  0.7546771E-02  0.1050910E+00
        -11   -1    0    0    0    0  0.00000000000E+00  0.00000000000E+00  0.18250000000E+03  0.18250000000E+03  0.00000000000E+00 0.  1.
         11   -1    0    0    0    0 -0.00000000000E+00 -0.00000000000E+00 -0.18250000000E+03  0.18250000000E+03  0.00000000000E+00 0.  1.
        -11    1    1    2    0    0 -0.20932427840E+01 -0.16826387205E+01  0.15862599669E+03  0.15864873074E+03  0.00000000000E+00 0.  1.
         11    1    1    2    0    0  0.34661975256E+00 -0.21532007677E+01 -0.11745344037E+03  0.11747368672E+03  0.00000000000E+00 0.  1.
        -15    1    1    2    0    0  0.16057334827E+02  0.10530300115E+02  0.18740870641E+02  0.26890577972E+02  0.17770000000E+01 0.  1.
         15    1    1    2    0    0 -0.14310711796E+02 -0.66944606267E+01 -0.59913426967E+02  0.61987004567E+02  0.17770000000E+01 0. -1.
</event>
<event>
 6    1  0.1045352E-002  0.1852537E+03  0.7546771E-02  0.1066284E+00
        -11   -1    0    0    0    0  0.00000000000E+00  0.00000000000E+00  0.18250000000E+03  0.18250000000E+03  0.00000000000E+00 0.  1.
         11   -1    0    0    0    0 -0.00000000000E+00 -0.00000000000E+00 -0.18250000000E+03  0.18250000000E+03  0.00000000000E+00 0. -1.
        -11    1    1    2    0    0  0.14441690078E+01 -0.24863462365E+01  0.16064857032E+03  0.16067430002E+03  0.00000000000E+00 0.  1.
         11    1    1    2    0    0  0.51200149146E+01 -0.21043925962E+01 -0.17966106766E+03  0.17974632751E+03  0.00000000000E+00 0. -1.
        -15    1    1    2    0    0 -0.20108962467E+01  0.87378552725E+01  0.10455208954E+02  0.13887510279E+02  0.17770000000E+01 0. -1.
         15    1    1    2    0    0 -0.45532876757E+01 -0.41471164398E+01  0.85572883904E+01  0.10691862187E+02  0.17770000000E+01 0.  1.
</event>
<event>
 6    1  0.1045352E-002  0.1838057E+03  0.7546771E-02  0.1067420E+00
        -11   -1    0    0    0    0  0.00000000000E+00  0.00000000000E+00  0.18250000000E+03  0.18250000000E+03  0.00000000000E+00 0.  1.
         11   -1    0    0    0    0 -0.00000000000E+00 -0.00000000000E+00 -0.18250000000E+03  0.18250000000E+03  0.00000000000E+00 0. -1.
        -11    1    1    2    0    0 -0.41684806985E+01  0.23407746565E+01  0.15930627711E+03  0.15937799529E+03  0.00000000000E+00 0.  1.
         11    1    1    2    0    0  0.22421058239E+01  0.63677259650E+01 -0.18106852268E+03  0.18119432904E+03  0.00000000000E+00 0. -1.
        -15    1    1    2    0    0  0.30650183169E+01 -0.80799954701E+01  0.16224516995E+02  0.18468171128E+02  0.17770000000E+01 0. -1.
         15    1    1    2    0    0 -0.11386434424E+01 -0.62850515137E+00  0.55377285708E+01  0.59595045380E+01  0.17770000000E+01 0.  1.
</event>
<event>
 6    1  0.1045352E-002  0.1855040E+03  0.7546771E-02  0.1066088E+00
        -11   -1    0    0    0    0  0.00000000000E+00  0.00000000000E+00  0.18250000000E+03  0.18250000000E+03  0.00000000000E+00 0. -1.
         11   -1    0    0    0    0 -0.00000000000E+00 -0.00000000000E+00 -0.18250000000E+03  0.18250000000E+03  0.00000000000E+00 0. -1.
        -11    1    1    2    0    0 -0.46514587547E+01  0.77342960093E+00  0.17943406113E+03  0.17949600708E+03  0.00000000000E+00 0. -1.
         11    1    1    2    0    0 -0.16960700600E+01  0.20541583091E+01 -0.14766355561E+03  0.14768758200E+03  0.00000000000E+00 0. -1.
        -15    1    1    2    0    0  0.25061963001E+01  0.81578245974E+01 -0.12662524860E+02  0.15372975863E+02  0.17770000000E+01 0.  1.
         15    1    1    2    0    0  0.38413325146E+01 -0.10985412507E+02 -0.19107980660E+02  0.22443435061E+02  0.17770000000E+01 0. -1.
</event>
<event>
 6    1  0.1045352E-002  0.1847469E+03  0.7546771E-02  0.1066680E+00
        -11   -1    0    0    0    0  0.00000000000E+00  0.00000000000E+00  0.18250000000E+03  0.18250000000E+03  0.00000000000E+00 0. -1.
         11   -1    0    0    0    0 -0.00000000000E+00 -0.00000000000E+00 -0.18250000000E+03  0.18250000000E+03  0.00000000000E+00 0. -1.
        -11    1    1    2    0    0 -0.96321961970E+00 -0.91000156369E-01  0.59228670133E+02  0.59236571801E+02  0.00000000000E+00 0. -1.
         11    1    1    2    0    0  0.11113578795E+01  0.10034500093E+02 -0.17997019600E+03  0.18025314909E+03  0.00000000000E+00 0. -1.
        -15    1    1    2    0    0  0.33566610964E+01  0.90566015085E+01  0.14507253683E+02  0.17518771162E+02  0.17770000000E+01 0.  1.
         15    1    1    2    0    0 -0.35047993562E+01 -0.19000101445E+02  0.10623427218E+03  0.10799150795E+03  0.17770000000E+01 0. -1.
</event>
<event>
 6    1  0.1045352E-002  0.1837754E+03  0.7546771E-02  0.1067444E+00
        -11   -1    0    0    0    0  0.00000000000E+00  0.00000000000E+00  0.18250000000E+03  0.18250000000E+03  0.00000000000E+00 0.  1.
         11   -1    0    0    0    0 -0.00000000000E+00 -0.00000000000E+00 -0.18250000000E+03  0.18250000000E+03  0.00000000000E+00 0. -1.
        -11    1    1    2    0    0 -0.50173480823E+00 -0.35638620994E+01  0.18118883828E+03  0.18122457882E+03  0.00000000000E+00 0.  1.
         11    1    1    2    0    0 -0.26959128077E+01 -0.28900849466E+01 -0.11157594409E+03  0.11164592172E+03  0.00000000000E+00 0. -1.
        -15    1    1    2    0    0  0.80363298720E+00  0.17884583616E+00  0.20285852177E+00  0.19689317893E+01  0.17770000000E+01 0.  1.
         15    1    1    2    0    0  0.23940146287E+01  0.62751012099E+01 -0.69815752704E+02  0.70160567671E+02  0.17770000000E+01 0. -1.
</event>
<event>
 6    1  0.1109259E-002  0.1694389E+03  0.7546771E-02  0.1079355E+00
        -11   -1    0    0    0    0  0.00000000000E+00  0.00000000000E+00  0.18250000000E+03  0.18250000000E+03  0.00000000000E+00 0.  1.
         11   -1    0    0    0    0 -0.00000000000E+00 -0.00000000000E+00 -0.18250000000E+03  0.18250000000E+03  0.00000000000E+00 0.  1.
        -11    1    1    2    0    0 -0.41473052652E+01  0.56139522020E+00  0.16741319047E+03  0.16746549391E+03  0.00000000000E+00 0.  1.
         11    1    1    2    0    0  0.35433991146E+01  0.10844530681E+02 -0.17124675972E+03  0.17162637396E+03  0.00000000000E+00 0.  1.
        -15    1    1    2    0    0 -0.18535965747E+01 -0.83146599092E+01 -0.89066017610E+01  0.12452095149E+02  0.17770000000E+01 0.  1.
         15    1    1    2    0    0  0.24575027252E+01 -0.30912659921E+01  0.12740171010E+02  0.13456036989E+02  0.17770000000E+01 0.  1.
</event>
<event>
 6    1  0.1045352E-002  0.1845183E+03  0.7546771E-02  0.1066859E+00
        -11   -1    0    0    0    0  0.00000000000E+00  0.00000000000E+00  0.18250000000E+03  0.18250000000E+03  0.00000000000E+00 0.  1.
         11   -1    0    0    0    0 -0.00000000000E+00 -0.00000000000E+00 -0.18250000000E+03  0.18250000000E+03  0.00000000000E+00 0. -1.
        -11    1    1    2    0    0 -0.12344086620E+02  0.41072119874E+00  0.14827864246E+03  0.14879214017E+03  0.00000000000E+00 0.  1.
         11    1    1    2    0    0  0.43486198023E+01  0.10222948822E+02 -0.18013945832E+03  0.18048169885E+03  0.00000000000E+00 0. -1.
        -15    1    1    2    0    0  0.58381386431E+01 -0.12979515119E+01  0.15100541066E+02  0.16338684477E+02  0.17770000000E+01 0. -1.
         15    1    1    2    0    0  0.21573281748E+01 -0.93357185089E+01  0.16760274790E+02  0.19387476498E+02  0.17770000000E+01 0.  1.
</event>
<event>
 6    1  0.1045352E-002  0.1827268E+03  0.7546771E-02  0.1068274E+00
        -11   -1    0    0    0    0  0.00000000000E+00  0.00000000000E+00  0.18250000000E+03  0.18250000000E+03  0.00000000000E+00 0.  1.
         11   -1    0    0    0    0 -0.00000000000E+00 -0.00000000000E+00 -0.18250000000E+03  0.18250000000E+03  0.00000000000E+00 0.  1.
        -11    1    1    2    0    0  0.34956464927E+01  0.30317701973E+00  0.18223943190E+03  0.18227320703E+03  0.00000000000E+00 0.  1.
         11    1    1    2    0    0 -0.16045727616E+01 -0.42891807000E+00 -0.11721745018E+03  0.11722921672E+03  0.00000000000E+00 0.  1.
        -15    1    1    2    0    0  0.22678996645E+01 -0.12560667001E+01 -0.24659540402E+02  0.24859037276E+02  0.17770000000E+01 0.  1.
         15    1    1    2    0    0 -0.41589733956E+01  0.13818077504E+01 -0.40362441315E+02  0.40638538978E+02  0.17770000000E+01 0. -1.
</event>
<event>
 6    1  0.1045352E-002  0.1837211E+03  0.7546771E-02  0.1067487E+00
        -11   -1    0    0    0    0  0.00000000000E+00  0.00000000000E+00  0.18250000000E+03  0.18250000000E+03  0.00000000000E+00 0.  1.
         11   -1    0    0    0    0 -0.00000000000E+00 -0.00000000000E+00 -0.18250000000E+03  0.18250000000E+03  0.00000000000E+00 0.  1.
        -11    1    1    2    0    0  0.18229722955E+00 -0.15204141442E+01  0.92560855916E+02  0.92573521805E+02  0.00000000000E+00 0.  1.
         11    1    1    2    0    0 -0.25671504615E+01 -0.73907426654E+01 -0.18110994705E+03  0.18127886325E+03  0.00000000000E+00 0.  1.
        -15    1    1    2    0    0  0.68854717326E+01  0.53571673432E+01  0.15677760185E+02  0.18029388685E+02  0.17770000000E+01 0.  1.
         15    1    1    2    0    0 -0.45006185007E+01  0.35539894664E+01  0.72871330953E+02  0.73118226263E+02  0.17770000000E+01 0.  1.
</event>
<event>
 6    1  0.1045352E-002  0.1827465E+03  0.7546771E-02  0.1068259E+00
        -11   -1    0    0    0    0  0.00000000000E+00  0.00000000000E+00  0.18250000000E+03  0.18250000000E+03  0.00000000000E+00 0. -1.
         11   -1    0    0    0    0 -0.00000000000E+00 -0.00000000000E+00 -0.18250000000E+03  0.18250000000E+03  0.00000000000E+00 0. -1.
        -11    1    1    2    0    0  0.49908849976E+00  0.10370197562E+01  0.32600474519E+02  0.32620782305E+02  0.00000000000E+00 0. -1.
         11    1    1    2    0    0  0.51437022286E+01 -0.27082766762E+00 -0.18218073817E+03  0.18225353873E+03  0.00000000000E+00 0. -1.
        -15    1    1    2    0    0 -0.36795491613E+01 -0.68668883006E+00  0.16277327657E+02  0.16796420697E+02  0.17770000000E+01 0.  1.
         15    1    1    2    0    0 -0.19632415670E+01 -0.79503258477E-01  0.13330293599E+03  0.13332925827E+03  0.17770000000E+01 0. -1.
</event>
<event>
 6    1  0.1362319E-002  0.2091627E+03  0.7546771E-02  0.1049013E+00
        -11   -1    0    0    0    0  0.00000000000E+00  0.00000000000E+00  0.18250000000E+03  0.18250000000E+03  0.00000000000E+00 0.  1.
         11   -1    0    0    0    0 -0.00000000000E+00 -0.00000000000E+00 -0.18250000000E+03  0.18250000000E+03  0.00000000000E+00 0.  1.
        -11    1    1    2    0    0 -0.25858702531E+01  0.46242143764E-01  0.15581578883E+03  0.15583725136E+03  0.00000000000E+00 0.  1.
         11    1    1    2    0    0 -0.39620714998E+01 -0.87848531987E+00 -0.14636693511E+03  0.14642318614E+03  0.00000000000E+00 0.  1.
        -15    1    1    2    0    0  0.89106636613E+00 -0.13287474343E+01  0.26314874537E+02  0.26423283670E+02  0.17770000000E+01 0.  1.
         15    1    1    2    0    0  0.56568753868E+01  0.21609906104E+01 -0.35763728260E+02  0.36316278824E+02  0.17770000000E+01 0.  1.
</event>
<event>
 6    1  0.1045352E-002  0.1861613E+03  0.7546771E-02  0.1065577E+00
        -11   -1    0    0    0    0  0.00000000000E+00  0.00000000000E+00  0.18250000000E+03  0.18250000000E+03  0.00000000000E+00 0.  1.
         11   -1    0    0    0    0 -0.00000000000E+00 -0.00000000000E+00 -0.18250000000E+03  0.18250000000E+03  0.00000000000E+00 0. -1.
        -11    1    1    2    0    0  0.24202589537E+01 -0.27525294878E+01  0.17880113890E+03  0.17883870203E+03  0.00000000000E+00 0.  1.
         11    1    1    2    0    0 -0.10545068886E+02 -0.13391977111E+02 -0.13258070505E+03  0.13367193752E+03  0.00000000000E+00 0. -1.
        -15    1    1    2    0    0  0.82718977780E+01  0.11917553183E+02 -0.45569303648E+02  0.47855736654E+02  0.17770000000E+01 0. -1.
         15    1    1    2    0    0 -0.14708784538E+00  0.42269534165E+01 -0.65113020134E+00  0.46336238041E+01  0.17770000000E+01 0.  1.
</event>
<event>
 6    1  0.1045352E-002  0.1831555E+03  0.7546771E-02  0.1067934E+00
        -11   -1    0    0    0    0  0.00000000000E+00  0.00000000000E+00  0.18250000000E+03  0.18250000000E+03  0.00000000000E+00 0.  1.
         11   -1    0    0    0    0 -0.00000000000E+00 -0.00000000000E+00 -0.18250000000E+03  0.18250000000E+03  0.00000000000E+00 0.  1.
        -11    1    1    2    0    0  0.12966725836E+01 -0.33869508362E+01  0.14247668252E+03  0.14252283275E+03  0.00000000000E+00 0.  1.
         11    1    1    2    0    0  0.28656702484E+01  0.20899610179E+01 -0.18180994496E+03  0.18184453824E+03  0.00000000000E+00 0.  1.
        -15    1    1    2    0    0 -0.58492648437E+01 -0.68784916721E+00  0.32875603941E+02  0.33446226980E+02  0.17770000000E+01 0. -1.
         15    1    1    2    0    0  0.16869220116E+01  0.19848389855E+01  0.64576585029E+01  0.71864020213E+01  0.17770000000E+01 0.  1.
</event>
<event>
 6    1  0.1045352E-002  0.1832060E+03  0.7546771E-02  0.1067894E+00
        -11   -1    0    0    0    0  0.00000000000E+00  0.00000000000E+00  0.18250000000E+03  0.18250000000E+03  0.00000000000E+00 0. -1.
         11   -1    0    0    0    0 -0.00000000000E+00 -0.00000000000E+00 -0.18250000000E+03  0.18250000000E+03  0.00000000000E+00 0.  1.
        -11    1    1    2    0    0 -0.35736422295E+01 -0.45548371920E+00  0.18175831775E+03  0.18179401655E+03  0.00000000000E+00 0. -1.
         11    1    1    2    0    0 -0.45267933986E-01 -0.23078343137E+01 -0.13223097269E+03  0.13225111828E+03  0.00000000000E+00 0.  1.
        -15    1    1    2    0    0 -0.95055261632E+00  0.30516042509E+01 -0.52050782287E+01  0.63613211794E+01  0.17770000000E+01 0. -1.
         15    1    1    2    0    0  0.45694627798E+01 -0.28828621798E+00 -0.44322266832E+02  0.44593543985E+02  0.17770000000E+01 0.  1.
</event>
<event>
 6    1  0.1045352E-002  0.1836607E+03  0.7546771E-02  0.1067535E+00
        -11   -1    0    0    0    0  0.00000000000E+00  0.00000000000E+00  0.18250000000E+03  0.18250000000E+03  0.00000000000E+00 0. -1.
         11   -1    0    0    0    0 -0.00000000000E+00 -0.00000000000E+00 -0.18250000000E+03  0.18250000000E+03  0.00000000000E+00 0. -1.
        -11    1    1    2    0    0 -0.88153832410E+01 -0.82250732914E+01  0.18093800643E+03  0.18133925384E+03  0.00000000000E+00 0. -1.
         11    1    1    2    0    0  0.19460934500E+01  0.20860304677E+01 -0.14552176661E+03  0.14554972814E+03  0.00000000000E+00 0. -1.
        -15    1    1    2    0    0 -0.25049822228E+01  0.98493600933E+00 -0.86163282108E+01  0.92002106343E+01  0.17770000000E+01 0.  1.
         15    1    1    2    0    0  0.93742720139E+01  0.51541068144E+01 -0.26799911603E+02  0.28910807387E+02  0.17770000000E+01 0. -1.
</event>
<event>
 6    1  0.1045352E-002  0.1728715E+03  0.7546771E-02  0.1076388E+00
        -11   -1    0    0    0    0  0.00000000000E+00  0.00000000000E+00  0.18250000000E+03  0.18250000000E+03  0.00000000000E+00 0. -1.
         11   -1    0    0    0    0 -0.00000000000E+00 -0.00000000000E+00 -0.18250000000E+03  0.18250000000E+03  0.00000000000E+00 0.  1.
        -11    1    1    2    0    0 -0.64092424958E+01 -0.45740129864E+00  0.17274546559E+03  0.17286492844E+03  0.00000000000E+00 0. -1.
         11    1    1    2    0    0  0.81062464612E+00 -0.22176379667E+01 -0.17291766939E+03  0.17293378912E+03  0.00000000000E+00 0.  1.
        -15    1    1    2    0    0 -0.14980527889E+01  0.16601553887E+01 -0.78161965886E+01  0.83217147382E+01  0.17770000000E+01 0.  1.
         15    1    1    2    0    0  0.70966706386E+01  0.10148838766E+01  0.79884003956E+01  0.10879567699E+02  0.17770000000E+01 0.  1.
</event>
<event>
 6    1  0.1045352E-002  0.1833181E+03  0.7546771E-02  0.1067805E+00
        -11   -1    0    0    0    0  0.00000000000E+00  0.00000000000E+00  0.18250000000E+03  0.18250000000E+03  0.00000000000E+00 0.  1.
         11   -1    0    0    0    0 -0.00000000000E+00 -0.00000000000E+00 -0.18250000000E+03  0.18250000000E+03  0.00000000000E+00 0. -1.
        -11    1    1    2    0    0  0.17201006163E+01 -0.21971246809E+01  0.18166045376E+03  0.18168188287E+03  0.00000000000E+00 0.  1.
         11    1    1    2    0    0  0.35711951084E+01  0.59818872888E+00 -0.10099860777E+03  0.10106349507E+03  0.00000000000E+00 0. -1.
        -15    1    1    2    0    0  0.25581334496E+00 -0.13911652390E+01 -0.67651977964E+02  0.67690092574E+02  0.17770000000E+01 0. -1.
         15    1    1    2    0    0 -0.55471090697E+01  0.29901011911E+01 -0.13009868025E+02  0.14564529488E+02  0.17770000000E+01 0.  1.
</event>
<event>
 6    1  0.1745581E-002  0.1848267E+03  0.7546771E-02  0.1066618E+00
        -11   -1    0    0    0    0  0.00000000000E+00  0.00000000000E+00  0.18250000000E+03  0.18250000000E+03  0.00000000000E+00 0.  1.
         11   -1    0    0    0    0 -0.00000000000E+00 -0.00000000000E+00 -0.18250000000E+03  0.18250000000E+03  0.00000000000E+00 0. -1.
        -11    1    1    2    0    0 -0.22789458997E+01  0.34362737938E+01  0.18012611756E+03  0.18017330490E+03  0.00000000000E+00 0.  1.
         11    1    1    2    0    0  0.62045586239E+01 -0.31593849169E+01 -0.12401918342E+03  0.12421447627E+03  0.00000000000E+00 0. -1.
        -15    1    1    2    0    0 -0.47885551460E+01  0.26021748294E+01 -0.56769597815E+02  0.57058273189E+02  0.17770000000E+01 0.  1.
         15    1    1    2    0    0  0.86294242183E+00 -0.28790637063E+01  0.66266366966E+00  0.35539456365E+01  0.17770000000E+01 0. -1.
</event>
<event>
 6    1  0.1045352E-002  0.1840023E+03  0.7546771E-02  0.1067265E+00
        -11   -1    0    0    0    0  0.00000000000E+00  0.00000000000E+00  0.18250000000E+03  0.18250000000E+03  0.00000000000E+00 0. -1.
         11   -1    0    0    0    0 -0.00000000000E+00 -0.00000000000E+00 -0.18250000000E+03  0.18250000000E+03  0.00000000000E+00 0. -1.
        -11    1    1    2    0    0  0.51588428444E+01 -0.62681172195E+00  0.18092311696E+03  0.18099773701E+03  0.00000000000E+00 0. -1.
         11    1    1    2    0    0  0.10052634527E+02 -0.19513463689E+01 -0.71178735042E+02  0.71911581375E+02  0.00000000000E+00 0. -1.
        -15    1    1    2    0    0 -0.51681810209E+01 -0.69604839200E+01 -0.42574920346E+02  0.43484939956E+02  0.17770000000E+01 0. -1.
         15    1    1    2    0    0 -0.10043296351E+02  0.95386420109E+01 -0.67169461567E+02  0.68605741663E+02  0.17770000000E+01 0.  1.
</event>
<event>
 6    1  0.1045352E-002  0.1872564E+03  0.7546771E-02  0.1064731E+00
        -11   -1    0    0    0    0  0.00000000000E+00  0.00000000000E+00  0.18250000000E+03  0.18250000000E+03  0.00000000000E+00 0.  1.
         11   -1    0    0    0    0 -0.00000000000E+00 -0.00000000000E+00 -0.18250000000E+03  0.18250000000E+03  0.00000000000E+00 0. -1.
        -11    1    1    2    0    0  0.13956509643E+01  0.27120125085E+01  0.17521913865E+03  0.17524568298E+03  0.00000000000E+00 0.  1.
         11    1    1    2    0    0 -0.27141226637E+01  0.60086256274E-01 -0.17772290941E+03  0.17774364292E+03  0.00000000000E+00 0. -1.
        -15    1    1    2    0    0  0.44761029025E+01  0.23509737383E+01  0.19828753078E+01  0.57142014489E+01  0.17770000000E+01 0. -1.
         15    1    1    2    0    0 -0.31576312031E+01 -0.51230725032E+01  0.52089544481E+00  0.62964726436E+01  0.17770000000E+01 0.  1.
</event>
<event>
 6    1  0.1045352E-002  0.1694332E+03  0.7546771E-02  0.1079359E+00
        -11   -1    0    0    0    0  0.00000000000E+00  0.00000000000E+00  0.18250000000E+03  0.18250000000E+03  0.00000000000E+00 0. -1.
         11   -1    0    0    0    0 -0.00000000000E+00 -0.00000000000E+00 -0.18250000000E+03  0.18250000000E+03  0.00000000000E+00 0. -1.
        -11    1    1    2    0    0 -0.82076569020E+01 -0.53244644378E+01  0.16894675667E+03  0.16922979095E+03  0.00000000000E+00 0. -1.
         11    1    1    2    0    0  0.98115870783E+01  0.16613857979E+02 -0.16872891888E+03  0.16982854762E+03  0.00000000000E+00 0. -1.
        -15    1    1    2    0    0  0.63969813768E+00 -0.11061473066E+02 -0.10438138583E+02  0.15325725633E+02  0.17770000000E+01 0.  1.
         15    1    1    2    0    0 -0.22436283140E+01 -0.22792047519E+00  0.10220300791E+02  0.10615935804E+02  0.17770000000E+01 0. -1.
</event>
<event>
 6    1  0.1045352E-002  0.1843790E+03  0.7546771E-02  0.1066969E+00
        -11   -1    0    0    0    0  0.00000000000E+00  0.00000000000E+00  0.18250000000E+03  0.18250000000E+03  0.00000000000E+00 0.  1.
         11   -1    0    0    0    0 -0.00000000000E+00 -0.00000000000E+00 -0.18250000000E+03  0.18250000000E+03  0.00000000000E+00 0.  1.
        -11    1    1    2    0    0 -0.83818623791E+00 -0.47818546648E+01  0.15978714640E+03  0.15986087966E+03  0.00000000000E+00 0.  1.
         11    1    1    2    0    0  0.41645888682E-01 -0.50464259052E+01 -0.18055044610E+03  0.18062096150E+03  0.00000000000E+00 0.  1.
        -15    1    1    2    0    0  0.50094255664E+00  0.73166134075E+01  0.66110808098E+01  0.10032342382E+02  0.17770000000E+01 0. -1.
         15    1    1    2    0    0  0.29559779259E+00  0.25116671625E+01  0.14152218888E+02  0.14485816457E+02  0.17770000000E+01 0.  1.
</event>
<event>
 6    1  0.1045352E-002  0.1834242E+03  0.7546771E-02  0.1067722E+00
        -11   -1    0    0    0    0  0.00000000000E+00  0.00000000000E+00  0.18250000000E+03  0.18250000000E+03  0.00000000000E+00 0.  1.
         11   -1    0    0    0    0 -0.00000000000E+00 -0.00000000000E+00 -0.18250000000E+03  0.18250000000E+03  0.00000000000E+00 0.  1.
        -11    1    1    2    0    0 -0.14376882587E+01 -0.15493310222E+01  0.11445498197E+03  0.11447449617E+03  0.00000000000E+00 0.  1.
         11    1    1    2    0    0 -0.42164739298E+01  0.47616188907E+01 -0.18146435530E+03  0.18157578008E+03  0.00000000000E+00 0.  1.
        -15    1    1    2    0    0  0.29144248512E+01 -0.47283283607E+01  0.83774656683E+01  0.10207380728E+02  0.17770000000E+01 0. -1.
         15    1    1    2    0    0  0.27397373372E+01  0.15160404922E+01  0.58631907660E+02  0.58742343027E+02  0.17770000000E+01 0.  1.
</event>
<event>
 6    1  0.1045352E-002  0.1834056E+03  0.7546771E-02  0.1067736E+00
        -11   -1    0    0    0    0  0.00000000000E+00  0.00000000000E+00  0.18250000000E+03  0.18250000000E+03  0.00000000000E+00 0. -1.
         11   -1    0    0    0    0 -0.00000000000E+00 -0.00000000000E+00 -0.18250000000E+03  0.18250000000E+03  0.00000000000E+00 0. -1.
        -11    1    1    2    0    0  0.16022652937E+01 -0.21959253057E+01  0.18157407950E+03  0.18159442637E+03  0.00000000000E+00 0. -1.
         11    1    1    2    0    0 -0.36549634793E+01  0.13129352438E+01 -0.16936289223E+03  0.16940741371E+03  0.00000000000E+00 0. -1.
        -15    1    1    2    0    0 -0.13901900082E+01  0.98026660046E+00 -0.23471762155E+01  0.34000758893E+01  0.17770000000E+01 0.  1.
         15    1    1    2    0    0  0.34428881938E+01 -0.97276538608E-01 -0.98640110582E+01  0.10598084025E+02  0.17770000000E+01 0. -1.
</event>
<event>
 6    1  0.1045352E-002  0.1857288E+03  0.7546771E-02  0.1065913E+00
        -11   -1    0    0    0    0  0.00000000000E+00  0.00000000000E+00  0.18250000000E+03  0.18250000000E+03  0.00000000000E+00 0.  1.
         11   -1    0    0    0    0 -0.00000000000E+00 -0.00000000000E+00 -0.18250000000E+03  0.18250000000E+03  0.00000000000E+00 0. -1.
        -11    1    1    2    0    0 -0.40263109896E+01  0.19358911379E+01  0.17921547533E+03  0.17927115064E+03  0.00000000000E+00 0.  1.
         11    1    1    2    0    0 -0.23088005123E+01  0.13172860259E+01 -0.16321377697E+03  0.16323542139E+03  0.00000000000E+00 0. -1.
        -15    1    1    2    0    0  0.65567171750E+01 -0.13022193525E+01 -0.68646029011E+00  0.69509187943E+01  0.17770000000E+01 0. -1.
         15    1    1    2    0    0 -0.22160567304E+00 -0.19509578113E+01 -0.15315238065E+02  0.15542509175E+02  0.17770000000E+01 0. -1.
</event>
<event>
 6    1  0.1045352E-002  0.1579880E+03  0.7546771E-02  0.1089835E+00
        -11   -1    0    0    0    0  0.00000000000E+00  0.00000000000E+00  0.18250000000E+03  0.18250000000E+03  0.00000000000E+00 0.  1.
         11   -1    0    0    0    0 -0.00000000000E+00 -0.00000000000E+00 -0.18250000000E+03  0.18250000000E+03  0.00000000000E+00 0. -1.
        -11    1    1    2    0    0 -0.41514691176E+01  0.43524916300E+01  0.16070715691E+03  0.16081967902E+03  0.00000000000E+00 0.  1.
         11    1    1    2    0    0 -0.43562366487E+01 -0.75296478845E+01 -0.15509296740E+03  0.15533673401E+03  0.00000000000E+00 0. -1.
        -15    1    1    2    0    0  0.31391134072E+01  0.58490357807E+01  0.20692438692E+02  0.21803669429E+02  0.17770000000E+01 0. -1.
         15    1    1    2    0    0  0.53685923590E+01 -0.26718795263E+01 -0.26306628203E+02  0.27039917540E+02  0.17770000000E+01 0.  1.
</event>
<event>
 6    1  0.1045352E-002  0.1850944E+03  0.7546771E-02  0.1066408E+00
        -11   -1    0    0    0    0  0.00000000000E+00  0.00000000000E+00  0.18250000000E+03  0.18250000000E+03  0.00000000000E+00 0. -1.
         11   -1    0    0    0    0 -0.00000000000E+00 -0.00000000000E+00 -0.18250000000E+03  0.18250000000E+03  0.00000000000E+00 0. -1.
        -11    1    1    2    0    0 -0.97141555000E+00 -0.29593034138E+01  0.17987868490E+03  0.17990564862E+03  0.00000000000E+00 0. -1.
         11    1    1    2    0    0 -0.16302669152E+01  0.47988538569E+01 -0.15003046347E+03  0.15011604424E+03  0.00000000000E+00 0. -1.
        -15    1    1    2    0    0 -0.55269356307E+00 -0.47145553292E+01 -0.29928306438E+02  0.30354468491E+02  0.17770000000E+01 0.  1.
         15    1    1    2    0    0  0.31543760283E+01  0.28750048861E+01  0.80085008228E-01  0.46238386468E+01  0.17770000000E+01 0.  1.
</event>
<event>
 6    1  0.1045352E-002  0.1987089E+03  0.7546771E-02  0.1056238E+00
        -11   -1    0    0    0    0  0.00000000000E+00  0.00000000000E+00  0.18250000000E+03  0.18250000000E+03  0.00000000000E+00 0. -1.
         11   -1    0    0    0    0 -0.00000000000E+00 -0.00000000000E+00 -0.18250000000E+03  0.18250000000E+03  0.00000000000E+00 0. -1.
        -11    1    1    2    0    0  0.16652791285E+01 -0.17180010312E+01  0.11104959524E+03  0.11107536759E+03  0.00000000000E+00 0. -1.
         11    1    1    2    0    0  0.57726371110E+01 -0.27225494311E+01 -0.16616854252E+03  0.16629107053E+03  0.00000000000E+00 0. -1.
        -15    1    1    2    0    0 -0.99700744622E+01  0.52308569974E+01 -0.14218144956E+02  0.18222997138E+02  0.17770000000E+01 0. -1.
         15    1    1    2    0    0  0.25321582227E+01 -0.79030653507E+00  0.69337092237E+02  0.69410564747E+02  0.17770000000E+01 0.  1.
</event>
<event>
 6    1  0.1045352E-002  0.1969400E+03  0.7546771E-02  0.1057508E+00
        -11   -1    0    0    0    0  0.00000000000E+00  0.00000000000E+00  0.18250000000E+03  0.18250000000E+03  0.00000000000E+00 0. -1.
         11   -1    0    0    0    0 -0.00000000000E+00 -0.00000000000E+00 -0.18250000000E+03  0.18250000000E+03  0.00000000000E+00 0. -1.
        -11    1    1    2    0    0 -0.77282420019E+01  0.54848919976E+01  0.16779262407E+03  0.16806003230E+03  0.00000000000E+00 0. -1.
         11    1    1    2    0    0  0.61131335215E+00 -0.82550836578E+01 -0.14441342013E+03  0.14465046155E+03  0.00000000000E+00 0. -1.
        -15    1    1    2    0    0 -0.71298565814E+01  0.34023371577E+01 -0.33659606853E+02  0.34619902014E+02  0.17770000000E+01 0.  1.
         15    1    1    2    0    0  0.14246785231E+02 -0.63214549747E+00  0.10280402920E+02  0.17669604143E+02  0.17770000000E+01 0. -1.
</event>
<event>
 6    1  0.1045352E-002  0.1838074E+03  0.7546771E-02  0.1067419E+00
        -11   -1    0    0    0    0  0.00000000000E+00  0.00000000000E+00  0.18250000000E+03  0.18250000000E+03  0.00000000000E+00 0. -1.
         11   -1    0    0    0    0 -0.00000000000E+00 -0.00000000000E+00 -0.18250000000E+03  0.18250000000E+03  0.00000000000E+00 0. -1.
        -11    1    1    2    0    0  0.18169699393E+01  0.59156635853E+00  0.94241984764E+02  0.94261354875E+02  0.00000000000E+00 0. -1.
         11    1    1    2    0    0  0.56110083276E+01  0.21063873179E+01 -0.18109342948E+03  0.18119257845E+03  0.00000000000E+00 0. -1.
        -15    1    1    2    0    0 -0.51806309974E+01  0.15195671524E+01  0.51020947452E+01  0.76378741579E+01  0.17770000000E+01 0. -1.
         15    1    1    2    0    0 -0.22473472695E+01 -0.42175208289E+01  0.81749349975E+02  0.81908192520E+02  0.17770000000E+01 0.  1.
</event>
<event>
 6    1  0.1458853E-002  0.1842944E+03  0.7546771E-02  0.1067035E+00
        -11   -1    0    0    0    0  0.00000000000E+00  0.00000000000E+00  0.18250000000E+03  0.18250000000E+03  0.00000000000E+00 0. -1.
         11   -1    0    0    0    0 -0.00000000000E+00 -0.00000000000E+00 -0.18250000000E+03  0.18250000000E+03  0.00000000000E+00 0. -1.
        -11    1    1    2    0    0  0.37931596025E+01  0.44743931117E+00  0.18066523224E+03  0.18070560147E+03  0.00000000000E+00 0. -1.
         11    1    1    2    0    0  0.49030032445E+01  0.59646731852E+01 -0.10797375822E+03  0.10824947681E+03  0.00000000000E+00 0. -1.
        -15    1    1    2    0    0 -0.66725412485E+01 -0.81986418237E+01 -0.71930446912E+02  0.72724737582E+02  0.17770000000E+01 0. -1.
         15    1    1    2    0    0 -0.20236215986E+01  0.17865293273E+01 -0.76102711667E+00  0.33201841340E+01  0.17770000000E+01 0.  1.
</event>
<event>
 6    1  0.1045352E-002  0.1903944E+03  0.7546771E-02  0.1062339E+00
        -11   -1    0    0    0    0  0.00000000000E+00  0.00000000000E+00  0.18250000000E+03  0.18250000000E+03  0.00000000000E+00 0.  1.
         11   -1    0    0    0    0 -0.00000000000E+00 -0.00000000000E+00 -0.18250000000E+03  0.18250000000E+03  0.00000000000E+00 0. -1.
        -11    1    1    2    0    0 -0.48646329135E+01  0.48423191366E+01  0.17447065727E+03  0.17460562120E+03  0.00000000000E+00 0.  1.
         11    1    1    2    0    0  0.15750617814E+02  0.46654902417E+01 -0.15153158189E+03  0.15241938549E+03  0.00000000000E+00 0. -1.
        -15    1    1    2    0    0  0.27314258530E+00  0.19961054113E+01 -0.21630551160E+02  0.21796731777E+02  0.17770000000E+01 0. -1.
         15    1    1    2    0    0 -0.11159127486E+02 -0.11503914789E+02 -0.13085242118E+01  0.16178261537E+02  0.17770000000E+01 0.  1.
</event>
<event>
 6    1  0.1045352E-002  0.1832592E+03  0.7546771E-02  0.1067852E+00
        -11   -1    0    0    0    0  0.00000000000E+00  0.00000000000E+00  0.18250000000E+03  0.18250000000E+03  0.00000000000E+00 0. -1.
         11   -1    0    0    0    0 -0.00000000000E+00 -0.00000000000E+00 -0.18250000000E+03  0.18250000000E+03  0.00000000000E+00 0. -1.
        -11    1    1    2    0    0 -0.19882061357E+01 -0.29293359171E+01  0.18170631543E+03  0.18174080181E+03  0.00000000000E+00 0. -1.
         11    1    1    2    0    0 -0.13972347290E+01  0.45250651956E+00 -0.87917432994E+02  0.87929699483E+02  0.00000000000E+00 0. -1.
        -15    1    1    2    0    0  0.12430454963E+01  0.34000001960E+01 -0.91553108279E+02  0.91641881954E+02  0.17770000000E+01 0. -1.
         15    1    1    2    0    0  0.21423953684E+01 -0.92317079848E+00 -0.22357741618E+01  0.36876167561E+01  0.17770000000E+01 0.  1.
</event>
<event>
 6    1  0.1045352E-002  0.1837183E+03  0.7546771E-02  0.1067489E+00
        -11   -1    0    0    0    0  0.00000000000E+00  0.00000000000E+00  0.18250000000E+03  0.18250000000E+03  0.00000000000E+00 0. -1.
         11   -1    0    0    0    0 -0.00000000000E+00 -0.00000000000E+00 -0.18250000000E+03  0.18250000000E+03  0.00000000000E+00 0. -1.
        -11    1    1    2    0    0 -0.37762317365E+01  0.75144907812E+00  0.18124081991E+03  0.18128171282E+03  0.00000000000E+00 0. -1.
         11    1    1    2    0    0 -0.74257405748E+01  0.37579484144E+00 -0.71140025973E+02  0.71527520161E+02  0.00000000000E+00 0. -1.
        -15    1    1    2    0    0 -0.60099566312E+00 -0.14654675810E+01 -0.76400187495E+02  0.76437262963E+02  0.17770000000E+01 0.  1.
         15    1    1    2    0    0  0.11802967974E+02  0.33822366140E+00 -0.33700606445E+02  0.35753504052E+02  0.17770000000E+01 0. -1.
</event>
<event>
 6    1  0.1045352E-002  0.1827999E+03  0.7546771E-02  0.1068216E+00
        -11   -1    0    0    0    0  0.00000000000E+00  0.00000000000E+00  0.18250000000E+03  0.18250000000E+03  0.00000000000E+00 0. -1.
         11   -1    0    0    0    0 -0.00000000000E+00 -0.00000000000E+00 -0.18250000000E+03  0.18250000000E+03  0.00000000000E+00 0. -1.
        -11    1    1    2    0    0  0.19339879690E+00 -0.15847883012E+01  0.53809770285E+02  0.53833449965E+02  0.00000000000E+00 0. -1.
         11    1    1    2    0    0 -0.35136072603E+01  0.21846480323E+01 -0.18215314444E+03  0.18220012665E+03  0.00000000000E+00 0. -1.
        -15    1    1    2    0    0  0.50989318165E+01 -0.45932031600E+00  0.12229182019E+03  0.12241183397E+03  0.17770000000E+01 0. -1.
         15    1    1    2    0    0 -0.17787233531E+01 -0.14053941515E+00  0.60515539588E+01  0.65545894158E+01  0.17770000000E+01 0. -1.
</event>
<event>
 6    1  0.1120413E-002  0.1834211E+03  0.7546771E-02  0.1067724E+00
        -11   -1    0    0    0    0  0.00000000000E+00  0.00000000000E+00  0.18250000000E+03  0.18250000000E+03  0.00000000000E+00 0.  1.
         11   -1    0    0    0    0 -0.00000000000E+00 -0.00000000000E+00 -0.18250000000E+03  0.18250000000E+03  0.00000000000E+00 0. -1.
        -11    1    1    2    0    0  0.41146435320E+01 -0.25247521294E+01  0.18151470148E+03  0.18157888511E+03  0.00000000000E+00 0.  1.
         11    1    1    2    0    0  0.18535919208E+01  0.21409639979E+01 -0.39283049164E+02  0.39384990560E+02  0.00000000000E+00 0. -1.
        -15    1    1    2    0    0 -0.14583050941E+01  0.16881929917E+01 -0.15141064054E+01  0.32290705368E+01  0.17770000000E+01 0.  1.
         15    1    1    2    0    0 -0.45099303586E+01 -0.13044048602E+01 -0.14071754591E+03  0.14080705380E+03  0.17770000000E+01 0. -1.
</event>
<event>
 6    1  0.1045352E-002  0.1839419E+03  0.7546771E-02  0.1067313E+00
        -11   -1    0    0    0    0  0.00000000000E+00  0.00000000000E+00  0.18250000000E+03  0.18250000000E+03  0.00000000000E+00 0. -1.
         11   -1    0    0    0    0 -0.00000000000E+00 -0.00000000000E+00 -0.18250000000E+03  0.18250000000E+03  0.00000000000E+00 0.  1.
        -11    1    1    2    0    0 -0.10607562536E+01  0.38851785556E+01  0.18101330642E+03  0.18105810371E+03  0.00000000000E+00 0. -1.
         11    1    1    2    0    0  0.72501017800E+00 -0.30274338567E+01 -0.14243306628E+03  0.14246708169E+03  0.00000000000E+00 0.  1.
        -15    1    1    2    0    0  0.19946212138E+01  0.61491497751E+00  0.48489232953E-01  0.27416627112E+01  0.17770000000E+01 0. -1.
         15    1    1    2    0    0 -0.16588751382E+01 -0.14726596765E+01 -0.38628729376E+02  0.38733151891E+02  0.17770000000E+01 0.  1.
</event>
<event>
 6    1  0.1045352E-002  0.1866257E+03  0.7546771E-02  0.1065217E+00
        -11   -1    0    0    0    0  0.00000000000E+00  0.00000000000E+00  0.18250000000E+03  0.18250000000E+03  0.00000000000E+00 0. -1.
         11   -1    0    0    0    0 -0.00000000000E+00 -0.00000000000E+00 -0.18250000000E+03  0.18250000000E+03  0.00000000000E+00 0.  1.
        -11    1    1    2    0    0  0.23175741181E+00 -0.29580135125E+01  0.17834957973E+03  0.17837425864E+03  0.00000000000E+00 0. -1.
         11    1    1    2    0    0 -0.42573975139E+01 -0.64533798384E+01 -0.16688607450E+03  0.16706505740E+03  0.00000000000E+00 0.  1.
        -15    1    1    2    0    0  0.97639159074E+00  0.37810021855E+01 -0.12145219320E+02  0.12880737533E+02  0.17770000000E+01 0. -1.
         15    1    1    2    0    0  0.30492485114E+01  0.56303911654E+01  0.68171408840E+00  0.66799464263E+01  0.17770000000E+01 0. -1.
</event>
<event>
 6    1  0.1045352E-002  0.1829257E+03  0.7546771E-02  0.1068116E+00
        -11   -1    0    0    0    0  0.00000000000E+00  0.00000000000E+00  0.18250000000E+03  0.18250000000E+03  0.00000000000E+00 0. -1.
         11   -1    0    0    0    0 -0.00000000000E+00 -0.00000000000E+00 -0.18250000000E+03  0.18250000000E+03  0.00000000000E+00 0. -1.
        -11    1    1    2    0    0 -0.28398532320E+01 -0.34684414115E+01  0.18201906256E+03  0.18207425405E+03  0.00000000000E+00 0. -1.
         11    1    1    2    0    0  0.13040836155E+01 -0.35331520330E+01 -0.58755263540E+02  0.58875842168E+02  0.00000000000E+00 0. -1.
        -15    1    1    2    0    0  0.59839987281E+01  0.64479617545E+01 -0.88363372469E+02  0.88817947368E+02  0.17770000000E+01 0.  1.
         15    1    1    2    0    0 -0.44482291116E+01  0.55363168996E+00 -0.34900426552E+02  0.35231956414E+02  0.17770000000E+01 0. -1.
</event>
<event>
 6    1  0.1045352E-002  0.1875263E+03  0.7546771E-02  0.1064523E+00
        -11   -1    0    0    0    0  0.00000000000E+00  0.00000000000E+00  0.18250000000E+03  0.18250000000E+03  0.00000000000E+00 0. -1.
         11   -1    0    0    0    0 -0.00000000000E+00 -0.00000000000E+00 -0.18250000000E+03  0.18250000000E+03  0.00000000000E+00 0. -1.
        -11    1    1    2    0    0 -0.10472273806E-01 -0.42067022875E+01  0.17299238190E+03  0.17304352242E+03  0.00000000000E+00 0. -1.
         11    1    1    2    0    0 -0.74107284542E+00  0.53039610939E+01 -0.17739285236E+03  0.17747367484E+03  0.00000000000E+00 0. -1.
        -15    1    1    2    0    0  0.10223834168E+01 -0.59948541416E+01  0.62960595445E+01  0.89320568078E+01  0.17770000000E+01 0. -1.
         15    1    1    2    0    0 -0.27083829756E+00  0.48975953353E+01 -0.18955890869E+01  0.55507459352E+01  0.17770000000E+01 0.  1.
</event>
<event>
 6    1  0.1045352E-002  0.1766489E+03  0.7546771E-02  0.1073210E+00
        -11   -1    0    0    0    0  0.00000000000E+00  0.00000000000E+00  0.18250000000E+03  0.18250000000E+03  0.00000000000E+00 0. -1.
         11   -1    0    0    0    0 -0.00000000000E+00 -0.00000000000E+00 -0.18250000000E+03  0.18250000000E+03  0.00000000000E+00 0. -1.
        -11    1    1    2    0    0  0.57113204875E+00 -0.34200788298E+01  0.17563824888E+03  0.17567247252E+03  0.00000000000E+00 0. -1.
         11    1    1    2    0    0 -0.22020581397E+01 -0.60062888411E+01 -0.17764543327E+03  0.17776058204E+03  0.00000000000E+00 0. -1.
        -15    1    1    2    0    0 -0.31834499483E+00  0.76095004506E+01  0.27300331472E+01  0.82835168032E+01  0.17770000000E+01 0. -1.
         15    1    1    2    0    0  0.19492710858E+01  0.18168672202E+01 -0.72284875824E+00  0.32834286332E+01  0.17770000000E+01 0.  1.
</event>
<event>
 6    1  0.1045352E-002  0.1837853E+03  0.7546771E-02  0.1067436E+00
        -11   -1    0    0    0    0  0.00000000000E+00  0.00000000000E+00  0.18250000000E+03  0.18250000000E+03  0.00000000000E+00 0.  1.
         11   -1    0    0    0    0 -0.00000000000E+00 -0.00000000000E+00 -0.18250000000E+03  0.18250000000E+03  0.00000000000E+00 0.  1.
        -11    1    1    2    0    0  0.19200448449E+01 -0.16053994945E+01  0.18119740618E+03  0.18121469004E+03  0.00000000000E+00 0.  1.
         11    1    1    2    0    0  0.36009189135E+01 -0.37098778553E+01 -0.15402711553E+03  0.15411386092E+03  0.00000000000E+00 0.  1.
        -15    1    1    2    0    0 -0.50863281583E+01  0.67463629109E+01 -0.25158337068E+02  0.26598567624E+02  0.17770000000E+01 0.  1.
         15    1    1    2    0    0 -0.43463560002E+00 -0.14310855612E+01 -0.20119535817E+01  0.30728814170E+01  0.17770000000E+01 0. -1.
</event>
<event>
 6    1  0.1045352E-002  0.1842066E+03  0.7546771E-02  0.1067104E+00
        -11   -1    0    0    0    0  0.00000000000E+00  0.00000000000E+00  0.18250000000E+03  0.18250000000E+03  0.00000000000E+00 0. -1.
         11   -1    0    0    0    0 -0.00000000000E+00 -0.00000000000E+00 -0.18250000000E+03  0.18250000000E+03  0.00000000000E+00 0. -1.
        -11    1    1    2    0    0 -0.59047123658E+01  0.10231219398E+02  0.10995544533E+03  0.11058817042E+03  0.00000000000E+00 0. -1.
         11    1    1    2    0    0 -0.24112378547E+01 -0.79958488874E+00 -0.18077550570E+03  0.18079335404E+03  0.00000000000E+00 0. -1.
        -15    1    1    2    0    0  0.10640726823E+01 -0.20114971562E+01  0.10708468865E+01  0.30794177270E+01  0.17770000000E+01 0.  1.
         15    1    1    2    0    0  0.72518775382E+01 -0.74201373529E+01  0.69749213487E+02  0.70539057813E+02  0.17770000000E+01 0. -1.
</event>
<event>
 6    1  0.1045352E-002  0.1834614E+03  0.7546771E-02  0.1067692E+00
        -11   -1    0    0    0    0  0.00000000000E+00  0.00000000000E+00  0.18250000000E+03  0.18250000000E+03  0.00000000000E+00 0.  1.
         11   -1    0    0    0    0 -0.00000000000E+00 -0.00000000000E+00 -0.18250000000E+03  0.18250000000E+03  0.00000000000E+00 0. -1.
        -11    1    1    2    0    0  0.78530969274E+00  0.39963193564E+01  0.18149287660E+03  0.18153856763E+03  0.00000000000E+00 0.  1.
         11    1    1    2    0    0  0.32846161741E+01  0.16524348733E+01 -0.45905992960E+02  0.46053006787E+02  0.00000000000E+00 0. -1.
        -15    1    1    2    0    0 -0.48006864625E+01 -0.92742906789E+01 -0.31360885216E+02  0.33101690419E+02  0.17770000000E+01 0. -1.
         15    1    1    2    0    0  0.73076059570E+00  0.36255364492E+01 -0.10422599842E+03  0.10430673517E+03  0.17770000000E+01 0.  1.
</event>
<event>
 6    1  0.1045352E-002  0.1826386E+03  0.7546771E-02  0.1068345E+00
        -11   -1    0    0    0    0  0.00000000000E+00  0.00000000000E+00  0.18250000000E+03  0.18250000000E+03  0.00000000000E+00 0. -1.
         11   -1    0    0    0    0 -0.00000000000E+00 -0.00000000000E+00 -0.18250000000E+03  0.18250000000E+03  0.00000000000E+00 0. -1.
        -11    1    1    2    0    0 -0.15443272103E+01 -0.60176112405E+00  0.82524361629E+02  0.82541003902E+02  0.00000000000E+00 0. -1.
         11    1    1    2    0    0  0.35864394523E+01  0.24044999070E+01 -0.18231030135E+03  0.18236142724E+03  0.00000000000E+00 0. -1.
        -15    1    1    2    0    0 -0.13612520449E+01  0.16363652237E+01  0.17544600361E+02  0.17762359897E+02  0.17770000000E+01 0. -1.
         15    1    1    2    0    0 -0.68086019710E+00 -0.34391040066E+01  0.82241339356E+02  0.82335208963E+02  0.17770000000E+01 0. -1.
</event>
<event>
 6    1  0.1045352E-002  0.1841055E+03  0.7546771E-02  0.1067184E+00
        -11   -1    0    0    0    0  0.00000000000E+00  0.00000000000E+00  0.18250000000E+03  0.18250000000E+03  0.00000000000E+00 0.  1.
         11   -1    0    0    0    0 -0.00000000000E+00 -0.00000000000E+00 -0.18250000000E+03  0.18250000000E+03  0.00000000000E+00 0.  1.
        -11    1    1    2    0    0 -0.68945226612E+01  0.14465078640E+01  0.90068437126E+02  0.90343512185E+02  0.00000000000E+00 0.  1.
         11    1    1    2    0    0 -0.56182488616E+01  0.45602218287E+01 -0.18074969853E+03  0.18089448267E+03  0.00000000000E+00 0.  1.
        -15    1    1    2    0    0  0.10677395003E+02 -0.10601764500E+02  0.83491226549E+02  0.84854857340E+02  0.17770000000E+01 0. -1.
         15    1    1    2    0    0  0.18353765197E+01  0.45950348069E+01  0.71900348517E+01  0.89071478047E+01  0.17770000000E+01 0.  1.
</event>
<event>
 6    1  0.1045352E-002  0.1827843E+03  0.7546771E-02  0.1068229E+00
        -11   -1    0    0    0    0  0.00000000000E+00  0.00000000000E+00  0.18250000000E+03  0.18250000000E+03  0.00000000000E+00 0.  1.
         11   -1    0    0    0    0 -0.00000000000E+00 -0.00000000000E+00 -0.18250000000E+03  0.18250000000E+03  0.00000000000E+00 0.  1.
        -11    1    1    2    0    0  0.15617348109E+01 -0.31034095765E+01  0.32995304117E+02  0.33177707281E+02  0.00000000000E+00 0.  1.
         11    1    1    2    0    0 -0.27560005705E+01 -0.30158372091E+00 -0.18219460595E+03  0.18221569891E+03  0.00000000000E+00 0.  1.
        -15    1    1    2    0    0  0.13957999489E+01  0.35908982901E+00  0.13330178201E+03  0.13332141621E+03  0.17770000000E+01 0.  1.
         15    1    1    2    0    0 -0.20153418930E+00  0.30459034684E+01  0.15897519821E+02  0.16285177599E+02  0.17770000000E+01 0. -1.
</event>
<event>
 6    1  0.1045352E-002  0.1842825E+03  0.7546771E-02  0.1067045E+00
        -11   -1    0    0    0    0  0.00000000000E+00  0.00000000000E+00  0.18250000000E+03  0.18250000000E+03  0.00000000000E+00 0. -1.
         11   -1    0    0    0    0 -0.00000000000E+00 -0.00000000000E+00 -0.18250000000E+03  0.18250000000E+03  0.00000000000E+00 0.  1.
        -11    1    1    2    0    0  0.30598956570E+01 -0.17541591083E+01  0.11996932635E+03  0.12002116189E+03  0.00000000000E+00 0. -1.
         11    1    1    2    0    0 -0.32196521482E+01 -0.16262332961E+01 -0.18068153337E+03  0.18071753456E+03  0.00000000000E+00 0.  1.
        -15    1    1    2    0    0 -0.77729787856E+00 -0.11386764704E+01 -0.92072454131E+00  0.24302754530E+01  0.17770000000E+01 0.  1.
         15    1    1    2    0    0  0.93705436978E+00  0.45190688747E+01  0.61632931563E+02  0.61831028104E+02  0.17770000000E+01 0. -1.
</event>
<event>
 6    1  0.1045352E-002  0.1864939E+03  0.7546771E-02  0.1065319E+00
        -11   -1    0    0    0    0  0.00000000000E+00  0.00000000000E+00  0.18250000000E+03  0.18250000000E+03  0.00000000000E+00 0.  1.
         11   -1    0    0    0    0 -0.00000000000E+00 -0.00000000000E+00 -0.18250000000E+03  0.18250000000E+03  0.00000000000E+00 0.  1.
        -11    1    1    2    0    0  0.20817758470E+01  0.22278544867E+01  0.17848009817E+03  0.17850614155E+03  0.00000000000E+00 0.  1.
         11    1    1    2    0    0 -0.10196399325E+01  0.27296003366E+01 -0.17544767241E+03  0.17547186708E+03  0.00000000000E+00 0.  1.
        -15    1    1    2    0    0 -0.11966070629E+01 -0.13520251686E+01  0.29026205683E+01  0.38526323057E+01  0.17770000000E+01 0. -1.
         15    1    1    2    0    0  0.13447114834E+00 -0.36054296547E+01 -0.59350463304E+01  0.71693590668E+01  0.17770000000E+01 0.  1.
</event>
<event>
 6    1  0.1045352E-002  0.1840634E+03  0.7546771E-02  0.1067217E+00
        -11   -1    0    0    0    0  0.00000000000E+00  0.00000000000E+00  0.18250000000E+03  0.18250000000E+03  0.00000000000E+00 0.  1.
         11   -1    0    0    0    0 -0.00000000000E+00 -0.00000000000E+00 -0.18250000000E+03  0.18250000000E+03  0.00000000000E+00 0. -1.
        -11    1    1    2    0    0  0.26606366173E+01 -0.34994012822E+01  0.16519353054E+03  0.16525201157E+03  0.00000000000E+00 0.  1.
         11    1    1    2    0    0  0.31209152837E+01  0.23769770327E+01 -0.18089408808E+03  0.18093662215E+03  0.00000000000E+00 0. -1.
        -15    1    1    2    0    0 -0.44861980972E+01  0.37233367612E+01  0.13342946704E+02  0.14669054699E+02  0.17770000000E+01 0.  1.
         15    1    1    2    0    0 -0.12953538038E+01 -0.26009125117E+01  0.23576108371E+01  0.41423115805E+01  0.17770000000E+01 0. -1.
</event>
<event>
 6    1  0.1045352E-002  0.1833542E+03  0.7546771E-02  0.1067777E+00
        -11   -1    0    0    0    0  0.00000000000E+00  0.00000000000E+00  0.18250000000E+03  0.18250000000E+03  0.00000000000E+00 0. -1.
         11   -1    0    0    0    0 -0.00000000000E+00 -0.00000000000E+00 -0.18250000000E+03  0.18250000000E+03  0.00000000000E+00 0.  1.
        -11    1    1    2    0    0 -0.26867510997E+01  0.44302902071E+01  0.18157186720E+03  0.18164577909E+03  0.00000000000E+00 0. -1.
         11    1    1    2    0    0  0.22741036655E+01 -0.18170806533E+01 -0.12169261349E+03  0.12172742299E+03  0.00000000000E+00 0.  1.
        -15    1    1    2    0    0  0.50203914193E+01 -0.62282604835E+01 -0.28425812687E+02  0.29583443251E+02  0.17770000000E+01 0.  1.
         15    1    1    2    0    0 -0.46077439851E+01  0.36150509298E+01 -0.31453441021E+02  0.32043354676E+02  0.17770000000E+01 0.  1.
</event>
<event>
 6    1  0.1045352E-002  0.1827849E+03  0.7546771E-02  0.1068228E+00
        -11   -1    0    0    0    0  0.00000000000E+00  0.00000000000E+00  0.18250000000E+03  0.18250000000E+03  0.00000000000E+00 0.  1.
         11   -1    0    0    0    0 -0.00000000000E+00 -0.00000000000E+00 -0.18250000000E+03  0.18250000000E+03  0.00000000000E+00 0.  1.
        -11    1    1    2    0    0 -0.14645712784E+01 -0.14409289965E+01  0.14751924701E+03  0.14753355376E+03  0.00000000000E+00 0.  1.
         11    1    1    2    0    0  0.15661979712E+01 -0.26410454015E+01 -0.18218918998E+03  0.18221506261E+03  0.00000000000E+00 0.  1.
        -15    1    1    2    0    0 -0.83096325583E+00  0.26282578894E+01  0.27334026357E+02  0.27530073835E+02  0.17770000000E+01 0. -1.
         15    1    1    2    0    0  0.72933656304E+00  0.14537165085E+01  0.73359166099E+01  0.77213097993E+01  0.17770000000E+01 0. -1.
</event>
<event>
 6    1  0.1045352E-002  0.1832480E+03  0.7546771E-02  0.1067861E+00
        -11   -1    0    0    0    0  0.00000000000E+00  0.00000000000E+00  0.18250000000E+03  0.18250000000E+03  0.00000000000E+00 0.  1.
         11   -1    0    0    0    0 -0.00000000000E+00 -0.00000000000E+00 -0.18250000000E+03  0.18250000000E+03  0.00000000000E+00 0. -1.
        -11    1    1    2    0    0 -0.71091917613E+01  0.40930000875E+01  0.14232701750E+03  0.14256322516E+03  0.00000000000E+00 0.  1.
         11    1    1    2    0    0  0.62646744454E+00 -0.30716078384E+01 -0.18172500827E+03  0.18175204502E+03  0.00000000000E+00 0. -1.
        -15    1    1    2    0    0  0.38323962349E+01  0.21144774605E+01  0.11534915711E+02  0.12464761743E+02  0.17770000000E+01 0. -1.
         15    1    1    2    0    0  0.26503280818E+01 -0.31358697096E+01  0.27863075055E+02  0.28219968078E+02  0.17770000000E+01 0.  1.
</event>
<event>
 6    1  0.1045352E-002  0.1845307E+03  0.7546771E-02  0.1066850E+00
        -11   -1    0    0    0    0  0.00000000000E+00  0.00000000000E+00  0.18250000000E+03  0.18250000000E+03  0.00000000000E+00 0. -1.
         11   -1    0    0    0    0 -0.00000000000E+00 -0.00000000000E+00 -0.18250000000E+03  0.18250000000E+03  0.00000000000E+00 0. -1.
        -11    1    1    2    0    0 -0.42267605818E+01  0.25158482277E+01  0.16335852086E+03  0.16343255898E+03  0.00000000000E+00 0. -1.
         11    1    1    2    0    0  0.35254347641E+01 -0.37146551933E+00 -0.18043452815E+03  0.18046934816E+03  0.00000000000E+00 0. -1.
        -15    1    1    2    0    0 -0.45012751201E+01 -0.39368124542E+01  0.11400237455E+02  0.12995503570E+02  0.17770000000E+01 0. -1.
         15    1    1    2    0    0  0.52026009378E+01  0.17924297459E+01  0.56757698388E+01  0.81025892883E+01  0.17770000000E+01 0.  1.
</event>
<event>
 6    1  0.1045352E-002  0.1834244E+03  0.7546771E-02  0.1067721E+00
        -11   -1    0    0    0    0  0.00000000000E+00  0.00000000000E+00  0.18250000000E+03  0.18250000000E+03  0.00000000000E+00 0.  1.
         11   -1    0    0    0    0 -0.00000000000E+00 -0.00000000000E+00 -0.18250000000E+03  0.18250000000E+03  0.00000000000E+00 0.  1.
        -11    1    1    2    0    0  0.31753225745E+01  0.37417182073E+01  0.18150930279E+03  0.18157563198E+03  0.00000000000E+00 0.  1.
         11    1    1    2    0    0  0.36641961318E+01 -0.18471055878E+01 -0.13925558257E+03  0.13931602711E+03  0.00000000000E+00 0.  1.
        -15    1    1    2    0    0 -0.70345976133E+01  0.37298303617E+00 -0.14634963132E+02  0.16339049997E+02  0.17770000000E+01 0. -1.
         15    1    1    2    0    0  0.19507890696E+00 -0.22675956556E+01 -0.27618757087E+02  0.27769290914E+02  0.17770000000E+01 0.  1.
</event>
<event>
 6    1  0.1045352E-002  0.1706962E+03  0.7546771E-02  0.1078259E+00
        -11   -1    0    0    0    0  0.00000000000E+00  0.00000000000E+00  0.18250000000E+03  0.18250000000E+03  0.00000000000E+00 0. -1.
         11   -1    0    0    0    0 -0.00000000000E+00 -0.00000000000E+00 -0.18250000000E+03  0.18250000000E+03  0.00000000000E+00 0. -1.
        -11    1    1    2    0    0 -0.95961333933E+01 -0.13519017009E+02  0.17767110483E+03  0.17844290709E+03  0.00000000000E+00 0. -1.
         11    1    1    2    0    0 -0.54606124837E+01 -0.61167281682E+01 -0.26456905216E+02  0.27698384173E+02  0.00000000000E+00 0. -1.
        -15    1    1    2    0    0  0.77850967919E+01 -0.90016912484E+01 -0.90684012039E+02  0.91478882513E+02  0.17770000000E+01 0. -1.
         15    1    1    2    0    0  0.72716490851E+01  0.28637436426E+02 -0.60530187577E+02  0.67379826228E+02  0.17770000000E+01 0.  1.
</event>
<event>
 6    1  0.1045352E-002  0.1768832E+03  0.7546771E-02  0.1073016E+00
        -11   -1    0    0    0    0  0.00000000000E+00  0.00000000000E+00  0.18250000000E+03  0.18250000000E+03  0.00000000000E+00 0. -1.
         11   -1    0    0    0    0 -0.00000000000E+00 -0.00000000000E+00 -0.18250000000E+03  0.18250000000E+03  0.00000000000E+00 0. -1.
        -11    1    1    2    0    0 -0.25894161587E+01  0.35889171388E+01  0.17730862856E+03  0.17736384966E+03  0.00000000000E+00 0. -1.
         11    1    1    2    0    0  0.17998900108E+01  0.20342069711E+01 -0.17642822480E+03  0.17644913178E+03  0.00000000000E+00 0. -1.
        -15    1    1    2    0    0  0.18157518385E+01 -0.71237355729E+00  0.34375575286E+01  0.43334699245E+01  0.17770000000E+01 0. -1.
         15    1    1    2    0    0 -0.10262256906E+01 -0.49107505527E+01 -0.43179612938E+01  0.68535486351E+01  0.17770000000E+01 0.  1.
</event>
<event>
 6    1  0.1045352E-002  0.1905984E+03  0.7546771E-02  0.1062185E+00
        -11   -1    0    0    0    0  0.00000000000E+00  0.00000000000E+00  0.18250000000E+03  0.18250000000E+03  0.00000000000E+00 0. -1.
         11   -1    0    0    0    0 -0.00000000000E+00 -0.00000000000E+00 -0.18250000000E+03  0.18250000000E+03  0.00000000000E+00 0.  1.
        -11    1    1    2    0    0  0.39236525271E+01  0.24072910541E+01  0.16297323261E+03  0.16303823063E+03  0.00000000000E+00 0. -1.
         11    1    1    2    0    0  0.75223174434E+01  0.13436440463E+01 -0.17423414789E+03  0.17440163110E+03  0.00000000000E+00 0.  1.
        -15    1    1    2    0    0 -0.14326191588E+02  0.91929498850E+00 -0.48635734954E+00  0.14473394251E+02  0.17770000000E+01 0. -1.
         15    1    1    2    0    0  0.28802216171E+01 -0.46702300889E+01  0.11747272636E+02  0.13086744020E+02  0.17770000000E+01 0.  1.
</event>
<event>
 6    1  0.1045352E-002  0.1830131E+03  0.7546771E-02  0.1068047E+00
        -11   -1    0    0    0    0  0.00000000000E+00  0.00000000000E+00  0.18250000000E+03  0.18250000000E+03  0.00000000000E+00 0.  1.
         11   -1    0    0    0    0 -0.00000000000E+00 -0.00000000000E+00 -0.18250000000E+03  0.18250000000E+03  0.00000000000E+00 0. -1.
        -11    1    1    2    0    0 -0.37592081627E+01 -0.41850582180E+00  0.11130826775E+03  0.11137251575E+03  0.00000000000E+00 0.  1.
         11    1    1    2    0    0  0.12210595419E+01  0.22131428957E+01 -0.18196936034E+03  0.18198691462E+03  0.00000000000E+00 0. -1.
        -15    1    1    2    0    0  0.42277564179E+01 -0.13836780188E+01  0.67245609734E+02  0.67416008831E+02  0.17770000000E+01 0.  1.
         15    1    1    2    0    0 -0.16896077971E+01 -0.41095905510E+00  0.34154828560E+01  0.42245608047E+01  0.17770000000E+01 0. -1.
</event>
<event>
 6    1  0.1045352E-002  0.1939016E+03  0.7546771E-02  0.1059725E+00
        -11   -1    0    0    0    0  0.00000000000E+00  0.00000000000E+00  0.18250000000E+03  0.18250000000E+03  0.00000000000E+00 0. -1.
         11   -1    0    0    0    0 -0.00000000000E+00 -0.00000000000E+00 -0.18250000000E+03  0.18250000000E+03  0.00000000000E+00 0.  1.
        -11    1    1    2    0    0  0.40599540777E+01 -0.28425928672E+01  0.17102657462E+03  0.17109837167E+03  0.00000000000E+00 0. -1.
         11    1    1    2    0    0 -0.34266582679E+01  0.53484304827E+00 -0.16660877018E+03  0.16664486295E+03  0.00000000000E+00 0.  1.
        -15    1    1    2    0    0  0.19109429276E+01 -0.10550758592E+02 -0.80665680625E+01  0.13535045587E+02  0.17770000000E+01 0.  1.
         15    1    1    2    0    0 -0.25442387374E+01  0.12858508411E+02  0.36487636286E+01  0.13721719802E+02  0.17770000000E+01 0. -1.
</event>
<event>
 6    1  0.1045352E-002  0.1835141E+03  0.7546771E-02  0.1067650E+00
        -11   -1    0    0    0    0  0.00000000000E+00  0.00000000000E+00  0.18250000000E+03  0.18250000000E+03  0.00000000000E+00 0. -1.
         11   -1    0    0    0    0 -0.00000000000E+00 -0.00000000000E+00 -0.18250000000E+03  0.18250000000E+03  0.00000000000E+00 0. -1.
        -11    1    1    2    0    0  0.88440063938E+00 -0.34392003017E+01  0.18145120223E+03  0.18148594727E+03  0.00000000000E+00 0. -1.
         11    1    1    2    0    0 -0.10053805211E+01  0.31360989135E+01 -0.16612958371E+03  0.16616222342E+03  0.00000000000E+00 0. -1.
        -15    1    1    2    0    0 -0.19810345859E+01  0.30131155236E+01 -0.56224973628E+01  0.69118426475E+01  0.17770000000E+01 0. -1.
         15    1    1    2    0    0  0.21020144676E+01 -0.27100141354E+01 -0.96991211551E+01  0.10439986667E+02  0.17770000000E+01 0. -1.
</event>
<event>
 6    1  0.1045352E-002  0.1846086E+03  0.7546771E-02  0.1066789E+00
        -11   -1    0    0    0    0  0.00000000000E+00  0.00000000000E+00  0.18250000000E+03  0.18250000000E+03  0.00000000000E+00 0. -1.
         11   -1    0    0    0    0 -0.00000000000E+00 -0.00000000000E+00 -0.18250000000E+03  0.18250000000E+03  0.00000000000E+00 0.  1.
        -11    1    1    2    0    0  0.64251851373E+01 -0.97179382768E+01  0.18001480079E+03  0.18039137959E+03  0.00000000000E+00 0. -1.
         11    1    1    2    0    0  0.26866967668E+00 -0.48164979133E+00 -0.25423498681E+02  0.25429480040E+02  0.00000000000E+00 0.  1.
        -15    1    1    2    0    0 -0.56705360158E+01  0.17307157385E+02 -0.36249534619E+02  0.40606393149E+02  0.17770000000E+01 0. -1.
         15    1    1    2    0    0 -0.10233187981E+01 -0.71075693165E+01 -0.11834176749E+03  0.11857274722E+03  0.17770000000E+01 0.  1.
</event>
<event>
 6    1  0.1045352E-002  0.1828480E+03  0.7546771E-02  0.1068178E+00
        -11   -1    0    0    0    0  0.00000000000E+00  0.00000000000E+00  0.18250000000E+03  0.18250000000E+03  0.00000000000E+00 0.  1.
         11   -1    0    0    0    0 -0.00000000000E+00 -0.00000000000E+00 -0.18250000000E+03  0.18250000000E+03  0.00000000000E+00 0.  1.
        -11    1    1    2    0    0  0.97931608711E+00 -0.14368047870E+01  0.10587650422E+03  0.10589078153E+03  0.00000000000E+00 0.  1.
         11    1    1    2    0    0 -0.30992949411E+01 -0.10115622865E+01 -0.18212278112E+03  0.18215195934E+03  0.00000000000E+00 0.  1.
        -15    1    1    2    0    0  0.19246868856E+01  0.38984076735E+01  0.71772739861E+02  0.71926253330E+02  0.17770000000E+01 0.  1.
         15    1    1    2    0    0  0.19529196833E+00 -0.14500406000E+01  0.44735370415E+01  0.50310057997E+01  0.17770000000E+01 0.  1.
</event>
<event>
 6    1  0.1045352E-002  0.1779658E+03  0.7546771E-02  0.1072122E+00
        -11   -1    0    0    0    0  0.00000000000E+00  0.00000000000E+00  0.18250000000E+03  0.18250000000E+03  0.00000000000E+00 0.  1.
         11   -1    0    0    0    0 -0.00000000000E+00 -0.00000000000E+00 -0.18250000000E+03  0.18250000000E+03  0.00000000000E+00 0. -1.
        -11    1    1    2    0    0 -0.28382577036E+01  0.34160260026E+01  0.17728867675E+03  0.17734429747E+03  0.00000000000E+00 0.  1.
         11    1    1    2    0    0 -0.10777115172E+01 -0.36478454878E+01 -0.17857079985E+03  0.17861130647E+03  0.00000000000E+00 0. -1.
        -15    1    1    2    0    0  0.20963378724E+01  0.29011396607E+01  0.29803087306E+01  0.49850990899E+01  0.17770000000E+01 0. -1.
         15    1    1    2    0    0  0.18196313484E+01 -0.26693201754E+01 -0.16981856304E+01  0.40592969685E+01  0.17770000000E+01 0.  1.
</event>
<event>
 6    1  0.1045352E-002  0.1864074E+03  0.7546771E-02  0.1065386E+00
        -11   -1    0    0    0    0  0.00000000000E+00  0.00000000000E+00  0.18250000000E+03  0.18250000000E+03  0.00000000000E+00 0.  1.
         11   -1    0    0    0    0 -0.00000000000E+00 -0.00000000000E+00 -0.18250000000E+03  0.18250000000E+03  0.00000000000E+00 0. -1.
        -11    1    1    2    0    0 -0.83144864692E+00 -0.19428896991E+01  0.82547955271E+02  0.82575002554E+02  0.00000000000E+00 0.  1.
         11    1    1    2    0    0  0.31722294291E+01  0.21992698771E+00 -0.17856433526E+03  0.17859264609E+03  0.00000000000E+00 0. -1.
        -15    1    1    2    0    0 -0.37876294852E+01  0.17384754688E+01 -0.25770920866E+01  0.52122515956E+01  0.17770000000E+01 0. -1.
         15    1    1    2    0    0  0.14468487030E+01 -0.15512757491E-01  0.98593472080E+02  0.98620099765E+02  0.17770000000E+01 0.  1.
</event>
<event>
 6    1  0.1045352E-002  0.1941032E+03  0.7546771E-02  0.1059576E+00
        -11   -1    0    0    0    0  0.00000000000E+00  0.00000000000E+00  0.18250000000E+03  0.18250000000E+03  0.00000000000E+00 0. -1.
         11   -1    0    0    0    0 -0.00000000000E+00 -0.00000000000E+00 -0.18250000000E+03  0.18250000000E+03  0.00000000000E+00 0.  1.
        -11    1    1    2    0    0  0.76300035541E+01 -0.16521505339E+01  0.17071836309E+03  0.17089677016E+03  0.00000000000E+00 0. -1.
         11    1    1    2    0    0  0.96218226886E+01  0.17005616616E+01 -0.71995092303E+02  0.72655107856E+02  0.00000000000E+00 0.  1.
        -15    1    1    2    0    0  0.35251785991E+01 -0.13554409798E+02 -0.95333740994E+02  0.96373382270E+02  0.17770000000E+01 0. -1.
         15    1    1    2    0    0 -0.20777004842E+02  0.13505998671E+02 -0.33895297961E+01  0.25074739710E+02  0.17770000000E+01 0.  1.
</event>
<event>
 6    1  0.1045352E-002  0.1827683E+03  0.7546771E-02  0.1068241E+00
        -11   -1    0    0    0    0  0.00000000000E+00  0.00000000000E+00  0.18250000000E+03  0.18250000000E+03  0.00000000000E+00 0.  1.
         11   -1    0    0    0    0 -0.00000000000E+00 -0.00000000000E+00 -0.18250000000E+03  0.18250000000E+03  0.00000000000E+00 0.  1.
        -11    1    1    2    0    0 -0.97645012560E+00  0.29576164701E+01  0.18220509985E+03  0.18223171887E+03  0.00000000000E+00 0.  1.
         11    1    1    2    0    0  0.94294949026E+00  0.34711347758E+01 -0.72211540544E+02  0.72301068582E+02  0.00000000000E+00 0.  1.
        -15    1    1    2    0    0 -0.16489102722E+01 -0.71200270000E+01 -0.89740951117E+02  0.90055592419E+02  0.17770000000E+01 0.  1.
         15    1    1    2    0    0  0.16824109075E+01  0.69127575414E+00 -0.20252608193E+02  0.20411620128E+02  0.17770000000E+01 0. -1.
</event>
<event>
 6    1  0.1045352E-002  0.1856672E+03  0.7546771E-02  0.1065961E+00
        -11   -1    0    0    0    0  0.00000000000E+00  0.00000000000E+00  0.18250000000E+03  0.18250000000E+03  0.00000000000E+00 0.  1.
         11   -1    0    0    0    0 -0.00000000000E+00 -0.00000000000E+00 -0.18250000000E+03  0.18250000000E+03  0.00000000000E+00 0. -1.
        -11    1    1    2    0    0 -0.11147156539E+01  0.36762156454E+01  0.16717943777E+03  0.16722356761E+03  0.00000000000E+00 0.  1.
         11    1    1    2    0    0 -0.17564486288E+01  0.31088231423E+01 -0.17929722429E+03  0.17933277596E+03  0.00000000000E+00 0. -1.
        -15    1    1    2    0    0  0.16652929578E+01  0.20438053124E+01 -0.14356561848E+00  0.31825588568E+01  0.17770000000E+01 0.  1.
         15    1    1    2    0    0  0.12058713250E+01 -0.88288441001E+01  0.12261352144E+02  0.15261097575E+02  0.17770000000E+01 0.  1.
</event>
<event>
 6    1  0.1045352E-002  0.1886080E+03  0.7546771E-02  0.1063694E+00
        -11   -1    0    0    0    0  0.00000000000E+00  0.00000000000E+00  0.18250000000E+03  0.18250000000E+03  0.00000000000E+00 0. -1.
         11   -1    0    0    0    0 -0.00000000000E+00 -0.00000000000E+00 -0.18250000000E+03  0.18250000000E+03  0.00000000000E+00 0.  1.
        -11    1    1    2    0    0 -0.44248210388E+01 -0.15793209869E+01  0.15858931857E+03  0.15865889594E+03  0.00000000000E+00 0. -1.
         11    1    1    2    0    0  0.24494740941E+01  0.76913622039E+00 -0.17637334580E+03  0.17639203100E+03  0.00000000000E+00 0.  1.
        -15    1    1    2    0    0 -0.51263083319E+01 -0.88211893205E+01  0.28722291729E+01  0.10747085538E+02  0.17770000000E+01 0.  1.
         15    1    1    2    0    0  0.71016552766E+01  0.96313740871E+01  0.14911798050E+02  0.19201987516E+02  0.17770000000E+01 0. -1.
</event>
<event>
 6    1  0.1045352E-002  0.1833739E+03  0.7546771E-02  0.1067761E+00
        -11   -1    0    0    0    0  0.00000000000E+00  0.00000000000E+00  0.18250000000E+03  0.18250000000E+03  0.00000000000E+00 0. -1.
         11   -1    0    0    0    0 -0.00000000000E+00 -0.00000000000E+00 -0.18250000000E+03  0.18250000000E+03  0.00000000000E+00 0.  1.
        -11    1    1    2    0    0 -0.26959869322E+00 -0.37222937312E+01  0.15776110875E+03  0.15780524575E+03  0.00000000000E+00 0. -1.
         11    1    1    2    0    0  0.40796158738E+01 -0.88197459202E+00 -0.18157817492E+03  0.18162614006E+03  0.00000000000E+00 0.  1.
        -15    1    1    2    0    0 -0.53717442360E+01  0.37371885270E+01  0.17424314784E+02  0.18697237468E+02  0.17770000000E+01 0. -1.
         15    1    1    2    0    0  0.15617270555E+01  0.86707979628E+00  0.63927513862E+01  0.68713767219E+01  0.17770000000E+01 0.  1.
</event>
<event>
 6    1  0.1045352E-002  0.1841676E+03  0.7546771E-02  0.1067135E+00
        -11   -1    0    0    0    0  0.00000000000E+00  0.00000000000E+00  0.18250000000E+03  0.18250000000E+03  0.00000000000E+00 0. -1.
         11   -1    0    0    0    0 -0.00000000000E+00 -0.00000000000E+00 -0.18250000000E+03  0.18250000000E+03  0.00000000000E+00 0.  1.
        -11    1    1    2    0    0  0.39455706784E+01  0.36559551716E+01  0.18075240022E+03  0.18083241889E+03  0.00000000000E+00 0. -1.
         11    1    1    2    0    0 -0.12632817137E+01  0.44670286608E+01 -0.13805961882E+03  0.13813764359E+03  0.00000000000E+00 0.  1.
        -15    1    1    2    0    0 -0.77803205782E+01 -0.32623566872E+01 -0.31716064136E+02  0.32867047521E+02  0.17770000000E+01 0.  1.
         15    1    1    2    0    0  0.50980316135E+01 -0.48606271452E+01 -0.10976717256E+02  0.13162890006E+02  0.17770000000E+01 0. -1.
</event>
<event>
 6    1  0.1045352E-002  0.1867344E+03  0.7546771E-02  0.1065133E+00
        -11   -1    0    0    0    0  0.00000000000E+00  0.00000000000E+00  0.18250000000E+03  0.18250000000E+03  0.00000000000E+00 0.  1.
         11   -1    0    0    0    0 -0.00000000000E+00 -0.00000000000E+00 -0.18250000000E+03  0.18250000000E+03  0.00000000000E+00 0. -1.
        -11    1    1    2    0    0 -0.22224592894E+00 -0.57990993863E+01  0.17817110038E+03  0.17826558825E+03  0.00000000000E+00 0.  1.
         11    1    1    2    0    0 -0.16072391991E+00 -0.43208746517E+01 -0.17135047139E+03  0.17140501695E+03  0.00000000000E+00 0. -1.
        -15    1    1    2    0    0  0.32615916586E-01  0.72988907495E+01 -0.86932747339E+01  0.11489370068E+02  0.17770000000E+01 0. -1.
         15    1    1    2    0    0  0.35035393227E+00  0.28210832885E+01  0.18726457492E+01  0.38400247266E+01  0.17770000000E+01 0.  1.
</event>
<event>
 6    1  0.1045352E-002  0.1847936E+03  0.7546771E-02  0.1066644E+00
        -11   -1    0    0    0    0  0.00000000000E+00  0.00000000000E+00  0.18250000000E+03  0.18250000000E+03  0.00000000000E+00 0.  1.
         11   -1    0    0    0    0 -0.00000000000E+00 -0.00000000000E+00 -0.18250000000E+03  0.18250000000E+03  0.00000000000E+00 0.  1.
        -11    1    1    2    0    0  0.35215672634E+01  0.64861479065E+00  0.17552885057E+03  0.17556537107E+03  0.00000000000E+00 0.  1.
         11    1    1    2    0    0 -0.36286457016E+01 -0.29415034339E+01 -0.18014583681E+03  0.18020638733E+03  0.00000000000E+00 0.  1.
        -15    1    1    2    0    0 -0.48821091150E+00  0.18564080865E+01 -0.13606673361E+01  0.29485158093E+01  0.17770000000E+01 0. -1.
         15    1    1    2    0    0  0.59528934964E+00  0.43648055668E+00  0.59776535813E+01  0.62797257921E+01  0.17770000000E+01 0.  1.
</event>
<event>
 6    1  0.1045352E-002  0.1829763E+03  0.7546771E-02  0.1068076E+00
        -11   -1    0    0    0    0  0.00000000000E+00  0.00000000000E+00  0.18250000000E+03  0.18250000000E+03  0.00000000000E+00 0. -1.
         11   -1    0    0    0    0 -0.00000000000E+00 -0.00000000000E+00 -0.18250000000E+03  0.18250000000E+03  0.00000000000E+00 0.  1.
        -11    1    1    2    0    0 -0.31220198493E+01 -0.17891504094E+01  0.78764118891E+02  0.78846271261E+02  0.00000000000E+00 0. -1.
         11    1    1    2    0    0  0.62803551020E+01 -0.53098778394E+01 -0.18183777978E+03  0.18202366829E+03  0.00000000000E+00 0.  1.
        -15    1    1    2    0    0 -0.76107544729E+01  0.43839138051E+01  0.73841814754E+02  0.74383557451E+02  0.17770000000E+01 0. -1.
         15    1    1    2    0    0  0.44524192203E+01  0.27151144437E+01  0.29231846132E+02  0.29746502999E+02  0.17770000000E+01 0.  1.
</event>
<event>
 6    1  0.1113967E-002  0.1883160E+03  0.7546771E-02  0.1063917E+00
        -11   -1    0    0    0    0  0.00000000000E+00  0.00000000000E+00  0.18250000000E+03  0.18250000000E+03  0.00000000000E+00 0. -1.
         11   -1    0    0    0    0 -0.00000000000E+00 -0.00000000000E+00 -0.18250000000E+03  0.18250000000E+03  0.00000000000E+00 0.  1.
        -11    1    1    2    0    0  0.13051033686E+01  0.61867803372E+01  0.17657081942E+03  0.17668399422E+03  0.00000000000E+00 0. -1.
         11    1    1    2    0    0  0.22845348147E+01 -0.98265111016E+00 -0.14638533467E+03  0.14640645788E+03  0.00000000000E+00 0.  1.
        -15    1    1    2    0    0 -0.26005678006E+01 -0.85715479646E+00 -0.34976357760E+02  0.35128350351E+02  0.17770000000E+01 0. -1.
         15    1    1    2    0    0 -0.98907038271E+00 -0.43469744306E+01  0.47908730129E+01  0.67811975453E+01  0.17770000000E+01 0.  1.
</event>
<event>
 6    1  0.1045352E-002  0.2058401E+03  0.7546771E-02  0.1051259E+00
        -11   -1    0    0    0    0  0.00000000000E+00  0.00000000000E+00  0.18250000000E+03  0.18250000000E+03  0.00000000000E+00 0. -1.
         11   -1    0    0    0    0 -0.00000000000E+00 -0.00000000000E+00 -0.18250000000E+03  0.18250000000E+03  0.00000000000E+00 0.  1.
        -11    1    1    2    0    0  0.52301474166E+01 -0.57826971314E+01  0.15896882048E+03  0.15915991931E+03  0.00000000000E+00 0. -1.
         11    1    1    2    0    0 -0.68857436789E+01  0.35568038451E+01 -0.15721866044E+03  0.15740956613E+03  0.00000000000E+00 0.  1.
        -15    1    1    2    0    0  0.10783994782E+01  0.11201099049E+02 -0.22790733730E+02  0.25479459144E+02  0.17770000000E+01 0. -1.
         15    1    1    2    0    0  0.57719678411E+00 -0.89752057629E+01  0.21040573687E+02  0.22951055416E+02  0.17770000000E+01 0.  1.
</event>
<event>
 6    1  0.1045352E-002  0.1847783E+03  0.7546771E-02  0.1066656E+00
        -11   -1    0    0    0    0  0.00000000000E+00  0.00000000000E+00  0.18250000000E+03  0.18250000000E+03  0.00000000000E+00 0. -1.
         11   -1    0    0    0    0 -0.00000000000E+00 -0.00000000000E+00 -0.18250000000E+03  0.18250000000E+03  0.00000000000E+00 0.  1.
        -11    1    1    2    0    0  0.24757752851E+01  0.35942367668E+00  0.18020430758E+03  0.18022167217E+03  0.00000000000E+00 0. -1.
         11    1    1    2    0    0  0.40096264150E+01 -0.33179678167E+01 -0.16757335119E+03  0.16765415009E+03  0.00000000000E+00 0.  1.
        -15    1    1    2    0    0 -0.63130199999E+00 -0.26224252933E+01 -0.28420881563E+01  0.43024238194E+01  0.17770000000E+01 0.  1.
         15    1    1    2    0    0 -0.58540997002E+01  0.55809694332E+01 -0.97888682428E+01  0.12821753920E+02  0.17770000000E+01 0. -1.
</event>
<event>
 6    1  0.1045352E-002  0.1840931E+03  0.7546771E-02  0.1067194E+00
        -11   -1    0    0    0    0  0.00000000000E+00  0.00000000000E+00  0.18250000000E+03  0.18250000000E+03  0.00000000000E+00 0.  1.
         11   -1    0    0    0    0 -0.00000000000E+00 -0.00000000000E+00 -0.18250000000E+03  0.18250000000E+03  0.00000000000E+00 0. -1.
        -11    1    1    2    0    0  0.10587926963E+01  0.48376344976E+01  0.10868933891E+03  0.10880209622E+03  0.00000000000E+00 0.  1.
         11    1    1    2    0    0 -0.41027522391E+01 -0.57171379334E+01 -0.18077000314E+03  0.18090691605E+03  0.00000000000E+00 0. -1.
        -15    1    1    2    0    0  0.28736030126E+01  0.71421119094E+01  0.94284473218E+01  0.12301248095E+02  0.17770000000E+01 0.  1.
         15    1    1    2    0    0  0.17035653016E+00 -0.62626084735E+01  0.62652216907E+02  0.62989739629E+02  0.17770000000E+01 0.  1.
</event>
<event>
 6    1  0.1132614E-002  0.1825506E+03  0.7546771E-02  0.1068415E+00
        -11   -1    0    0    0    0  0.00000000000E+00  0.00000000000E+00  0.18250000000E+03  0.18250000000E+03  0.00000000000E+00 0. -1.
         11   -1    0    0    0    0 -0.00000000000E+00 -0.00000000000E+00 -0.18250000000E+03  0.18250000000E+03  0.00000000000E+00 0. -1.
        -11    1    1    2    0    0  0.21460628706E+01 -0.20076750837E+01  0.18242569595E+03  0.18244936527E+03  0.00000000000E+00 0. -1.
         11    1    1    2    0    0  0.30981612412E+00  0.70269438462E+00 -0.31088912191E+02  0.31098395885E+02  0.00000000000E+00 0. -1.
        -15    1    1    2    0    0  0.67837447385E+00 -0.26174905693E+00 -0.39809329764E+02  0.39855603994E+02  0.17770000000E+01 0. -1.
         15    1    1    2    0    0 -0.31342534685E+01  0.15667297560E+01 -0.11152745399E+03  0.11159663485E+03  0.17770000000E+01 0. -1.
</event>
<event>
 6    1  0.1045352E-002  0.1882011E+03  0.7546771E-02  0.1064005E+00
        -11   -1    0    0    0    0  0.00000000000E+00  0.00000000000E+00  0.18250000000E+03  0.18250000000E+03  0.00000000000E+00 0.  1.
         11   -1    0    0    0    0 -0.00000000000E+00 -0.00000000000E+00 -0.18250000000E+03  0.18250000000E+03  0.00000000000E+00 0.  1.
        -11    1    1    2    0    0  0.46370590108E+00  0.23259104182E+01  0.16674135843E+03  0.16675822467E+03  0.00000000000E+00 0.  1.
         11    1    1    2    0    0  0.33301402677E+01 -0.46543121452E+01 -0.17670623109E+03  0.17679888168E+03  0.00000000000E+00 0.  1.
        -15    1    1    2    0    0 -0.60400201961E+01 -0.30457504613E+01 -0.26147436724E+01  0.74667967238E+01  0.17770000000E+01 0. -1.
         15    1    1    2    0    0  0.22461740274E+01  0.53741521883E+01  0.12579616332E+02  0.13976096936E+02  0.17770000000E+01 0.  1.
</event>
<event>
 6    1  0.1045352E-002  0.1831655E+03  0.7546771E-02  0.1067926E+00
        -11   -1    0    0    0    0  0.00000000000E+00  0.00000000000E+00  0.18250000000E+03  0.18250000000E+03  0.00000000000E+00 0.  1.
         11   -1    0    0    0    0 -0.00000000000E+00 -0.00000000000E+00 -0.18250000000E+03  0.18250000000E+03  0.00000000000E+00 0. -1.
        -11    1    1    2    0    0 -0.43466258819E+00  0.65036146099E+01  0.18171762678E+03  0.18183449017E+03  0.00000000000E+00 0.  1.
         11    1    1    2    0    0  0.24037015171E+01 -0.41971113168E+01 -0.15100517583E+03  0.15108261532E+03  0.00000000000E+00 0. -1.
        -15    1    1    2    0    0 -0.20783815757E+01  0.27563387667E+01 -0.14121397679E+02  0.14645431874E+02  0.17770000000E+01 0. -1.
         15    1    1    2    0    0  0.10934264677E+00 -0.50628420599E+01 -0.16591053266E+02  0.17437462632E+02  0.17770000000E+01 0. -1.
</event>
<event>
 6    1  0.1045352E-002  0.1980596E+03  0.7546771E-02  0.1056703E+00
        -11   -1    0    0    0    0  0.00000000000E+00  0.00000000000E+00  0.18250000000E+03  0.18250000000E+03  0.00000000000E+00 0.  1.
         11   -1    0    0    0    0 -0.00000000000E+00 -0.00000000000E+00 -0.18250000000E+03  0.18250000000E+03  0.00000000000E+00 0.  1.
        -11    1    1    2    0    0  0.17178953179E+01 -0.34303591677E+01  0.15914445647E+03  0.15919069242E+03  0.00000000000E+00 0.  1.
         11    1    1    2    0    0  0.63790664767E+01 -0.31348279197E+01 -0.16678897392E+03  0.16694035299E+03  0.00000000000E+00 0.  1.
        -15    1    1    2    0    0  0.80535694697E+01  0.95755357401E+01 -0.89222901833E+01  0.15469837007E+02  0.17770000000E+01 0. -1.
         15    1    1    2    0    0 -0.16150531264E+02 -0.30103486528E+01  0.16566807640E+02  0.23399117580E+02  0.17770000000E+01 0.  1.
</event>
<event>
 6    1  0.1045352E-002  0.1978066E+03  0.7546771E-02  0.1056884E+00
        -11   -1    0    0    0    0  0.00000000000E+00  0.00000000000E+00  0.18250000000E+03  0.18250000000E+03  0.00000000000E+00 0. -1.
         11   -1    0    0    0    0 -0.00000000000E+00 -0.00000000000E+00 -0.18250000000E+03  0.18250000000E+03  0.00000000000E+00 0.  1.
        -11    1    1    2    0    0  0.43992880252E+01 -0.13042121224E+02  0.13669686017E+03  0.13738807169E+03  0.00000000000E+00 0. -1.
         11    1    1    2    0    0 -0.43096346775E+00 -0.65145935518E+01 -0.16706588550E+03  0.16719340823E+03  0.00000000000E+00 0.  1.
        -15    1    1    2    0    0 -0.11087073138E+02  0.22358820782E+02  0.40496680551E+02  0.47602299547E+02  0.17770000000E+01 0.  1.
         15    1    1    2    0    0  0.71187485803E+01 -0.28021060058E+01 -0.10127655224E+02  0.12816220533E+02  0.17770000000E+01 0. -1.
</event>
<event>
 6    1  0.1045352E-002  0.1845121E+03  0.7546771E-02  0.1066864E+00
        -11   -1    0    0    0    0  0.00000000000E+00  0.00000000000E+00  0.18250000000E+03  0.18250000000E+03  0.00000000000E+00 0. -1.
         11   -1    0    0    0    0 -0.00000000000E+00 -0.00000000000E+00 -0.18250000000E+03  0.18250000000E+03  0.00000000000E+00 0. -1.
        -11    1    1    2    0    0  0.65429384984E+01 -0.36011744330E+01  0.78014565220E+02  0.78371237632E+02  0.00000000000E+00 0. -1.
         11    1    1    2    0    0  0.15688857081E+01  0.47886607868E+01 -0.18041749630E+03  0.18048785456E+03  0.00000000000E+00 0. -1.
        -15    1    1    2    0    0 -0.93062859896E+01 -0.20156189579E+01  0.10793266306E+02  0.14502482727E+02  0.17770000000E+01 0.  1.
         15    1    1    2    0    0  0.11944617830E+01  0.82813260417E+00  0.91609664770E+02  0.91638425078E+02  0.17770000000E+01 0. -1.
</event>
<event>
 6    1  0.1045352E-002  0.1903293E+03  0.7546771E-02  0.1062388E+00
        -11   -1    0    0    0    0  0.00000000000E+00  0.00000000000E+00  0.18250000000E+03  0.18250000000E+03  0.00000000000E+00 0. -1.
         11   -1    0    0    0    0 -0.00000000000E+00 -0.00000000000E+00 -0.18250000000E+03  0.18250000000E+03  0.00000000000E+00 0. -1.
        -11    1    1    2    0    0 -0.70076796296E+01 -0.20484982055E+01  0.76171108735E+02  0.76520204682E+02  0.00000000000E+00 0. -1.
         11    1    1    2    0    0  0.46601956996E+00 -0.92047438438E+01 -0.17442740266E+03  0.17467072818E+03  0.00000000000E+00 0. -1.
        -15    1    1    2    0    0 -0.16191963562E+01 -0.21066831553E+02  0.21941351203E+02  0.30512518909E+02  0.17770000000E+01 0.  1.
         15    1    1    2    0    0  0.81608564158E+01  0.32320073602E+02  0.76314942724E+02  0.83296548230E+02  0.17770000000E+01 0. -1.
</event>
<event>
 6    1  0.1045352E-002  0.1836998E+03  0.7546771E-02  0.1067504E+00
        -11   -1    0    0    0    0  0.00000000000E+00  0.00000000000E+00  0.18250000000E+03  0.18250000000E+03  0.00000000000E+00 0. -1.
         11   -1    0    0    0    0 -0.00000000000E+00 -0.00000000000E+00 -0.18250000000E+03  0.18250000000E+03  0.00000000000E+00 0.  1.
        -11    1    1    2    0    0  0.22677164739E+01 -0.32489093517E+01  0.18125694948E+03  0.18130024734E+03  0.00000000000E+00 0. -1.
         11    1    1    2    0    0 -0.25030591908E+01  0.39188386330E+01 -0.12977503006E+03  0.12985831135E+03  0.00000000000E+00 0.  1.
        -15    1    1    2    0    0 -0.82151853277E+00 -0.72598082120E+01 -0.37503790100E+02  0.38250120377E+02  0.17770000000E+01 0. -1.
         15    1    1    2    0    0  0.10568612496E+01  0.65898789306E+01 -0.13978129324E+02  0.15591320932E+02  0.17770000000E+01 0.  1.
</event>
<event>
 6    1  0.1045352E-002  0.1870069E+03  0.7546771E-02  0.1064923E+00
        -11   -1    0    0    0    0  0.00000000000E+00  0.00000000000E+00  0.18250000000E+03  0.18250000000E+03  0.00000000000E+00 0.  1.
         11   -1    0    0    0    0 -0.00000000000E+00 -0.00000000000E+00 -0.18250000000E+03  0.18250000000E+03  0.00000000000E+00 0. -1.
        -11    1    1    2    0    0 -0.34558753501E+01 -0.22235853121E+01  0.17794563523E+03  0.17799307993E+03  0.00000000000E+00 0.  1.
         11    1    1    2    0    0  0.15205178586E+01  0.28635162379E+01 -0.17670375430E+03  0.17673349564E+03  0.00000000000E+00 0. -1.
        -15    1    1    2    0    0  0.44173022649E+01 -0.15848840964E+01  0.22852935354E+01  0.55140468298E+01  0.17770000000E+01 0.  1.
         15    1    1    2    0    0 -0.24819447734E+01  0.94495317061E+00 -0.35271744698E+01  0.47593775951E+01  0.17770000000E+01 0. -1.
</event>
<event>
 6    1  0.1045352E-002  0.1862309E+03  0.7546771E-02  0.1065523E+00
        -11   -1    0    0    0    0  0.00000000000E+00  0.00000000000E+00  0.18250000000E+03  0.18250000000E+03  0.00000000000E+00 0. -1.
         11   -1    0    0    0    0 -0.00000000000E+00 -0.00000000000E+00 -0.18250000000E+03  0.18250000000E+03  0.00000000000E+00 0. -1.
        -11    1    1    2    0    0 -0.12961110548E+01 -0.21397224077E+01  0.17261705426E+03  0.17263518106E+03  0.00000000000E+00 0. -1.
         11    1    1    2    0    0 -0.19297954585E+01 -0.25817759905E+01 -0.17874005096E+03  0.17876911225E+03  0.00000000000E+00 0. -1.
        -15    1    1    2    0    0  0.48864766602E+01  0.68074288306E+01  0.28809261741E+01  0.90374889242E+01  0.17770000000E+01 0. -1.
         15    1    1    2    0    0 -0.16605701469E+01 -0.20859304324E+01  0.32420705191E+01  0.45582177694E+01  0.17770000000E+01 0. -1.
</event>
<event>
 6    1  0.1045352E-002  0.1098960E+03  0.7546771E-02  0.1147722E+00
        -11   -1    0    0    0    0  0.00000000000E+00  0.00000000000E+00  0.18250000000E+03  0.18250000000E+03  0.00000000000E+00 0.  1.
         11   -1    0    0    0    0 -0.00000000000E+00 -0.00000000000E+00 -0.18250000000E+03  0.18250000000E+03  0.00000000000E+00 0. -1.
        -11    1    1    2    0    0 -0.35440430240E+02 -0.15336888307E+02  0.13625395152E+03  0.14162056186E+03  0.00000000000E+00 0.  1.
         11    1    1    2    0    0 -0.56430149125E+01  0.69019747325E+00 -0.68278893768E+02  0.68515161272E+02  0.00000000000E+00 0. -1.
        -15    1    1    2    0    0  0.39084810180E+02  0.46908202144E+02  0.17436994058E+02  0.63523289477E+02  0.17770000000E+01 0.  1.
         15    1    1    2    0    0  0.19986349731E+01 -0.32261511310E+02 -0.85412051808E+02  0.91340987387E+02  0.17770000000E+01 0. -1.
</event>
<event>
 6    1  0.1045352E-002  0.1827069E+03  0.7546771E-02  0.1068290E+00
        -11   -1    0    0    0    0  0.00000000000E+00  0.00000000000E+00  0.18250000000E+03  0.18250000000E+03  0.00000000000E+00 0. -1.
         11   -1    0    0    0    0 -0.00000000000E+00 -0.00000000000E+00 -0.18250000000E+03  0.18250000000E+03  0.00000000000E+00 0. -1.
        -11    1    1    2    0    0 -0.18817222784E+01 -0.33894103316E+01  0.18225187021E+03  0.18229309690E+03  0.00000000000E+00 0. -1.
         11    1    1    2    0    0  0.66232088062E+00  0.21321162352E+00 -0.50344713403E+02  0.50349521306E+02  0.00000000000E+00 0. -1.
        -15    1    1    2    0    0  0.13674008645E+01  0.65294539534E+01 -0.72103466939E+02  0.72433219089E+02  0.17770000000E+01 0. -1.
         15    1    1    2    0    0 -0.14799946671E+00 -0.33532552453E+01 -0.59803689872E+02  0.59924162705E+02  0.17770000000E+01 0. -1.
</event>
<event>
 6    1  0.1045352E-002  0.1826577E+03  0.7546771E-02  0.1068329E+00
        -11   -1    0    0    0    0  0.00000000000E+00  0.00000000000E+00  0.18250000000E+03  0.18250000000E+03  0.00000000000E+00 0.  1.
         11   -1    0    0    0    0 -0.00000000000E+00 -0.00000000000E+00 -0.18250000000E+03  0.18250000000E+03  0.00000000000E+00 0. -1.
        -11    1    1    2    0    0  0.22685540435E+01  0.31407439702E+01  0.11318288935E+03  0.11324918124E+03  0.00000000000E+00 0.  1.
         11    1    1    2    0    0 -0.29188294962E+01 -0.10679119076E+01 -0.18231582814E+03  0.18234231870E+03  0.00000000000E+00 0. -1.
        -15    1    1    2    0    0  0.25970583070E+01 -0.12557701791E+01  0.41520281392E+02  0.41658290489E+02  0.17770000000E+01 0. -1.
         15    1    1    2    0    0 -0.19467828543E+01 -0.81706188349E+00  0.27612657391E+02  0.27750209563E+02  0.17770000000E+01 0. -1.
</event>
<event>
 6    1  0.1045352E-002  0.1967622E+03  0.7546771E-02  0.1057637E+00
        -11   -1    0    0    0    0  0.00000000000E+00  0.00000000000E+00  0.18250000000E+03  0.18250000000E+03  0.00000000000E+00 0. -1.
         11   -1    0    0    0    0 -0.00000000000E+00 -0.00000000000E+00 -0.18250000000E+03  0.18250000000E+03  0.00000000000E+00 0. -1.
        -11    1    1    2    0    0 -0.25787205990E+01 -0.52275228283E+01  0.16813682565E+03  0.16823783443E+03  0.00000000000E+00 0. -1.
         11    1    1    2    0    0  0.68612318053E+00 -0.22421935008E+00 -0.52905358795E+02  0.52910282825E+02  0.00000000000E+00 0. -1.
        -15    1    1    2    0    0  0.61030879279E+01 -0.46907233670E+00  0.13486493556E+02  0.14916800882E+02  0.17770000000E+01 0.  1.
         15    1    1    2    0    0 -0.42104905094E+01  0.59208145151E+01 -0.12871796041E+03  0.12893508186E+03  0.17770000000E+01 0. -1.
</event>
<event>
 6    1  0.1045352E-002  0.1846580E+03  0.7546771E-02  0.1066750E+00
        -11   -1    0    0    0    0  0.00000000000E+00  0.00000000000E+00  0.18250000000E+03  0.18250000000E+03  0.00000000000E+00 0. -1.
         11   -1    0    0    0    0 -0.00000000000E+00 -0.00000000000E+00 -0.18250000000E+03  0.18250000000E+03  0.00000000000E+00 0.  1.
        -11    1    1    2    0    0 -0.12685888252E+01  0.92152818400E+00  0.69482274116E+02  0.69499963656E+02  0.00000000000E+00 0. -1.
         11    1    1    2    0    0 -0.66545816090E+01 -0.77035244185E+01 -0.18005450264E+03  0.18034204076E+03  0.00000000000E+00 0.  1.
        -15    1    1    2    0    0 -0.77735970339E+01  0.90714757234E+01  0.21441640858E+02  0.24609391995E+02  0.17770000000E+01 0.  1.
         15    1    1    2    0    0  0.15696767468E+02 -0.22894794889E+01  0.89130587666E+02  0.90548603589E+02  0.17770000000E+01 0. -1.
</event>
<event>
 6    1  0.1045352E-002  0.1865047E+03  0.7546771E-02  0.1065311E+00
        -11   -1    0    0    0    0  0.00000000000E+00  0.00000000000E+00  0.18250000000E+03  0.18250000000E+03  0.00000000000E+00 0. -1.
         11   -1    0    0    0    0 -0.00000000000E+00 -0.00000000000E+00 -0.18250000000E+03  0.18250000000E+03  0.00000000000E+00 0. -1.
        -11    1    1    2    0    0 -0.42478315552E+01  0.34052626261E+01  0.63875875875E+02  0.64107467624E+02  0.00000000000E+00 0. -1.
         11    1    1    2    0    0 -0.18051539953E+00 -0.32488487621E+01 -0.17846566596E+03  0.17849532635E+03  0.00000000000E+00 0. -1.
        -15    1    1    2    0    0  0.27818932419E+01 -0.35897410449E+01  0.11729722395E+03  0.11739855896E+03  0.17770000000E+01 0. -1.
         15    1    1    2    0    0  0.16464537128E+01  0.34333271809E+01 -0.27074338604E+01  0.49986470638E+01  0.17770000000E+01 0. -1.
</event>
<event>
 6    1  0.1045352E-002  0.1846513E+03  0.7546771E-02  0.1066755E+00
        -11   -1    0    0    0    0  0.00000000000E+00  0.00000000000E+00  0.18250000000E+03  0.18250000000E+03  0.00000000000E+00 0.  1.
         11   -1    0    0    0    0 -0.00000000000E+00 -0.00000000000E+00 -0.18250000000E+03  0.18250000000E+03  0.00000000000E+00 0. -1.
        -11    1    1    2    0    0 -0.41220755158E+00 -0.65665748487E+01  0.16551167314E+03  0.16564239725E+03  0.00000000000E+00 0.  1.
         11    1    1    2    0    0 -0.53589688174E+01  0.12724263006E+01 -0.18026459233E+03  0.18034872016E+03  0.00000000000E+00 0. -1.
        -15    1    1    2    0    0  0.32624478962E+01 -0.15255666138E+01  0.79074382842E+01  0.88688347028E+01  0.17770000000E+01 0. -1.
         15    1    1    2    0    0  0.25087284728E+01  0.68197151619E+01  0.68454809041E+01  0.10140047892E+02  0.17770000000E+01 0.  1.
</event>
<event>
 6    1  0.1045352E-002  0.1713247E+03  0.7546771E-02  0.1077716E+00
        -11   -1    0    0    0    0  0.00000000000E+00  0.00000000000E+00  0.18250000000E+03  0.18250000000E+03  0.00000000000E+00 0.  1.
         11   -1    0    0    0    0 -0.00000000000E+00 -0.00000000000E+00 -0.18250000000E+03  0.18250000000E+03  0.00000000000E+00 0.  1.
        -11    1    1    2    0    0  0.45133037546E+01  0.61563591393E+01  0.17595041807E+03  0.17611592854E+03  0.00000000000E+00 0.  1.
         11    1    1    2    0    0  0.10117032884E+02  0.57135730688E+01 -0.16676951023E+03  0.16717376832E+03  0.00000000000E+00 0.  1.
        -15    1    1    2    0    0 -0.22793415526E+01 -0.21751408483E+01 -0.41752028337E+00  0.36412481117E+01  0.17770000000E+01 0. -1.
         15    1    1    2    0    0 -0.12350995086E+02 -0.96947913598E+01 -0.87633875524E+01  0.18069055026E+02  0.17770000000E+01 0.  1.
</event>
<event>
 6    1  0.1045352E-002  0.1856260E+03  0.7546771E-02  0.1065993E+00
        -11   -1    0    0    0    0  0.00000000000E+00  0.00000000000E+00  0.18250000000E+03  0.18250000000E+03  0.00000000000E+00 0. -1.
         11   -1    0    0    0    0 -0.00000000000E+00 -0.00000000000E+00 -0.18250000000E+03  0.18250000000E+03  0.00000000000E+00 0.  1.
        -11    1    1    2    0    0 -0.81356772611E-02  0.64175974015E+01  0.17925919287E+03  0.17937403338E+03  0.00000000000E+00 0. -1.
         11    1    1    2    0    0  0.55663129846E+01 -0.28667490591E+01 -0.17253897983E+03  0.17265254604E+03  0.00000000000E+00 0.  1.
        -15    1    1    2    0    0 -0.94863040285E+00 -0.51296443194E-01 -0.66184945331E+01  0.69184340606E+01  0.17770000000E+01 0.  1.
         15    1    1    2    0    0 -0.46095469045E+01 -0.34995518992E+01 -0.10171850186E+00  0.60549865247E+01  0.17770000000E+01 0. -1.
</event>
<event>
 6    1  0.1045352E-002  0.1838453E+03  0.7546771E-02  0.1067389E+00
        -11   -1    0    0    0    0  0.00000000000E+00  0.00000000000E+00  0.18250000000E+03  0.18250000000E+03  0.00000000000E+00 0.  1.
         11   -1    0    0    0    0 -0.00000000000E+00 -0.00000000000E+00 -0.18250000000E+03  0.18250000000E+03  0.00000000000E+00 0. -1.
        -11    1    1    2    0    0 -0.45390787473E+01 -0.13717810034E+01  0.18109264033E+03  0.18115471122E+03  0.00000000000E+00 0.  1.
         11    1    1    2    0    0  0.82390081310E+00 -0.13590410105E+01 -0.11583321515E+03  0.11584411740E+03  0.00000000000E+00 0. -1.
        -15    1    1    2    0    0 -0.63238109025E+01  0.95179868455E+00 -0.11704495208E+02  0.13455461424E+02  0.17770000000E+01 0. -1.
         15    1    1    2    0    0  0.10038988837E+02  0.17790233294E+01 -0.53554929971E+02  0.54545709951E+02  0.17770000000E+01 0.  1.
</event>
<event>
 6    1  0.1045352E-002  0.1826015E+03  0.7546771E-02  0.1068374E+00
        -11   -1    0    0    0    0  0.00000000000E+00  0.00000000000E+00  0.18250000000E+03  0.18250000000E+03  0.00000000000E+00 0.  1.
         11   -1    0    0    0    0 -0.00000000000E+00 -0.00000000000E+00 -0.18250000000E+03  0.18250000000E+03  0.00000000000E+00 0.  1.
        -11    1    1    2    0    0  0.52991290217E+00 -0.10526552712E+01  0.15619913524E+02  0.15664309410E+02  0.00000000000E+00 0.  1.
         11    1    1    2    0    0  0.14812276133E+00 -0.47230150180E+01 -0.18233724649E+03  0.18239846564E+03  0.00000000000E+00 0.  1.
        -15    1    1    2    0    0 -0.14310898548E+01  0.44764597902E+01  0.14655588059E+03  0.14664198094E+03  0.17770000000E+01 0.  1.
         15    1    1    2    0    0  0.75305419130E+00  0.12992104990E+01  0.20161452372E+02  0.20295244007E+02  0.17770000000E+01 0. -1.
</event>
<event>
 6    1  0.1045352E-002  0.1862885E+03  0.7546771E-02  0.1065479E+00
        -11   -1    0    0    0    0  0.00000000000E+00  0.00000000000E+00  0.18250000000E+03  0.18250000000E+03  0.00000000000E+00 0. -1.
         11   -1    0    0    0    0 -0.00000000000E+00 -0.00000000000E+00 -0.18250000000E+03  0.18250000000E+03  0.00000000000E+00 0.  1.
        -11    1    1    2    0    0  0.54035928571E+01 -0.39001556409E+00  0.17862940835E+03  0.17871154539E+03  0.00000000000E+00 0. -1.
         11    1    1    2    0    0  0.49158982565E+01  0.98528956328E+00 -0.15236368892E+03  0.15244615624E+03  0.00000000000E+00 0.  1.
        -15    1    1    2    0    0 -0.83003613324E+01 -0.39904146963E+01 -0.27727360099E+02  0.29270866655E+02  0.17770000000E+01 0.  1.
         15    1    1    2    0    0 -0.20191297813E+01  0.33951406971E+01  0.14616406723E+01  0.45714317103E+01  0.17770000000E+01 0. -1.
</event>
<event>
 6    1  0.1045352E-002  0.1826979E+03  0.7546771E-02  0.1068297E+00
        -11   -1    0    0    0    0  0.00000000000E+00  0.00000000000E+00  0.18250000000E+03  0.18250000000E+03  0.00000000000E+00 0. -1.
         11   -1    0    0    0    0 -0.00000000000E+00 -0.00000000000E+00 -0.18250000000E+03  0.18250000000E+03  0.00000000000E+00 0.  1.
        -11    1    1    2    0    0  0.39304420991E+01  0.14066323479E-01  0.18225974661E+03  0.18230212233E+03  0.00000000000E+00 0. -1.
         11    1    1    2    0    0 -0.31504202605E-01  0.12483169402E+01 -0.85216932496E+02  0.85226080936E+02  0.00000000000E+00 0.  1.
        -15    1    1    2    0    0  0.14184781182E+01  0.62964573197E+00 -0.50394919308E+02  0.50450115510E+02  0.17770000000E+01 0.  1.
         15    1    1    2    0    0 -0.53174160147E+01 -0.18920289956E+01 -0.46647894802E+02  0.47021681225E+02  0.17770000000E+01 0.  1.
</event>
<event>
 6    1  0.1045352E-002  0.1882703E+03  0.7546771E-02  0.1063952E+00
        -11   -1    0    0    0    0  0.00000000000E+00  0.00000000000E+00  0.18250000000E+03  0.18250000000E+03  0.00000000000E+00 0.  1.
         11   -1    0    0    0    0 -0.00000000000E+00 -0.00000000000E+00 -0.18250000000E+03  0.18250000000E+03  0.00000000000E+00 0. -1.
        -11    1    1    2    0    0 -0.27320304891E+01 -0.18599785359E+01  0.15626224609E+03  0.15629719468E+03  0.00000000000E+00 0.  1.
         11    1    1    2    0    0  0.31321014883E+01 -0.20045085467E+01 -0.17669061698E+03  0.17672974351E+03  0.00000000000E+00 0. -1.
        -15    1    1    2    0    0 -0.42578495546E+00 -0.82097149969E+01  0.27825083577E+00  0.84152163185E+01  0.17770000000E+01 0.  1.
         15    1    1    2    0    0  0.25713956227E-01  0.12074202080E+02  0.20150120049E+02  0.23557845488E+02  0.17770000000E+01 0. -1.
</event>
<event>
 6    1  0.1045352E-002  0.1892474E+03  0.7546771E-02  0.1063207E+00
        -11   -1    0    0    0    0  0.00000000000E+00  0.00000000000E+00  0.18250000000E+03  0.18250000000E+03  0.00000000000E+00 0. -1.
         11   -1    0    0    0    0 -0.00000000000E+00 -0.00000000000E+00 -0.18250000000E+03  0.18250000000E+03  0.00000000000E+00 0.  1.
        -11    1    1    2    0    0 -0.87671455112E+01  0.55150529964E+01  0.17544716889E+03  0.17575263219E+03  0.00000000000E+00 0. -1.
         11    1    1    2    0    0  0.63237838936E+01  0.13078076624E+02 -0.15165785148E+03  0.15235199456E+03  0.00000000000E+00 0.  1.
        -15    1    1    2    0    0  0.37523230104E+01 -0.16723027058E+02 -0.50803132111E+01  0.17964043901E+02  0.17770000000E+01 0.  1.
         15    1    1    2    0    0 -0.13089613929E+01 -0.18701025628E+01 -0.18709004198E+02  0.18931329341E+02  0.17770000000E+01 0. -1.
</event>
<event>
 6    1  0.1045352E-002  0.1831333E+03  0.7546771E-02  0.1067952E+00
        -11   -1    0    0    0    0  0.00000000000E+00  0.00000000000E+00  0.18250000000E+03  0.18250000000E+03  0.00000000000E+00 0.  1.
         11   -1    0    0    0    0 -0.00000000000E+00 -0.00000000000E+00 -0.18250000000E+03  0.18250000000E+03  0.00000000000E+00 0.  1.
        -11    1    1    2    0    0  0.16893473401E-01 -0.11104273787E+02  0.18152742999E+03  0.18186674523E+03  0.00000000000E+00 0.  1.
         11    1    1    2    0    0 -0.13135643257E+01 -0.59325030111E+00 -0.56804137602E+02  0.56822420274E+02  0.00000000000E+00 0.  1.
        -15    1    1    2    0    0  0.55129373100E+01  0.34554778202E+01 -0.18879866087E+02  0.20048438273E+02  0.17770000000E+01 0. -1.
         15    1    1    2    0    0 -0.42162664578E+01  0.82420462676E+01 -0.10584342630E+03  0.10626239622E+03  0.17770000000E+01 0.  1.
</event>
<event>
 6    1  0.1045352E-002  0.1952903E+03  0.7546771E-02  0.1058706E+00
        -11   -1    0    0    0    0  0.00000000000E+00  0.00000000000E+00  0.18250000000E+03  0.18250000000E+03  0.00000000000E+00 0.  1.
         11   -1    0    0    0    0 -0.00000000000E+00 -0.00000000000E+00 -0.18250000000E+03  0.18250000000E+03  0.00000000000E+00 0.  1.
        -11    1    1    2    0    0 -0.26329935085E+01  0.20310509177E+01  0.16967709126E+03  0.16970967304E+03  0.00000000000E+00 0.  1.
         11    1    1    2    0    0 -0.12735893878E+00 -0.17335972202E+01 -0.12773239211E+03  0.12774421933E+03  0.00000000000E+00 0.  1.
        -15    1    1    2    0    0  0.43083705347E+01  0.88544791075E+01 -0.52461361382E+02  0.53407078407E+02  0.17770000000E+01 0. -1.
         15    1    1    2    0    0 -0.15480180874E+01 -0.91519328050E+01  0.10516662225E+02  0.14139029225E+02  0.17770000000E+01 0.  1.
</event>
<event>
 6    1  0.1045352E-002  0.1827105E+03  0.7546771E-02  0.1068287E+00
        -11   -1    0    0    0    0  0.00000000000E+00  0.00000000000E+00  0.18250000000E+03  0.18250000000E+03  0.00000000000E+00 0.  1.
         11   -1    0    0    0    0 -0.00000000000E+00 -0.00000000000E+00 -0.18250000000E+03  0.18250000000E+03  0.00000000000E+00 0. -1.
        -11    1    1    2    0    0 -0.29632891873E+00  0.50998996038E+00  0.34428348873E+02  0.34433401033E+02  0.00000000000E+00 0.  1.
         11    1    1    2    0    0  0.28878697551E+01  0.17230083208E+01 -0.18225847698E+03  0.18228949772E+03  0.00000000000E+00 0. -1.
        -15    1    1    2    0    0 -0.63122022263E+00 -0.21125702543E+01  0.13965332816E+03  0.13968203602E+03  0.17770000000E+01 0.  1.
         15    1    1    2    0    0 -0.19603206138E+01 -0.12042802685E+00  0.81767999449E+01  0.85950652212E+01  0.17770000000E+01 0. -1.
</event>
<event>
 6    1  0.1045352E-002  0.1859429E+03  0.7546771E-02  0.1065747E+00
        -11   -1    0    0    0    0  0.00000000000E+00  0.00000000000E+00  0.18250000000E+03  0.18250000000E+03  0.00000000000E+00 0. -1.
         11   -1    0    0    0    0 -0.00000000000E+00 -0.00000000000E+00 -0.18250000000E+03  0.18250000000E+03  0.00000000000E+00 0.  1.
        -11    1    1    2    0    0 -0.25379061268E+01 -0.18763249626E+00  0.17903902322E+03  0.17905710824E+03  0.00000000000E+00 0. -1.
         11    1    1    2    0    0 -0.45063471958E+01  0.13329338039E+00 -0.16578135344E+03  0.16584264253E+03  0.00000000000E+00 0.  1.
        -15    1    1    2    0    0  0.74434543405E+01 -0.45443296457E+01 -0.12099321242E+02  0.15020227960E+02  0.17770000000E+01 0. -1.
         15    1    1    2    0    0 -0.39920101791E+00  0.45986687616E+01 -0.11583485407E+01  0.50800212768E+01  0.17770000000E+01 0.  1.
</event>
<event>
 6    1  0.1045352E-002  0.1894662E+03  0.7546771E-02  0.1063041E+00
        -11   -1    0    0    0    0  0.00000000000E+00  0.00000000000E+00  0.18250000000E+03  0.18250000000E+03  0.00000000000E+00 0.  1.
         11   -1    0    0    0    0 -0.00000000000E+00 -0.00000000000E+00 -0.18250000000E+03  0.18250000000E+03  0.00000000000E+00 0. -1.
        -11    1    1    2    0    0  0.43469181312E+01 -0.50543854550E+00  0.14618383457E+03  0.14624932360E+03  0.00000000000E+00 0.  1.
         11    1    1    2    0    0 -0.19846450047E+01 -0.51972487194E+01 -0.17544566123E+03  0.17553384362E+03  0.00000000000E+00 0. -1.
        -15    1    1    2    0    0 -0.45049744032E+01  0.10280180430E+01  0.34977240358E+02  0.35325864285E+02  0.17770000000E+01 0. -1.
         15    1    1    2    0    0  0.21427012768E+01  0.46746692219E+01 -0.57154136953E+01  0.78909684960E+01  0.17770000000E+01 0. -1.
</event>
<event>
 6    1  0.1045352E-002  0.1840272E+03  0.7546771E-02  0.1067246E+00
        -11   -1    0    0    0    0  0.00000000000E+00  0.00000000000E+00  0.18250000000E+03  0.18250000000E+03  0.00000000000E+00 0. -1.
         11   -1    0    0    0    0 -0.00000000000E+00 -0.00000000000E+00 -0.18250000000E+03  0.18250000000E+03  0.00000000000E+00 0.  1.
        -11    1    1    2    0    0 -0.16687876593E+01  0.20316704904E+01  0.18095371230E+03  0.18097281159E+03  0.00000000000E+00 0. -1.
         11    1    1    2    0    0 -0.56413957016E+00  0.20406178189E+01 -0.15193105205E+03  0.15194580268E+03  0.00000000000E+00 0.  1.
        -15    1    1    2    0    0  0.11356757455E+01 -0.63309933474E+01 -0.28082822936E+02  0.28864752021E+02  0.17770000000E+01 0. -1.
         15    1    1    2    0    0  0.10972514840E+01  0.22587050382E+01 -0.93983731371E+00  0.32166337132E+01  0.17770000000E+01 0. -1.
</event>
<event>
 6    1  0.1045352E-002  0.1917445E+03  0.7546771E-02  0.1061325E+00
        -11   -1    0    0    0    0  0.00000000000E+00  0.00000000000E+00  0.18250000000E+03  0.18250000000E+03  0.00000000000E+00 0. -1.
         11   -1    0    0    0    0 -0.00000000000E+00 -0.00000000000E+00 -0.18250000000E+03  0.18250000000E+03  0.00000000000E+00 0.  1.
        -11    1    1    2    0    0  0.30454974840E+01 -0.85942165750E+00  0.12282146824E+03  0.12286222658E+03  0.00000000000E+00 0. -1.
         11    1    1    2    0    0 -0.87481311244E+01  0.20926027139E+02 -0.17176450643E+03  0.17325551673E+03  0.00000000000E+00 0.  1.
        -15    1    1    2    0    0  0.38670742173E+01  0.37915436651E+01  0.44020505811E+02  0.44387979535E+02  0.17770000000E+01 0. -1.
         15    1    1    2    0    0  0.18355594231E+01 -0.23858149147E+02  0.49225323793E+01  0.24494277151E+02  0.17770000000E+01 0. -1.
</event>
<event>
 6    1  0.1045352E-002  0.1884938E+03  0.7546771E-02  0.1063781E+00
        -11   -1    0    0    0    0  0.00000000000E+00  0.00000000000E+00  0.18250000000E+03  0.18250000000E+03  0.00000000000E+00 0. -1.
         11   -1    0    0    0    0 -0.00000000000E+00 -0.00000000000E+00 -0.18250000000E+03  0.18250000000E+03  0.00000000000E+00 0.  1.
        -11    1    1    2    0    0 -0.48090101726E+01  0.27128004448E+01  0.17641978492E+03  0.17650616527E+03  0.00000000000E+00 0. -1.
         11    1    1    2    0    0 -0.73054134649E+01 -0.52876220142E+01 -0.16035440212E+03  0.16060779026E+03  0.00000000000E+00 0.  1.
        -15    1    1    2    0    0  0.43383236597E+01  0.36458446259E+00  0.40044786290E+01  0.61763704630E+01  0.17770000000E+01 0. -1.
         15    1    1    2    0    0  0.77760999778E+01  0.22102371068E+01 -0.20069861433E+02  0.21709674016E+02  0.17770000000E+01 0.  1.
</event>
<event>
 6    1  0.1045352E-002  0.1180594E+03  0.7546771E-02  0.1135802E+00
        -11   -1    0    0    0    0  0.00000000000E+00  0.00000000000E+00  0.18250000000E+03  0.18250000000E+03  0.00000000000E+00 0.  1.
         11   -1    0    0    0    0 -0.00000000000E+00 -0.00000000000E+00 -0.18250000000E+03  0.18250000000E+03  0.00000000000E+00 0.  1.
        -11    1    1    2    0    0 -0.18441310532E+00  0.82993063405E+00  0.47904159575E+02  0.47911703139E+02  0.00000000000E+00 0.  1.
         11    1    1    2    0    0 -0.26770921973E+02  0.12915028739E+02 -0.16017191463E+03  0.16290648381E+03  0.00000000000E+00 0.  1.
        -15    1    1    2    0    0 -0.19098291452E+02 -0.44415969230E+02  0.37832426508E+02  0.61416392629E+02  0.17770000000E+01 0. -1.
         15    1    1    2    0    0  0.46053626530E+02  0.30671009857E+02  0.74435328545E+02  0.92765420426E+02  0.17770000000E+01 0.  1.
</event>
<event>
 6    1  0.1045352E-002  0.1932736E+03  0.7546771E-02  0.1060188E+00
        -11   -1    0    0    0    0  0.00000000000E+00  0.00000000000E+00  0.18250000000E+03  0.18250000000E+03  0.00000000000E+00 0. -1.
         11   -1    0    0    0    0 -0.00000000000E+00 -0.00000000000E+00 -0.18250000000E+03  0.18250000000E+03  0.00000000000E+00 0.  1.
        -11    1    1    2    0    0  0.11457484431E+02 -0.10837890281E+01  0.17134035321E+03  0.17172642542E+03  0.00000000000E+00 0. -1.
         11    1    1    2    0    0  0.24758320900E+01 -0.96039758499E-01 -0.11613977247E+03  0.11616619869E+03  0.00000000000E+00 0.  1.
        -15    1    1    2    0    0 -0.24190924065E+01 -0.13401816264E+02 -0.56741077953E+02  0.58379519898E+02  0.17770000000E+01 0.  1.
         15    1    1    2    0    0 -0.11514224115E+02  0.14581645051E+02  0.15404972167E+01  0.18727855991E+02  0.17770000000E+01 0. -1.
</event>
<event>
 6    1  0.1045352E-002  0.1832725E+03  0.7546771E-02  0.1067842E+00
        -11   -1    0    0    0    0  0.00000000000E+00  0.00000000000E+00  0.18250000000E+03  0.18250000000E+03  0.00000000000E+00 0.  1.
         11   -1    0    0    0    0 -0.00000000000E+00 -0.00000000000E+00 -0.18250000000E+03  0.18250000000E+03  0.00000000000E+00 0.  1.
        -11    1    1    2    0    0  0.76861875465E+00 -0.86215384911E+01  0.18152128327E+03  0.18172753776E+03  0.00000000000E+00 0.  1.
         11    1    1    2    0    0 -0.27957139427E+00 -0.28616297834E+01 -0.84437216439E+02  0.84486156292E+02  0.00000000000E+00 0.  1.
        -15    1    1    2    0    0  0.39441459060E+01  0.36548422593E+00 -0.49420134073E+02  0.49610455011E+02  0.17770000000E+01 0. -1.
         15    1    1    2    0    0 -0.44331932664E+01  0.11117684049E+02 -0.47663932754E+02  0.49175850940E+02  0.17770000000E+01 0.  1.
</event>
<event>
 6    1  0.1045352E-002  0.1872632E+03  0.7546771E-02  0.1064725E+00
        -11   -1    0    0    0    0  0.00000000000E+00  0.00000000000E+00  0.18250000000E+03  0.18250000000E+03  0.00000000000E+00 0.  1.
         11   -1    0    0    0    0 -0.00000000000E+00 -0.00000000000E+00 -0.18250000000E+03  0.18250000000E+03  0.00000000000E+00 0. -1.
        -11    1    1    2    0    0  0.25590392025E+01 -0.41041883169E+01  0.17050493882E+03  0.17057352434E+03  0.00000000000E+00 0.  1.
         11    1    1    2    0    0  0.16621389253E+01  0.33129322901E+01 -0.17769811011E+03  0.17773676199E+03  0.00000000000E+00 0. -1.
        -15    1    1    2    0    0 -0.28539836930E+01  0.29014897726E+01 -0.34414854522E+01  0.56183108616E+01  0.17770000000E+01 0.  1.
         15    1    1    2    0    0 -0.13671944349E+01 -0.21102337459E+01  0.10634656745E+02  0.11071402809E+02  0.17770000000E+01 0. -1.
</event>
<event>
 6    1  0.1045352E-002  0.1831742E+03  0.7546771E-02  0.1067919E+00
        -11   -1    0    0    0    0  0.00000000000E+00  0.00000000000E+00  0.18250000000E+03  0.18250000000E+03  0.00000000000E+00 0.  1.
         11   -1    0    0    0    0 -0.00000000000E+00 -0.00000000000E+00 -0.18250000000E+03  0.18250000000E+03  0.00000000000E+00 0. -1.
        -11    1    1    2    0    0  0.17498429778E+01 -0.25896111322E+01  0.18179897488E+03  0.18182583784E+03  0.00000000000E+00 0.  1.
         11    1    1    2    0    0 -0.27647153590E+01 -0.90966977500E+00 -0.12354328500E+03  0.12357756438E+03  0.00000000000E+00 0. -1.
        -15    1    1    2    0    0  0.26747413369E+00  0.21730792287E+01 -0.24315396090E+01  0.37234298189E+01  0.17770000000E+01 0.  1.
         15    1    1    2    0    0  0.74739824749E+00  0.13262016785E+01 -0.55824150275E+02  0.55873167961E+02  0.17770000000E+01 0. -1.
</event>
<event>
 6    1  0.1045352E-002  0.1831594E+03  0.7546771E-02  0.1067931E+00
        -11   -1    0    0    0    0  0.00000000000E+00  0.00000000000E+00  0.18250000000E+03  0.18250000000E+03  0.00000000000E+00 0.  1.
         11   -1    0    0    0    0 -0.00000000000E+00 -0.00000000000E+00 -0.18250000000E+03  0.18250000000E+03  0.00000000000E+00 0.  1.
        -11    1    1    2    0    0 -0.13245815118E+00  0.68071257203E+00  0.22344264425E+02  0.22355023316E+02  0.00000000000E+00 0.  1.
         11    1    1    2    0    0  0.56916870520E+01 -0.63489739303E+01 -0.18164059381E+03  0.18184061728E+03  0.00000000000E+00 0.  1.
        -15    1    1    2    0    0 -0.12829433381E+02  0.14151889718E+01  0.81757168385E+02  0.82788824319E+02  0.17770000000E+01 0.  1.
         15    1    1    2    0    0  0.72702044804E+01  0.42530723865E+01  0.77539161000E+02  0.78015535090E+02  0.17770000000E+01 0. -1.
</event>
<event>
 6    1  0.1045352E-002  0.1831906E+03  0.7546771E-02  0.1067906E+00
        -11   -1    0    0    0    0  0.00000000000E+00  0.00000000000E+00  0.18250000000E+03  0.18250000000E+03  0.00000000000E+00 0.  1.
         11   -1    0    0    0    0 -0.00000000000E+00 -0.00000000000E+00 -0.18250000000E+03  0.18250000000E+03  0.00000000000E+00 0.  1.
        -11    1    1    2    0    0 -0.19967175652E+00 -0.16756335592E+01  0.11066593180E+03  0.11067879687E+03  0.00000000000E+00 0.  1.
         11    1    1    2    0    0 -0.92227864178E+01  0.15752437416E+01 -0.18156848674E+03  0.18180939624E+03  0.00000000000E+00 0.  1.
        -15    1    1    2    0    0  0.99320371782E+01 -0.86843312774E+00  0.32243584617E+02  0.33796538530E+02  0.17770000000E+01 0.  1.
         15    1    1    2    0    0 -0.50957900393E+00  0.96882294530E+00  0.38658970325E+02  0.38715268361E+02  0.17770000000E+01 0. -1.
</event>
<event>
 6    1  0.1045352E-002  0.1864051E+03  0.7546771E-02  0.1065388E+00
        -11   -1    0    0    0    0  0.00000000000E+00  0.00000000000E+00  0.18250000000E+03  0.18250000000E+03  0.00000000000E+00 0. -1.
         11   -1    0    0    0    0 -0.00000000000E+00 -0.00000000000E+00 -0.18250000000E+03  0.18250000000E+03  0.00000000000E+00 0. -1.
        -11    1    1    2    0    0 -0.49315970009E+01 -0.36249129775E+00  0.13496866734E+03  0.13505922113E+03  0.00000000000E+00 0. -1.
         11    1    1    2    0    0 -0.83112600869E+01 -0.11035341346E+02 -0.17805974886E+03  0.17859487665E+03  0.00000000000E+00 0. -1.
        -15    1    1    2    0    0  0.12218680001E+02  0.92084029160E+01  0.45151493765E+02  0.47706455993E+02  0.17770000000E+01 0.  1.
         15    1    1    2    0    0  0.10241770871E+01  0.21894297280E+01 -0.20604122400E+01  0.36394462269E+01  0.17770000000E+01 0. -1.
</event>
<event>
 6    1  0.1045352E-002  0.1829158E+03  0.7546771E-02  0.1068124E+00
        -11   -1    0    0    0    0  0.00000000000E+00  0.00000000000E+00  0.18250000000E+03  0.18250000000E+03  0.00000000000E+00 0.  1.
         11   -1    0    0    0    0 -0.00000000000E+00 -0.00000000000E+00 -0.18250000000E+03  0.18250000000E+03  0.00000000000E+00 0. -1.
        -11    1    1    2    0    0  0.19682602540E+01  0.20982093480E+01  0.18206149907E+03  0.18208422769E+03  0.00000000000E+00 0.  1.
         11    1    1    2    0    0 -0.70293158930E+00  0.67490979905E-01 -0.34551351327E+02  0.34558566902E+02  0.00000000000E+00 0. -1.
        -15    1    1    2    0    0 -0.38794794035E+01 -0.78771441658E+01 -0.69627207076E+02  0.70201178444E+02  0.17770000000E+01 0. -1.
         15    1    1    2    0    0  0.26141507388E+01  0.57114438379E+01 -0.77882940666E+02  0.78156026963E+02  0.17770000000E+01 0. -1.
</event>
<event>
 6    1  0.1045352E-002  0.1789191E+03  0.7546771E-02  0.1071341E+00
        -11   -1    0    0    0    0  0.00000000000E+00  0.00000000000E+00  0.18250000000E+03  0.18250000000E+03  0.00000000000E+00 0.  1.
         11   -1    0    0    0    0 -0.00000000000E+00 -0.00000000000E+00 -0.18250000000E+03  0.18250000000E+03  0.00000000000E+00 0.  1.
        -11    1    1    2    0    0  0.13620266048E+01  0.34326276581E+01  0.17997506990E+03  0.18001295463E+03  0.00000000000E+00 0.  1.
         11    1    1    2    0    0 -0.40267354563E+01  0.11398261266E+01 -0.17782171110E+03  0.17787094969E+03  0.00000000000E+00 0.  1.
        -15    1    1    2    0    0  0.25487166691E+00 -0.17440241325E+01 -0.78372829607E-01  0.25040868678E+01  0.17770000000E+01 0. -1.
         15    1    1    2    0    0  0.24098371846E+01 -0.28284296522E+01 -0.20749859661E+01  0.46120088154E+01  0.17770000000E+01 0.  1.
</event>
<event>
 6    1  0.1045352E-002  0.1830638E+03  0.7546771E-02  0.1068007E+00
        -11   -1    0    0    0    0  0.00000000000E+00  0.00000000000E+00  0.18250000000E+03  0.18250000000E+03  0.00000000000E+00 0. -1.
         11   -1    0    0    0    0 -0.00000000000E+00 -0.00000000000E+00 -0.18250000000E+03  0.18250000000E+03  0.00000000000E+00 0. -1.
        -11    1    1    2    0    0  0.10542957561E+01  0.47995852877E+00  0.76646025832E+01  0.77516470824E+01  0.00000000000E+00 0. -1.
         11    1    1    2    0    0 -0.49859493184E+01  0.32153352654E+01 -0.18183940779E+03  0.18193616545E+03  0.00000000000E+00 0. -1.
        -15    1    1    2    0    0  0.56046647514E+01  0.17970684681E+01  0.17985841712E+02  0.19007628814E+02  0.17770000000E+01 0.  1.
         15    1    1    2    0    0 -0.16730111892E+01 -0.54923622622E+01  0.15618896350E+03  0.15630455866E+03  0.17770000000E+01 0. -1.
</event>
<event>
 6    1  0.1045352E-002  0.1833207E+03  0.7546771E-02  0.1067803E+00
        -11   -1    0    0    0    0  0.00000000000E+00  0.00000000000E+00  0.18250000000E+03  0.18250000000E+03  0.00000000000E+00 0.  1.
         11   -1    0    0    0    0 -0.00000000000E+00 -0.00000000000E+00 -0.18250000000E+03  0.18250000000E+03  0.00000000000E+00 0. -1.
        -11    1    1    2    0    0  0.72945098646E+00  0.43172402956E+00  0.21885048236E+02  0.21901457044E+02  0.00000000000E+00 0.  1.
         11    1    1    2    0    0 -0.46098555334E+01  0.27079383525E+01 -0.18160063201E+03  0.18167931430E+03  0.00000000000E+00 0. -1.
        -15    1    1    2    0    0  0.65389074544E+01  0.36272971247E+01  0.18873946750E+02  0.20378866260E+02  0.17770000000E+01 0. -1.
         15    1    1    2    0    0 -0.26585029075E+01 -0.67669595067E+01  0.14084163702E+03  0.14104036240E+03  0.17770000000E+01 0.  1.
</event>
<event>
 6    1  0.1045352E-002  0.1828462E+03  0.7546771E-02  0.1068180E+00
        -11   -1    0    0    0    0  0.00000000000E+00  0.00000000000E+00  0.18250000000E+03  0.18250000000E+03  0.00000000000E+00 0.  1.
         11   -1    0    0    0    0 -0.00000000000E+00 -0.00000000000E+00 -0.18250000000E+03  0.18250000000E+03  0.00000000000E+00 0.  1.
        -11    1    1    2    0    0  0.23725964333E+01 -0.13217577647E+00  0.76761552378E+02  0.76798324250E+02  0.00000000000E+00 0.  1.
         11    1    1    2    0    0 -0.10663829884E+01 -0.37675066384E+01 -0.18211173348E+03  0.18215382167E+03  0.00000000000E+00 0.  1.
        -15    1    1    2    0    0 -0.31233980722E+00  0.72494662389E+00  0.95196241148E+02  0.95216097176E+02  0.17770000000E+01 0.  1.
         15    1    1    2    0    0 -0.99387363764E+00  0.31747357910E+01  0.10153939950E+02  0.10831756906E+02  0.17770000000E+01 0.  1.
</event>
<event>
 6    1  0.1045352E-002  0.1712880E+03  0.7546771E-02  0.1077747E+00
        -11   -1    0    0    0    0  0.00000000000E+00  0.00000000000E+00  0.18250000000E+03  0.18250000000E+03  0.00000000000E+00 0. -1.
         11   -1    0    0    0    0 -0.00000000000E+00 -0.00000000000E+00 -0.18250000000E+03  0.18250000000E+03  0.00000000000E+00 0.  1.
        -11    1    1    2    0    0 -0.34836449206E+01  0.14201959500E+01  0.16830127821E+03  0.16834331880E+03  0.00000000000E+00 0. -1.
         11    1    1    2    0    0 -0.59412748726E+01  0.40120884782E+01 -0.17431071187E+03  0.17445807483E+03  0.00000000000E+00 0.  1.
        -15    1    1    2    0    0  0.37370431488E+00 -0.32669685913E+01  0.10909314273E+02  0.11531851785E+02  0.17770000000E+01 0.  1.
         15    1    1    2    0    0  0.90512154783E+01 -0.21653158370E+01 -0.48998806171E+01  0.10666754585E+02  0.17770000000E+01 0. -1.
</event>
<event>
 6    1  0.1045352E-002  0.1761809E+03  0.7546771E-02  0.1073599E+00
        -11   -1    0    0    0    0  0.00000000000E+00  0.00000000000E+00  0.18250000000E+03  0.18250000000E+03  0.00000000000E+00 0.  1.
         11   -1    0    0    0    0 -0.00000000000E+00 -0.00000000000E+00 -0.18250000000E+03  0.18250000000E+03  0.00000000000E+00 0. -1.
        -11    1    1    2    0    0 -0.30067592924E+00  0.25522605215E+01  0.17755763950E+03  0.17757623654E+03  0.00000000000E+00 0.  1.
         11    1    1    2    0    0 -0.26788448431E+01  0.22297302550E+01 -0.17480665736E+03  0.17484140061E+03  0.00000000000E+00 0. -1.
        -15    1    1    2    0    0  0.79740291344E+00 -0.44671184008E+01 -0.63490208256E+01  0.80036736975E+01  0.17770000000E+01 0.  1.
         15    1    1    2    0    0  0.21821178589E+01 -0.31487237573E+00  0.35980386924E+01  0.45786891569E+01  0.17770000000E+01 0. -1.
</event>
<event>
 6    1  0.1045352E-002  0.1837547E+03  0.7546771E-02  0.1067460E+00
        -11   -1    0    0    0    0  0.00000000000E+00  0.00000000000E+00  0.18250000000E+03  0.18250000000E+03  0.00000000000E+00 0.  1.
         11   -1    0    0    0    0 -0.00000000000E+00 -0.00000000000E+00 -0.18250000000E+03  0.18250000000E+03  0.00000000000E+00 0.  1.
        -11    1    1    2    0    0 -0.44008732872E+01 -0.22092215199E+01  0.18117841748E+03  0.18124532354E+03  0.00000000000E+00 0.  1.
         11    1    1    2    0    0  0.25734449763E+01  0.32357163530E+01 -0.90047918848E+02  0.90142776572E+02  0.00000000000E+00 0.  1.
        -15    1    1    2    0    0 -0.78105590089E+01 -0.39415250405E+01 -0.63981405044E+02  0.64601225779E+02  0.17770000000E+01 0.  1.
         15    1    1    2    0    0  0.96379873198E+01  0.29150302074E+01 -0.27149093586E+02  0.29010674109E+02  0.17770000000E+01 0.  1.
</event>
<event>
 6    1  0.1045352E-002  0.1842928E+03  0.7546771E-02  0.1067037E+00
        -11   -1    0    0    0    0  0.00000000000E+00  0.00000000000E+00  0.18250000000E+03  0.18250000000E+03  0.00000000000E+00 0. -1.
         11   -1    0    0    0    0 -0.00000000000E+00 -0.00000000000E+00 -0.18250000000E+03  0.18250000000E+03  0.00000000000E+00 0.  1.
        -11    1    1    2    0    0 -0.34304218402E+01 -0.30711647788E+01  0.14196598761E+03  0.14204063322E+03  0.00000000000E+00 0. -1.
         11    1    1    2    0    0  0.35989069705E+00 -0.25045735831E+01 -0.18068951519E+03  0.18070723093E+03  0.00000000000E+00 0.  1.
        -15    1    1    2    0    0  0.27898872112E+00  0.69354648067E+00 -0.94538255174E+00  0.21471652467E+01  0.17770000000E+01 0.  1.
         15    1    1    2    0    0  0.27915424220E+01  0.48821918812E+01  0.39668910135E+02  0.40104970602E+02  0.17770000000E+01 0.  1.
</event>
<event>
 6    1  0.1045352E-002  0.1842708E+03  0.7546771E-02  0.1067054E+00
        -11   -1    0    0    0    0  0.00000000000E+00  0.00000000000E+00  0.18250000000E+03  0.18250000000E+03  0.00000000000E+00 0. -1.
         11   -1    0    0    0    0 -0.00000000000E+00 -0.00000000000E+00 -0.18250000000E+03  0.18250000000E+03  0.00000000000E+00 0. -1.
        -11    1    1    2    0    0  0.10093988318E+02  0.38188460674E+01  0.18040673142E+03  0.18072924757E+03  0.00000000000E+00 0. -1.
         11    1    1    2    0    0 -0.10582104895E+01 -0.65902127767E+00 -0.51193470077E+02  0.51208646701E+02  0.00000000000E+00 0. -1.
        -15    1    1    2    0    0 -0.15661840182E+02 -0.45355198468E+01 -0.35701113178E+02  0.39288565630E+02  0.17770000000E+01 0. -1.
         15    1    1    2    0    0  0.66260623535E+01  0.13756950570E+01 -0.93512148165E+02  0.93773540099E+02  0.17770000000E+01 0.  1.
</event>
<event>
 6    1  0.1045352E-002  0.1816056E+03  0.7546771E-02  0.1069169E+00
        -11   -1    0    0    0    0  0.00000000000E+00  0.00000000000E+00  0.18250000000E+03  0.18250000000E+03  0.00000000000E+00 0. -1.
         11   -1    0    0    0    0 -0.00000000000E+00 -0.00000000000E+00 -0.18250000000E+03  0.18250000000E+03  0.00000000000E+00 0. -1.
        -11    1    1    2    0    0  0.12337790979E+01 -0.25475220497E+01  0.85955682165E+00  0.29581949540E+01  0.00000000000E+00 0. -1.
         11    1    1    2    0    0  0.12711483072E+01  0.34734633070E+01 -0.18082969120E+03  0.18086751501E+03  0.00000000000E+00 0. -1.
        -15    1    1    2    0    0 -0.11105759804E+02 -0.98402102208E+00  0.76018794939E+02  0.76852593393E+02  0.17770000000E+01 0. -1.
         15    1    1    2    0    0  0.86008323991E+01  0.58079764801E-01  0.10395133944E+03  0.10432169665E+03  0.17770000000E+01 0. -1.
</event>
<event>
 6    1  0.1045352E-002  0.1882770E+03  0.7546771E-02  0.1063947E+00
        -11   -1    0    0    0    0  0.00000000000E+00  0.00000000000E+00  0.18250000000E+03  0.18250000000E+03  0.00000000000E+00 0. -1.
         11   -1    0    0    0    0 -0.00000000000E+00 -0.00000000000E+00 -0.18250000000E+03  0.18250000000E+03  0.00000000000E+00 0.  1.
        -11    1    1    2    0    0  0.37710392814E+01  0.84162779947E+01  0.16592014830E+03  0.16617626209E+03  0.00000000000E+00 0. -1.
         11    1    1    2    0    0 -0.47102196747E+01  0.56391296048E+01 -0.17657018263E+03  0.17672299043E+03  0.00000000000E+00 0.  1.
        -15    1    1    2    0    0  0.63570852462E+00 -0.48545696414E+01 -0.26376252360E+01  0.58383017751E+01  0.17770000000E+01 0.  1.
         15    1    1    2    0    0  0.30347186868E+00 -0.92008379581E+01  0.13287659571E+02  0.16262445701E+02  0.17770000000E+01 0. -1.
</event>
<event>
 6    1  0.1045352E-002  0.1828526E+03  0.7546771E-02  0.1068175E+00
        -11   -1    0    0    0    0  0.00000000000E+00  0.00000000000E+00  0.18250000000E+03  0.18250000000E+03  0.00000000000E+00 0. -1.
         11   -1    0    0    0    0 -0.00000000000E+00 -0.00000000000E+00 -0.18250000000E+03  0.18250000000E+03  0.00000000000E+00 0.  1.
        -11    1    1    2    0    0 -0.14219451486E+01 -0.54873599647E+00  0.72810065989E+02  0.72826016976E+02  0.00000000000E+00 0. -1.
         11    1    1    2    0    0  0.98809066185E+00 -0.61636109248E+01 -0.18204045249E+03  0.18214744787E+03  0.00000000000E+00 0.  1.
        -15    1    1    2    0    0  0.12438024400E+01 -0.19267364728E+01  0.55099269501E+02  0.55175597745E+02  0.17770000000E+01 0.  1.
         15    1    1    2    0    0 -0.80994795324E+00  0.86390833940E+01  0.54131117002E+02  0.54850937407E+02  0.17770000000E+01 0.  1.
</event>
<event>
 6    1  0.1045352E-002  0.1841590E+03  0.7546771E-02  0.1067142E+00
        -11   -1    0    0    0    0  0.00000000000E+00  0.00000000000E+00  0.18250000000E+03  0.18250000000E+03  0.00000000000E+00 0.  1.
         11   -1    0    0    0    0 -0.00000000000E+00 -0.00000000000E+00 -0.18250000000E+03  0.18250000000E+03  0.00000000000E+00 0. -1.
        -11    1    1    2    0    0  0.11508734899E+01  0.22860087158E+01  0.11123997631E+03  0.11126941482E+03  0.00000000000E+00 0.  1.
         11    1    1    2    0    0 -0.61621720184E+01 -0.21890751521E+01 -0.18072269593E+03  0.18084097224E+03  0.00000000000E+00 0. -1.
        -15    1    1    2    0    0 -0.15201689604E+01 -0.27427539733E+01  0.63559662034E+00  0.36599624438E+01  0.17770000000E+01 0. -1.
         15    1    1    2    0    0  0.65314674888E+01  0.26458204096E+01  0.68847123002E+02  0.69229650496E+02  0.17770000000E+01 0.  1.
</event>
<event>
 6    1  0.1045352E-002  0.1849706E+03  0.7546771E-02  0.1066505E+00
        -11   -1    0    0    0    0  0.00000000000E+00  0.00000000000E+00  0.18250000000E+03  0.18250000000E+03  0.00000000000E+00 0.  1.
         11   -1    0    0    0    0 -0.00000000000E+00 -0.00000000000E+00 -0.18250000000E+03  0.18250000000E+03  0.00000000000E+00 0. -1.
        -11    1    1    2    0    0  0.21489794747E+01  0.17360665959E+01  0.97864741173E+02  0.97903726205E+02  0.00000000000E+00 0.  1.
         11    1    1    2    0    0  0.18582496469E+02 -0.12758138907E+02 -0.17861273739E+03  0.18002941215E+03  0.00000000000E+00 0. -1.
        -15    1    1    2    0    0 -0.13415385354E+02  0.89534757162E+01  0.76452426527E+02  0.78155412752E+02  0.17770000000E+01 0.  1.
         15    1    1    2    0    0 -0.73160905897E+01  0.20685965951E+01  0.42955696868E+01  0.89114488903E+01  0.17770000000E+01 0. -1.
</event>
<event>
 6    1  0.1045352E-002  0.1844775E+03  0.7546771E-02  0.1066891E+00
        -11   -1    0    0    0    0  0.00000000000E+00  0.00000000000E+00  0.18250000000E+03  0.18250000000E+03  0.00000000000E+00 0.  1.
         11   -1    0    0    0    0 -0.00000000000E+00 -0.00000000000E+00 -0.18250000000E+03  0.18250000000E+03  0.00000000000E+00 0.  1.
        -11    1    1    2    0    0  0.25912493625E+01 -0.47881018401E+00  0.18050322988E+03  0.18052246350E+03  0.00000000000E+00 0.  1.
         11    1    1    2    0    0  0.23307503162E+01 -0.32241344976E+00 -0.16806873548E+03  0.16808520516E+03  0.00000000000E+00 0.  1.
        -15    1    1    2    0    0 -0.66859157999E-01  0.24864280215E+01 -0.99589097746E+01  0.10417504852E+02  0.17770000000E+01 0. -1.
         15    1    1    2    0    0 -0.48551405207E+01 -0.16852043878E+01 -0.24755846216E+01  0.59748264848E+01  0.17770000000E+01 0.  1.
</event>
<event>
 6    1  0.1045352E-002  0.1846685E+03  0.7546771E-02  0.1066742E+00
        -11   -1    0    0    0    0  0.00000000000E+00  0.00000000000E+00  0.18250000000E+03  0.18250000000E+03  0.00000000000E+00 0. -1.
         11   -1    0    0    0    0 -0.00000000000E+00 -0.00000000000E+00 -0.18250000000E+03  0.18250000000E+03  0.00000000000E+00 0.  1.
        -11    1    1    2    0    0  0.37057030510E+01  0.89113319748E+00  0.18029116958E+03  0.18033145089E+03  0.00000000000E+00 0. -1.
         11    1    1    2    0    0 -0.27559234853E+01 -0.12962618983E+01 -0.17480051429E+03  0.17482704369E+03  0.00000000000E+00 0.  1.
        -15    1    1    2    0    0 -0.21571171754E+01 -0.83992737153E-01  0.10136659353E+01  0.29741312878E+01  0.17770000000E+01 0. -1.
         15    1    1    2    0    0  0.12073376097E+01  0.48912143793E+00 -0.65043212252E+01  0.68673741332E+01  0.17770000000E+01 0.  1.
</event>
<event>
 6    1  0.1045352E-002  0.1828329E+03  0.7546771E-02  0.1068190E+00
        -11   -1    0    0    0    0  0.00000000000E+00  0.00000000000E+00  0.18250000000E+03  0.18250000000E+03  0.00000000000E+00 0. -1.
         11   -1    0    0    0    0 -0.00000000000E+00 -0.00000000000E+00 -0.18250000000E+03  0.18250000000E+03  0.00000000000E+00 0. -1.
        -11    1    1    2    0    0 -0.21615540825E+01  0.24018723223E+01  0.18213842533E+03  0.18216708618E+03  0.00000000000E+00 0. -1.
         11    1    1    2    0    0 -0.22575193958E+01 -0.19854240652E+01 -0.13270199107E+03  0.13273604159E+03  0.00000000000E+00 0. -1.
        -15    1    1    2    0    0  0.43019905985E+01  0.68571664918E+00 -0.44310875003E+02  0.44559945051E+02  0.17770000000E+01 0. -1.
         15    1    1    2    0    0  0.11708287987E+00 -0.11021649063E+01 -0.51255592572E+01  0.55369271785E+01  0.17770000000E+01 0.  1.
</event>
<event>
 6    1  0.1045352E-002  0.1873459E+03  0.7546771E-02  0.1064662E+00
        -11   -1    0    0    0    0  0.00000000000E+00  0.00000000000E+00  0.18250000000E+03  0.18250000000E+03  0.00000000000E+00 0. -1.
         11   -1    0    0    0    0 -0.00000000000E+00 -0.00000000000E+00 -0.18250000000E+03  0.18250000000E+03  0.00000000000E+00 0. -1.
        -11    1    1    2    0    0 -0.30382368761E+01  0.19033120987E+01  0.89473059392E+02  0.89544859357E+02  0.00000000000E+00 0. -1.
         11    1    1    2    0    0 -0.74203193227E+01 -0.82764270149E+00 -0.17749716734E+03  0.17765413179E+03  0.00000000000E+00 0. -1.
        -15    1    1    2    0    0  0.66633475400E+01 -0.77021884653E-01 -0.23789029001E+01  0.72954123131E+01  0.17770000000E+01 0. -1.
         15    1    1    2    0    0  0.37952086588E+01 -0.99864751254E+00  0.90403010844E+02  0.90505596536E+02  0.17770000000E+01 0. -1.
</event>
<event>
 6    1  0.1045352E-002  0.1838464E+03  0.7546771E-02  0.1067388E+00
        -11   -1    0    0    0    0  0.00000000000E+00  0.00000000000E+00  0.18250000000E+03  0.18250000000E+03  0.00000000000E+00 0. -1.
         11   -1    0    0    0    0 -0.00000000000E+00 -0.00000000000E+00 -0.18250000000E+03  0.18250000000E+03  0.00000000000E+00 0.  1.
        -11    1    1    2    0    0 -0.40185641569E+01 -0.29151295573E+01  0.15142943061E+03  0.15151078936E+03  0.00000000000E+00 0. -1.
         11    1    1    2    0    0  0.58905813455E+01 -0.26777867083E+01 -0.18103798376E+03  0.18115358416E+03  0.00000000000E+00 0.  1.
        -15    1    1    2    0    0 -0.55553792995E+01  0.45652973668E-01  0.16905849301E+02  0.17883785755E+02  0.17770000000E+01 0.  1.
         15    1    1    2    0    0  0.36833621109E+01  0.55472632920E+01  0.12702703848E+02  0.14451840731E+02  0.17770000000E+01 0. -1.
</event>
<event>
 6    1  0.1045352E-002  0.1847003E+03  0.7546771E-02  0.1066717E+00
        -11   -1    0    0    0    0  0.00000000000E+00  0.00000000000E+00  0.18250000000E+03  0.18250000000E+03  0.00000000000E+00 0.  1.
         11   -1    0    0    0    0 -0.00000000000E+00 -0.00000000000E+00 -0.18250000000E+03  0.18250000000E+03  0.00000000000E+00 0. -1.
        -11    1    1    2    0    0  0.38221889826E+01 -0.16131151910E+01  0.18025194193E+03  0.18029967787E+03  0.00000000000E+00 0.  1.
         11    1    1    2    0    0 -0.31579121684E+00 -0.26509778926E+01 -0.17184995504E+03  0.17187069109E+03  0.00000000000E+00 0. -1.
        -15    1    1    2    0    0  0.77869099885E+00  0.38567013449E+01 -0.64918673344E+01  0.77963180683E+01  0.17770000000E+01 0. -1.
         15    1    1    2    0    0 -0.42850887646E+01  0.40739173869E+00 -0.19101195588E+01  0.50333129724E+01  0.17770000000E+01 0. -1.
</event>
<event>
 6    1  0.1045352E-002  0.1876788E+03  0.7546771E-02  0.1064406E+00
        -11   -1    0    0    0    0  0.00000000000E+00  0.00000000000E+00  0.18250000000E+03  0.18250000000E+03  0.00000000000E+00 0. -1.
         11   -1    0    0    0    0 -0.00000000000E+00 -0.00000000000E+00 -0.18250000000E+03  0.18250000000E+03  0.00000000000E+00 0. -1.
        -11    1    1    2    0    0 -0.67505351531E+00  0.38832813616E+01  0.17727737038E+03  0.17732118210E+03  0.00000000000E+00 0. -1.
         11    1    1    2    0    0  0.34604804637E+00  0.50054890365E+01 -0.16568474630E+03  0.16576070049E+03  0.00000000000E+00 0. -1.
        -15    1    1    2    0    0 -0.71653534124E+01 -0.66287595671E+01 -0.92290317422E+01  0.13550479653E+02  0.17770000000E+01 0. -1.
         15    1    1    2    0    0  0.74943588813E+01 -0.22600108310E+01 -0.23635923385E+01  0.83676377635E+01  0.17770000000E+01 0.  1.
</event>
<event>
 6    1  0.1045352E-002  0.1853291E+03  0.7546771E-02  0.1066225E+00
        -11   -1    0    0    0    0  0.00000000000E+00  0.00000000000E+00  0.18250000000E+03  0.18250000000E+03  0.00000000000E+00 0.  1.
         11   -1    0    0    0    0 -0.00000000000E+00 -0.00000000000E+00 -0.18250000000E+03  0.18250000000E+03  0.00000000000E+00 0.  1.
        -11    1    1    2    0    0 -0.24952341906E+01  0.74287961102E+01  0.17949988739E+03  0.17967087348E+03  0.00000000000E+00 0.  1.
         11    1    1    2    0    0  0.73478865057E+00  0.56287531549E+01 -0.16128740443E+03  0.16138726593E+03  0.00000000000E+00 0.  1.
        -15    1    1    2    0    0 -0.13305559993E+01 -0.32912591050E+01 -0.97809720984E+01  0.10555941926E+02  0.17770000000E+01 0. -1.
         15    1    1    2    0    0  0.30910015393E+01 -0.97662901600E+01 -0.84315108617E+01  0.13385918662E+02  0.17770000000E+01 0.  1.
</event>
<event>
 6    1  0.1045352E-002  0.1827524E+03  0.7546771E-02  0.1068254E+00
        -11   -1    0    0    0    0  0.00000000000E+00  0.00000000000E+00  0.18250000000E+03  0.18250000000E+03  0.00000000000E+00 0. -1.
         11   -1    0    0    0    0 -0.00000000000E+00 -0.00000000000E+00 -0.18250000000E+03  0.18250000000E+03  0.00000000000E+00 0.  1.
        -11    1    1    2    0    0 -0.14939369823E+01 -0.18478716001E+01  0.15129552866E+03  0.15131418793E+03  0.00000000000E+00 0. -1.
         11    1    1    2    0    0  0.50177307815E+00  0.25816888616E+01 -0.18222862724E+03  0.18224760487E+03  0.00000000000E+00 0.  1.
        -15    1    1    2    0    0  0.10662502951E-01 -0.15496300986E+01  0.66288431377E+01  0.70356774710E+01  0.17770000000E+01 0. -1.
         15    1    1    2    0    0  0.98150140118E+00  0.81581283707E+00  0.24304255444E+02  0.24402529731E+02  0.17770000000E+01 0.  1.
</event>
<event>
 6    1  0.1045352E-002  0.1791513E+03  0.7546771E-02  0.1071152E+00
        -11   -1    0    0    0    0  0.00000000000E+00  0.00000000000E+00  0.18250000000E+03  0.18250000000E+03  0.00000000000E+00 0.  1.
         11   -1    0    0    0    0 -0.00000000000E+00 -0.00000000000E+00 -0.18250000000E+03  0.18250000000E+03  0.00000000000E+00 0.  1.
        -11    1    1    2    0    0 -0.30823732814E+01  0.26696330905E+00  0.17867947001E+03  0.17870625422E+03  0.00000000000E+00 0.  1.
         11    1    1    2    0    0 -0.71409174152E-01  0.62873103340E+01 -0.10237089031E+02  0.12013882068E+02  0.00000000000E+00 0.  1.
        -15    1    1    2    0    0  0.86871389987E+01  0.34637997342E+01 -0.15914098379E+03  0.15942545200E+03  0.17770000000E+01 0.  1.
         15    1    1    2    0    0 -0.55333565431E+01 -0.10018073377E+02 -0.93013971861E+01  0.14854411716E+02  0.17770000000E+01 0.  1.
</event>
<event>
 6    1  0.1045352E-002  0.1875729E+03  0.7546771E-02  0.1064487E+00
        -11   -1    0    0    0    0  0.00000000000E+00  0.00000000000E+00  0.18250000000E+03  0.18250000000E+03  0.00000000000E+00 0. -1.
         11   -1    0    0    0    0 -0.00000000000E+00 -0.00000000000E+00 -0.18250000000E+03  0.18250000000E+03  0.00000000000E+00 0. -1.
        -11    1    1    2    0    0 -0.18952692105E+01  0.60518909381E+01  0.15631792655E+03  0.15644651351E+03  0.00000000000E+00 0. -1.
         11    1    1    2    0    0 -0.11196847745E+01  0.45312959069E+01 -0.17736569335E+03  0.17742709916E+03  0.00000000000E+00 0. -1.
        -15    1    1    2    0    0  0.10128408181E+01 -0.39909282041E+01  0.23249812717E+02  0.23678363010E+02  0.17770000000E+01 0.  1.
         15    1    1    2    0    0  0.20021131668E+01 -0.65922586409E+01 -0.22020459129E+01  0.74480243235E+01  0.17770000000E+01 0. -1.
</event>
<event>
 6    1  0.1045352E-002  0.1845152E+03  0.7546771E-02  0.1066862E+00
        -11   -1    0    0    0    0  0.00000000000E+00  0.00000000000E+00  0.18250000000E+03  0.18250000000E+03  0.00000000000E+00 0.  1.
         11   -1    0    0    0    0 -0.00000000000E+00 -0.00000000000E+00 -0.18250000000E+03  0.18250000000E+03  0.00000000000E+00 0.  1.
        -11    1    1    2    0    0 -0.41709933745E+01 -0.97624293550E+01  0.18017230456E+03  0.18048479587E+03  0.00000000000E+00 0.  1.
         11    1    1    2    0    0  0.11401747196E+01 -0.16308472408E+01 -0.91119995248E+02  0.91141720388E+02  0.00000000000E+00 0.  1.
        -15    1    1    2    0    0  0.61119117206E+00  0.46712876354E+01 -0.84641992548E+02  0.84791621722E+02  0.17770000000E+01 0.  1.
         15    1    1    2    0    0  0.24196274828E+01  0.67219889604E+01 -0.44103167597E+01  0.85818620159E+01  0.17770000000E+01 0. -1.
</event>
<event>
 6    1  0.1045352E-002  0.1874660E+03  0.7546771E-02  0.1064569E+00
        -11   -1    0    0    0    0  0.00000000000E+00  0.00000000000E+00  0.18250000000E+03  0.18250000000E+03  0.00000000000E+00 0. -1.
         11   -1    0    0    0    0 -0.00000000000E+00 -0.00000000000E+00 -0.18250000000E+03  0.18250000000E+03  0.00000000000E+00 0. -1.
        -11    1    1    2    0    0  0.80694937901E+01 -0.22405495896E+01  0.84151015544E+02  0.84566720461E+02  0.00000000000E+00 0. -1.
         11    1    1    2    0    0 -0.30046501050E+01  0.12623157264E+01 -0.17750412664E+03  0.17753404276E+03  0.00000000000E+00 0. -1.
        -15    1    1    2    0    0  0.34881228132E+01 -0.10891300662E+01 -0.36617981009E+01  0.54698902542E+01  0.17770000000E+01 0. -1.
         15    1    1    2    0    0 -0.85529664983E+01  0.20673639293E+01  0.97014909197E+02  0.97429346529E+02  0.17770000000E+01 0. -1.
</event>
<event>
 6    1  0.1045352E-002  0.1928281E+03  0.7546771E-02  0.1060518E+00
        -11   -1    0    0    0    0  0.00000000000E+00  0.00000000000E+00  0.18250000000E+03  0.18250000000E+03  0.00000000000E+00 0. -1.
         11   -1    0    0    0    0 -0.00000000000E+00 -0.00000000000E+00 -0.18250000000E+03  0.18250000000E+03  0.00000000000E+00 0. -1.
        -11    1    1    2    0    0 -0.27489609753E+01 -0.43605139847E-01  0.17214995403E+03  0.17217190642E+03  0.00000000000E+00 0. -1.
         11    1    1    2    0    0 -0.14475256865E+02 -0.85300321647E+01 -0.13036401058E+03  0.13144226780E+03  0.00000000000E+00 0. -1.
        -15    1    1    2    0    0  0.74907364958E+01 -0.75251549577E+01 -0.41089845915E+02  0.42476726059E+02  0.17770000000E+01 0.  1.
         15    1    1    2    0    0  0.97334813445E+01  0.16098792262E+02 -0.69609753553E+00  0.18909099718E+02  0.17770000000E+01 0. -1.
</event>
<event>
 6    1  0.1045352E-002  0.1829773E+03  0.7546771E-02  0.1068076E+00
        -11   -1    0    0    0    0  0.00000000000E+00  0.00000000000E+00  0.18250000000E+03  0.18250000000E+03  0.00000000000E+00 0. -1.
         11   -1    0    0    0    0 -0.00000000000E+00 -0.00000000000E+00 -0.18250000000E+03  0.18250000000E+03  0.00000000000E+00 0. -1.
        -11    1    1    2    0    0  0.15983380046E+01  0.19568705648E+01  0.13622947551E+03  0.13625290464E+03  0.00000000000E+00 0. -1.
         11    1    1    2    0    0 -0.57090284967E+01  0.34001847599E+01 -0.18190137475E+03  0.18202270298E+03  0.00000000000E+00 0. -1.
        -15    1    1    2    0    0  0.42352270211E+01 -0.29185470661E+01  0.16018039199E+02  0.16917162105E+02  0.17770000000E+01 0. -1.
         15    1    1    2    0    0 -0.12453652902E+00 -0.24385082585E+01  0.29653860046E+02  0.29807230272E+02  0.17770000000E+01 0.  1.
</event>
<event>
 6    1  0.1045352E-002  0.1902980E+03  0.7546771E-02  0.1062412E+00
        -11   -1    0    0    0    0  0.00000000000E+00  0.00000000000E+00  0.18250000000E+03  0.18250000000E+03  0.00000000000E+00 0.  1.
         11   -1    0    0    0    0 -0.00000000000E+00 -0.00000000000E+00 -0.18250000000E+03  0.18250000000E+03  0.00000000000E+00 0.  1.
        -11    1    1    2    0    0  0.18298534110E+02 -0.18741682267E+01  0.17373093099E+03  0.17470198980E+03  0.00000000000E+00 0.  1.
         11    1    1    2    0    0  0.66248065921E+01  0.68529590372E+01 -0.13598148602E+03  0.13631513360E+03  0.00000000000E+00 0.  1.
        -15    1    1    2    0    0 -0.25785323218E+02  0.75302946258E+00 -0.13863304916E+02  0.29339374551E+02  0.17770000000E+01 0.  1.
         15    1    1    2    0    0  0.86198251585E+00 -0.57318202731E+01 -0.23886140054E+02  0.24643502048E+02  0.17770000000E+01 0.  1.
</event>
<event>
 6    1  0.1045352E-002  0.1839371E+03  0.7546771E-02  0.1067317E+00
        -11   -1    0    0    0    0  0.00000000000E+00  0.00000000000E+00  0.18250000000E+03  0.18250000000E+03  0.00000000000E+00 0.  1.
         11   -1    0    0    0    0 -0.00000000000E+00 -0.00000000000E+00 -0.18250000000E+03  0.18250000000E+03  0.00000000000E+00 0. -1.
        -11    1    1    2    0    0  0.40044167496E+01 -0.11416615734E+01  0.18101503088E+03  0.18106291765E+03  0.00000000000E+00 0.  1.
         11    1    1    2    0    0  0.96590284220E+00 -0.53493726430E+01 -0.15882194791E+03  0.15891494547E+03  0.00000000000E+00 0. -1.
        -15    1    1    2    0    0 -0.47599775055E+01  0.39886970848E+01 -0.70172488940E+01  0.95376412875E+01  0.17770000000E+01 0. -1.
         15    1    1    2    0    0 -0.21034208622E+00  0.25023371315E+01 -0.15175834078E+02  0.15484495596E+02  0.17770000000E+01 0.  1.
</event>
<event>
 6    1  0.1045352E-002  0.1831576E+03  0.7546771E-02  0.1067933E+00
        -11   -1    0    0    0    0  0.00000000000E+00  0.00000000000E+00  0.18250000000E+03  0.18250000000E+03  0.00000000000E+00 0. -1.
         11   -1    0    0    0    0 -0.00000000000E+00 -0.00000000000E+00 -0.18250000000E+03  0.18250000000E+03  0.00000000000E+00 0.  1.
        -11    1    1    2    0    0 -0.31149779158E+01 -0.29085369496E+00  0.18181546387E+03  0.18184237841E+03  0.00000000000E+00 0. -1.
         11    1    1    2    0    0 -0.37850617859E+01  0.83774504428E+00 -0.13140761379E+03  0.13146478415E+03  0.00000000000E+00 0.  1.
        -15    1    1    2    0    0 -0.65549675359E+00  0.17404082649E+01 -0.56304202194E+01  0.61901581376E+01  0.17770000000E+01 0.  1.
         15    1    1    2    0    0  0.75555364553E+01 -0.22872996142E+01 -0.44777429856E+02  0.45502679308E+02  0.17770000000E+01 0.  1.
</event>
<event>
 6    1  0.1045352E-002  0.1780368E+03  0.7546771E-02  0.1072064E+00
        -11   -1    0    0    0    0  0.00000000000E+00  0.00000000000E+00  0.18250000000E+03  0.18250000000E+03  0.00000000000E+00 0. -1.
         11   -1    0    0    0    0 -0.00000000000E+00 -0.00000000000E+00 -0.18250000000E+03  0.18250000000E+03  0.00000000000E+00 0.  1.
        -11    1    1    2    0    0 -0.16311936760E+01  0.38177922967E+01  0.17657987238E+03  0.17662867168E+03  0.00000000000E+00 0. -1.
         11    1    1    2    0    0 -0.35121036816E+01  0.61632992650E+00 -0.17948602690E+03  0.17952144326E+03  0.00000000000E+00 0.  1.
        -15    1    1    2    0    0  0.17811934087E+01 -0.13709827201E+01 -0.48326568965E+00  0.29057732714E+01  0.17770000000E+01 0. -1.
         15    1    1    2    0    0  0.33621039489E+01 -0.30631395030E+01  0.33894202117E+01  0.59441117881E+01  0.17770000000E+01 0.  1.
</event>
<event>
 6    1  0.1045352E-002  0.1867225E+03  0.7546771E-02  0.1065142E+00
        -11   -1    0    0    0    0  0.00000000000E+00  0.00000000000E+00  0.18250000000E+03  0.18250000000E+03  0.00000000000E+00 0.  1.
         11   -1    0    0    0    0 -0.00000000000E+00 -0.00000000000E+00 -0.18250000000E+03  0.18250000000E+03  0.00000000000E+00 0.  1.
        -11    1    1    2    0    0  0.58130188297E+01 -0.41318668662E+01  0.14693108880E+03  0.14710407325E+03  0.00000000000E+00 0.  1.
         11    1    1    2    0    0  0.33347787325E+01 -0.14622674480E+01 -0.17824028781E+03  0.17827747803E+03  0.00000000000E+00 0.  1.
        -15    1    1    2    0    0 -0.51957632057E+01  0.57784111335E+01  0.33724764192E+02  0.34654053722E+02  0.17770000000E+01 0.  1.
         15    1    1    2    0    0 -0.39520343566E+01 -0.18427681927E+00 -0.24155651878E+01  0.49643949962E+01  0.17770000000E+01 0. -1.
</event>
<event>
 6    1  0.1045352E-002  0.1731540E+03  0.7546771E-02  0.1076148E+00
        -11   -1    0    0    0    0  0.00000000000E+00  0.00000000000E+00  0.18250000000E+03  0.18250000000E+03  0.00000000000E+00 0. -1.
         11   -1    0    0    0    0 -0.00000000000E+00 -0.00000000000E+00 -0.18250000000E+03  0.18250000000E+03  0.00000000000E+00 0. -1.
        -11    1    1    2    0    0  0.37601060523E+01 -0.40063857083E+01  0.17286934649E+03  0.17295664336E+03  0.00000000000E+00 0. -1.
         11    1    1    2    0    0  0.16216759706E+01  0.26493069558E+01 -0.17336839814E+03  0.17339622295E+03  0.00000000000E+00 0. -1.
        -15    1    1    2    0    0 -0.47417953841E+01  0.77350798513E+01 -0.45422996890E+01  0.10300791195E+02  0.17770000000E+01 0. -1.
         15    1    1    2    0    0 -0.63998663877E+00 -0.63780010988E+01  0.50413513321E+01  0.83463425024E+01  0.17770000000E+01 0.  1.
</event>
<event>
 6    1  0.1045352E-002  0.1844205E+03  0.7546771E-02  0.1066936E+00
        -11   -1    0    0    0    0  0.00000000000E+00  0.00000000000E+00  0.18250000000E+03  0.18250000000E+03  0.00000000000E+00 0. -1.
         11   -1    0    0    0    0 -0.00000000000E+00 -0.00000000000E+00 -0.18250000000E+03  0.18250000000E+03  0.00000000000E+00 0.  1.
        -11    1    1    2    0    0 -0.17702526009E+00  0.21320027592E+01  0.12165396633E+03  0.12167277550E+03  0.00000000000E+00 0. -1.
         11    1    1    2    0    0 -0.21882948831E+01  0.20783392913E+01 -0.18055424864E+03  0.18057946957E+03  0.00000000000E+00 0.  1.
        -15    1    1    2    0    0 -0.54600936441E+01  0.30515367722E+01  0.63291104827E+01  0.90741317919E+01  0.17770000000E+01 0. -1.
         15    1    1    2    0    0  0.78254137873E+01 -0.72618788226E+01  0.52571171822E+02  0.53673623138E+02  0.17770000000E+01 0. -1.
</event>
<event>
 6    1  0.1045352E-002  0.1838125E+03  0.7546771E-02  0.1067415E+00
        -11   -1    0    0    0    0  0.00000000000E+00  0.00000000000E+00  0.18250000000E+03  0.18250000000E+03  0.00000000000E+00 0.  1.
         11   -1    0    0    0    0 -0.00000000000E+00 -0.00000000000E+00 -0.18250000000E+03  0.18250000000E+03  0.00000000000E+00 0.  1.
        -11    1    1    2    0    0  0.14925009516E+01 -0.90430057288E+00  0.94629742108E+01  0.96225360238E+01  0.00000000000E+00 0.  1.
         11    1    1    2    0    0  0.12820732529E+02  0.98576534453E+01 -0.18046430631E+03  0.18118750058E+03  0.00000000000E+00 0.  1.
        -15    1    1    2    0    0 -0.69037072241E+01 -0.12673677377E+02  0.15800126414E+03  0.15866896505E+03  0.17770000000E+01 0.  1.
         15    1    1    2    0    0 -0.74095262564E+01  0.37203245048E+01  0.13000067957E+02  0.15520998346E+02  0.17770000000E+01 0. -1.
</event>
<event>
 6    1  0.1045352E-002  0.1839162E+03  0.7546771E-02  0.1067333E+00
        -11   -1    0    0    0    0  0.00000000000E+00  0.00000000000E+00  0.18250000000E+03  0.18250000000E+03  0.00000000000E+00 0. -1.
         11   -1    0    0    0    0 -0.00000000000E+00 -0.00000000000E+00 -0.18250000000E+03  0.18250000000E+03  0.00000000000E+00 0.  1.
        -11    1    1    2    0    0  0.27367037410E+01  0.43554200394E-01  0.18106316159E+03  0.18108384779E+03  0.00000000000E+00 0. -1.
         11    1    1    2    0    0  0.32615913980E+01 -0.31524129508E+00 -0.16652453719E+03  0.16655677363E+03  0.00000000000E+00 0.  1.
        -15    1    1    2    0    0 -0.37250857883E-01  0.13786116761E+01 -0.10877254480E+01  0.24985662749E+01  0.17770000000E+01 0.  1.
         15    1    1    2    0    0 -0.59610442811E+01 -0.11069245814E+01 -0.13450898952E+02  0.14860812312E+02  0.17770000000E+01 0.  1.
</event>
<event>
 6    1  0.1045352E-002  0.1832448E+03  0.7546771E-02  0.1067863E+00
        -11   -1    0    0    0    0  0.00000000000E+00  0.00000000000E+00  0.18250000000E+03  0.18250000000E+03  0.00000000000E+00 0. -1.
         11   -1    0    0    0    0 -0.00000000000E+00 -0.00000000000E+00 -0.18250000000E+03  0.18250000000E+03  0.00000000000E+00 0. -1.
        -11    1    1    2    0    0 -0.10898793098E+01 -0.24935349246E+00  0.61273309417E+02  0.61283508882E+02  0.00000000000E+00 0. -1.
         11    1    1    2    0    0 -0.61422966478E+01  0.68163736636E+01 -0.18152345223E+03  0.18175520479E+03  0.00000000000E+00 0. -1.
        -15    1    1    2    0    0 -0.58837990338E+00 -0.54870557459E+01  0.11202444400E+02  0.12613740968E+02  0.17770000000E+01 0.  1.
         15    1    1    2    0    0  0.78205558610E+01 -0.10799644253E+01  0.10904769842E+03  0.10934754536E+03  0.17770000000E+01 0. -1.
</event>
<event>
 6    1  0.1045352E-002  0.1852713E+03  0.7546771E-02  0.1066270E+00
        -11   -1    0    0    0    0  0.00000000000E+00  0.00000000000E+00  0.18250000000E+03  0.18250000000E+03  0.00000000000E+00 0. -1.
         11   -1    0    0    0    0 -0.00000000000E+00 -0.00000000000E+00 -0.18250000000E+03  0.18250000000E+03  0.00000000000E+00 0.  1.
        -11    1    1    2    0    0 -0.18384172702E+01 -0.21772473783E+01  0.64132995658E+02  0.64196271826E+02  0.00000000000E+00 0. -1.
         11    1    1    2    0    0 -0.48928260234E+01  0.22011268558E+01 -0.17964858586E+03  0.17972868193E+03  0.00000000000E+00 0.  1.
        -15    1    1    2    0    0  0.52456643788E+01  0.45441600515E+00  0.11771456433E+03  0.11784566124E+03  0.17770000000E+01 0. -1.
         15    1    1    2    0    0  0.14855789148E+01 -0.47829548261E+00 -0.21989741333E+01  0.32293850064E+01  0.17770000000E+01 0.  1.
</event>
<event>
 6    1  0.1045352E-002  0.1919329E+03  0.7546771E-02  0.1061185E+00
        -11   -1    0    0    0    0  0.00000000000E+00  0.00000000000E+00  0.18250000000E+03  0.18250000000E+03  0.00000000000E+00 0. -1.
         11   -1    0    0    0    0 -0.00000000000E+00 -0.00000000000E+00 -0.18250000000E+03  0.18250000000E+03  0.00000000000E+00 0.  1.
        -11    1    1    2    0    0  0.14306792759E+02  0.37281739084E+01  0.14390423294E+03  0.14466171524E+03  0.00000000000E+00 0. -1.
         11    1    1    2    0    0  0.12975017230E+02 -0.11946172728E+02 -0.17216606181E+03  0.17306708224E+03  0.00000000000E+00 0.  1.
        -15    1    1    2    0    0 -0.18593813103E+02  0.19813613592E+01  0.30856298110E+02  0.36123739294E+02  0.17770000000E+01 0.  1.
         15    1    1    2    0    0 -0.86879968864E+01  0.62366374604E+01 -0.25944692315E+01  0.11147463223E+02  0.17770000000E+01 0. -1.
</event>
<event>
 6    1  0.1045352E-002  0.1352900E+03  0.7546771E-02  0.1113824E+00
        -11   -1    0    0    0    0  0.00000000000E+00  0.00000000000E+00  0.18250000000E+03  0.18250000000E+03  0.00000000000E+00 0.  1.
         11   -1    0    0    0    0 -0.00000000000E+00 -0.00000000000E+00 -0.18250000000E+03  0.18250000000E+03  0.00000000000E+00 0. -1.
        -11    1    1    2    0    0  0.47644903413E+02 -0.39438377931E+02  0.14422124273E+03  0.15692415151E+03  0.00000000000E+00 0.  1.
         11    1    1    2    0    0 -0.25478925927E+01 -0.47272175236E+01 -0.33940378043E+02  0.34362590180E+02  0.00000000000E+00 0. -1.
        -15    1    1    2    0    0 -0.68598815543E+01  0.74864203106E+02 -0.97272660109E+02  0.12295053890E+03  0.17770000000E+01 0.  1.
         15    1    1    2    0    0 -0.38237129266E+02 -0.30698607652E+02 -0.13008204574E+02  0.50762719406E+02  0.17770000000E+01 0. -1.
</event>
<event>
 6    1  0.1045352E-002  0.1837291E+03  0.7546771E-02  0.1067481E+00
        -11   -1    0    0    0    0  0.00000000000E+00  0.00000000000E+00  0.18250000000E+03  0.18250000000E+03  0.00000000000E+00 0.  1.
         11   -1    0    0    0    0 -0.00000000000E+00 -0.00000000000E+00 -0.18250000000E+03  0.18250000000E+03  0.00000000000E+00 0.  1.
        -11    1    1    2    0    0 -0.75284368579E+00  0.21719065362E+00  0.17105995998E+02  0.17123931923E+02  0.00000000000E+00 0.  1.
         11    1    1    2    0    0  0.26740030774E+01  0.18817162619E+01 -0.18124136931E+03  0.18127086113E+03  0.00000000000E+00 0.  1.
        -15    1    1    2    0    0 -0.21746570500E+01 -0.34936171129E+00  0.40871690719E+00  0.28593645099E+01  0.17770000000E+01 0.  1.
         15    1    1    2    0    0  0.25349765845E+00 -0.17495452042E+01  0.16372665640E+03  0.16374584243E+03  0.17770000000E+01 0.  1.
</event>
<event>
 6    1  0.1045352E-002  0.1738025E+03  0.7546771E-02  0.1075597E+00
        -11   -1    0    0    0    0  0.00000000000E+00  0.00000000000E+00  0.18250000000E+03  0.18250000000E+03  0.00000000000E+00 0.  1.
         11   -1    0    0    0    0 -0.00000000000E+00 -0.00000000000E+00 -0.18250000000E+03  0.18250000000E+03  0.00000000000E+00 0. -1.
        -11    1    1    2    0    0  0.10101213277E+01 -0.79064808002E+01  0.17415197866E+03  0.17433428939E+03  0.00000000000E+00 0.  1.
         11    1    1    2    0    0 -0.28206352908E+00  0.25866624641E+01 -0.17329365658E+03  0.17331318990E+03  0.00000000000E+00 0. -1.
        -15    1    1    2    0    0  0.22501868938E+01  0.90347753228E+01 -0.50721989706E+01  0.10750601731E+02  0.17770000000E+01 0. -1.
         15    1    1    2    0    0 -0.29782446924E+01 -0.37149569867E+01  0.42138768847E+01  0.66019189832E+01  0.17770000000E+01 0. -1.
</event>
<event>
 6    1  0.1045352E-002  0.1834114E+03  0.7546771E-02  0.1067732E+00
        -11   -1    0    0    0    0  0.00000000000E+00  0.00000000000E+00  0.18250000000E+03  0.18250000000E+03  0.00000000000E+00 0.  1.
         11   -1    0    0    0    0 -0.00000000000E+00 -0.00000000000E+00 -0.18250000000E+03  0.18250000000E+03  0.00000000000E+00 0.  1.
        -11    1    1    2    0    0  0.23925143219E+01 -0.34145997342E+01  0.16383765778E+03  0.16389070053E+03  0.00000000000E+00 0.  1.
         11    1    1    2    0    0  0.25848861102E+01 -0.54512758646E+00 -0.18156940160E+03  0.18158861858E+03  0.00000000000E+00 0.  1.
        -15    1    1    2    0    0 -0.29719556415E+01  0.42241061024E+01  0.12301470563E+02  0.13459550502E+02  0.17770000000E+01 0. -1.
         15    1    1    2    0    0 -0.20054447907E+01 -0.26437878170E+00  0.54302732572E+01  0.60611303893E+01  0.17770000000E+01 0.  1.
</event>
<event>
 6    1  0.1045352E-002  0.1897354E+03  0.7546771E-02  0.1062837E+00
        -11   -1    0    0    0    0  0.00000000000E+00  0.00000000000E+00  0.18250000000E+03  0.18250000000E+03  0.00000000000E+00 0. -1.
         11   -1    0    0    0    0 -0.00000000000E+00 -0.00000000000E+00 -0.18250000000E+03  0.18250000000E+03  0.00000000000E+00 0.  1.
        -11    1    1    2    0    0  0.93231825794E+00  0.63863634929E+01  0.17514567969E+03  0.17526455424E+03  0.00000000000E+00 0. -1.
         11    1    1    2    0    0  0.53684279764E+01 -0.86753702788E+01 -0.10118946128E+03  0.10170245396E+03  0.00000000000E+00 0.  1.
        -15    1    1    2    0    0 -0.68173672569E+01  0.12570879670E+02 -0.76028698159E+02  0.77382324756E+02  0.17770000000E+01 0.  1.
         15    1    1    2    0    0  0.51662102260E+00 -0.10281872884E+02  0.20724797407E+01  0.10650667047E+02  0.17770000000E+01 0. -1.
</event>
<event>
 6    1  0.1045352E-002  0.1683166E+03  0.7546771E-02  0.1080341E+00
        -11   -1    0    0    0    0  0.00000000000E+00  0.00000000000E+00  0.18250000000E+03  0.18250000000E+03  0.00000000000E+00 0.  1.
         11   -1    0    0    0    0 -0.00000000000E+00 -0.00000000000E+00 -0.18250000000E+03  0.18250000000E+03  0.00000000000E+00 0.  1.
        -11    1    1    2    0    0 -0.54305716078E+01 -0.16698385721E+02  0.17140252776E+03  0.17229960451E+03  0.00000000000E+00 0.  1.
         11    1    1    2    0    0 -0.65902721065E+01  0.48496705366E+01 -0.16462139172E+03  0.16482461468E+03  0.00000000000E+00 0.  1.
        -15    1    1    2    0    0 -0.18512375231E+01 -0.37772062577E+01 -0.50885854437E+01  0.68370898998E+01  0.17770000000E+01 0.  1.
         15    1    1    2    0    0  0.13872081237E+02  0.15625921442E+02 -0.16925505937E+01  0.21038690912E+02  0.17770000000E+01 0. -1.
</event>
<event>
 6    1  0.1045352E-002  0.1826052E+03  0.7546771E-02  0.1068371E+00
        -11   -1    0    0    0    0  0.00000000000E+00  0.00000000000E+00  0.18250000000E+03  0.18250000000E+03  0.00000000000E+00 0. -1.
         11   -1    0    0    0    0 -0.00000000000E+00 -0.00000000000E+00 -0.18250000000E+03  0.18250000000E+03  0.00000000000E+00 0.  1.
        -11    1    1    2    0    0 -0.25585987999E+01 -0.18754323322E+00  0.18237678682E+03  0.18239482989E+03  0.00000000000E+00 0. -1.
         11    1    1    2    0    0 -0.93384703420E+00  0.19874365788E+01 -0.10797342485E+03  0.10799575200E+03  0.00000000000E+00 0.  1.
        -15    1    1    2    0    0  0.26037155947E+01 -0.10320649020E+01 -0.38344484322E+02  0.38487682442E+02  0.17770000000E+01 0. -1.
         15    1    1    2    0    0  0.88873023943E+00 -0.76782844364E+00 -0.36058877643E+02  0.36121735671E+02  0.17770000000E+01 0.  1.
</event>
<event>
 6    1  0.1045352E-002  0.1826489E+03  0.7546771E-02  0.1068336E+00
        -11   -1    0    0    0    0  0.00000000000E+00  0.00000000000E+00  0.18250000000E+03  0.18250000000E+03  0.00000000000E+00 0. -1.
         11   -1    0    0    0    0 -0.00000000000E+00 -0.00000000000E+00 -0.18250000000E+03  0.18250000000E+03  0.00000000000E+00 0. -1.
        -11    1    1    2    0    0  0.58531051578E+01 -0.20397276523E+01  0.18224576410E+03  0.18235113890E+03  0.00000000000E+00 0. -1.
         11    1    1    2    0    0  0.11059950040E-02 -0.20844543605E+01 -0.49219084186E+02  0.49263203299E+02  0.00000000000E+00 0. -1.
        -15    1    1    2    0    0 -0.56000674788E+01  0.78281767877E+00 -0.73790968387E+02  0.74028631649E+02  0.17770000000E+01 0. -1.
         15    1    1    2    0    0 -0.25414367401E+00  0.33413643340E+01 -0.59235711522E+02  0.59357026148E+02  0.17770000000E+01 0. -1.
</event>
<event>
 6    1  0.1045352E-002  0.1837896E+03  0.7546771E-02  0.1067433E+00
        -11   -1    0    0    0    0  0.00000000000E+00  0.00000000000E+00  0.18250000000E+03  0.18250000000E+03  0.00000000000E+00 0. -1.
         11   -1    0    0    0    0 -0.00000000000E+00 -0.00000000000E+00 -0.18250000000E+03  0.18250000000E+03  0.00000000000E+00 0.  1.
        -11    1    1    2    0    0  0.33871675298E+01 -0.24963775219E+01  0.18116149437E+03  0.18121035248E+03  0.00000000000E+00 0. -1.
         11    1    1    2    0    0 -0.21539093695E+01  0.16804792624E+01 -0.16910267484E+03  0.16912474087E+03  0.00000000000E+00 0.  1.
        -15    1    1    2    0    0  0.10931833639E+01 -0.28826156773E+01 -0.61381296965E+01  0.70949903581E+01  0.17770000000E+01 0. -1.
         15    1    1    2    0    0 -0.23264415242E+01  0.36985139368E+01 -0.59206898364E+01  0.75699162905E+01  0.17770000000E+01 0.  1.
</event>
<event>
 6    1  0.1045352E-002  0.1852371E+03  0.7546771E-02  0.1066297E+00
        -11   -1    0    0    0    0  0.00000000000E+00  0.00000000000E+00  0.18250000000E+03  0.18250000000E+03  0.00000000000E+00 0.  1.
         11   -1    0    0    0    0 -0.00000000000E+00 -0.00000000000E+00 -0.18250000000E+03  0.18250000000E+03  0.00000000000E+00 0.  1.
        -11    1    1    2    0    0 -0.20758385734E+01 -0.12153332343E+01  0.17778188516E+03  0.17779815756E+03  0.00000000000E+00 0.  1.
         11    1    1    2    0    0  0.25089799219E+01 -0.14474969548E+01 -0.17973957672E+03  0.17976291516E+03  0.00000000000E+00 0.  1.
        -15    1    1    2    0    0  0.12529172850E+01  0.10093442490E+01  0.33922344054E+01  0.41537405789E+01  0.17770000000E+01 0. -1.
         15    1    1    2    0    0 -0.16860586334E+01  0.16534859400E+01 -0.14345428461E+01  0.32851866989E+01  0.17770000000E+01 0.  1.
</event>
<event>
 6    1  0.1226486E-002  0.1879486E+03  0.7546771E-02  0.1064199E+00
        -11   -1    0    0    0    0  0.00000000000E+00  0.00000000000E+00  0.18250000000E+03  0.18250000000E+03  0.00000000000E+00 0. -1.
         11   -1    0    0    0    0 -0.00000000000E+00 -0.00000000000E+00 -0.18250000000E+03  0.18250000000E+03  0.00000000000E+00 0.  1.
        -11    1    1    2    0    0  0.29965762420E+01  0.32536330920E-01  0.17702608064E+03  0.17705144381E+03  0.00000000000E+00 0. -1.
         11    1    1    2    0    0 -0.56657386162E+01  0.37610417507E+01 -0.17082365329E+03  0.17095896161E+03  0.00000000000E+00 0.  1.
        -15    1    1    2    0    0 -0.24092412691E+01 -0.19595277193E+01  0.39652221683E+01  0.53408714850E+01  0.17770000000E+01 0. -1.
         15    1    1    2    0    0  0.50784036432E+01 -0.18340503624E+01 -0.10167649512E+02  0.11648723101E+02  0.17770000000E+01 0. -1.
</event>
<event>
 6    1  0.1045352E-002  0.1829650E+03  0.7546771E-02  0.1068085E+00
        -11   -1    0    0    0    0  0.00000000000E+00  0.00000000000E+00  0.18250000000E+03  0.18250000000E+03  0.00000000000E+00 0.  1.
         11   -1    0    0    0    0 -0.00000000000E+00 -0.00000000000E+00 -0.18250000000E+03  0.18250000000E+03  0.00000000000E+00 0.  1.
        -11    1    1    2    0    0  0.23956742779E+01 -0.12191596686E+01  0.18201516667E+03  0.18203501450E+03  0.00000000000E+00 0.  1.
         11    1    1    2    0    0 -0.20081734658E+01 -0.41590659944E+00 -0.10164873732E+03  0.10166942282E+03  0.00000000000E+00 0.  1.
        -15    1    1    2    0    0 -0.25721965953E+01  0.11645901830E+01 -0.59272949181E+01  0.68016924118E+01  0.17770000000E+01 0.  1.
         15    1    1    2    0    0  0.21846957832E+01  0.47047608502E+00 -0.74439134431E+02  0.74493870267E+02  0.17770000000E+01 0. -1.
</event>
<event>
 6    1  0.1045352E-002  0.1829953E+03  0.7546771E-02  0.1068061E+00
        -11   -1    0    0    0    0  0.00000000000E+00  0.00000000000E+00  0.18250000000E+03  0.18250000000E+03  0.00000000000E+00 0. -1.
         11   -1    0    0    0    0 -0.00000000000E+00 -0.00000000000E+00 -0.18250000000E+03  0.18250000000E+03  0.00000000000E+00 0. -1.
        -11    1    1    2    0    0 -0.19242811896E+01  0.18348468709E+01  0.18198523462E+03  0.18200465692E+03  0.00000000000E+00 0. -1.
         11    1    1    2    0    0  0.52617863664E+01  0.16114743612E+01 -0.14251196467E+03  0.14261817317E+03  0.00000000000E+00 0. -1.
        -15    1    1    2    0    0 -0.45172624564E+01 -0.35020047976E+01 -0.22991934654E+02  0.23758292991E+02  0.17770000000E+01 0.  1.
         15    1    1    2    0    0  0.11797572796E+01  0.55683565482E-01 -0.16481335293E+02  0.16618876916E+02  0.17770000000E+01 0. -1.
</event>
<event>
 6    1  0.1045352E-002  0.1829965E+03  0.7546771E-02  0.1068060E+00
        -11   -1    0    0    0    0  0.00000000000E+00  0.00000000000E+00  0.18250000000E+03  0.18250000000E+03  0.00000000000E+00 0. -1.
         11   -1    0    0    0    0 -0.00000000000E+00 -0.00000000000E+00 -0.18250000000E+03  0.18250000000E+03  0.00000000000E+00 0.  1.
        -11    1    1    2    0    0 -0.46136204813E+01 -0.75208766451E+01  0.18178951321E+03  0.18200350599E+03  0.00000000000E+00 0. -1.
         11    1    1    2    0    0 -0.21134914519E+01  0.72534672970E+00 -0.38144117143E+02  0.38209509898E+02  0.00000000000E+00 0.  1.
        -15    1    1    2    0    0 -0.64501672457E+00 -0.19057194117E+01 -0.51147829697E+01  0.57763783531E+01  0.17770000000E+01 0.  1.
         15    1    1    2    0    0  0.73721286578E+01  0.87012493270E+01 -0.13853061309E+03  0.13901060576E+03  0.17770000000E+01 0.  1.
</event>
<event>
 6    1  0.1045352E-002  0.1864074E+03  0.7546771E-02  0.1065386E+00
        -11   -1    0    0    0    0  0.00000000000E+00  0.00000000000E+00  0.18250000000E+03  0.18250000000E+03  0.00000000000E+00 0.  1.
         11   -1    0    0    0    0 -0.00000000000E+00 -0.00000000000E+00 -0.18250000000E+03  0.18250000000E+03  0.00000000000E+00 0.  1.
        -11    1    1    2    0    0  0.13763639741E+01 -0.29187030530E+01  0.17856346762E+03  0.17859262351E+03  0.00000000000E+00 0.  1.
         11    1    1    2    0    0 -0.23201844577E+01 -0.11809933683E+01 -0.17403356838E+03  0.17405304055E+03  0.00000000000E+00 0.  1.
        -15    1    1    2    0    0  0.41188284735E+01  0.51780259843E+01 -0.57769742781E+00  0.68751846816E+01  0.17770000000E+01 0.  1.
         15    1    1    2    0    0 -0.31750079900E+01 -0.10783295629E+01 -0.39522018116E+01  0.54791512611E+01  0.17770000000E+01 0. -1.
</event>
<event>
 6    1  0.1045352E-002  0.1846707E+03  0.7546771E-02  0.1066740E+00
        -11   -1    0    0    0    0  0.00000000000E+00  0.00000000000E+00  0.18250000000E+03  0.18250000000E+03  0.00000000000E+00 0.  1.
         11   -1    0    0    0    0 -0.00000000000E+00 -0.00000000000E+00 -0.18250000000E+03  0.18250000000E+03  0.00000000000E+00 0.  1.
        -11    1    1    2    0    0 -0.74570180341E+01  0.36875808215E+01  0.18013727814E+03  0.18032926647E+03  0.00000000000E+00 0.  1.
         11    1    1    2    0    0 -0.19294109541E+01  0.69256678284E+00 -0.40476528296E+02  0.40528405079E+02  0.00000000000E+00 0.  1.
        -15    1    1    2    0    0  0.15499274332E+02 -0.15139647458E+02 -0.10666131454E+03  0.10885416932E+03  0.17770000000E+01 0. -1.
         15    1    1    2    0    0 -0.61128453442E+01  0.10759499854E+02 -0.32999435303E+02  0.35288159128E+02  0.17770000000E+01 0.  1.
</event>
<event>
 6    1  0.1045352E-002  0.1841102E+03  0.7546771E-02  0.1067180E+00
        -11   -1    0    0    0    0  0.00000000000E+00  0.00000000000E+00  0.18250000000E+03  0.18250000000E+03  0.00000000000E+00 0. -1.
         11   -1    0    0    0    0 -0.00000000000E+00 -0.00000000000E+00 -0.18250000000E+03  0.18250000000E+03  0.00000000000E+00 0.  1.
        -11    1    1    2    0    0  0.12343728789E+01  0.37485209728E+01  0.18084678677E+03  0.18088984320E+03  0.00000000000E+00 0. -1.
         11    1    1    2    0    0  0.36816095230E+01  0.23488807096E+01 -0.16475731159E+03  0.16481517895E+03  0.00000000000E+00 0.  1.
        -15    1    1    2    0    0 -0.33718435937E+01 -0.70006226750E+01 -0.13521228304E+02  0.15695839924E+02  0.17770000000E+01 0.  1.
         15    1    1    2    0    0 -0.15441388082E+01  0.90322099260E+00 -0.25682468787E+01  0.35991379315E+01  0.17770000000E+01 0. -1.
</event>
<event>
 6    1  0.1045352E-002  0.1767967E+03  0.7546771E-02  0.1073087E+00
        -11   -1    0    0    0    0  0.00000000000E+00  0.00000000000E+00  0.18250000000E+03  0.18250000000E+03  0.00000000000E+00 0.  1.
         11   -1    0    0    0    0 -0.00000000000E+00 -0.00000000000E+00 -0.18250000000E+03  0.18250000000E+03  0.00000000000E+00 0. -1.
        -11    1    1    2    0    0 -0.18791319528E+01 -0.24793224981E+01  0.17764732181E+03  0.17767455958E+03  0.00000000000E+00 0.  1.
         11    1    1    2    0    0  0.80371649470E-01 -0.41611399345E+01 -0.17594073575E+03  0.17598995438E+03  0.00000000000E+00 0. -1.
        -15    1    1    2    0    0 -0.89994822066E+00  0.78497586291E+00 -0.37708824627E+01  0.43362861359E+01  0.17770000000E+01 0.  1.
         15    1    1    2    0    0  0.26987085240E+01  0.58554865697E+01  0.20642964099E+01  0.69991999067E+01  0.17770000000E+01 0. -1.
</event>
<event>
 6    1  0.1045352E-002  0.1878220E+03  0.7546771E-02  0.1064296E+00
        -11   -1    0    0    0    0  0.00000000000E+00  0.00000000000E+00  0.18250000000E+03  0.18250000000E+03  0.00000000000E+00 0.  1.
         11   -1    0    0    0    0 -0.00000000000E+00 -0.00000000000E+00 -0.18250000000E+03  0.18250000000E+03  0.00000000000E+00 0.  1.
        -11    1    1    2    0    0 -0.14821668429E+01 -0.47494904072E+01  0.15878388921E+03  0.15886182030E+03  0.00000000000E+00 0.  1.
         11    1    1    2    0    0  0.12559787621E+02  0.76517992665E+01 -0.17656656938E+03  0.17717802268E+03  0.00000000000E+00 0.  1.
        -15    1    1    2    0    0 -0.50038965087E+01 -0.19507064878E+01 -0.35564571528E+01  0.66820919292E+01  0.17770000000E+01 0.  1.
         15    1    1    2    0    0 -0.60737242691E+01 -0.95160237154E+00  0.21339137326E+02  0.22278065095E+02  0.17770000000E+01 0. -1.
</event>
<event>
 6    1  0.1045352E-002  0.1657425E+03  0.7546771E-02  0.1082636E+00
        -11   -1    0    0    0    0  0.00000000000E+00  0.00000000000E+00  0.18250000000E+03  0.18250000000E+03  0.00000000000E+00 0. -1.
         11   -1    0    0    0    0 -0.00000000000E+00 -0.00000000000E+00 -0.18250000000E+03  0.18250000000E+03  0.00000000000E+00 0. -1.
        -11    1    1    2    0    0  0.45138469905E+01 -0.42270349748E+01  0.16445379298E+03  0.16457002359E+03  0.00000000000E+00 0. -1.
         11    1    1    2    0    0  0.88198053714E+01 -0.56768189922E+01 -0.16701156498E+03  0.16734060499E+03  0.00000000000E+00 0. -1.
        -15    1    1    2    0    0 -0.43751197543E+01  0.14782690424E+02 -0.87023657695E+01  0.17792091165E+02  0.17770000000E+01 0. -1.
         15    1    1    2    0    0 -0.89585326076E+01 -0.48788364575E+01  0.11260137765E+02  0.15297280253E+02  0.17770000000E+01 0.  1.
</event>
<event>
 6    1  0.1045352E-002  0.1778908E+03  0.7546771E-02  0.1072184E+00
        -11   -1    0    0    0    0  0.00000000000E+00  0.00000000000E+00  0.18250000000E+03  0.18250000000E+03  0.00000000000E+00 0. -1.
         11   -1    0    0    0    0 -0.00000000000E+00 -0.00000000000E+00 -0.18250000000E+03  0.18250000000E+03  0.00000000000E+00 0. -1.
        -11    1    1    2    0    0  0.32584230407E+01  0.31975628410E+01  0.17685229424E+03  0.17691120854E+03  0.00000000000E+00 0. -1.
         11    1    1    2    0    0 -0.55791120173E+01  0.21744070732E+01 -0.17882374899E+03  0.17892397196E+03  0.00000000000E+00 0. -1.
        -15    1    1    2    0    0  0.28433715060E+01 -0.41065204242E+01 -0.10471476072E+01  0.54039354758E+01  0.17770000000E+01 0.  1.
         15    1    1    2    0    0 -0.52268252935E+00 -0.12654494900E+01  0.30186023616E+01  0.37608840259E+01  0.17770000000E+01 0.  1.
</event>
<event>
 6    1  0.1045352E-002  0.1845817E+03  0.7546771E-02  0.1066810E+00
        -11   -1    0    0    0    0  0.00000000000E+00  0.00000000000E+00  0.18250000000E+03  0.18250000000E+03  0.00000000000E+00 0.  1.
         11   -1    0    0    0    0 -0.00000000000E+00 -0.00000000000E+00 -0.18250000000E+03  0.18250000000E+03  0.00000000000E+00 0.  1.
        -11    1    1    2    0    0  0.44621166783E+01 -0.12713937593E+01  0.18035861818E+03  0.18041828644E+03  0.00000000000E+00 0.  1.
         11    1    1    2    0    0 -0.14223415527E+01  0.14894467028E+01 -0.13943704238E+03  0.13945225095E+03  0.00000000000E+00 0.  1.
        -15    1    1    2    0    0 -0.23316171775E+01  0.30303782704E+01 -0.18662932703E+00  0.42204491029E+01  0.17770000000E+01 0. -1.
         15    1    1    2    0    0 -0.70815794810E+00 -0.32484312139E+01 -0.40734946473E+02  0.40909013508E+02  0.17770000000E+01 0.  1.
</event>
<event>
 6    1  0.1045352E-002  0.1827945E+03  0.7546771E-02  0.1068221E+00
        -11   -1    0    0    0    0  0.00000000000E+00  0.00000000000E+00  0.18250000000E+03  0.18250000000E+03  0.00000000000E+00 0.  1.
         11   -1    0    0    0    0 -0.00000000000E+00 -0.00000000000E+00 -0.18250000000E+03  0.18250000000E+03  0.00000000000E+00 0.  1.
        -11    1    1    2    0    0  0.28423282817E+01 -0.13007274089E+00  0.11199162419E+03  0.11202776280E+03  0.00000000000E+00 0.  1.
         11    1    1    2    0    0  0.40900107833E+01 -0.70663545008E+00 -0.18215822136E+03  0.18220550247E+03  0.00000000000E+00 0.  1.
        -15    1    1    2    0    0 -0.28925765276E+00  0.10009336532E+01  0.24308014707E+02  0.24395139806E+02  0.17770000000E+01 0. -1.
         15    1    1    2    0    0 -0.66430814123E+01 -0.16422546222E+00  0.45858582466E+02  0.46371594920E+02  0.17770000000E+01 0.  1.
</event>
<event>
 6    1  0.1045352E-002  0.1840509E+03  0.7546771E-02  0.1067227E+00
        -11   -1    0    0    0    0  0.00000000000E+00  0.00000000000E+00  0.18250000000E+03  0.18250000000E+03  0.00000000000E+00 0. -1.
         11   -1    0    0    0    0 -0.00000000000E+00 -0.00000000000E+00 -0.18250000000E+03  0.18250000000E+03  0.00000000000E+00 0.  1.
        -11    1    1    2    0    0  0.21684167442E+01  0.25561459940E+01  0.17100383660E+03  0.17103668625E+03  0.00000000000E+00 0. -1.
         11    1    1    2    0    0 -0.75732938666E+00  0.27557376188E+01 -0.18092653353E+03  0.18094910382E+03  0.00000000000E+00 0.  1.
        -15    1    1    2    0    0 -0.66357833849E+00 -0.20012808259E+01  0.44701003840E+00  0.27933864985E+01  0.17770000000E+01 0. -1.
         15    1    1    2    0    0 -0.74750901903E+00 -0.33106027869E+01  0.94756868910E+01  0.10220823431E+02  0.17770000000E+01 0.  1.
</event>
<event>
 6    1  0.1045352E-002  0.1845670E+03  0.7546771E-02  0.1066821E+00
        -11   -1    0    0    0    0  0.00000000000E+00  0.00000000000E+00  0.18250000000E+03  0.18250000000E+03  0.00000000000E+00 0. -1.
         11   -1    0    0    0    0 -0.00000000000E+00 -0.00000000000E+00 -0.18250000000E+03  0.18250000000E+03  0.00000000000E+00 0. -1.
        -11    1    1    2    0    0  0.40885570262E+01  0.49216617102E+00  0.16995541272E+03  0.17000529650E+03  0.00000000000E+00 0. -1.
         11    1    1    2    0    0  0.33701309217E+01  0.33627078981E+01 -0.18037016194E+03  0.18043298176E+03  0.00000000000E+00 0. -1.
        -15    1    1    2    0    0 -0.65221854623E+01 -0.44242624746E+01  0.80034689588E+01  0.11372169803E+02  0.17770000000E+01 0. -1.
         15    1    1    2    0    0 -0.93650248555E+00  0.56938840541E+00  0.24112802639E+01  0.31895519392E+01  0.17770000000E+01 0.  1.
</event>
<event>
 6    1  0.1045352E-002  0.1833950E+03  0.7546771E-02  0.1067745E+00
        -11   -1    0    0    0    0  0.00000000000E+00  0.00000000000E+00  0.18250000000E+03  0.18250000000E+03  0.00000000000E+00 0.  1.
         11   -1    0    0    0    0 -0.00000000000E+00 -0.00000000000E+00 -0.18250000000E+03  0.18250000000E+03  0.00000000000E+00 0. -1.
        -11    1    1    2    0    0 -0.14657265855E+01  0.48144560862E+01  0.18153528525E+03  0.18160503059E+03  0.00000000000E+00 0.  1.
         11    1    1    2    0    0 -0.43092915602E+01  0.23540473669E+01 -0.14425879836E+03  0.14434234457E+03  0.00000000000E+00 0. -1.
        -15    1    1    2    0    0  0.38259227424E+01 -0.32676884244E+00 -0.15908341238E+02  0.16461394615E+02  0.17770000000E+01 0.  1.
         15    1    1    2    0    0  0.19490954034E+01 -0.68417346107E+01 -0.21368145660E+02  0.22591230231E+02  0.17770000000E+01 0. -1.
</event>
<event>
 6    1  0.1045352E-002  0.1872847E+03  0.7546771E-02  0.1064709E+00
        -11   -1    0    0    0    0  0.00000000000E+00  0.00000000000E+00  0.18250000000E+03  0.18250000000E+03  0.00000000000E+00 0.  1.
         11   -1    0    0    0    0 -0.00000000000E+00 -0.00000000000E+00 -0.18250000000E+03  0.18250000000E+03  0.00000000000E+00 0.  1.
        -11    1    1    2    0    0  0.46671747355E+01 -0.13001680340E+01  0.17764920073E+03  0.17771525392E+03  0.00000000000E+00 0.  1.
         11    1    1    2    0    0 -0.27676667436E+00  0.39692736651E+01 -0.16757541362E+03  0.16762264460E+03  0.00000000000E+00 0.  1.
        -15    1    1    2    0    0 -0.59626434508E+01 -0.81172417608E+00  0.24836499517E+01  0.67482041420E+01  0.17770000000E+01 0.  1.
         15    1    1    2    0    0  0.15722353896E+01 -0.18573814550E+01 -0.12557437062E+02  0.12913897342E+02  0.17770000000E+01 0. -1.
</event>
<event>
 6    1  0.1045352E-002  0.1829527E+03  0.7546771E-02  0.1068095E+00
        -11   -1    0    0    0    0  0.00000000000E+00  0.00000000000E+00  0.18250000000E+03  0.18250000000E+03  0.00000000000E+00 0. -1.
         11   -1    0    0    0    0 -0.00000000000E+00 -0.00000000000E+00 -0.18250000000E+03  0.18250000000E+03  0.00000000000E+00 0. -1.
        -11    1    1    2    0    0  0.39128750021E+01  0.18505224727E+01  0.18199585950E+03  0.18204732324E+03  0.00000000000E+00 0. -1.
         11    1    1    2    0    0  0.18144020044E+00 -0.18263518146E+01 -0.90645916980E+02  0.90664495513E+02  0.00000000000E+00 0. -1.
        -15    1    1    2    0    0 -0.10846766999E+01 -0.21579849178E+01 -0.49230826372E+01  0.57643641541E+01  0.17770000000E+01 0.  1.
         15    1    1    2    0    0 -0.30096385026E+01  0.21338142597E+01 -0.86426859879E+02  0.86523817095E+02  0.17770000000E+01 0. -1.
</event>
<event>
 6    1  0.1045352E-002  0.1867155E+03  0.7546771E-02  0.1065148E+00
        -11   -1    0    0    0    0  0.00000000000E+00  0.00000000000E+00  0.18250000000E+03  0.18250000000E+03  0.00000000000E+00 0. -1.
         11   -1    0    0    0    0 -0.00000000000E+00 -0.00000000000E+00 -0.18250000000E+03  0.18250000000E+03  0.00000000000E+00 0. -1.
        -11    1    1    2    0    0  0.37301594966E+01  0.54963253389E+00  0.12398844305E+03  0.12404575847E+03  0.00000000000E+00 0. -1.
         11    1    1    2    0    0  0.16384762544E+02  0.16214650775E+02 -0.17678793070E+03  0.17828445749E+03  0.00000000000E+00 0. -1.
        -15    1    1    2    0    0 -0.54928450477E+01 -0.51303336913E+01  0.37972865986E+02  0.38750328394E+02  0.17770000000E+01 0.  1.
         15    1    1    2    0    0 -0.14622076993E+02 -0.11633949617E+02  0.14826621663E+02  0.23919455643E+02  0.17770000000E+01 0. -1.
</event>
<event>
 6    1  0.1045352E-002  0.1856083E+03  0.7546771E-02  0.1066007E+00
        -11   -1    0    0    0    0  0.00000000000E+00  0.00000000000E+00  0.18250000000E+03  0.18250000000E+03  0.00000000000E+00 0.  1.
         11   -1    0    0    0    0 -0.00000000000E+00 -0.00000000000E+00 -0.18250000000E+03  0.18250000000E+03  0.00000000000E+00 0. -1.
        -11    1    1    2    0    0  0.42170199373E+01 -0.40271099084E+01  0.17929690227E+03  0.17939169444E+03  0.00000000000E+00 0.  1.
         11    1    1    2    0    0 -0.55713115371E+01 -0.26107959726E+01 -0.17144747357E+03  0.17155783853E+03  0.00000000000E+00 0. -1.
        -15    1    1    2    0    0  0.30304734074E+01  0.73203602855E+01 -0.81402334132E+01  0.11497502894E+02  0.17770000000E+01 0. -1.
         15    1    1    2    0    0 -0.16761818076E+01 -0.68245440445E+00  0.29080471237E+00  0.25529641296E+01  0.17770000000E+01 0.  1.
</event>
<event>
 6    1  0.1045352E-002  0.1883268E+03  0.7546771E-02  0.1063909E+00
        -11   -1    0    0    0    0  0.00000000000E+00  0.00000000000E+00  0.18250000000E+03  0.18250000000E+03  0.00000000000E+00 0. -1.
         11   -1    0    0    0    0 -0.00000000000E+00 -0.00000000000E+00 -0.18250000000E+03  0.18250000000E+03  0.00000000000E+00 0.  1.
        -11    1    1    2    0    0 -0.36299995630E+00  0.25192149938E+01  0.15350276518E+03  0.15352386502E+03  0.00000000000E+00 0. -1.
         11    1    1    2    0    0 -0.52685138407E+01  0.66679180415E+01 -0.17646873151E+03  0.17667323388E+03  0.00000000000E+00 0.  1.
        -15    1    1    2    0    0  0.35916242872E+01 -0.58445697216E+01  0.27591678625E+02  0.28487141285E+02  0.17770000000E+01 0. -1.
         15    1    1    2    0    0  0.20398895099E+01 -0.33425633137E+01 -0.46257122996E+01  0.63157598115E+01  0.17770000000E+01 0.  1.
</event>
<event>
 6    1  0.1045352E-002  0.1831651E+03  0.7546771E-02  0.1067927E+00
        -11   -1    0    0    0    0  0.00000000000E+00  0.00000000000E+00  0.18250000000E+03  0.18250000000E+03  0.00000000000E+00 0.  1.
         11   -1    0    0    0    0 -0.00000000000E+00 -0.00000000000E+00 -0.18250000000E+03  0.18250000000E+03  0.00000000000E+00 0. -1.
        -11    1    1    2    0    0 -0.22773444644E+01 -0.90311097999E+00  0.15011533219E+03  0.15013532185E+03  0.00000000000E+00 0.  1.
         11    1    1    2    0    0 -0.18571164026E+01 -0.20628841163E+01 -0.18181373247E+03  0.18183491878E+03  0.00000000000E+00 0. -1.
        -15    1    1    2    0    0  0.23844859638E+00  0.28852142600E+01  0.23833185243E+02  0.24074047580E+02  0.17770000000E+01 0. -1.
         15    1    1    2    0    0  0.38960122706E+01  0.80780836273E-01  0.78652150393E+01  0.89557117958E+01  0.17770000000E+01 0.  1.
</event>
<event>
 6    1  0.1045352E-002  0.1827976E+03  0.7546771E-02  0.1068218E+00
        -11   -1    0    0    0    0  0.00000000000E+00  0.00000000000E+00  0.18250000000E+03  0.18250000000E+03  0.00000000000E+00 0.  1.
         11   -1    0    0    0    0 -0.00000000000E+00 -0.00000000000E+00 -0.18250000000E+03  0.18250000000E+03  0.00000000000E+00 0. -1.
        -11    1    1    2    0    0  0.60835368416E+00 -0.14527734148E+00  0.22728860082E+02  0.22737464246E+02  0.00000000000E+00 0.  1.
         11    1    1    2    0    0  0.21525945610E+01 -0.10447601274E+02 -0.18188990060E+03  0.18220242034E+03  0.00000000000E+00 0. -1.
        -15    1    1    2    0    0  0.22493798329E+01  0.47013117274E+01  0.11873365556E+03  0.11886126675E+03  0.17770000000E+01 0.  1.
         15    1    1    2    0    0 -0.50103280780E+01  0.58915668884E+01  0.40427384962E+02  0.41198848670E+02  0.17770000000E+01 0. -1.
</event>
<event>
 6    1  0.1045352E-002  0.1827240E+03  0.7546771E-02  0.1068277E+00
        -11   -1    0    0    0    0  0.00000000000E+00  0.00000000000E+00  0.18250000000E+03  0.18250000000E+03  0.00000000000E+00 0. -1.
         11   -1    0    0    0    0 -0.00000000000E+00 -0.00000000000E+00 -0.18250000000E+03  0.18250000000E+03  0.00000000000E+00 0. -1.
        -11    1    1    2    0    0 -0.46379787453E-01  0.11267218916E+01  0.55714486400E+02  0.55725897463E+02  0.00000000000E+00 0. -1.
         11    1    1    2    0    0  0.70096911394E+00 -0.35426375473E+01 -0.18224026546E+03  0.18227604339E+03  0.00000000000E+00 0. -1.
        -15    1    1    2    0    0 -0.47832736028E+00  0.39381167263E+01  0.20950094537E+02  0.21396302263E+02  0.17770000000E+01 0. -1.
         15    1    1    2    0    0 -0.17626196621E+00 -0.15222010706E+01  0.10557568453E+03  0.10560175688E+03  0.17770000000E+01 0. -1.
</event>
<event>
 6    1  0.1045352E-002  0.1830563E+03  0.7546771E-02  0.1068013E+00
        -11   -1    0    0    0    0  0.00000000000E+00  0.00000000000E+00  0.18250000000E+03  0.18250000000E+03  0.00000000000E+00 0.  1.
         11   -1    0    0    0    0 -0.00000000000E+00 -0.00000000000E+00 -0.18250000000E+03  0.18250000000E+03  0.00000000000E+00 0. -1.
        -11    1    1    2    0    0  0.14843458966E+01  0.93813710582E+00  0.74364227497E+02  0.74384956242E+02  0.00000000000E+00 0.  1.
         11    1    1    2    0    0 -0.41998919012E+01 -0.68416290131E+01 -0.18176650153E+03  0.18194369475E+03  0.00000000000E+00 0. -1.
        -15    1    1    2    0    0  0.59402404732E+01  0.70752117595E+01  0.37488219026E+02  0.38650606373E+02  0.17770000000E+01 0.  1.
         15    1    1    2    0    0 -0.32246944687E+01 -0.11717198522E+01  0.69914055012E+02  0.70020742634E+02  0.17770000000E+01 0.  1.
</event>
<event>
 6    1  0.1045352E-002  0.1838420E+03  0.7546771E-02  0.1067392E+00
        -11   -1    0    0    0    0  0.00000000000E+00  0.00000000000E+00  0.18250000000E+03  0.18250000000E+03  0.00000000000E+00 0. -1.
         11   -1    0    0    0    0 -0.00000000000E+00 -0.00000000000E+00 -0.18250000000E+03  0.18250000000E+03  0.00000000000E+00 0.  1.
        -11    1    1    2    0    0  0.58386918903E+00 -0.34416917211E+01  0.13857074499E+03  0.13861470886E+03  0.00000000000E+00 0. -1.
         11    1    1    2    0    0  0.12794923411E+01  0.31889355299E+01 -0.18112539337E+03  0.18115798225E+03  0.00000000000E+00 0.  1.
        -15    1    1    2    0    0  0.64277328799E+00 -0.66550683354E+01  0.13060530356E+02  0.14779657446E+02  0.17770000000E+01 0.  1.
         15    1    1    2    0    0 -0.25061348181E+01  0.69078245266E+01  0.29494118021E+02  0.30447651440E+02  0.17770000000E+01 0. -1.
</event>
<event>
 6    1  0.1045352E-002  0.1869000E+03  0.7546771E-02  0.1065005E+00
        -11   -1    0    0    0    0  0.00000000000E+00  0.00000000000E+00  0.18250000000E+03  0.18250000000E+03  0.00000000000E+00 0.  1.
         11   -1    0    0    0    0 -0.00000000000E+00 -0.00000000000E+00 -0.18250000000E+03  0.18250000000E+03  0.00000000000E+00 0. -1.
        -11    1    1    2    0    0 -0.80507163727E-01 -0.12846493273E+02  0.17763607168E+03  0.17810000795E+03  0.00000000000E+00 0.  1.
         11    1    1    2    0    0 -0.70816249425E+01  0.92961799391E+00 -0.64054061926E+02  0.64451039174E+02  0.00000000000E+00 0. -1.
        -15    1    1    2    0    0  0.60686382828E+01  0.71033463158E-01 -0.10959483626E+03  0.10977713459E+03  0.17770000000E+01 0. -1.
         15    1    1    2    0    0  0.10934938235E+01  0.11845841816E+02 -0.39871734969E+01  0.12671818281E+02  0.17770000000E+01 0.  1.
</event>
<event>
 6    1  0.1045352E-002  0.1864568E+03  0.7546771E-02  0.1065348E+00
        -11   -1    0    0    0    0  0.00000000000E+00  0.00000000000E+00  0.18250000000E+03  0.18250000000E+03  0.00000000000E+00 0.  1.
         11   -1    0    0    0    0 -0.00000000000E+00 -0.00000000000E+00 -0.18250000000E+03  0.18250000000E+03  0.00000000000E+00 0.  1.
        -11    1    1    2    0    0 -0.51493105802E+01  0.79609041019E+01  0.17829123985E+03  0.17854315333E+03  0.00000000000E+00 0.  1.
         11    1    1    2    0    0  0.39998301606E+01  0.12835678177E+01 -0.15277890978E+03  0.15283664960E+03  0.00000000000E+00 0.  1.
        -15    1    1    2    0    0  0.91651097144E+01 -0.28863412130E+01 -0.18992173359E+02  0.21358618391E+02  0.17770000000E+01 0.  1.
         15    1    1    2    0    0 -0.80156292948E+01 -0.63581307066E+01 -0.65201567127E+01  0.12261578676E+02  0.17770000000E+01 0. -1.
</event>
<event>
 6    1  0.1045352E-002  0.1856956E+03  0.7546771E-02  0.1065939E+00
        -11   -1    0    0    0    0  0.00000000000E+00  0.00000000000E+00  0.18250000000E+03  0.18250000000E+03  0.00000000000E+00 0.  1.
         11   -1    0    0    0    0 -0.00000000000E+00 -0.00000000000E+00 -0.18250000000E+03  0.18250000000E+03  0.00000000000E+00 0.  1.
        -11    1    1    2    0    0 -0.21778626668E+00  0.23587277388E+01  0.15949078831E+03  0.15950837778E+03  0.00000000000E+00 0.  1.
         11    1    1    2    0    0  0.33700724253E+00  0.45255853238E+01 -0.17924696017E+03  0.17930439824E+03  0.00000000000E+00 0.  1.
        -15    1    1    2    0    0 -0.12961742614E+01 -0.49335590756E+01  0.21921080050E+02  0.22576792341E+02  0.17770000000E+01 0. -1.
         15    1    1    2    0    0  0.11769532855E+01 -0.19507539871E+01 -0.21649081890E+01  0.36104316392E+01  0.17770000000E+01 0.  1.
</event>
<event>
 6    1  0.1045352E-002  0.1876451E+03  0.7546771E-02  0.1064432E+00
        -11   -1    0    0    0    0  0.00000000000E+00  0.00000000000E+00  0.18250000000E+03  0.18250000000E+03  0.00000000000E+00 0.  1.
         11   -1    0    0    0    0 -0.00000000000E+00 -0.00000000000E+00 -0.18250000000E+03  0.18250000000E+03  0.00000000000E+00 0. -1.
        -11    1    1    2    0    0 -0.32429856173E+01 -0.44353672680E+01  0.16806237979E+03  0.16815217197E+03  0.00000000000E+00 0.  1.
         11    1    1    2    0    0 -0.34629947553E+01 -0.12702029565E+01 -0.17731655492E+03  0.17735491647E+03  0.00000000000E+00 0. -1.
        -15    1    1    2    0    0 -0.98406170326E+00  0.81339483867E+00 -0.32499534126E+01  0.39178967296E+01  0.17770000000E+01 0.  1.
         15    1    1    2    0    0  0.76900420758E+01  0.48921753858E+01  0.12504128546E+02  0.15575014826E+02  0.17770000000E+01 0. -1.
</event>
<event>
 6    1  0.1045352E-002  0.1828908E+03  0.7546771E-02  0.1068144E+00
        -11   -1    0    0    0    0  0.00000000000E+00  0.00000000000E+00  0.18250000000E+03  0.18250000000E+03  0.00000000000E+00 0. -1.
         11   -1    0    0    0    0 -0.00000000000E+00 -0.00000000000E+00 -0.18250000000E+03  0.18250000000E+03  0.00000000000E+00 0. -1.
        -11    1    1    2    0    0 -0.13678864291E+01 -0.23471963837E+01  0.18208889556E+03  0.18210916048E+03  0.00000000000E+00 0. -1.
         11    1    1    2    0    0 -0.13740373714E+01  0.40619053131E+01 -0.15633343901E+03  0.15639223512E+03  0.00000000000E+00 0. -1.
        -15    1    1    2    0    0  0.24132813594E+01 -0.76803803178E+00 -0.72699735731E+01  0.79008894494E+01  0.17770000000E+01 0.  1.
         15    1    1    2    0    0  0.32864244103E+00 -0.94667089759E+00 -0.18485482976E+02  0.18597714953E+02  0.17770000000E+01 0. -1.
</event>
<event>
 6    1  0.1045352E-002  0.1837955E+03  0.7546771E-02  0.1067428E+00
        -11   -1    0    0    0    0  0.00000000000E+00  0.00000000000E+00  0.18250000000E+03  0.18250000000E+03  0.00000000000E+00 0. -1.
         11   -1    0    0    0    0 -0.00000000000E+00 -0.00000000000E+00 -0.18250000000E+03  0.18250000000E+03  0.00000000000E+00 0.  1.
        -11    1    1    2    0    0 -0.83169358447E+00  0.41831371785E+01  0.18115433289E+03  0.18120453272E+03  0.00000000000E+00 0. -1.
         11    1    1    2    0    0  0.14303062537E+00  0.29650409809E+01 -0.15037909961E+03  0.15040839580E+03  0.00000000000E+00 0.  1.
        -15    1    1    2    0    0  0.29743316579E+01 -0.88725202919E+01 -0.23971957471E+02  0.25794975075E+02  0.17770000000E+01 0. -1.
         15    1    1    2    0    0 -0.22856686988E+01  0.17243421326E+01 -0.68032758092E+01  0.75920964118E+01  0.17770000000E+01 0.  1.
</event>
<event>
 6    1  0.1045352E-002  0.1858944E+03  0.7546771E-02  0.1065784E+00
        -11   -1    0    0    0    0  0.00000000000E+00  0.00000000000E+00  0.18250000000E+03  0.18250000000E+03  0.00000000000E+00 0. -1.
         11   -1    0    0    0    0 -0.00000000000E+00 -0.00000000000E+00 -0.18250000000E+03  0.18250000000E+03  0.00000000000E+00 0. -1.
        -11    1    1    2    0    0  0.60653551215E+01  0.12898950394E+02  0.17853748363E+03  0.17910556807E+03  0.00000000000E+00 0. -1.
         11    1    1    2    0    0  0.16069505441E+01  0.10501125430E+00 -0.10117180229E+03  0.10118461788E+03  0.00000000000E+00 0. -1.
        -15    1    1    2    0    0  0.62022236883E+01 -0.10382065310E+02 -0.98151031843E+01  0.15676378354E+02  0.17770000000E+01 0. -1.
         15    1    1    2    0    0 -0.13874529354E+02 -0.26218963387E+01 -0.67550578158E+02  0.69033435694E+02  0.17770000000E+01 0.  1.
</event>
<event>
 6    1  0.1045352E-002  0.1832454E+03  0.7546771E-02  0.1067863E+00
        -11   -1    0    0    0    0  0.00000000000E+00  0.00000000000E+00  0.18250000000E+03  0.18250000000E+03  0.00000000000E+00 0. -1.
         11   -1    0    0    0    0 -0.00000000000E+00 -0.00000000000E+00 -0.18250000000E+03  0.18250000000E+03  0.00000000000E+00 0.  1.
        -11    1    1    2    0    0  0.17226393248E+01  0.20446768250E+01  0.18173494221E+03  0.18175460767E+03  0.00000000000E+00 0. -1.
         11    1    1    2    0    0  0.11341703662E+01 -0.31942788806E+01 -0.16448428209E+03  0.16451920500E+03  0.00000000000E+00 0.  1.
        -15    1    1    2    0    0 -0.10689223536E+01 -0.16910515870E+01 -0.32001231525E+01  0.41714227380E+01  0.17770000000E+01 0.  1.
         15    1    1    2    0    0 -0.17878873374E+01  0.28406536426E+01 -0.14050536965E+02  0.14554764589E+02  0.17770000000E+01 0. -1.
</event>
<event>
 6    1  0.1045352E-002  0.1847968E+03  0.7546771E-02  0.1066641E+00
        -11   -1    0    0    0    0  0.00000000000E+00  0.00000000000E+00  0.18250000000E+03  0.18250000000E+03  0.00000000000E+00 0.  1.
         11   -1    0    0    0    0 -0.00000000000E+00 -0.00000000000E+00 -0.18250000000E+03  0.18250000000E+03  0.00000000000E+00 0.  1.
        -11    1    1    2    0    0  0.25681458726E+01  0.24047467867E+01  0.12405341425E+03  0.12410329475E+03  0.00000000000E+00 0.  1.
         11    1    1    2    0    0  0.24439648918E+01 -0.63182112841E+01 -0.18007579106E+03  0.18020317223E+03  0.00000000000E+00 0.  1.
        -15    1    1    2    0    0 -0.95201216691E+01  0.33341034215E+01  0.96733756370E+01  0.14088324508E+02  0.17770000000E+01 0. -1.
         15    1    1    2    0    0  0.45080109047E+01  0.57936107586E+00  0.46349001171E+02  0.46605208508E+02  0.17770000000E+01 0.  1.
</event>
<event>
 6    1  0.1045352E-002  0.1844576E+03  0.7546771E-02  0.1066907E+00
        -11   -1    0    0    0    0  0.00000000000E+00  0.00000000000E+00  0.18250000000E+03  0.18250000000E+03  0.00000000000E+00 0.  1.
         11   -1    0    0    0    0 -0.00000000000E+00 -0.00000000000E+00 -0.18250000000E+03  0.18250000000E+03  0.00000000000E+00 0.  1.
        -11    1    1    2    0    0  0.11147202522E+01 -0.38904521680E+01  0.11033240043E+03  0.11040659765E+03  0.00000000000E+00 0.  1.
         11    1    1    2    0    0  0.17214961096E+01  0.23194735121E+01 -0.18051931003E+03  0.18054241829E+03  0.00000000000E+00 0.  1.
        -15    1    1    2    0    0 -0.11193580823E+00 -0.47995689051E+01  0.20096496837E+01  0.54995283571E+01  0.17770000000E+01 0. -1.
         15    1    1    2    0    0 -0.27242805536E+01  0.63705475610E+01  0.68177259921E+02  0.68551455711E+02  0.17770000000E+01 0.  1.
</event>
<event>
 6    1  0.1045352E-002  0.1913546E+03  0.7546771E-02  0.1061617E+00
        -11   -1    0    0    0    0  0.00000000000E+00  0.00000000000E+00  0.18250000000E+03  0.18250000000E+03  0.00000000000E+00 0.  1.
         11   -1    0    0    0    0 -0.00000000000E+00 -0.00000000000E+00 -0.18250000000E+03  0.18250000000E+03  0.00000000000E+00 0.  1.
        -11    1    1    2    0    0 -0.47735940770E-01 -0.44147178430E+01  0.99686868088E+02  0.99784586392E+02  0.00000000000E+00 0.  1.
         11    1    1    2    0    0  0.69386488820E+01 -0.60915738836E+01 -0.17339974759E+03  0.17364539897E+03  0.00000000000E+00 0.  1.
        -15    1    1    2    0    0 -0.19246550623E+02  0.42893316303E+01  0.36493509881E+01  0.20132152601E+02  0.17770000000E+01 0.  1.
         15    1    1    2    0    0  0.12355637682E+02  0.62169600963E+01  0.70063528512E+02  0.71437862034E+02  0.17770000000E+01 0.  1.
</event>
<event>
 6    1  0.1045352E-002  0.1850009E+03  0.7546771E-02  0.1066481E+00
        -11   -1    0    0    0    0  0.00000000000E+00  0.00000000000E+00  0.18250000000E+03  0.18250000000E+03  0.00000000000E+00 0. -1.
         11   -1    0    0    0    0 -0.00000000000E+00 -0.00000000000E+00 -0.18250000000E+03  0.18250000000E+03  0.00000000000E+00 0. -1.
        -11    1    1    2    0    0  0.12880596300E+01  0.37756846013E+00  0.85628530892E+02  0.85639050428E+02  0.00000000000E+00 0. -1.
         11    1    1    2    0    0  0.11437921384E+02 -0.40697496808E+00 -0.17963484113E+03  0.17999907728E+03  0.00000000000E+00 0. -1.
        -15    1    1    2    0    0  0.70102753737E+01  0.62953598803E+01  0.46969046111E+02  0.47937715198E+02  0.17770000000E+01 0.  1.
         15    1    1    2    0    0 -0.19736256387E+02 -0.62659533724E+01  0.47037264123E+02  0.51424157096E+02  0.17770000000E+01 0. -1.
</event>
<event>
 6    1  0.1045352E-002  0.1868887E+03  0.7546771E-02  0.1065014E+00
        -11   -1    0    0    0    0  0.00000000000E+00  0.00000000000E+00  0.18250000000E+03  0.18250000000E+03  0.00000000000E+00 0. -1.
         11   -1    0    0    0    0 -0.00000000000E+00 -0.00000000000E+00 -0.18250000000E+03  0.18250000000E+03  0.00000000000E+00 0.  1.
        -11    1    1    2    0    0  0.57371284920E+01  0.28979975085E+01  0.16464351936E+03  0.16476893366E+03  0.00000000000E+00 0. -1.
         11    1    1    2    0    0 -0.15448639863E+01  0.51539339352E+01 -0.17802999619E+03  0.17811128315E+03  0.00000000000E+00 0.  1.
        -15    1    1    2    0    0 -0.26436543615E+01 -0.16236394849E+01  0.14716850196E+02  0.15144917374E+02  0.17770000000E+01 0.  1.
         15    1    1    2    0    0 -0.15486101443E+01 -0.64282919588E+01 -0.13303733608E+01  0.69748658171E+01  0.17770000000E+01 0. -1.
</event>
<event>
 6    1  0.1045352E-002  0.1831151E+03  0.7546771E-02  0.1067966E+00
        -11   -1    0    0    0    0  0.00000000000E+00  0.00000000000E+00  0.18250000000E+03  0.18250000000E+03  0.00000000000E+00 0.  1.
         11   -1    0    0    0    0 -0.00000000000E+00 -0.00000000000E+00 -0.18250000000E+03  0.18250000000E+03  0.00000000000E+00 0.  1.
        -11    1    1    2    0    0 -0.28604917987E+01  0.20536114538E+01  0.18185080441E+03  0.18188489436E+03  0.00000000000E+00 0.  1.
         11    1    1    2    0    0  0.37882893124E+00 -0.19822254604E+01 -0.14935978951E+03  0.14937342284E+03  0.00000000000E+00 0.  1.
        -15    1    1    2    0    0  0.29439681230E+01 -0.34864462499E+01 -0.13546137173E+02  0.14404090290E+02  0.17770000000E+01 0.  1.
         15    1    1    2    0    0 -0.46230525554E+00  0.34150602566E+01 -0.18944877725E+02  0.19337592501E+02  0.17770000000E+01 0. -1.
</event>
<event>
 6    1  0.1045352E-002  0.1849862E+03  0.7546771E-02  0.1066493E+00
        -11   -1    0    0    0    0  0.00000000000E+00  0.00000000000E+00  0.18250000000E+03  0.18250000000E+03  0.00000000000E+00 0.  1.
         11   -1    0    0    0    0 -0.00000000000E+00 -0.00000000000E+00 -0.18250000000E+03  0.18250000000E+03  0.00000000000E+00 0.  1.
        -11    1    1    2    0    0  0.45673097079E+01  0.18752030143E+01  0.17994609964E+03  0.18001382025E+03  0.00000000000E+00 0.  1.
         11    1    1    2    0    0 -0.17789793766E+01 -0.17024912918E+01 -0.16285397401E+03  0.16287258854E+03  0.00000000000E+00 0.  1.
        -15    1    1    2    0    0 -0.22331588997E+01 -0.26574805743E+01  0.77739783573E+00  0.39763397829E+01  0.17770000000E+01 0. -1.
         15    1    1    2    0    0 -0.55517143156E+00  0.24847688519E+01 -0.17869523465E+02  0.18137251430E+02  0.17770000000E+01 0. -1.
</event>
<event>
 6    1  0.1045352E-002  0.1826668E+03  0.7546771E-02  0.1068322E+00
        -11   -1    0    0    0    0  0.00000000000E+00  0.00000000000E+00  0.18250000000E+03  0.18250000000E+03  0.00000000000E+00 0. -1.
         11   -1    0    0    0    0 -0.00000000000E+00 -0.00000000000E+00 -0.18250000000E+03  0.18250000000E+03  0.00000000000E+00 0.  1.
        -11    1    1    2    0    0  0.41469881075E+01 -0.45375512837E+01  0.18222954419E+03  0.18233319407E+03  0.00000000000E+00 0. -1.
         11    1    1    2    0    0 -0.31140640428E+00 -0.12254140994E+01 -0.15363304566E+02  0.15415243782E+02  0.00000000000E+00 0.  1.
        -15    1    1    2    0    0 -0.45153290669E+00 -0.40987777195E+00 -0.79274191254E+01  0.81469985114E+01  0.17770000000E+01 0.  1.
         15    1    1    2    0    0 -0.33840487965E+01  0.61728431551E+01 -0.15893882050E+03  0.15910456364E+03  0.17770000000E+01 0.  1.
</event>
<event>
 6    1  0.1045352E-002  0.1876432E+03  0.7546771E-02  0.1064433E+00
        -11   -1    0    0    0    0  0.00000000000E+00  0.00000000000E+00  0.18250000000E+03  0.18250000000E+03  0.00000000000E+00 0. -1.
         11   -1    0    0    0    0 -0.00000000000E+00 -0.00000000000E+00 -0.18250000000E+03  0.18250000000E+03  0.00000000000E+00 0. -1.
        -11    1    1    2    0    0  0.23683130476E+01 -0.43935452427E+01  0.16884614263E+03  0.16891989825E+03  0.00000000000E+00 0. -1.
         11    1    1    2    0    0  0.27044239874E+00 -0.24236876790E+01 -0.17734003933E+03  0.17735680689E+03  0.00000000000E+00 0. -1.
        -15    1    1    2    0    0 -0.42053407228E+00  0.26575955647E+01 -0.40667513811E+01  0.51899767714E+01  0.17770000000E+01 0.  1.
         15    1    1    2    0    0 -0.22182213741E+01  0.41596373570E+01  0.12560648087E+02  0.13533318084E+02  0.17770000000E+01 0.  1.
</event>
<event>
 6    1  0.1045352E-002  0.1836954E+03  0.7546771E-02  0.1067507E+00
        -11   -1    0    0    0    0  0.00000000000E+00  0.00000000000E+00  0.18250000000E+03  0.18250000000E+03  0.00000000000E+00 0. -1.
         11   -1    0    0    0    0 -0.00000000000E+00 -0.00000000000E+00 -0.18250000000E+03  0.18250000000E+03  0.00000000000E+00 0. -1.
        -11    1    1    2    0    0 -0.37036200663E+01 -0.79273036304E+01  0.18109330415E+03  0.18130456076E+03  0.00000000000E+00 0. -1.
         11    1    1    2    0    0  0.12396391750E+01 -0.17929984672E+01 -0.12170622162E+03  0.12172574062E+03  0.00000000000E+00 0. -1.
        -15    1    1    2    0    0 -0.32120217427E+01 -0.20229432749E+01 -0.20217127781E+02  0.20647018377E+02  0.17770000000E+01 0.  1.
         15    1    1    2    0    0  0.56760026340E+01  0.11743245373E+02 -0.39169954755E+02  0.41322680241E+02  0.17770000000E+01 0. -1.
</event>
<event>
 6    1  0.1045352E-002  0.1849258E+03  0.7546771E-02  0.1066540E+00
        -11   -1    0    0    0    0  0.00000000000E+00  0.00000000000E+00  0.18250000000E+03  0.18250000000E+03  0.00000000000E+00 0.  1.
         11   -1    0    0    0    0 -0.00000000000E+00 -0.00000000000E+00 -0.18250000000E+03  0.18250000000E+03  0.00000000000E+00 0. -1.
        -11    1    1    2    0    0  0.47493024170E+01  0.46206180645E+01  0.13154190445E+03  0.13170868844E+03  0.00000000000E+00 0.  1.
         11    1    1    2    0    0  0.42940785107E+01 -0.46376911639E+01 -0.17996321875E+03  0.18007417192E+03  0.00000000000E+00 0. -1.
        -15    1    1    2    0    0 -0.41713257883E+01  0.57869084828E+01  0.43303674922E+02  0.43923276966E+02  0.17770000000E+01 0.  1.
         15    1    1    2    0    0 -0.48720551394E+01 -0.57698353834E+01  0.51176393773E+01  0.92938626754E+01  0.17770000000E+01 0. -1.
</event>
<event>
 6    1  0.1045352E-002  0.1826574E+03  0.7546771E-02  0.1068330E+00
        -11   -1    0    0    0    0  0.00000000000E+00  0.00000000000E+00  0.18250000000E+03  0.18250000000E+03  0.00000000000E+00 0. -1.
         11   -1    0    0    0    0 -0.00000000000E+00 -0.00000000000E+00 -0.18250000000E+03  0.18250000000E+03  0.00000000000E+00 0. -1.
        -11    1    1    2    0    0 -0.12777781534E+01 -0.17035057439E+01  0.60005592986E+02  0.60043366315E+02  0.00000000000E+00 0. -1.
         11    1    1    2    0    0  0.86874645219E+00 -0.23691523485E+01 -0.18232515410E+03  0.18234261548E+03  0.00000000000E+00 0. -1.
        -15    1    1    2    0    0 -0.78373448200E+00 -0.27963578555E+00  0.10050786218E+02  0.10240530675E+02  0.17770000000E+01 0. -1.
         15    1    1    2    0    0  0.11927661832E+01  0.43522938780E+01  0.11226877490E+03  0.11237348753E+03  0.17770000000E+01 0. -1.
</event>
<event>
 6    1  0.1045352E-002  0.1749307E+03  0.7546771E-02  0.1074645E+00
        -11   -1    0    0    0    0  0.00000000000E+00  0.00000000000E+00  0.18250000000E+03  0.18250000000E+03  0.00000000000E+00 0.  1.
         11   -1    0    0    0    0 -0.00000000000E+00 -0.00000000000E+00 -0.18250000000E+03  0.18250000000E+03  0.00000000000E+00 0. -1.
        -11    1    1    2    0    0 -0.12072298007E+01  0.51827690023E+01  0.18017387051E+03  0.18025243997E+03  0.00000000000E+00 0.  1.
         11    1    1    2    0    0 -0.53114370983E+00  0.15396329643E+01 -0.69250654557E+01  0.71140083547E+01  0.00000000000E+00 0. -1.
        -15    1    1    2    0    0  0.58397492450E+01 -0.13734428040E+01 -0.16969303924E+03  0.16980834583E+03  0.17770000000E+01 0. -1.
         15    1    1    2    0    0 -0.41013757345E+01 -0.53489591626E+01 -0.35557658163E+01  0.78252058490E+01  0.17770000000E+01 0.  1.
</event>
<event>
 6    1  0.1045352E-002  0.1826972E+03  0.7546771E-02  0.1068298E+00
        -11   -1    0    0    0    0  0.00000000000E+00  0.00000000000E+00  0.18250000000E+03  0.18250000000E+03  0.00000000000E+00 0. -1.
         11   -1    0    0    0    0 -0.00000000000E+00 -0.00000000000E+00 -0.18250000000E+03  0.18250000000E+03  0.00000000000E+00 0. -1.
        -11    1    1    2    0    0 -0.30479565232E+01  0.29328699098E+01  0.18225376706E+03  0.18230284521E+03  0.00000000000E+00 0. -1.
         11    1    1    2    0    0  0.30183157433E+01 -0.15379094198E+00 -0.13282201722E+03  0.13285639668E+03  0.00000000000E+00 0. -1.
        -15    1    1    2    0    0 -0.14284890519E+01  0.15441766572E+00 -0.27484009590E+02  0.27578849467E+02  0.17770000000E+01 0.  1.
         15    1    1    2    0    0  0.14581298319E+01 -0.29334966336E+01 -0.21947740254E+02  0.22261908641E+02  0.17770000000E+01 0. -1.
</event>
<event>
 6    1  0.1045352E-002  0.1877685E+03  0.7546771E-02  0.1064337E+00
        -11   -1    0    0    0    0  0.00000000000E+00  0.00000000000E+00  0.18250000000E+03  0.18250000000E+03  0.00000000000E+00 0.  1.
         11   -1    0    0    0    0 -0.00000000000E+00 -0.00000000000E+00 -0.18250000000E+03  0.18250000000E+03  0.00000000000E+00 0. -1.
        -11    1    1    2    0    0  0.12417275783E+02  0.97718634670E+00  0.17679325439E+03  0.17723148261E+03  0.00000000000E+00 0.  1.
         11    1    1    2    0    0 -0.26286547294E+01 -0.32776178924E+01 -0.15342973037E+03  0.15348724626E+03  0.00000000000E+00 0. -1.
        -15    1    1    2    0    0  0.14511246224E+01 -0.20987628011E+00 -0.22476879760E+02  0.22594637936E+02  0.17770000000E+01 0. -1.
         15    1    1    2    0    0 -0.11239745676E+02  0.25103078258E+01 -0.88664425997E+00  0.11686633188E+02  0.17770000000E+01 0.  1.
</event>
<event>
 6    1  0.1045352E-002  0.1827245E+03  0.7546771E-02  0.1068276E+00
        -11   -1    0    0    0    0  0.00000000000E+00  0.00000000000E+00  0.18250000000E+03  0.18250000000E+03  0.00000000000E+00 0. -1.
         11   -1    0    0    0    0 -0.00000000000E+00 -0.00000000000E+00 -0.18250000000E+03  0.18250000000E+03  0.00000000000E+00 0.  1.
        -11    1    1    2    0    0  0.65903128236E+00  0.16351577983E+01  0.12383851335E+03  0.12385106157E+03  0.00000000000E+00 0. -1.
         11    1    1    2    0    0  0.24283608926E+01  0.92566784101E+00 -0.18225697501E+03  0.18227550229E+03  0.00000000000E+00 0.  1.
        -15    1    1    2    0    0 -0.12914556507E+01 -0.25157610408E+01  0.14389049965E+02  0.14771574026E+02  0.17770000000E+01 0. -1.
         15    1    1    2    0    0 -0.17959365243E+01 -0.45064598520E-01  0.44029411687E+02  0.44101862107E+02  0.17770000000E+01 0.  1.
</event>
<event>
 6    1  0.1045352E-002  0.1887575E+03  0.7546771E-02  0.1063580E+00
        -11   -1    0    0    0    0  0.00000000000E+00  0.00000000000E+00  0.18250000000E+03  0.18250000000E+03  0.00000000000E+00 0.  1.
         11   -1    0    0    0    0 -0.00000000000E+00 -0.00000000000E+00 -0.18250000000E+03  0.18250000000E+03  0.00000000000E+00 0. -1.
        -11    1    1    2    0    0 -0.11174996903E+01  0.42511490280E+01  0.12792779261E+03  0.12800328587E+03  0.00000000000E+00 0.  1.
         11    1    1    2    0    0 -0.10265893528E+01 -0.55653060852E+01 -0.17615165430E+03  0.17624253695E+03  0.00000000000E+00 0. -1.
        -15    1    1    2    0    0  0.17899981187E+00  0.63938932666E+01 -0.43059748762E+01  0.79128415043E+01  0.17770000000E+01 0. -1.
         15    1    1    2    0    0  0.19650892313E+01 -0.50797362095E+01  0.52529836574E+02  0.52841335668E+02  0.17770000000E+01 0. -1.
</event>
<event>
 6    1  0.1045352E-002  0.1831355E+03  0.7546771E-02  0.1067950E+00
        -11   -1    0    0    0    0  0.00000000000E+00  0.00000000000E+00  0.18250000000E+03  0.18250000000E+03  0.00000000000E+00 0.  1.
         11   -1    0    0    0    0 -0.00000000000E+00 -0.00000000000E+00 -0.18250000000E+03  0.18250000000E+03  0.00000000000E+00 0. -1.
        -11    1    1    2    0    0 -0.55957155008E+01 -0.53734465883E+01  0.18169891375E+03  0.18186445837E+03  0.00000000000E+00 0.  1.
         11    1    1    2    0    0  0.85456549064E+00  0.15721231448E+01 -0.26432341653E+02  0.26492839384E+02  0.00000000000E+00 0. -1.
        -15    1    1    2    0    0  0.75195855970E+01  0.30736387675E+00 -0.22546874484E+02  0.23836063394E+02  0.17770000000E+01 0.  1.
         15    1    1    2    0    0 -0.27784355868E+01  0.34939595667E+01 -0.13271969762E+03  0.13280663885E+03  0.17770000000E+01 0. -1.
</event>
<event>
 6    1  0.1045352E-002  0.1877058E+03  0.7546771E-02  0.1064385E+00
        -11   -1    0    0    0    0  0.00000000000E+00  0.00000000000E+00  0.18250000000E+03  0.18250000000E+03  0.00000000000E+00 0. -1.
         11   -1    0    0    0    0 -0.00000000000E+00 -0.00000000000E+00 -0.18250000000E+03  0.18250000000E+03  0.00000000000E+00 0.  1.
        -11    1    1    2    0    0  0.93312266316E+01  0.44700128721E+01  0.16582497008E+03  0.16614744508E+03  0.00000000000E+00 0. -1.
         11    1    1    2    0    0 -0.41463599755E+01  0.44147643373E+01 -0.17719067300E+03  0.17729415400E+03  0.00000000000E+00 0.  1.
        -15    1    1    2    0    0 -0.67096970900E+00 -0.97632517714E+01  0.12996441936E+02  0.16365711640E+02  0.17770000000E+01 0. -1.
         15    1    1    2    0    0 -0.45138969471E+01  0.87847456193E+00 -0.16307390202E+01  0.51926892798E+01  0.17770000000E+01 0.  1.
</event>
<event>
 6    1  0.1045352E-002  0.1847152E+03  0.7546771E-02  0.1066705E+00
        -11   -1    0    0    0    0  0.00000000000E+00  0.00000000000E+00  0.18250000000E+03  0.18250000000E+03  0.00000000000E+00 0. -1.
         11   -1    0    0    0    0 -0.00000000000E+00 -0.00000000000E+00 -0.18250000000E+03  0.18250000000E+03  0.00000000000E+00 0.  1.
        -11    1    1    2    0    0  0.43023885358E+01 -0.26999204691E+00  0.18023328144E+03  0.18028482793E+03  0.00000000000E+00 0. -1.
         11    1    1    2    0    0 -0.19582751053E+01  0.87462181551E+00 -0.15394604249E+03  0.15396098143E+03  0.00000000000E+00 0.  1.
        -15    1    1    2    0    0  0.30816276869E+01 -0.28708811942E+01 -0.23618573390E+02  0.24056872740E+02  0.17770000000E+01 0. -1.
         15    1    1    2    0    0 -0.54257411174E+01  0.22662514256E+01 -0.26686655600E+01  0.66973179011E+01  0.17770000000E+01 0.  1.
</event>
<event>
 6    1  0.1045352E-002  0.1866394E+03  0.7546771E-02  0.1065207E+00
        -11   -1    0    0    0    0  0.00000000000E+00  0.00000000000E+00  0.18250000000E+03  0.18250000000E+03  0.00000000000E+00 0.  1.
         11   -1    0    0    0    0 -0.00000000000E+00 -0.00000000000E+00 -0.18250000000E+03  0.18250000000E+03  0.00000000000E+00 0. -1.
        -11    1    1    2    0    0  0.24936227158E+01  0.51523778042E+01  0.11477949118E+03  0.11492213341E+03  0.00000000000E+00 0.  1.
         11    1    1    2    0    0 -0.42419347463E+01 -0.21343054556E+01 -0.17829734718E+03  0.17836057099E+03  0.00000000000E+00 0. -1.
        -15    1    1    2    0    0 -0.43100190614E+01 -0.55568143237E+01  0.64442910235E+02  0.64849833140E+02  0.17770000000E+01 0.  1.
         15    1    1    2    0    0  0.60583310919E+01  0.25387419751E+01 -0.92505423079E+00  0.68674624692E+01  0.17770000000E+01 0.  1.
</event>
<event>
 6    1  0.1045352E-002  0.1867147E+03  0.7546771E-02  0.1065149E+00
        -11   -1    0    0    0    0  0.00000000000E+00  0.00000000000E+00  0.18250000000E+03  0.18250000000E+03  0.00000000000E+00 0.  1.
         11   -1    0    0    0    0 -0.00000000000E+00 -0.00000000000E+00 -0.18250000000E+03  0.18250000000E+03  0.00000000000E+00 0.  1.
        -11    1    1    2    0    0 -0.41779984340E+01  0.61893936280E+01  0.17812880479E+03  0.17828526400E+03  0.00000000000E+00 0.  1.
         11    1    1    2    0    0  0.59381135397E+00 -0.76541833928E+01 -0.17320460008E+03  0.17337465970E+03  0.00000000000E+00 0.  1.
        -15    1    1    2    0    0  0.65523116817E+00  0.59708759102E+01 -0.44008072365E+01  0.76554242437E+01  0.17770000000E+01 0. -1.
         15    1    1    2    0    0  0.29289559119E+01 -0.45060861453E+01 -0.52339747561E+00  0.56846520562E+01  0.17770000000E+01 0.  1.
</event>
<event>
 6    1  0.1045352E-002  0.1834700E+03  0.7546771E-02  0.1067685E+00
        -11   -1    0    0    0    0  0.00000000000E+00  0.00000000000E+00  0.18250000000E+03  0.18250000000E+03  0.00000000000E+00 0. -1.
         11   -1    0    0    0    0 -0.00000000000E+00 -0.00000000000E+00 -0.18250000000E+03  0.18250000000E+03  0.00000000000E+00 0. -1.
        -11    1    1    2    0    0  0.36455192028E+00 -0.40083113414E+01  0.14484289928E+03  0.14489880927E+03  0.00000000000E+00 0. -1.
         11    1    1    2    0    0  0.37044087454E+01 -0.22531725659E+01 -0.18147817595E+03  0.18152996385E+03  0.00000000000E+00 0. -1.
        -15    1    1    2    0    0  0.26307586145E+01  0.12090550284E+01  0.12658445011E+02  0.13106359679E+02  0.17770000000E+01 0.  1.
         15    1    1    2    0    0 -0.66997192802E+01  0.50524288789E+01  0.23976831658E+02  0.25464867197E+02  0.17770000000E+01 0. -1.
</event>
<event>
 6    1  0.1045352E-002  0.1829564E+03  0.7546771E-02  0.1068092E+00
        -11   -1    0    0    0    0  0.00000000000E+00  0.00000000000E+00  0.18250000000E+03  0.18250000000E+03  0.00000000000E+00 0.  1.
         11   -1    0    0    0    0 -0.00000000000E+00 -0.00000000000E+00 -0.18250000000E+03  0.18250000000E+03  0.00000000000E+00 0.  1.
        -11    1    1    2    0    0 -0.98251070649E+01  0.52932948661E+01  0.18170120766E+03  0.18204362270E+03  0.00000000000E+00 0.  1.
         11    1    1    2    0    0 -0.10714155822E+01  0.32629424010E+00 -0.52474116769E+02  0.52486067961E+02  0.00000000000E+00 0.  1.
        -15    1    1    2    0    0 -0.47349939239E+00  0.17660761016E+01 -0.50513145697E+02  0.50577453906E+02  0.17770000000E+01 0.  1.
         15    1    1    2    0    0  0.11370022039E+02 -0.73856652079E+01 -0.78713945197E+02  0.79892855433E+02  0.17770000000E+01 0.  1.
</event>
<event>
 6    1  0.1045352E-002  0.1828830E+03  0.7546771E-02  0.1068150E+00
        -11   -1    0    0    0    0  0.00000000000E+00  0.00000000000E+00  0.18250000000E+03  0.18250000000E+03  0.00000000000E+00 0.  1.
         11   -1    0    0    0    0 -0.00000000000E+00 -0.00000000000E+00 -0.18250000000E+03  0.18250000000E+03  0.00000000000E+00 0. -1.
        -11    1    1    2    0    0 -0.18829938915E+01 -0.25779514810E+01  0.13393713948E+03  0.13397517991E+03  0.00000000000E+00 0.  1.
         11    1    1    2    0    0 -0.10371223020E+01  0.28134702617E+01 -0.18209229992E+03  0.18211698693E+03  0.00000000000E+00 0. -1.
        -15    1    1    2    0    0 -0.23831138200E+00  0.27864522000E+01  0.28605828863E+02  0.28797088084E+02  0.17770000000E+01 0.  1.
         15    1    1    2    0    0  0.31584275755E+01 -0.30219709808E+01  0.19549331581E+02  0.20110745079E+02  0.17770000000E+01 0.  1.
</event>
<event>
 6    1  0.1045352E-002  0.1848180E+03  0.7546771E-02  0.1066625E+00
        -11   -1    0    0    0    0  0.00000000000E+00  0.00000000000E+00  0.18250000000E+03  0.18250000000E+03  0.00000000000E+00 0. -1.
         11   -1    0    0    0    0 -0.00000000000E+00 -0.00000000000E+00 -0.18250000000E+03  0.18250000000E+03  0.00000000000E+00 0. -1.
        -11    1    1    2    0    0  0.26706612197E+01  0.12702129579E+01  0.18015772378E+03  0.18018199496E+03  0.00000000000E+00 0. -1.
         11    1    1    2    0    0 -0.23771120461E+01  0.46619862470E+01 -0.17425474841E+03  0.17433330755E+03  0.00000000000E+00 0. -1.
        -15    1    1    2    0    0  0.16937852813E+00 -0.44619613221E+01 -0.80846216462E+00  0.48733077060E+01  0.17770000000E+01 0. -1.
         15    1    1    2    0    0 -0.46292770169E+00 -0.14702378827E+01 -0.50945132012E+01  0.56113897785E+01  0.17770000000E+01 0.  1.
</event>
<event>
 6    1  0.1045352E-002  0.1857339E+03  0.7546771E-02  0.1065909E+00
        -11   -1    0    0    0    0  0.00000000000E+00  0.00000000000E+00  0.18250000000E+03  0.18250000000E+03  0.00000000000E+00 0.  1.
         11   -1    0    0    0    0 -0.00000000000E+00 -0.00000000000E+00 -0.18250000000E+03  0.18250000000E+03  0.00000000000E+00 0. -1.
        -11    1    1    2    0    0  0.55150547549E+01 -0.18815249159E+00  0.17918112926E+03  0.17926608244E+03  0.00000000000E+00 0.  1.
         11    1    1    2    0    0  0.12545383508E+00 -0.27104521320E+01 -0.16726911519E+03  0.16729112106E+03  0.00000000000E+00 0. -1.
        -15    1    1    2    0    0 -0.75175763343E+01 -0.14780170250E+01 -0.34869455268E+01  0.86031974506E+01  0.17770000000E+01 0. -1.
         15    1    1    2    0    0  0.18770677443E+01  0.43766216486E+01 -0.84250685456E+01  0.98395990451E+01  0.17770000000E+01 0. -1.
</event>
<event>
 6    1  0.1045352E-002  0.1856958E+03  0.7546771E-02  0.1065939E+00
        -11   -1    0    0    0    0  0.00000000000E+00  0.00000000000E+00  0.18250000000E+03  0.18250000000E+03  0.00000000000E+00 0. -1.
         11   -1    0    0    0    0 -0.00000000000E+00 -0.00000000000E+00 -0.18250000000E+03  0.18250000000E+03  0.00000000000E+00 0.  1.
        -11    1    1    2    0    0 -0.24214769766E+01  0.12731761392E+01  0.17928337157E+03  0.17930424381E+03  0.00000000000E+00 0. -1.
         11    1    1    2    0    0  0.22902564165E+01 -0.13298321861E+01 -0.15918052533E+03  0.15920255455E+03  0.00000000000E+00 0.  1.
        -15    1    1    2    0    0 -0.26565082740E+01 -0.16388983985E+01 -0.22020925181E+02  0.22311922799E+02  0.17770000000E+01 0. -1.
         15    1    1    2    0    0  0.27877288340E+01  0.16955544454E+01  0.19180789498E+01  0.41812788459E+01  0.17770000000E+01 0.  1.
</event>
<event>
 6    1  0.1045352E-002  0.1833621E+03  0.7546771E-02  0.1067771E+00
        -11   -1    0    0    0    0  0.00000000000E+00  0.00000000000E+00  0.18250000000E+03  0.18250000000E+03  0.00000000000E+00 0.  1.
         11   -1    0    0    0    0 -0.00000000000E+00 -0.00000000000E+00 -0.18250000000E+03  0.18250000000E+03  0.00000000000E+00 0.  1.
        -11    1    1    2    0    0 -0.30924238394E+01 -0.10741556111E+01  0.16807203656E+03  0.16810391539E+03  0.00000000000E+00 0.  1.
         11    1    1    2    0    0  0.61883118967E+01  0.65577001511E+00 -0.18153130169E+03  0.18163793308E+03  0.00000000000E+00 0.  1.
        -15    1    1    2    0    0 -0.14532710246E+01  0.30980468427E+00  0.12399714664E+02  0.12614223256E+02  0.17770000000E+01 0. -1.
         15    1    1    2    0    0 -0.16426170327E+01  0.10858091167E+00  0.10595504697E+01  0.26439282760E+01  0.17770000000E+01 0.  1.
</event>
<event>
 6    1  0.1045352E-002  0.1866952E+03  0.7546771E-02  0.1065164E+00
        -11   -1    0    0    0    0  0.00000000000E+00  0.00000000000E+00  0.18250000000E+03  0.18250000000E+03  0.00000000000E+00 0. -1.
         11   -1    0    0    0    0 -0.00000000000E+00 -0.00000000000E+00 -0.18250000000E+03  0.18250000000E+03  0.00000000000E+00 0.  1.
        -11    1    1    2    0    0 -0.14885260729E+01  0.35770532075E+01  0.17826269533E+03  0.17830479401E+03  0.00000000000E+00 0. -1.
         11    1    1    2    0    0  0.81161316784E+01 -0.37936024647E+01 -0.16752293103E+03  0.16776231827E+03  0.00000000000E+00 0.  1.
        -15    1    1    2    0    0 -0.69066638575E+01  0.34646434881E+01 -0.12516767333E+02  0.14816644479E+02  0.17770000000E+01 0.  1.
         15    1    1    2    0    0  0.27905825196E+00 -0.32480942309E+01  0.17770030274E+01  0.41162432387E+01  0.17770000000E+01 0. -1.
</event>
<event>
 6    1  0.1045352E-002  0.1849774E+03  0.7546771E-02  0.1066500E+00
        -11   -1    0    0    0    0  0.00000000000E+00  0.00000000000E+00  0.18250000000E+03  0.18250000000E+03  0.00000000000E+00 0.  1.
         11   -1    0    0    0    0 -0.00000000000E+00 -0.00000000000E+00 -0.18250000000E+03  0.18250000000E+03  0.00000000000E+00 0. -1.
        -11    1    1    2    0    0 -0.32191939017E+00  0.29510457006E+01  0.17999808757E+03  0.18002256478E+03  0.00000000000E+00 0.  1.
         11    1    1    2    0    0  0.75879568626E-01 -0.33643729005E+01 -0.17961649257E+03  0.17964801465E+03  0.00000000000E+00 0. -1.
        -15    1    1    2    0    0  0.18357725586E+00  0.14454449305E+01  0.13292542965E+01  0.26547424811E+01  0.17770000000E+01 0.  1.
         15    1    1    2    0    0  0.62462565684E-01 -0.10321177306E+01 -0.17108492922E+01  0.26746780895E+01  0.17770000000E+01 0.  1.
</event>
<event>
 6    1  0.1045352E-002  0.1830036E+03  0.7546771E-02  0.1068055E+00
        -11   -1    0    0    0    0  0.00000000000E+00  0.00000000000E+00  0.18250000000E+03  0.18250000000E+03  0.00000000000E+00 0. -1.
         11   -1    0    0    0    0 -0.00000000000E+00 -0.00000000000E+00 -0.18250000000E+03  0.18250000000E+03  0.00000000000E+00 0.  1.
        -11    1    1    2    0    0  0.75672761101E+01  0.24071524718E+01  0.83268567789E+02  0.83646353371E+02  0.00000000000E+00 0. -1.
         11    1    1    2    0    0 -0.39336877898E+01 -0.39900186013E+01 -0.18191013683E+03  0.18199640664E+03  0.00000000000E+00 0.  1.
        -15    1    1    2    0    0 -0.21772082600E+01 -0.29943541166E+01  0.77328407255E+02  0.77437372695E+02  0.17770000000E+01 0. -1.
         15    1    1    2    0    0 -0.14563800603E+01  0.45772202461E+01  0.21313161784E+02  0.21919867297E+02  0.17770000000E+01 0. -1.
</event>
<event>
 6    1  0.1045352E-002  0.1846838E+03  0.7546771E-02  0.1066730E+00
        -11   -1    0    0    0    0  0.00000000000E+00  0.00000000000E+00  0.18250000000E+03  0.18250000000E+03  0.00000000000E+00 0. -1.
         11   -1    0    0    0    0 -0.00000000000E+00 -0.00000000000E+00 -0.18250000000E+03  0.18250000000E+03  0.00000000000E+00 0. -1.
        -11    1    1    2    0    0 -0.88822200186E+00 -0.45938691311E+01  0.14392724170E+03  0.14400327592E+03  0.00000000000E+00 0. -1.
         11    1    1    2    0    0  0.28835114962E+01 -0.37907994793E+01 -0.18025326756E+03  0.18031618138E+03  0.00000000000E+00 0. -1.
        -15    1    1    2    0    0 -0.56083636925E+01  0.24227382088E+01  0.31211993382E+02  0.31853879883E+02  0.17770000000E+01 0.  1.
         15    1    1    2    0    0  0.36130741983E+01  0.59619304016E+01  0.51140324814E+01  0.88266628177E+01  0.17770000000E+01 0. -1.
</event>
<event>
 6    1  0.1045352E-002  0.1869482E+03  0.7546771E-02  0.1064968E+00
        -11   -1    0    0    0    0  0.00000000000E+00  0.00000000000E+00  0.18250000000E+03  0.18250000000E+03  0.00000000000E+00 0.  1.
         11   -1    0    0    0    0 -0.00000000000E+00 -0.00000000000E+00 -0.18250000000E+03  0.18250000000E+03  0.00000000000E+00 0. -1.
        -11    1    1    2    0    0  0.35364768303E+00 -0.91533261047E+01  0.17048515237E+03  0.17073106227E+03  0.00000000000E+00 0.  1.
         11    1    1    2    0    0  0.58189638955E+01  0.21023246599E+01 -0.17794428435E+03  0.17805181392E+03  0.00000000000E+00 0. -1.
        -15    1    1    2    0    0 -0.44245032523E+01  0.89420450586E+01  0.81599874064E+01  0.13010746417E+02  0.17770000000E+01 0. -1.
         15    1    1    2    0    0 -0.17481083262E+01 -0.18910436138E+01 -0.70085542619E+00  0.32063773948E+01  0.17770000000E+01 0.  1.
</event>
<event>
 6    1  0.1045352E-002  0.1829606E+03  0.7546771E-02  0.1068089E+00
        -11   -1    0    0    0    0  0.00000000000E+00  0.00000000000E+00  0.18250000000E+03  0.18250000000E+03  0.00000000000E+00 0.  1.
         11   -1    0    0    0    0 -0.00000000000E+00 -0.00000000000E+00 -0.18250000000E+03  0.18250000000E+03  0.00000000000E+00 0.  1.
        -11    1    1    2    0    0  0.10790937789E+01  0.10545882540E+00  0.55190759426E+02  0.55201408415E+02  0.00000000000E+00 0.  1.
         11    1    1    2    0    0  0.30572717966E+01 -0.30148900916E+01 -0.18198871689E+03  0.18203936263E+03  0.00000000000E+00 0.  1.
        -15    1    1    2    0    0 -0.15256793808E+01  0.87556572595E+00  0.30047151124E+01  0.39090094424E+01  0.17770000000E+01 0. -1.
         15    1    1    2    0    0 -0.26106861947E+01  0.20338655403E+01  0.12379324235E+03  0.12385021951E+03  0.17770000000E+01 0.  1.
</event>
<event>
 6    1  0.1045352E-002  0.1876072E+03  0.7546771E-02  0.1064461E+00
        -11   -1    0    0    0    0  0.00000000000E+00  0.00000000000E+00  0.18250000000E+03  0.18250000000E+03  0.00000000000E+00 0. -1.
         11   -1    0    0    0    0 -0.00000000000E+00 -0.00000000000E+00 -0.18250000000E+03  0.18250000000E+03  0.00000000000E+00 0.  1.
        -11    1    1    2    0    0 -0.50188212391E+01 -0.32790046369E+01  0.17729144978E+03  0.17739278059E+03  0.00000000000E+00 0. -1.
         11    1    1    2    0    0  0.13485688258E+01  0.31161931088E+01 -0.16345167640E+03  0.16348694081E+03  0.00000000000E+00 0.  1.
        -15    1    1    2    0    0  0.37786766148E+01  0.81919567667E+01 -0.15378568390E+01  0.93225149656E+01  0.17770000000E+01 0.  1.
         15    1    1    2    0    0 -0.10842420142E+00 -0.80291452386E+01 -0.12301916546E+02  0.14797763641E+02  0.17770000000E+01 0.  1.
</event>
<event>
 6    1  0.1519230E-002  0.1839578E+03  0.7546771E-02  0.1067300E+00
        -11   -1    0    0    0    0  0.00000000000E+00  0.00000000000E+00  0.18250000000E+03  0.18250000000E+03  0.00000000000E+00 0.  1.
         11   -1    0    0    0    0 -0.00000000000E+00 -0.00000000000E+00 -0.18250000000E+03  0.18250000000E+03  0.00000000000E+00 0. -1.
        -11    1    1    2    0    0  0.12629329966E+01 -0.26823466013E+01  0.18101795603E+03  0.18104223371E+03  0.00000000000E+00 0.  1.
         11    1    1    2    0    0  0.61251356091E+01  0.99927257311E+00 -0.12410933432E+03  0.12426440639E+03  0.00000000000E+00 0. -1.
        -15    1    1    2    0    0 -0.63643425243E+01  0.30356288459E+00 -0.56837109026E+02  0.57220727867E+02  0.17770000000E+01 0.  1.
         15    1    1    2    0    0 -0.10237260815E+01  0.13795111436E+01 -0.71512682992E-01  0.24726320286E+01  0.17770000000E+01 0. -1.
</event>
<event>
 6    1  0.1045352E-002  0.1887318E+03  0.7546771E-02  0.1063600E+00
        -11   -1    0    0    0    0  0.00000000000E+00  0.00000000000E+00  0.18250000000E+03  0.18250000000E+03  0.00000000000E+00 0. -1.
         11   -1    0    0    0    0 -0.00000000000E+00 -0.00000000000E+00 -0.18250000000E+03  0.18250000000E+03  0.00000000000E+00 0.  1.
        -11    1    1    2    0    0  0.25191177642E+01  0.38828307922E+01  0.15152506812E+03  0.15159574069E+03  0.00000000000E+00 0. -1.
         11    1    1    2    0    0  0.14127054668E+01 -0.69617889472E+01 -0.17612503286E+03  0.17626823151E+03  0.00000000000E+00 0.  1.
        -15    1    1    2    0    0 -0.65008348530E+01  0.11068175732E+02  0.21924754400E+01  0.13142680297E+02  0.17770000000E+01 0. -1.
         15    1    1    2    0    0  0.25690116221E+01 -0.79892175772E+01  0.22407489302E+02  0.23993347495E+02  0.17770000000E+01 0.  1.
</event>
<event>
 6    1  0.1045352E-002  0.1721362E+03  0.7546771E-02  0.1077017E+00
        -11   -1    0    0    0    0  0.00000000000E+00  0.00000000000E+00  0.18250000000E+03  0.18250000000E+03  0.00000000000E+00 0.  1.
         11   -1    0    0    0    0 -0.00000000000E+00 -0.00000000000E+00 -0.18250000000E+03  0.18250000000E+03  0.00000000000E+00 0. -1.
        -11    1    1    2    0    0 -0.58839005803E+00 -0.27417252936E+01  0.17217120534E+03  0.17219403941E+03  0.00000000000E+00 0.  1.
         11    1    1    2    0    0 -0.26973916771E+01 -0.58028147084E+01 -0.17208111692E+03  0.17220005628E+03  0.00000000000E+00 0. -1.
        -15    1    1    2    0    0 -0.60104985166E+01 -0.38169871587E+00  0.33936767340E+01  0.71376856966E+01  0.17770000000E+01 0. -1.
         15    1    1    2    0    0  0.92962802518E+01  0.89262387178E+01 -0.34837651453E+01  0.13468218618E+02  0.17770000000E+01 0. -1.
</event>
<event>
 6    1  0.1045352E-002  0.1830917E+03  0.7546771E-02  0.1067985E+00
        -11   -1    0    0    0    0  0.00000000000E+00  0.00000000000E+00  0.18250000000E+03  0.18250000000E+03  0.00000000000E+00 0.  1.
         11   -1    0    0    0    0 -0.00000000000E+00 -0.00000000000E+00 -0.18250000000E+03  0.18250000000E+03  0.00000000000E+00 0.  1.
        -11    1    1    2    0    0 -0.29000047923E+01  0.25266821149E+01  0.18186762244E+03  0.18190829074E+03  0.00000000000E+00 0.  1.
         11    1    1    2    0    0  0.25601305340E+01 -0.39977875392E+01 -0.12096560392E+03  0.12105872090E+03  0.00000000000E+00 0.  1.
        -15    1    1    2    0    0 -0.11657098492E+01  0.57355115014E+01 -0.44745591825E+02  0.45161717067E+02  0.17770000000E+01 0. -1.
         15    1    1    2    0    0  0.15055841075E+01 -0.42644060771E+01 -0.16156426689E+02  0.16871271293E+02  0.17770000000E+01 0.  1.
</event>
<event>
 6    1  0.1045352E-002  0.1901501E+03  0.7546771E-02  0.1062523E+00
        -11   -1    0    0    0    0  0.00000000000E+00  0.00000000000E+00  0.18250000000E+03  0.18250000000E+03  0.00000000000E+00 0. -1.
         11   -1    0    0    0    0 -0.00000000000E+00 -0.00000000000E+00 -0.18250000000E+03  0.18250000000E+03  0.00000000000E+00 0. -1.
        -11    1    1    2    0    0  0.54652399821E+01 -0.53472108663E+01  0.16815781786E+03  0.16833155741E+03  0.00000000000E+00 0. -1.
         11    1    1    2    0    0 -0.57718556994E+01  0.58945487254E+00 -0.17475360972E+03  0.17484989530E+03  0.00000000000E+00 0. -1.
        -15    1    1    2    0    0  0.18180470136E+01 -0.74023724050E+01  0.51114929678E+01  0.93480212626E+01  0.17770000000E+01 0. -1.
         15    1    1    2    0    0 -0.15114312964E+01  0.12160128399E+02  0.14842988890E+01  0.12470526029E+02  0.17770000000E+01 0.  1.
</event>
<event>
 6    1  0.1045352E-002  0.1848336E+03  0.7546771E-02  0.1066612E+00
        -11   -1    0    0    0    0  0.00000000000E+00  0.00000000000E+00  0.18250000000E+03  0.18250000000E+03  0.00000000000E+00 0.  1.
         11   -1    0    0    0    0 -0.00000000000E+00 -0.00000000000E+00 -0.18250000000E+03  0.18250000000E+03  0.00000000000E+00 0. -1.
        -11    1    1    2    0    0 -0.36350779271E+01  0.46377885149E+01  0.15432267058E+03  0.15443513048E+03  0.00000000000E+00 0.  1.
         11    1    1    2    0    0  0.52156751142E+01  0.13056754464E+01 -0.18008615542E+03  0.18016639928E+03  0.00000000000E+00 0. -1.
        -15    1    1    2    0    0 -0.27671094343E+01  0.38785742688E+01  0.41559888315E+01  0.65673590695E+01  0.17770000000E+01 0. -1.
         15    1    1    2    0    0  0.11865122472E+01 -0.98220382301E+01  0.21607496014E+02  0.23831111164E+02  0.17770000000E+01 0.  1.
</event>
<event>
 6    1  0.1045352E-002  0.1867569E+03  0.7546771E-02  0.1065116E+00
        -11   -1    0    0    0    0  0.00000000000E+00  0.00000000000E+00  0.18250000000E+03  0.18250000000E+03  0.00000000000E+00 0. -1.
         11   -1    0    0    0    0 -0.00000000000E+00 -0.00000000000E+00 -0.18250000000E+03  0.18250000000E+03  0.00000000000E+00 0.  1.
        -11    1    1    2    0    0  0.32517883533E+01 -0.63765718294E+01  0.17293200805E+03  0.17308008032E+03  0.00000000000E+00 0. -1.
         11    1    1    2    0    0 -0.97483985467E+01  0.51195694810E+01 -0.17790269246E+03  0.17824311838E+03  0.00000000000E+00 0.  1.
        -15    1    1    2    0    0  0.45538670639E+01 -0.34128084433E+01 -0.54313882377E+00  0.59864593449E+01  0.17770000000E+01 0.  1.
         15    1    1    2    0    0  0.19427431295E+01  0.46698107917E+01  0.55138232365E+01  0.76903419547E+01  0.17770000000E+01 0.  1.
</event>
<event>
 6    1  0.1045352E-002  0.1838596E+03  0.7546771E-02  0.1067378E+00
        -11   -1    0    0    0    0  0.00000000000E+00  0.00000000000E+00  0.18250000000E+03  0.18250000000E+03  0.00000000000E+00 0. -1.
         11   -1    0    0    0    0 -0.00000000000E+00 -0.00000000000E+00 -0.18250000000E+03  0.18250000000E+03  0.00000000000E+00 0.  1.
        -11    1    1    2    0    0  0.10570980224E+01 -0.24695548488E+01  0.18112053008E+03  0.18114044986E+03  0.00000000000E+00 0. -1.
         11    1    1    2    0    0 -0.24907242508E+01  0.45040569649E+01 -0.16951561250E+03  0.16959372959E+03  0.00000000000E+00 0.  1.
        -15    1    1    2    0    0  0.29519997121E+01 -0.39546391213E+01 -0.67968052540E+01  0.85853225647E+01  0.17770000000E+01 0.  1.
         15    1    1    2    0    0 -0.15183734836E+01  0.19201370053E+01 -0.48081123324E+01  0.56804979848E+01  0.17770000000E+01 0. -1.
</event>
<event>
 6    1  0.1045352E-002  0.1851657E+03  0.7546771E-02  0.1066353E+00
        -11   -1    0    0    0    0  0.00000000000E+00  0.00000000000E+00  0.18250000000E+03  0.18250000000E+03  0.00000000000E+00 0.  1.
         11   -1    0    0    0    0 -0.00000000000E+00 -0.00000000000E+00 -0.18250000000E+03  0.18250000000E+03  0.00000000000E+00 0.  1.
        -11    1    1    2    0    0  0.22897186195E+01  0.33492621497E+01  0.17585323099E+03  0.17590002620E+03  0.00000000000E+00 0.  1.
         11    1    1    2    0    0 -0.22114421177E+01  0.21990257336E+01 -0.17980726415E+03  0.17983430827E+03  0.00000000000E+00 0.  1.
        -15    1    1    2    0    0 -0.10802529189E+01 -0.28116392614E+01  0.46135383472E+01  0.57891905122E+01  0.17770000000E+01 0.  1.
         15    1    1    2    0    0  0.10019764171E+01 -0.27366486219E+01 -0.65950519124E+00  0.34764750132E+01  0.17770000000E+01 0. -1.
</event>
<event>
 6    1  0.1045352E-002  0.1831307E+03  0.7546771E-02  0.1067954E+00
        -11   -1    0    0    0    0  0.00000000000E+00  0.00000000000E+00  0.18250000000E+03  0.18250000000E+03  0.00000000000E+00 0.  1.
         11   -1    0    0    0    0 -0.00000000000E+00 -0.00000000000E+00 -0.18250000000E+03  0.18250000000E+03  0.00000000000E+00 0. -1.
        -11    1    1    2    0    0  0.28806686700E+01 -0.31694621280E+01  0.15153950622E+03  0.15160001876E+03  0.00000000000E+00 0.  1.
         11    1    1    2    0    0  0.11754830237E+01  0.22477962471E+01 -0.18185159228E+03  0.18186928262E+03  0.00000000000E+00 0. -1.
        -15    1    1    2    0    0 -0.36556592859E+01  0.35583132112E+01  0.16968207884E+02  0.17807393001E+02  0.17770000000E+01 0.  1.
         15    1    1    2    0    0 -0.40049240775E+00 -0.26366473303E+01  0.13343878173E+02  0.13723305615E+02  0.17770000000E+01 0. -1.
</event>
<event>
 6    1  0.2665464E-002  0.2012895E+03  0.7546771E-02  0.1054410E+00
        -11   -1    0    0    0    0  0.00000000000E+00  0.00000000000E+00  0.18250000000E+03  0.18250000000E+03  0.00000000000E+00 0.  1.
         11   -1    0    0    0    0 -0.00000000000E+00 -0.00000000000E+00 -0.18250000000E+03  0.18250000000E+03  0.00000000000E+00 0. -1.
        -11    1    1    2    0    0  0.95638613976E+01 -0.94302201722E+01  0.16315856613E+03  0.16371045843E+03  0.00000000000E+00 0.  1.
         11    1    1    2    0    0  0.49293204903E+01  0.62720335882E+01 -0.15059097046E+03  0.15080211202E+03  0.00000000000E+00 0. -1.
        -15    1    1    2    0    0 -0.32086144562E+01 -0.47054280821E+01 -0.28642259385E+02  0.29257016455E+02  0.17770000000E+01 0. -1.
         15    1    1    2    0    0 -0.11284567432E+02  0.78636146661E+01  0.16074663711E+02  0.21230413094E+02  0.17770000000E+01 0. -1.
</event>
<event>
 6    1  0.1045352E-002  0.1829384E+03  0.7546771E-02  0.1068106E+00
        -11   -1    0    0    0    0  0.00000000000E+00  0.00000000000E+00  0.18250000000E+03  0.18250000000E+03  0.00000000000E+00 0.  1.
         11   -1    0    0    0    0 -0.00000000000E+00 -0.00000000000E+00 -0.18250000000E+03  0.18250000000E+03  0.00000000000E+00 0. -1.
        -11    1    1    2    0    0 -0.35127759404E+01  0.43740558515E+01  0.18197511067E+03  0.18206156338E+03  0.00000000000E+00 0.  1.
         11    1    1    2    0    0  0.22776254948E+01  0.49697578251E+01 -0.96685589242E+02  0.96840018782E+02  0.00000000000E+00 0. -1.
        -15    1    1    2    0    0 -0.11357936285E+01 -0.19381473627E+00 -0.12881837027E+02  0.13054770987E+02  0.17770000000E+01 0. -1.
         15    1    1    2    0    0  0.23709440741E+01 -0.91499989403E+01 -0.72407684396E+02  0.73043646849E+02  0.17770000000E+01 0.  1.
</event>
<event>
 6    1  0.1045352E-002  0.1834519E+03  0.7546771E-02  0.1067700E+00
        -11   -1    0    0    0    0  0.00000000000E+00  0.00000000000E+00  0.18250000000E+03  0.18250000000E+03  0.00000000000E+00 0.  1.
         11   -1    0    0    0    0 -0.00000000000E+00 -0.00000000000E+00 -0.18250000000E+03  0.18250000000E+03  0.00000000000E+00 0.  1.
        -11    1    1    2    0    0 -0.10911956339E+00  0.61847000136E+01  0.18144270517E+03  0.18154811396E+03  0.00000000000E+00 0.  1.
         11    1    1    2    0    0 -0.21248587611E+01 -0.15587166054E+01 -0.17124301123E+03  0.17126328712E+03  0.00000000000E+00 0.  1.
        -15    1    1    2    0    0  0.21477404768E+01 -0.34614712059E+01 -0.78409301127E+01  0.90129066397E+01  0.17770000000E+01 0. -1.
         15    1    1    2    0    0  0.86237847758E-01 -0.11645122023E+01 -0.23587638341E+01  0.31756922806E+01  0.17770000000E+01 0.  1.
</event>
<event>
 6    1  0.1045352E-002  0.1830035E+03  0.7546771E-02  0.1068055E+00
        -11   -1    0    0    0    0  0.00000000000E+00  0.00000000000E+00  0.18250000000E+03  0.18250000000E+03  0.00000000000E+00 0. -1.
         11   -1    0    0    0    0 -0.00000000000E+00 -0.00000000000E+00 -0.18250000000E+03  0.18250000000E+03  0.00000000000E+00 0.  1.
        -11    1    1    2    0    0  0.99777428162E+00 -0.12008555482E+01  0.87024179209E+02  0.87038183428E+02  0.00000000000E+00 0. -1.
         11    1    1    2    0    0  0.26930175986E+01 -0.78260974959E+01 -0.18180818603E+03  0.18199647429E+03  0.00000000000E+00 0.  1.
        -15    1    1    2    0    0 -0.39033939268E+01  0.59431959303E+00  0.12452863901E+02  0.13184128650E+02  0.17770000000E+01 0.  1.
         15    1    1    2    0    0  0.21260204659E+00  0.84326334511E+01  0.82331142922E+02  0.82781213632E+02  0.17770000000E+01 0. -1.
</event>
<event>
 6    1  0.1045352E-002  0.1854446E+03  0.7546771E-02  0.1066135E+00
        -11   -1    0    0    0    0  0.00000000000E+00  0.00000000000E+00  0.18250000000E+03  0.18250000000E+03  0.00000000000E+00 0. -1.
         11   -1    0    0    0    0 -0.00000000000E+00 -0.00000000000E+00 -0.18250000000E+03  0.18250000000E+03  0.00000000000E+00 0. -1.
        -11    1    1    2    0    0  0.39896986787E+00 -0.20167697078E+01  0.14879908265E+03  0.14881328413E+03  0.00000000000E+00 0. -1.
         11    1    1    2    0    0 -0.10553022509E+01 -0.73350160028E+01 -0.17940242149E+03  0.17955540916E+03  0.00000000000E+00 0. -1.
        -15    1    1    2    0    0  0.35100701639E+01  0.11885798189E+02  0.29830194497E+02  0.32351059084E+02  0.17770000000E+01 0. -1.
         15    1    1    2    0    0 -0.28537377809E+01 -0.25340124786E+01  0.77314434234E+00  0.42802476258E+01  0.17770000000E+01 0.  1.
</event>
<event>
 6    1  0.1045352E-002  0.1831612E+03  0.7546771E-02  0.1067930E+00
        -11   -1    0    0    0    0  0.00000000000E+00  0.00000000000E+00  0.18250000000E+03  0.18250000000E+03  0.00000000000E+00 0. -1.
         11   -1    0    0    0    0 -0.00000000000E+00 -0.00000000000E+00 -0.18250000000E+03  0.18250000000E+03  0.00000000000E+00 0. -1.
        -11    1    1    2    0    0  0.45301894658E+01 -0.13704486977E+01  0.13522223170E+03  0.13530503573E+03  0.00000000000E+00 0. -1.
         11    1    1    2    0    0  0.19371722694E+01 -0.24151458688E+01 -0.18181242186E+03  0.18183878109E+03  0.00000000000E+00 0. -1.
        -15    1    1    2    0    0 -0.62615825043E+01  0.29060594414E+01  0.44070867444E+02  0.44643607417E+02  0.17770000000E+01 0. -1.
         15    1    1    2    0    0 -0.20577923091E+00  0.87953512504E+00  0.25193227123E+01  0.32125757667E+01  0.17770000000E+01 0.  1.
</event>
<event>
 6    1  0.1045352E-002  0.1883616E+03  0.7546771E-02  0.1063882E+00
        -11   -1    0    0    0    0  0.00000000000E+00  0.00000000000E+00  0.18250000000E+03  0.18250000000E+03  0.00000000000E+00 0. -1.
         11   -1    0    0    0    0 -0.00000000000E+00 -0.00000000000E+00 -0.18250000000E+03  0.18250000000E+03  0.00000000000E+00 0.  1.
        -11    1    1    2    0    0  0.49633358174E+00  0.30849670935E+01  0.17661077386E+03  0.17663841262E+03  0.00000000000E+00 0. -1.
         11    1    1    2    0    0 -0.36311037548E+01  0.20967117565E+01 -0.17089593085E+03  0.17094736118E+03  0.00000000000E+00 0.  1.
        -15    1    1    2    0    0  0.55827312012E+01 -0.38559558911E+01 -0.98688316675E+01  0.12107305686E+02  0.17770000000E+01 0.  1.
         15    1    1    2    0    0 -0.24479610282E+01 -0.13257229589E+01  0.41539886597E+01  0.53069205142E+01  0.17770000000E+01 0. -1.
</event>
<event>
 6    1  0.1045352E-002  0.1848085E+03  0.7546771E-02  0.1066632E+00
        -11   -1    0    0    0    0  0.00000000000E+00  0.00000000000E+00  0.18250000000E+03  0.18250000000E+03  0.00000000000E+00 0.  1.
         11   -1    0    0    0    0 -0.00000000000E+00 -0.00000000000E+00 -0.18250000000E+03  0.18250000000E+03  0.00000000000E+00 0. -1.
        -11    1    1    2    0    0  0.14982068547E+01 -0.20473046296E+01  0.18017360979E+03  0.18019146968E+03  0.00000000000E+00 0.  1.
         11    1    1    2    0    0  0.30342950567E+01  0.20033328065E+01 -0.17636670765E+03  0.17640418322E+03  0.00000000000E+00 0. -1.
        -15    1    1    2    0    0 -0.21491055150E+01 -0.64983600610E+00  0.71234202025E+00  0.29506103611E+01  0.17770000000E+01 0.  1.
         15    1    1    2    0    0 -0.23833963965E+01  0.69380782924E+00 -0.45192441620E+01  0.54537367449E+01  0.17770000000E+01 0. -1.
</event>
<event>
 6    1  0.1045352E-002  0.1843005E+03  0.7546771E-02  0.1067031E+00
        -11   -1    0    0    0    0  0.00000000000E+00  0.00000000000E+00  0.18250000000E+03  0.18250000000E+03  0.00000000000E+00 0. -1.
         11   -1    0    0    0    0 -0.00000000000E+00 -0.00000000000E+00 -0.18250000000E+03  0.18250000000E+03  0.00000000000E+00 0. -1.
        -11    1    1    2    0    0  0.17136009574E+01  0.10507940372E+01  0.13111643583E+03  0.13113184335E+03  0.00000000000E+00 0. -1.
         11    1    1    2    0    0 -0.69741503196E+00 -0.45182531475E+01 -0.18064169936E+03  0.18069954219E+03  0.00000000000E+00 0. -1.
        -15    1    1    2    0    0  0.22176879763E+01  0.10563566024E+02  0.23095739951E+02  0.25555390820E+02  0.17770000000E+01 0. -1.
         15    1    1    2    0    0 -0.32338739018E+01 -0.70961069141E+01  0.26429523587E+02  0.27613223640E+02  0.17770000000E+01 0. -1.
</event>
<event>
 6    1  0.1045352E-002  0.1959313E+03  0.7546771E-02  0.1058239E+00
        -11   -1    0    0    0    0  0.00000000000E+00  0.00000000000E+00  0.18250000000E+03  0.18250000000E+03  0.00000000000E+00 0.  1.
         11   -1    0    0    0    0 -0.00000000000E+00 -0.00000000000E+00 -0.18250000000E+03  0.18250000000E+03  0.00000000000E+00 0.  1.
        -11    1    1    2    0    0  0.38036277340E+00 -0.78365242117E+00  0.50242902249E+02  0.50250452867E+02  0.00000000000E+00 0.  1.
         11    1    1    2    0    0  0.33810637343E+01 -0.18615256301E+01 -0.16902459760E+03  0.16906865902E+03  0.00000000000E+00 0.  1.
        -15    1    1    2    0    0  0.10673575812E+02  0.17806059735E+01  0.12798106614E+03  0.12845001673E+03  0.17770000000E+01 0. -1.
         15    1    1    2    0    0 -0.14435002320E+02  0.86457207777E+00 -0.91993707871E+01  0.17230871386E+02  0.17770000000E+01 0.  1.
</event>
<event>
 6    1  0.1045352E-002  0.1840604E+03  0.7546771E-02  0.1067219E+00
        -11   -1    0    0    0    0  0.00000000000E+00  0.00000000000E+00  0.18250000000E+03  0.18250000000E+03  0.00000000000E+00 0. -1.
         11   -1    0    0    0    0 -0.00000000000E+00 -0.00000000000E+00 -0.18250000000E+03  0.18250000000E+03  0.00000000000E+00 0. -1.
        -11    1    1    2    0    0  0.34344259895E+01  0.18296684745E+01  0.16893160374E+03  0.16897641762E+03  0.00000000000E+00 0. -1.
         11    1    1    2    0    0  0.11515838807E+01 -0.46484850818E+01 -0.18087620585E+03  0.18093959324E+03  0.00000000000E+00 0. -1.
        -15    1    1    2    0    0 -0.10497124856E+01 -0.17610854362E+01  0.60709824396E+01  0.66496522464E+01  0.17770000000E+01 0. -1.
         15    1    1    2    0    0 -0.35362973845E+01  0.45799020436E+01  0.58736196641E+01  0.84343368962E+01  0.17770000000E+01 0.  1.
</event>
<event>
 6    1  0.1045352E-002  0.1839377E+03  0.7546771E-02  0.1067316E+00
        -11   -1    0    0    0    0  0.00000000000E+00  0.00000000000E+00  0.18250000000E+03  0.18250000000E+03  0.00000000000E+00 0.  1.
         11   -1    0    0    0    0 -0.00000000000E+00 -0.00000000000E+00 -0.18250000000E+03  0.18250000000E+03  0.00000000000E+00 0.  1.
        -11    1    1    2    0    0  0.50545665216E+00 -0.35768188570E+01  0.17216508714E+03  0.17220298008E+03  0.00000000000E+00 0.  1.
         11    1    1    2    0    0  0.20739381059E+01  0.24145334932E+01 -0.18103427185E+03  0.18106225111E+03  0.00000000000E+00 0.  1.
        -15    1    1    2    0    0  0.25717463487E+00 -0.18233334782E+01  0.11465570367E+01  0.28041051699E+01  0.17770000000E+01 0.  1.
         15    1    1    2    0    0 -0.28365693929E+01  0.29856188420E+01  0.77226276766E+01  0.89306636384E+01  0.17770000000E+01 0. -1.
</event>
<event>
 6    1  0.1045352E-002  0.1837617E+03  0.7546771E-02  0.1067455E+00
        -11   -1    0    0    0    0  0.00000000000E+00  0.00000000000E+00  0.18250000000E+03  0.18250000000E+03  0.00000000000E+00 0. -1.
         11   -1    0    0    0    0 -0.00000000000E+00 -0.00000000000E+00 -0.18250000000E+03  0.18250000000E+03  0.00000000000E+00 0. -1.
        -11    1    1    2    0    0  0.25206216320E+01 -0.26842030130E+01  0.62471870251E+02  0.62580292840E+02  0.00000000000E+00 0. -1.
         11    1    1    2    0    0  0.91272847172E+01 -0.35149975965E+01 -0.18097421522E+03  0.18123832130E+03  0.00000000000E+00 0. -1.
        -15    1    1    2    0    0 -0.38915376119E+01  0.94177435636E+00  0.30545514430E+01  0.53403199755E+01  0.17770000000E+01 0.  1.
         15    1    1    2    0    0 -0.77563687374E+01  0.52574262531E+01  0.11544779352E+03  0.11584106588E+03  0.17770000000E+01 0. -1.
</event>
<event>
 6    1  0.1045352E-002  0.1828427E+03  0.7546771E-02  0.1068182E+00
        -11   -1    0    0    0    0  0.00000000000E+00  0.00000000000E+00  0.18250000000E+03  0.18250000000E+03  0.00000000000E+00 0.  1.
         11   -1    0    0    0    0 -0.00000000000E+00 -0.00000000000E+00 -0.18250000000E+03  0.18250000000E+03  0.00000000000E+00 0. -1.
        -11    1    1    2    0    0  0.15979298346E+01  0.37142032324E+00  0.11176994844E+03  0.11178198740E+03  0.00000000000E+00 0.  1.
         11    1    1    2    0    0  0.27030345765E+01 -0.12852713443E+01 -0.18213273472E+03  0.18215732589E+03  0.00000000000E+00 0. -1.
        -15    1    1    2    0    0 -0.39584770221E+01 -0.43846754294E-01  0.13917365054E+02  0.14578142608E+02  0.17770000000E+01 0. -1.
         15    1    1    2    0    0 -0.34248738905E+00  0.95769777539E+00  0.56445421221E+02  0.56482544104E+02  0.17770000000E+01 0.  1.
</event>
<event>
 6    1  0.1045352E-002  0.1851461E+03  0.7546771E-02  0.1066368E+00
        -11   -1    0    0    0    0  0.00000000000E+00  0.00000000000E+00  0.18250000000E+03  0.18250000000E+03  0.00000000000E+00 0.  1.
         11   -1    0    0    0    0 -0.00000000000E+00 -0.00000000000E+00 -0.18250000000E+03  0.18250000000E+03  0.00000000000E+00 0. -1.
        -11    1    1    2    0    0  0.21467351304E+01  0.12431729844E+01  0.17983681483E+03  0.17985392384E+03  0.00000000000E+00 0.  1.
         11    1    1    2    0    0 -0.35780264451E+01 -0.31163988987E+01 -0.12277062227E+03  0.12286228025E+03  0.00000000000E+00 0. -1.
        -15    1    1    2    0    0 -0.50748767990E+01  0.46808491655E+01 -0.30136623923E+01  0.77398070680E+01  0.17770000000E+01 0.  1.
         15    1    1    2    0    0  0.65061681137E+01 -0.28076232512E+01 -0.54052530173E+02  0.54543988843E+02  0.17770000000E+01 0. -1.
</event>
<event>
 6    1  0.1045352E-002  0.1936635E+03  0.7546771E-02  0.1059900E+00
        -11   -1    0    0    0    0  0.00000000000E+00  0.00000000000E+00  0.18250000000E+03  0.18250000000E+03  0.00000000000E+00 0.  1.
         11   -1    0    0    0    0 -0.00000000000E+00 -0.00000000000E+00 -0.18250000000E+03  0.18250000000E+03  0.00000000000E+00 0.  1.
        -11    1    1    2    0    0 -0.80869855286E+01  0.36351264915E+00  0.17114520441E+03  0.17133654739E+03  0.00000000000E+00 0.  1.
         11    1    1    2    0    0  0.65188485970E+01 -0.37045692912E+01 -0.10825902948E+03  0.10851837027E+03  0.00000000000E+00 0.  1.
        -15    1    1    2    0    0  0.28237946629E+01 -0.59557724185E+01  0.97399058929E+01  0.11894054700E+02  0.17770000000E+01 0. -1.
         15    1    1    2    0    0 -0.12556577313E+01  0.92968290606E+01 -0.72626080823E+02  0.73251027649E+02  0.17770000000E+01 0.  1.
</event>
<event>
 6    1  0.1045352E-002  0.1881925E+03  0.7546771E-02  0.1064012E+00
        -11   -1    0    0    0    0  0.00000000000E+00  0.00000000000E+00  0.18250000000E+03  0.18250000000E+03  0.00000000000E+00 0.  1.
         11   -1    0    0    0    0 -0.00000000000E+00 -0.00000000000E+00 -0.18250000000E+03  0.18250000000E+03  0.00000000000E+00 0. -1.
        -11    1    1    2    0    0  0.82939322166E+01  0.42835409938E+01  0.16416432336E+03  0.16442950799E+03  0.00000000000E+00 0.  1.
         11    1    1    2    0    0 -0.68493785347E+00  0.53161248700E+01 -0.17672628088E+03  0.17680754700E+03  0.00000000000E+00 0. -1.
        -15    1    1    2    0    0 -0.73400016012E+01 -0.26927103411E+01  0.14320784913E+02  0.16412462400E+02  0.17770000000E+01 0.  1.
         15    1    1    2    0    0 -0.26899276195E+00 -0.69069555228E+01 -0.17588273917E+01  0.73504826028E+01  0.17770000000E+01 0.  1.
</event>
<event>
 6    1  0.1045352E-002  0.1831113E+03  0.7546771E-02  0.1067969E+00
        -11   -1    0    0    0    0  0.00000000000E+00  0.00000000000E+00  0.18250000000E+03  0.18250000000E+03  0.00000000000E+00 0. -1.
         11   -1    0    0    0    0 -0.00000000000E+00 -0.00000000000E+00 -0.18250000000E+03  0.18250000000E+03  0.00000000000E+00 0.  1.
        -11    1    1    2    0    0 -0.21297040092E+01 -0.53595453118E+01  0.18179722592E+03  0.18188867946E+03  0.00000000000E+00 0. -1.
         11    1    1    2    0    0  0.50252060675E+00  0.18666799527E+01 -0.12552571811E+03  0.12554060271E+03  0.00000000000E+00 0.  1.
        -15    1    1    2    0    0  0.34898036887E+01  0.55260132848E+01 -0.19299301531E+02  0.20453271650E+02  0.17770000000E+01 0. -1.
         15    1    1    2    0    0 -0.18626202862E+01 -0.20331479257E+01 -0.36972206274E+02  0.37117446175E+02  0.17770000000E+01 0. -1.
</event>
<event>
 6    1  0.1045352E-002  0.1848094E+03  0.7546771E-02  0.1066631E+00
        -11   -1    0    0    0    0  0.00000000000E+00  0.00000000000E+00  0.18250000000E+03  0.18250000000E+03  0.00000000000E+00 0.  1.
         11   -1    0    0    0    0 -0.00000000000E+00 -0.00000000000E+00 -0.18250000000E+03  0.18250000000E+03  0.00000000000E+00 0.  1.
        -11    1    1    2    0    0 -0.21393206661E+01 -0.22840521514E-01  0.14083929389E+03  0.14085554273E+03  0.00000000000E+00 0.  1.
         11    1    1    2    0    0 -0.39358673590E+00 -0.24330093569E+01 -0.18017374668E+03  0.18019060308E+03  0.00000000000E+00 0.  1.
        -15    1    1    2    0    0 -0.78709636259E+01 -0.16210082707E+01  0.14753576165E+02  0.16893947877E+02  0.17770000000E+01 0. -1.
         15    1    1    2    0    0  0.10403871028E+02  0.40768581492E+01  0.24580876628E+02  0.27059906310E+02  0.17770000000E+01 0.  1.
</event>
<event>
 6    1  0.1045352E-002  0.1870815E+03  0.7546771E-02  0.1064865E+00
        -11   -1    0    0    0    0  0.00000000000E+00  0.00000000000E+00  0.18250000000E+03  0.18250000000E+03  0.00000000000E+00 0. -1.
         11   -1    0    0    0    0 -0.00000000000E+00 -0.00000000000E+00 -0.18250000000E+03  0.18250000000E+03  0.00000000000E+00 0.  1.
        -11    1    1    2    0    0  0.27454621496E+01 -0.30145250081E+01  0.17787173812E+03  0.17791846488E+03  0.00000000000E+00 0. -1.
         11    1    1    2    0    0  0.30498305285E+01  0.14934208763E+01 -0.13761485356E+03  0.13765674591E+03  0.00000000000E+00 0.  1.
        -15    1    1    2    0    0 -0.29898357927E+01 -0.49106523249E+01  0.21609059323E+01  0.63938148058E+01  0.17770000000E+01 0.  1.
         15    1    1    2    0    0 -0.28054568853E+01  0.64317564567E+01 -0.42417790489E+02  0.43030974407E+02  0.17770000000E+01 0. -1.
</event>
<event>
 6    1  0.1045352E-002  0.1848564E+03  0.7546771E-02  0.1066594E+00
        -11   -1    0    0    0    0  0.00000000000E+00  0.00000000000E+00  0.18250000000E+03  0.18250000000E+03  0.00000000000E+00 0. -1.
         11   -1    0    0    0    0 -0.00000000000E+00 -0.00000000000E+00 -0.18250000000E+03  0.18250000000E+03  0.00000000000E+00 0.  1.
        -11    1    1    2    0    0  0.17840856299E+01 -0.10957386297E+01  0.14213151594E+03  0.14214693605E+03  0.00000000000E+00 0. -1.
         11    1    1    2    0    0 -0.64556123392E+01 -0.41618651046E+01 -0.17997980571E+03  0.18014362746E+03  0.00000000000E+00 0.  1.
        -15    1    1    2    0    0  0.23846886634E+01  0.87179787375E+01  0.70953070796E+01  0.11627166673E+02  0.17770000000E+01 0. -1.
         15    1    1    2    0    0  0.22868380459E+01 -0.34603750032E+01  0.30752982689E+02  0.31082269813E+02  0.17770000000E+01 0. -1.
</event>
<event>
 6    1  0.1045352E-002  0.1831795E+03  0.7546771E-02  0.1067915E+00
        -11   -1    0    0    0    0  0.00000000000E+00  0.00000000000E+00  0.18250000000E+03  0.18250000000E+03  0.00000000000E+00 0.  1.
         11   -1    0    0    0    0 -0.00000000000E+00 -0.00000000000E+00 -0.18250000000E+03  0.18250000000E+03  0.00000000000E+00 0.  1.
        -11    1    1    2    0    0  0.24453792266E+01 -0.90494889703E+00  0.12612988691E+03  0.12615683566E+03  0.00000000000E+00 0.  1.
         11    1    1    2    0    0  0.19185630194E+01  0.15953540809E+01 -0.18180337477E+03  0.18182049696E+03  0.00000000000E+00 0.  1.
        -15    1    1    2    0    0 -0.43242934982E+01  0.23231249665E+01  0.50548290387E+02  0.50817160624E+02  0.17770000000E+01 0. -1.
         15    1    1    2    0    0 -0.39648747791E-01 -0.30135301503E+01  0.51251974702E+01  0.62055067560E+01  0.17770000000E+01 0.  1.
</event>
<event>
 6    1  0.1045352E-002  0.1828173E+03  0.7546771E-02  0.1068203E+00
        -11   -1    0    0    0    0  0.00000000000E+00  0.00000000000E+00  0.18250000000E+03  0.18250000000E+03  0.00000000000E+00 0.  1.
         11   -1    0    0    0    0 -0.00000000000E+00 -0.00000000000E+00 -0.18250000000E+03  0.18250000000E+03  0.00000000000E+00 0.  1.
        -11    1    1    2    0    0 -0.15609297568E+01 -0.83341528025E+00  0.58692136829E+01  0.61301510577E+01  0.00000000000E+00 0.  1.
         11    1    1    2    0    0  0.18988417122E+01 -0.23260929126E+01 -0.18215796626E+03  0.18218271318E+03  0.00000000000E+00 0.  1.
        -15    1    1    2    0    0 -0.42083600594E+01  0.45173822473E+01  0.13589876700E+03  0.13605054075E+03  0.17770000000E+01 0.  1.
         15    1    1    2    0    0  0.38704481040E+01 -0.13578740544E+01  0.40389985578E+02  0.40636595016E+02  0.17770000000E+01 0. -1.
</event>
<event>
 6    1  0.1045352E-002  0.1841163E+03  0.7546771E-02  0.1067175E+00
        -11   -1    0    0    0    0  0.00000000000E+00  0.00000000000E+00  0.18250000000E+03  0.18250000000E+03  0.00000000000E+00 0. -1.
         11   -1    0    0    0    0 -0.00000000000E+00 -0.00000000000E+00 -0.18250000000E+03  0.18250000000E+03  0.00000000000E+00 0.  1.
        -11    1    1    2    0    0  0.54053794945E+01 -0.21891838157E+01  0.18078962936E+03  0.18088366631E+03  0.00000000000E+00 0. -1.
         11    1    1    2    0    0 -0.37902561551E+01 -0.33015196144E+00 -0.13678433527E+03  0.13683723696E+03  0.00000000000E+00 0.  1.
        -15    1    1    2    0    0 -0.66473858155E+01  0.62094654278E+00 -0.39336513466E+02  0.39938607055E+02  0.17770000000E+01 0.  1.
         15    1    1    2    0    0  0.50322624761E+01  0.18983892344E+01 -0.46687806164E+01  0.73404896810E+01  0.17770000000E+01 0. -1.
</event>
<event>
 6    1  0.1045352E-002  0.1831225E+03  0.7546771E-02  0.1067960E+00
        -11   -1    0    0    0    0  0.00000000000E+00  0.00000000000E+00  0.18250000000E+03  0.18250000000E+03  0.00000000000E+00 0. -1.
         11   -1    0    0    0    0 -0.00000000000E+00 -0.00000000000E+00 -0.18250000000E+03  0.18250000000E+03  0.00000000000E+00 0. -1.
        -11    1    1    2    0    0  0.12382381597E+01  0.10587462095E+01  0.11900364628E+03  0.11901479742E+03  0.00000000000E+00 0. -1.
         11    1    1    2    0    0  0.32138644439E+01  0.15008253243E+01 -0.18184286749E+03  0.18187745836E+03  0.00000000000E+00 0. -1.
        -15    1    1    2    0    0 -0.22933722604E+01 -0.22625181464E+01  0.50392214342E+01  0.62393931075E+01  0.17770000000E+01 0.  1.
         15    1    1    2    0    0 -0.21587303431E+01 -0.29705338751E+00  0.57799999774E+02  0.57868351111E+02  0.17770000000E+01 0. -1.
</event>
<event>
 6    1  0.1045352E-002  0.1906716E+03  0.7546771E-02  0.1062130E+00
        -11   -1    0    0    0    0  0.00000000000E+00  0.00000000000E+00  0.18250000000E+03  0.18250000000E+03  0.00000000000E+00 0.  1.
         11   -1    0    0    0    0 -0.00000000000E+00 -0.00000000000E+00 -0.18250000000E+03  0.18250000000E+03  0.00000000000E+00 0.  1.
        -11    1    1    2    0    0  0.30877493638E+01 -0.25356908116E+01  0.17428256495E+03  0.17432835791E+03  0.00000000000E+00 0.  1.
         11    1    1    2    0    0 -0.65602022163E+01 -0.22626516782E+01 -0.90725793092E+02  0.90990798315E+02  0.00000000000E+00 0.  1.
        -15    1    1    2    0    0  0.58953980845E+00 -0.96630522377E+01 -0.84239447699E+02  0.84812525097E+02  0.17770000000E+01 0. -1.
         15    1    1    2    0    0  0.28829130441E+01  0.14461394728E+02  0.68267583807E+00  0.14868318681E+02  0.17770000000E+01 0.  1.
</event>
<event>
 6    1  0.1045352E-002  0.1826645E+03  0.7546771E-02  0.1068324E+00
        -11   -1    0    0    0    0  0.00000000000E+00  0.00000000000E+00  0.18250000000E+03  0.18250000000E+03  0.00000000000E+00 0.  1.
         11   -1    0    0    0    0 -0.00000000000E+00 -0.00000000000E+00 -0.18250000000E+03  0.18250000000E+03  0.00000000000E+00 0.  1.
        -11    1    1    2    0    0  0.64834280575E+00 -0.26144147156E+01  0.11020463920E+03  0.11023755265E+03  0.00000000000E+00 0.  1.
         11    1    1    2    0    0 -0.18965365880E+01  0.56270568591E+01 -0.18223878352E+03  0.18233550076E+03  0.00000000000E+00 0.  1.
        -15    1    1    2    0    0 -0.53504914265E+00  0.10909214208E+01  0.37130877644E+02  0.37193227754E+02  0.17770000000E+01 0.  1.
         15    1    1    2    0    0  0.17832429249E+01 -0.41035635643E+01  0.34903266676E+02  0.35233718834E+02  0.17770000000E+01 0.  1.
</event>
<event>
 6    1  0.1045352E-002  0.1826877E+03  0.7546771E-02  0.1068306E+00
        -11   -1    0    0    0    0  0.00000000000E+00  0.00000000000E+00  0.18250000000E+03  0.18250000000E+03  0.00000000000E+00 0.  1.
         11   -1    0    0    0    0 -0.00000000000E+00 -0.00000000000E+00 -0.18250000000E+03  0.18250000000E+03  0.00000000000E+00 0.  1.
        -11    1    1    2    0    0  0.33916175728E+00 -0.86421873514E+00  0.52616205930E+02  0.52624395779E+02  0.00000000000E+00 0.  1.
         11    1    1    2    0    0 -0.13393576824E+01 -0.29382517561E+01 -0.18228371402E+03  0.18231231335E+03  0.00000000000E+00 0.  1.
        -15    1    1    2    0    0 -0.82293558678E+00  0.62182086536E+01  0.74747948343E+02  0.75031705648E+02  0.17770000000E+01 0.  1.
         15    1    1    2    0    0  0.18231315119E+01 -0.24157381623E+01  0.54919559751E+02  0.55031585218E+02  0.17770000000E+01 0.  1.
</event>
<event>
 6    1  0.1045352E-002  0.1954487E+03  0.7546771E-02  0.1058591E+00
        -11   -1    0    0    0    0  0.00000000000E+00  0.00000000000E+00  0.18250000000E+03  0.18250000000E+03  0.00000000000E+00 0.  1.
         11   -1    0    0    0    0 -0.00000000000E+00 -0.00000000000E+00 -0.18250000000E+03  0.18250000000E+03  0.00000000000E+00 0. -1.
        -11    1    1    2    0    0  0.24003731443E+01  0.39091171260E+01  0.15283687611E+03  0.15290570194E+03  0.00000000000E+00 0.  1.
         11    1    1    2    0    0 -0.40937500611E+01 -0.52046038401E+01 -0.16942198175E+03  0.16955133320E+03  0.00000000000E+00 0. -1.
        -15    1    1    2    0    0  0.85642192398E+01 -0.11395733991E+02 -0.60925092875E+01  0.15604005986E+02  0.17770000000E+01 0. -1.
         15    1    1    2    0    0 -0.68708423230E+01  0.12691220705E+02  0.22677614926E+02  0.26938958870E+02  0.17770000000E+01 0.  1.
</event>
<event>
 6    1  0.1045352E-002  0.1851916E+03  0.7546771E-02  0.1066332E+00
        -11   -1    0    0    0    0  0.00000000000E+00  0.00000000000E+00  0.18250000000E+03  0.18250000000E+03  0.00000000000E+00 0.  1.
         11   -1    0    0    0    0 -0.00000000000E+00 -0.00000000000E+00 -0.18250000000E+03  0.18250000000E+03  0.00000000000E+00 0. -1.
        -11    1    1    2    0    0  0.38034937044E+01  0.66321989958E+01  0.17964573828E+03  0.17980835329E+03  0.00000000000E+00 0.  1.
         11    1    1    2    0    0  0.15234990340E+01 -0.99600721247E+01 -0.16098420388E+03  0.16129921879E+03  0.00000000000E+00 0. -1.
        -15    1    1    2    0    0  0.38363656220E+00 -0.40638906091E+01 -0.24066267037E+01  0.50608265121E+01  0.17770000000E+01 0.  1.
         15    1    1    2    0    0 -0.57106293006E+01  0.73917637380E+01 -0.16254907703E+02  0.18831601408E+02  0.17770000000E+01 0. -1.
</event>
<event>
 6    1  0.1045352E-002  0.1840386E+03  0.7546771E-02  0.1067237E+00
        -11   -1    0    0    0    0  0.00000000000E+00  0.00000000000E+00  0.18250000000E+03  0.18250000000E+03  0.00000000000E+00 0. -1.
         11   -1    0    0    0    0 -0.00000000000E+00 -0.00000000000E+00 -0.18250000000E+03  0.18250000000E+03  0.00000000000E+00 0. -1.
        -11    1    1    2    0    0  0.34335754817E+01 -0.45153921648E+01  0.10981643640E+03  0.10996284786E+03  0.00000000000E+00 0. -1.
         11    1    1    2    0    0  0.26987096357E+01  0.24860357345E+00 -0.18094106351E+03  0.18096135859E+03  0.00000000000E+00 0. -1.
        -15    1    1    2    0    0 -0.97134090768E+01 -0.13436571551E+01  0.18601745472E+02  0.21103042294E+02  0.17770000000E+01 0. -1.
         15    1    1    2    0    0  0.35811239594E+01  0.56104457465E+01  0.52522881641E+02  0.52972751252E+02  0.17770000000E+01 0.  1.
</event>
<event>
 6    1  0.1045352E-002  0.1835952E+03  0.7546771E-02  0.1067586E+00
        -11   -1    0    0    0    0  0.00000000000E+00  0.00000000000E+00  0.18250000000E+03  0.18250000000E+03  0.00000000000E+00 0.  1.
         11   -1    0    0    0    0 -0.00000000000E+00 -0.00000000000E+00 -0.18250000000E+03  0.18250000000E+03  0.00000000000E+00 0. -1.
        -11    1    1    2    0    0 -0.20070355786E+01 -0.52034749339E+01  0.18131906618E+03  0.18140481830E+03  0.00000000000E+00 0.  1.
         11    1    1    2    0    0  0.16732867816E+01 -0.24027886172E+01 -0.15881225864E+03  0.15883924823E+03  0.00000000000E+00 0. -1.
        -15    1    1    2    0    0  0.17796286795E+01  0.76027420242E+01 -0.17969966620E+02  0.19673489621E+02  0.17770000000E+01 0.  1.
         15    1    1    2    0    0 -0.14458798825E+01  0.35215269424E-02 -0.45368409133E+01  0.50824438520E+01  0.17770000000E+01 0.  1.
</event>
<event>
 6    1  0.1045352E-002  0.1789073E+03  0.7546771E-02  0.1071351E+00
        -11   -1    0    0    0    0  0.00000000000E+00  0.00000000000E+00  0.18250000000E+03  0.18250000000E+03  0.00000000000E+00 0.  1.
         11   -1    0    0    0    0 -0.00000000000E+00 -0.00000000000E+00 -0.18250000000E+03  0.18250000000E+03  0.00000000000E+00 0. -1.
        -11    1    1    2    0    0  0.32525531560E+01 -0.28476579707E+01  0.17873214277E+03  0.17878441519E+03  0.00000000000E+00 0.  1.
         11    1    1    2    0    0 -0.30495881822E+01  0.17813128198E+01 -0.17899706947E+03  0.17903190761E+03  0.00000000000E+00 0. -1.
        -15    1    1    2    0    0 -0.24095578591E+00  0.35810722686E+01  0.72492134333E+00  0.40700587511E+01  0.17770000000E+01 0.  1.
         15    1    1    2    0    0  0.37990812154E-01 -0.25147271178E+01 -0.45999464425E+00  0.31136184499E+01  0.17770000000E+01 0. -1.
</event>
<event>
 6    1  0.1045352E-002  0.1835154E+03  0.7546771E-02  0.1067649E+00
        -11   -1    0    0    0    0  0.00000000000E+00  0.00000000000E+00  0.18250000000E+03  0.18250000000E+03  0.00000000000E+00 0.  1.
         11   -1    0    0    0    0 -0.00000000000E+00 -0.00000000000E+00 -0.18250000000E+03  0.18250000000E+03  0.00000000000E+00 0. -1.
        -11    1    1    2    0    0  0.26520371399E+01  0.25230462288E+01  0.18144763528E+03  0.18148455420E+03  0.00000000000E+00 0.  1.
         11    1    1    2    0    0  0.18025373353E+01  0.10650344824E+01 -0.15314116751E+03  0.15315547860E+03  0.00000000000E+00 0. -1.
        -15    1    1    2    0    0  0.12909008702E+01  0.17658430674E+01 -0.56209712198E+01  0.62878989535E+01  0.17770000000E+01 0.  1.
         15    1    1    2    0    0 -0.57454753453E+01 -0.53539237786E+01 -0.22685496553E+02  0.24072068246E+02  0.17770000000E+01 0.  1.
</event>
<event>
 6    1  0.1045352E-002  0.1829399E+03  0.7546771E-02  0.1068105E+00
        -11   -1    0    0    0    0  0.00000000000E+00  0.00000000000E+00  0.18250000000E+03  0.18250000000E+03  0.00000000000E+00 0. -1.
         11   -1    0    0    0    0 -0.00000000000E+00 -0.00000000000E+00 -0.18250000000E+03  0.18250000000E+03  0.00000000000E+00 0. -1.
        -11    1    1    2    0    0 -0.38681700087E+01  0.14086340984E+01  0.18201359100E+03  0.18206013924E+03  0.00000000000E+00 0. -1.
         11    1    1    2    0    0 -0.17074972182E+01 -0.45159475948E+01 -0.12493899691E+03  0.12503224496E+03  0.00000000000E+00 0. -1.
        -15    1    1    2    0    0  0.49354341401E+01  0.43864670181E+01 -0.50220261169E+02  0.50683645922E+02  0.17770000000E+01 0.  1.
         15    1    1    2    0    0  0.64023308680E+00 -0.12791535217E+01 -0.68543329199E+01  0.72239698860E+01  0.17770000000E+01 0. -1.
</event>
<event>
 6    1  0.1045352E-002  0.1965642E+03  0.7546771E-02  0.1057780E+00
        -11   -1    0    0    0    0  0.00000000000E+00  0.00000000000E+00  0.18250000000E+03  0.18250000000E+03  0.00000000000E+00 0. -1.
         11   -1    0    0    0    0 -0.00000000000E+00 -0.00000000000E+00 -0.18250000000E+03  0.18250000000E+03  0.00000000000E+00 0. -1.
        -11    1    1    2    0    0  0.15166373938E+02  0.37226023577E+01  0.16771030834E+03  0.16843581624E+03  0.00000000000E+00 0. -1.
         11    1    1    2    0    0 -0.60112618885E+01  0.24840268560E+01 -0.15529961645E+03  0.15543576335E+03  0.00000000000E+00 0. -1.
        -15    1    1    2    0    0 -0.13532488945E+02  0.13179825574E+02 -0.35817725543E+01  0.19308621982E+02  0.17770000000E+01 0.  1.
         15    1    1    2    0    0  0.43773768956E+01 -0.19386454788E+02 -0.88289193364E+01  0.21819798427E+02  0.17770000000E+01 0. -1.
</event>
<event>
 6    1  0.1045352E-002  0.1872367E+03  0.7546771E-02  0.1064746E+00
        -11   -1    0    0    0    0  0.00000000000E+00  0.00000000000E+00  0.18250000000E+03  0.18250000000E+03  0.00000000000E+00 0. -1.
         11   -1    0    0    0    0 -0.00000000000E+00 -0.00000000000E+00 -0.18250000000E+03  0.18250000000E+03  0.00000000000E+00 0. -1.
        -11    1    1    2    0    0  0.72650161913E+01 -0.43215260149E+00  0.17761427271E+03  0.17776331761E+03  0.00000000000E+00 0. -1.
         11    1    1    2    0    0  0.70630524576E+00 -0.37193124295E+01 -0.16384615318E+03  0.16388988396E+03  0.00000000000E+00 0. -1.
        -15    1    1    2    0    0  0.12457107873E+00 -0.52311072012E+01 -0.12978772953E+01  0.56764614839E+01  0.17770000000E+01 0.  1.
         15    1    1    2    0    0 -0.80958925158E+01  0.93825722322E+01 -0.12470242238E+02  0.17670336946E+02  0.17770000000E+01 0. -1.
</event>
<event>
 6    1  0.1099938E-002  0.1903768E+03  0.7546771E-02  0.1062352E+00
        -11   -1    0    0    0    0  0.00000000000E+00  0.00000000000E+00  0.18250000000E+03  0.18250000000E+03  0.00000000000E+00 0.  1.
         11   -1    0    0    0    0 -0.00000000000E+00 -0.00000000000E+00 -0.18250000000E+03  0.18250000000E+03  0.00000000000E+00 0.  1.
        -11    1    1    2    0    0 -0.70588341687E+01 -0.10819576441E+02  0.86660539904E+02  0.87618146240E+02  0.00000000000E+00 0.  1.
         11    1    1    2    0    0 -0.18054589966E+01  0.22072307401E+01 -0.17459992241E+03  0.17462320709E+03  0.00000000000E+00 0.  1.
        -15    1    1    2    0    0  0.51183297761E+00 -0.17278421900E+01 -0.67061207995E+01  0.71677888368E+01  0.17770000000E+01 0.  1.
         15    1    1    2    0    0  0.83524601877E+01  0.10340187891E+02  0.94645503303E+02  0.95590857833E+02  0.17770000000E+01 0.  1.
</event>
<event>
 6    1  0.1045352E-002  0.1830008E+03  0.7546771E-02  0.1068057E+00
        -11   -1    0    0    0    0  0.00000000000E+00  0.00000000000E+00  0.18250000000E+03  0.18250000000E+03  0.00000000000E+00 0.  1.
         11   -1    0    0    0    0 -0.00000000000E+00 -0.00000000000E+00 -0.18250000000E+03  0.18250000000E+03  0.00000000000E+00 0. -1.
        -11    1    1    2    0    0  0.18266265688E+01  0.50965669993E+00  0.13520463995E+03  0.13521793882E+03  0.00000000000E+00 0.  1.
         11    1    1    2    0    0  0.39657154760E+01 -0.44507113900E+01 -0.18190155246E+03  0.18199920472E+03  0.00000000000E+00 0. -1.
        -15    1    1    2    0    0 -0.57007275678E+01  0.20503636411E+00  0.26244709993E+02  0.26916219392E+02  0.17770000000E+01 0. -1.
         15    1    1    2    0    0 -0.91614476967E-01  0.37360183260E+01  0.20452202510E+02  0.20866637071E+02  0.17770000000E+01 0.  1.
</event>
<event>
 6    1  0.1045352E-002  0.1836081E+03  0.7546771E-02  0.1067576E+00
        -11   -1    0    0    0    0  0.00000000000E+00  0.00000000000E+00  0.18250000000E+03  0.18250000000E+03  0.00000000000E+00 0.  1.
         11   -1    0    0    0    0 -0.00000000000E+00 -0.00000000000E+00 -0.18250000000E+03  0.18250000000E+03  0.00000000000E+00 0. -1.
        -11    1    1    2    0    0 -0.11187051755E+01  0.25362150242E+01  0.18137074743E+03  0.18139192901E+03  0.00000000000E+00 0.  1.
         11    1    1    2    0    0 -0.19581833799E+01  0.13362688914E+01 -0.17131255810E+03  0.17132896036E+03  0.00000000000E+00 0. -1.
        -15    1    1    2    0    0  0.31274646380E+01 -0.11464405244E+01 -0.50200716463E+01  0.62812585739E+01  0.17770000000E+01 0.  1.
         15    1    1    2    0    0 -0.50576082580E-01 -0.27260433912E+01 -0.50381176819E+01  0.59978520561E+01  0.17770000000E+01 0. -1.
</event>
<event>
 6    1  0.1045352E-002  0.1784053E+03  0.7546771E-02  0.1071762E+00
        -11   -1    0    0    0    0  0.00000000000E+00  0.00000000000E+00  0.18250000000E+03  0.18250000000E+03  0.00000000000E+00 0.  1.
         11   -1    0    0    0    0 -0.00000000000E+00 -0.00000000000E+00 -0.18250000000E+03  0.18250000000E+03  0.00000000000E+00 0. -1.
        -11    1    1    2    0    0  0.23162314985E+00 -0.15496310201E+01  0.83540934555E+01  0.84997578227E+01  0.00000000000E+00 0.  1.
         11    1    1    2    0    0 -0.26685089835E+01 -0.90552998356E+01 -0.18192372951E+03  0.18216850099E+03  0.00000000000E+00 0. -1.
        -15    1    1    2    0    0 -0.36161916941E+01  0.88443623238E+01  0.10727382953E+03  0.10771319241E+03  0.17770000000E+01 0.  1.
         15    1    1    2    0    0  0.60530775278E+01  0.17605685319E+01  0.66295806524E+02  0.66618548774E+02  0.17770000000E+01 0. -1.
</event>
<event>
 6    1  0.1045352E-002  0.1827054E+03  0.7546771E-02  0.1068291E+00
        -11   -1    0    0    0    0  0.00000000000E+00  0.00000000000E+00  0.18250000000E+03  0.18250000000E+03  0.00000000000E+00 0. -1.
         11   -1    0    0    0    0 -0.00000000000E+00 -0.00000000000E+00 -0.18250000000E+03  0.18250000000E+03  0.00000000000E+00 0.  1.
        -11    1    1    2    0    0 -0.65248132684E+00 -0.25379389947E+01  0.18227572901E+03  0.18229456451E+03  0.00000000000E+00 0. -1.
         11    1    1    2    0    0 -0.11683307448E+01 -0.11343892090E+01 -0.11829449700E+03  0.11830570508E+03  0.00000000000E+00 0.  1.
        -15    1    1    2    0    0 -0.17629812737E+00 -0.92320757575E+00 -0.16726469200E+02  0.16846836325E+02  0.17770000000E+01 0. -1.
         15    1    1    2    0    0  0.19971101990E+01  0.45955357794E+01 -0.47254762808E+02  0.47552894079E+02  0.17770000000E+01 0. -1.
</event>
<event>
 6    1  0.1045352E-002  0.1828077E+03  0.7546771E-02  0.1068210E+00
        -11   -1    0    0    0    0  0.00000000000E+00  0.00000000000E+00  0.18250000000E+03  0.18250000000E+03  0.00000000000E+00 0. -1.
         11   -1    0    0    0    0 -0.00000000000E+00 -0.00000000000E+00 -0.18250000000E+03  0.18250000000E+03  0.00000000000E+00 0. -1.
        -11    1    1    2    0    0 -0.25098242549E+00 -0.53915851577E+01  0.18211237845E+03  0.18219234497E+03  0.00000000000E+00 0. -1.
         11    1    1    2    0    0 -0.90259043254E+00 -0.51203335820E+00 -0.37000856680E+02  0.37015405478E+02  0.00000000000E+00 0. -1.
        -15    1    1    2    0    0  0.17889163157E+01  0.12194653829E+01 -0.12580533098E+03  0.12583650642E+03  0.17770000000E+01 0. -1.
         15    1    1    2    0    0 -0.63534345768E+00  0.46841531330E+01 -0.19306190790E+02  0.19955743126E+02  0.17770000000E+01 0.  1.
</event>
<event>
 6    1  0.1045352E-002  0.1825756E+03  0.7546771E-02  0.1068395E+00
        -11   -1    0    0    0    0  0.00000000000E+00  0.00000000000E+00  0.18250000000E+03  0.18250000000E+03  0.00000000000E+00 0.  1.
         11   -1    0    0    0    0 -0.00000000000E+00 -0.00000000000E+00 -0.18250000000E+03  0.18250000000E+03  0.00000000000E+00 0.  1.
        -11    1    1    2    0    0  0.33403119819E+01 -0.28503006766E+01  0.18237158639E+03  0.18242444305E+03  0.00000000000E+00 0.  1.
         11    1    1    2    0    0  0.93554627963E+00 -0.10414194963E+00 -0.50485125141E+02  0.50493900155E+02  0.00000000000E+00 0.  1.
        -15    1    1    2    0    0 -0.43765660384E+01  0.18062238749E+01 -0.91216277037E+02  0.91356355556E+02  0.17770000000E+01 0.  1.
         15    1    1    2    0    0  0.10070777693E+00  0.11482187514E+01 -0.40670184213E+02  0.40725301243E+02  0.17770000000E+01 0.  1.
</event>
<event>
 6    1  0.1045352E-002  0.1771870E+03  0.7546771E-02  0.1072764E+00
        -11   -1    0    0    0    0  0.00000000000E+00  0.00000000000E+00  0.18250000000E+03  0.18250000000E+03  0.00000000000E+00 0.  1.
         11   -1    0    0    0    0 -0.00000000000E+00 -0.00000000000E+00 -0.18250000000E+03  0.18250000000E+03  0.00000000000E+00 0. -1.
        -11    1    1    2    0    0 -0.44399373276E+01 -0.25185790312E+01  0.17535418772E+03  0.17542846814E+03  0.00000000000E+00 0.  1.
         11    1    1    2    0    0 -0.36426023703E-01 -0.31470625728E+01 -0.17901019515E+03  0.17903785995E+03  0.00000000000E+00 0. -1.
        -15    1    1    2    0    0 -0.34534325685E-01  0.41155706549E+01  0.30170973101E+01  0.54036764905E+01  0.17770000000E+01 0. -1.
         15    1    1    2    0    0  0.45108976770E+01  0.15500709491E+01  0.63891011569E+00  0.51299954128E+01  0.17770000000E+01 0.  1.
</event>
<event>
 6    1  0.1045352E-002  0.1826281E+03  0.7546771E-02  0.1068353E+00
        -11   -1    0    0    0    0  0.00000000000E+00  0.00000000000E+00  0.18250000000E+03  0.18250000000E+03  0.00000000000E+00 0. -1.
         11   -1    0    0    0    0 -0.00000000000E+00 -0.00000000000E+00 -0.18250000000E+03  0.18250000000E+03  0.00000000000E+00 0. -1.
        -11    1    1    2    0    0  0.36175134665E+01  0.17570800465E+01  0.18232756290E+03  0.18237191101E+03  0.00000000000E+00 0. -1.
         11    1    1    2    0    0 -0.29047693464E+01 -0.24483858012E+01 -0.48806486308E+02  0.48954115084E+02  0.00000000000E+00 0. -1.
        -15    1    1    2    0    0  0.14015519629E+01 -0.62988514830E+00 -0.25104721460E+02  0.25214398105E+02  0.17770000000E+01 0. -1.
         15    1    1    2    0    0 -0.21142960830E+01  0.13211909030E+01 -0.10841635513E+03  0.10845957580E+03  0.17770000000E+01 0.  1.
</event>
<event>
 6    1  0.1045352E-002  0.1959080E+03  0.7546771E-02  0.1058256E+00
        -11   -1    0    0    0    0  0.00000000000E+00  0.00000000000E+00  0.18250000000E+03  0.18250000000E+03  0.00000000000E+00 0. -1.
         11   -1    0    0    0    0 -0.00000000000E+00 -0.00000000000E+00 -0.18250000000E+03  0.18250000000E+03  0.00000000000E+00 0. -1.
        -11    1    1    2    0    0  0.15118939804E+02 -0.13195115843E+02  0.16789705548E+03  0.16909203016E+03  0.00000000000E+00 0. -1.
         11    1    1    2    0    0 -0.25010173809E+01 -0.30826229223E+00 -0.10866449598E+03  0.10869371095E+03  0.00000000000E+00 0. -1.
        -15    1    1    2    0    0  0.11603244553E+02  0.21170399907E+02 -0.16642395625E+01  0.24264141005E+02  0.17770000000E+01 0.  1.
         15    1    1    2    0    0 -0.24221166976E+02 -0.76670217718E+01 -0.57568319944E+02  0.62950117892E+02  0.17770000000E+01 0. -1.
</event>
<event>
 6    1  0.1045352E-002  0.1907292E+03  0.7546771E-02  0.1062087E+00
        -11   -1    0    0    0    0  0.00000000000E+00  0.00000000000E+00  0.18250000000E+03  0.18250000000E+03  0.00000000000E+00 0. -1.
         11   -1    0    0    0    0 -0.00000000000E+00 -0.00000000000E+00 -0.18250000000E+03  0.18250000000E+03  0.00000000000E+00 0. -1.
        -11    1    1    2    0    0 -0.19467506607E+00 -0.75603254171E+01  0.12466221338E+03  0.12489140829E+03  0.00000000000E+00 0. -1.
         11    1    1    2    0    0  0.50737410394E+01 -0.20310968332E+01 -0.17418512073E+03  0.17427083659E+03  0.00000000000E+00 0. -1.
        -15    1    1    2    0    0  0.58713687215E+00  0.26465072922E+01  0.55127462189E+02  0.55222672399E+02  0.17770000000E+01 0.  1.
         15    1    1    2    0    0 -0.54662028454E+01  0.69449149581E+01 -0.56045548422E+01  0.10615082727E+02  0.17770000000E+01 0. -1.
</event>
<event>
 6    1  0.1045352E-002  0.1863624E+03  0.7546771E-02  0.1065421E+00
        -11   -1    0    0    0    0  0.00000000000E+00  0.00000000000E+00  0.18250000000E+03  0.18250000000E+03  0.00000000000E+00 0. -1.
         11   -1    0    0    0    0 -0.00000000000E+00 -0.00000000000E+00 -0.18250000000E+03  0.18250000000E+03  0.00000000000E+00 0. -1.
        -11    1    1    2    0    0  0.30955074992E+01 -0.29360775662E+01  0.17858661947E+03  0.17863757548E+03  0.00000000000E+00 0. -1.
         11    1    1    2    0    0  0.75626633101E-01 -0.72237572022E+01 -0.17145475647E+03  0.17160688186E+03  0.00000000000E+00 0. -1.
        -15    1    1    2    0    0 -0.18429214247E+01  0.63355534652E+00  0.21955401824E-01  0.26374159312E+01  0.17770000000E+01 0.  1.
         15    1    1    2    0    0 -0.13282127077E+01  0.95262794219E+01 -0.71538184059E+01  0.12118126728E+02  0.17770000000E+01 0. -1.
</event>
<event>
 6    1  0.1045352E-002  0.1840967E+03  0.7546771E-02  0.1067191E+00
        -11   -1    0    0    0    0  0.00000000000E+00  0.00000000000E+00  0.18250000000E+03  0.18250000000E+03  0.00000000000E+00 0.  1.
         11   -1    0    0    0    0 -0.00000000000E+00 -0.00000000000E+00 -0.18250000000E+03  0.18250000000E+03  0.00000000000E+00 0.  1.
        -11    1    1    2    0    0 -0.53434080779E+01 -0.50235340891E+00  0.12459213853E+02  0.13566000835E+02  0.00000000000E+00 0.  1.
         11    1    1    2    0    0 -0.15172448763E+01 -0.27409645837E+01 -0.18087620545E+03  0.18090333501E+03  0.00000000000E+00 0.  1.
        -15    1    1    2    0    0 -0.18464299073E+01  0.91131203110E+01  0.25219793547E+02  0.26937965416E+02  0.17770000000E+01 0. -1.
         15    1    1    2    0    0  0.87070828615E+01 -0.58698023185E+01  0.14319719805E+03  0.14359269874E+03  0.17770000000E+01 0.  1.
</event>
<event>
 6    1  0.1045352E-002  0.1774895E+03  0.7546771E-02  0.1072515E+00
        -11   -1    0    0    0    0  0.00000000000E+00  0.00000000000E+00  0.18250000000E+03  0.18250000000E+03  0.00000000000E+00 0. -1.
         11   -1    0    0    0    0 -0.00000000000E+00 -0.00000000000E+00 -0.18250000000E+03  0.18250000000E+03  0.00000000000E+00 0.  1.
        -11    1    1    2    0    0  0.52265454335E+01 -0.12247203799E+01  0.17815217470E+03  0.17823303304E+03  0.00000000000E+00 0. -1.
         11    1    1    2    0    0  0.27894076342E+01 -0.92160512501E+00 -0.17682112259E+03  0.17684552452E+03  0.00000000000E+00 0.  1.
        -15    1    1    2    0    0 -0.99312962296E+00  0.67270593117E+00 -0.13412125934E+01  0.25289167520E+01  0.17770000000E+01 0. -1.
         15    1    1    2    0    0 -0.70228234448E+01  0.14736195737E+01  0.10160480985E-01  0.73925256861E+01  0.17770000000E+01 0. -1.
</event>
<event>
 6    1  0.1045352E-002  0.2054764E+03  0.7546771E-02  0.1051507E+00
        -11   -1    0    0    0    0  0.00000000000E+00  0.00000000000E+00  0.18250000000E+03  0.18250000000E+03  0.00000000000E+00 0.  1.
         11   -1    0    0    0    0 -0.00000000000E+00 -0.00000000000E+00 -0.18250000000E+03  0.18250000000E+03  0.00000000000E+00 0.  1.
        -11    1    1    2    0    0  0.14844942516E+01 -0.17543017371E+01  0.13883068921E+03  0.13884970855E+03  0.00000000000E+00 0.  1.
         11    1    1    2    0    0  0.45833676183E+01  0.14490954179E+00 -0.15945764483E+03  0.15952356801E+03  0.00000000000E+00 0.  1.
        -15    1    1    2    0    0 -0.13767852140E+02 -0.10334778710E+01  0.41702089454E+02  0.43964119722E+02  0.17770000000E+01 0.  1.
         15    1    1    2    0    0  0.76999902702E+01  0.26428700663E+01 -0.21075133832E+02  0.22662603720E+02  0.17770000000E+01 0. -1.
</event>
<event>
 6    1  0.1045352E-002  0.1893245E+03  0.7546771E-02  0.1063149E+00
        -11   -1    0    0    0    0  0.00000000000E+00  0.00000000000E+00  0.18250000000E+03  0.18250000000E+03  0.00000000000E+00 0. -1.
         11   -1    0    0    0    0 -0.00000000000E+00 -0.00000000000E+00 -0.18250000000E+03  0.18250000000E+03  0.00000000000E+00 0.  1.
        -11    1    1    2    0    0  0.38534875871E+00  0.28044268722E+01  0.17409965720E+03  0.17412266923E+03  0.00000000000E+00 0. -1.
         11    1    1    2    0    0 -0.21208257711E+00 -0.33093975404E+01 -0.17564424560E+03  0.17567554782E+03  0.00000000000E+00 0.  1.
        -15    1    1    2    0    0 -0.15509320884E+00  0.20941877160E+01 -0.63685694452E+01  0.69372964382E+01  0.17770000000E+01 0. -1.
         15    1    1    2    0    0 -0.18172972768E-01 -0.15892170478E+01  0.79131578459E+01  0.82644865041E+01  0.17770000000E+01 0. -1.
</event>
<event>
 6    1  0.1045352E-002  0.1857342E+03  0.7546771E-02  0.1065909E+00
        -11   -1    0    0    0    0  0.00000000000E+00  0.00000000000E+00  0.18250000000E+03  0.18250000000E+03  0.00000000000E+00 0.  1.
         11   -1    0    0    0    0 -0.00000000000E+00 -0.00000000000E+00 -0.18250000000E+03  0.18250000000E+03  0.00000000000E+00 0.  1.
        -11    1    1    2    0    0 -0.47916630276E+01  0.17819303915E+01  0.16044686720E+03  0.16052829191E+03  0.00000000000E+00 0.  1.
         11    1    1    2    0    0  0.25053918848E+01  0.93486026607E+01 -0.17900438562E+03  0.17926584570E+03  0.00000000000E+00 0.  1.
        -15    1    1    2    0    0  0.19909012574E+01 -0.64766229974E+01  0.11518561672E+01  0.70989319547E+01  0.17770000000E+01 0.  1.
         15    1    1    2    0    0  0.29536988542E+00 -0.46539100548E+01  0.17405662258E+02  0.18106930436E+02  0.17770000000E+01 0. -1.
</event>
<event>
 6    1  0.1045352E-002  0.1518504E+03  0.7546771E-02  0.1095863E+00
        -11   -1    0    0    0    0  0.00000000000E+00  0.00000000000E+00  0.18250000000E+03  0.18250000000E+03  0.00000000000E+00 0.  1.
         11   -1    0    0    0    0 -0.00000000000E+00 -0.00000000000E+00 -0.18250000000E+03  0.18250000000E+03  0.00000000000E+00 0. -1.
        -11    1    1    2    0    0 -0.16564718091E+02  0.15892231131E+02  0.15888254101E+03  0.16053228564E+03  0.00000000000E+00 0.  1.
         11    1    1    2    0    0 -0.13095399320E+01  0.61956051473E+01 -0.14468657351E+03  0.14482508406E+03  0.00000000000E+00 0. -1.
        -15    1    1    2    0    0  0.63451123622E+01 -0.32944007205E+01 -0.31000483009E+02  0.31863791406E+02  0.17770000000E+01 0.  1.
         15    1    1    2    0    0  0.11529145660E+02 -0.18793435558E+02  0.16804515515E+02  0.27778838896E+02  0.17770000000E+01 0.  1.
</event>
<event>
 6    1  0.1045352E-002  0.1842987E+03  0.7546771E-02  0.1067032E+00
        -11   -1    0    0    0    0  0.00000000000E+00  0.00000000000E+00  0.18250000000E+03  0.18250000000E+03  0.00000000000E+00 0. -1.
         11   -1    0    0    0    0 -0.00000000000E+00 -0.00000000000E+00 -0.18250000000E+03  0.18250000000E+03  0.00000000000E+00 0. -1.
        -11    1    1    2    0    0 -0.18820017506E+01  0.26943694715E+01  0.18067139725E+03  0.18070128760E+03  0.00000000000E+00 0. -1.
         11    1    1    2    0    0  0.21048139525E+01 -0.20275770768E+01 -0.17025436479E+03  0.17027944691E+03  0.00000000000E+00 0. -1.
        -15    1    1    2    0    0 -0.16921130794E+01  0.28970761627E+01 -0.86023629656E+01  0.94029077714E+01  0.17770000000E+01 0.  1.
         15    1    1    2    0    0  0.14693008775E+01 -0.35638685574E+01 -0.18146694950E+01  0.46163577135E+01  0.17770000000E+01 0. -1.
</event>
<event>
 6    1  0.1045352E-002  0.1878518E+03  0.7546771E-02  0.1064273E+00
        -11   -1    0    0    0    0  0.00000000000E+00  0.00000000000E+00  0.18250000000E+03  0.18250000000E+03  0.00000000000E+00 0.  1.
         11   -1    0    0    0    0 -0.00000000000E+00 -0.00000000000E+00 -0.18250000000E+03  0.18250000000E+03  0.00000000000E+00 0.  1.
        -11    1    1    2    0    0 -0.12704762809E+01  0.14507659867E+00  0.49596776488E+02  0.49613258260E+02  0.00000000000E+00 0.  1.
         11    1    1    2    0    0  0.84453962324E+01 -0.34926751017E+00 -0.17694638962E+03  0.17714816257E+03  0.00000000000E+00 0.  1.
        -15    1    1    2    0    0 -0.11880345601E+01  0.18819284567E+02  0.11123996883E+03  0.11284088484E+03  0.17770000000E+01 0.  1.
         15    1    1    2    0    0 -0.59868853915E+01 -0.18615093656E+02  0.16109644297E+02  0.25397694322E+02  0.17770000000E+01 0. -1.
</event>
<event>
 6    1  0.1045352E-002  0.1836964E+03  0.7546771E-02  0.1067506E+00
        -11   -1    0    0    0    0  0.00000000000E+00  0.00000000000E+00  0.18250000000E+03  0.18250000000E+03  0.00000000000E+00 0.  1.
         11   -1    0    0    0    0 -0.00000000000E+00 -0.00000000000E+00 -0.18250000000E+03  0.18250000000E+03  0.00000000000E+00 0.  1.
        -11    1    1    2    0    0  0.60073395337E+01 -0.82383135887E+00  0.15753325974E+03  0.15764991199E+03  0.00000000000E+00 0.  1.
         11    1    1    2    0    0 -0.11871388761E+02 -0.63489206841E+01 -0.18080311646E+03  0.18130362817E+03  0.00000000000E+00 0.  1.
        -15    1    1    2    0    0  0.17550333057E+01  0.16293284460E+01  0.14214023550E+02  0.14523465412E+02  0.17770000000E+01 0.  1.
         15    1    1    2    0    0  0.41090159218E+01  0.55434235970E+01  0.90558331709E+01  0.11522994422E+02  0.17770000000E+01 0. -1.
</event>
<event>
 6    1  0.1045352E-002  0.1878991E+03  0.7546771E-02  0.1064237E+00
        -11   -1    0    0    0    0  0.00000000000E+00  0.00000000000E+00  0.18250000000E+03  0.18250000000E+03  0.00000000000E+00 0. -1.
         11   -1    0    0    0    0 -0.00000000000E+00 -0.00000000000E+00 -0.18250000000E+03  0.18250000000E+03  0.00000000000E+00 0. -1.
        -11    1    1    2    0    0  0.26249608500E+01  0.10782106936E+01  0.15764469341E+03  0.15767023282E+03  0.00000000000E+00 0. -1.
         11    1    1    2    0    0  0.10899564552E+02 -0.47903882494E+01 -0.17670027168E+03  0.17710091569E+03  0.00000000000E+00 0. -1.
        -15    1    1    2    0    0 -0.65576552124E+01  0.30103234723E+01 -0.22236858420E+01  0.77567645972E+01  0.17770000000E+01 0. -1.
         15    1    1    2    0    0 -0.69668701895E+01  0.70185408349E+00  0.21279264110E+02  0.22472086896E+02  0.17770000000E+01 0.  1.
</event>
<event>
 6    1  0.1045352E-002  0.1866441E+03  0.7546771E-02  0.1065203E+00
        -11   -1    0    0    0    0  0.00000000000E+00  0.00000000000E+00  0.18250000000E+03  0.18250000000E+03  0.00000000000E+00 0.  1.
         11   -1    0    0    0    0 -0.00000000000E+00 -0.00000000000E+00 -0.18250000000E+03  0.18250000000E+03  0.00000000000E+00 0.  1.
        -11    1    1    2    0    0 -0.22331549891E+01 -0.13852958132E+01  0.17833650416E+03  0.17835586545E+03  0.00000000000E+00 0.  1.
         11    1    1    2    0    0  0.32528484585E+00  0.42723640679E+01 -0.17372302762E+03  0.17377585917E+03  0.00000000000E+00 0.  1.
        -15    1    1    2    0    0 -0.23282697982E+01 -0.39220819195E+01 -0.61998463562E+01  0.78993284953E+01  0.17770000000E+01 0. -1.
         15    1    1    2    0    0  0.42361399414E+01  0.10350136647E+01  0.15863698169E+01  0.49689468789E+01  0.17770000000E+01 0. -1.
</event>
<event>
 6    1  0.1045352E-002  0.1891357E+03  0.7546771E-02  0.1063292E+00
        -11   -1    0    0    0    0  0.00000000000E+00  0.00000000000E+00  0.18250000000E+03  0.18250000000E+03  0.00000000000E+00 0. -1.
         11   -1    0    0    0    0 -0.00000000000E+00 -0.00000000000E+00 -0.18250000000E+03  0.18250000000E+03  0.00000000000E+00 0.  1.
        -11    1    1    2    0    0 -0.13912477814E+01  0.41030947484E+01  0.16523328680E+03  0.16529007842E+03  0.00000000000E+00 0. -1.
         11    1    1    2    0    0  0.29131352674E+01  0.48296609804E+01 -0.17577387061E+03  0.17586433854E+03  0.00000000000E+00 0.  1.
        -15    1    1    2    0    0  0.67746770922E+01  0.15581821857E+01  0.67002461366E+01  0.98170875884E+01  0.17770000000E+01 0.  1.
         15    1    1    2    0    0 -0.82965645783E+01 -0.10490937914E+02  0.38403376767E+01  0.14028495450E+02  0.17770000000E+01 0. -1.
</event>
<event>
 6    1  0.1045352E-002  0.1829317E+03  0.7546771E-02  0.1068112E+00
        -11   -1    0    0    0    0  0.00000000000E+00  0.00000000000E+00  0.18250000000E+03  0.18250000000E+03  0.00000000000E+00 0. -1.
         11   -1    0    0    0    0 -0.00000000000E+00 -0.00000000000E+00 -0.18250000000E+03  0.18250000000E+03  0.00000000000E+00 0.  1.
        -11    1    1    2    0    0  0.19075901858E+00 -0.33387932024E+01  0.18203758076E+03  0.18206829691E+03  0.00000000000E+00 0. -1.
         11    1    1    2    0    0 -0.29490107030E+00  0.41005615415E+01 -0.99552268129E+02  0.99637119896E+02  0.00000000000E+00 0.  1.
        -15    1    1    2    0    0 -0.88351675601E+00 -0.28556119394E+01 -0.77023356058E+02  0.77101817286E+02  0.17770000000E+01 0. -1.
         15    1    1    2    0    0  0.98765880773E+00  0.20938436003E+01 -0.54619565767E+01  0.61927659078E+01  0.17770000000E+01 0.  1.
</event>
<event>
 6    1  0.1045352E-002  0.1843397E+03  0.7546771E-02  0.1067000E+00
        -11   -1    0    0    0    0  0.00000000000E+00  0.00000000000E+00  0.18250000000E+03  0.18250000000E+03  0.00000000000E+00 0.  1.
         11   -1    0    0    0    0 -0.00000000000E+00 -0.00000000000E+00 -0.18250000000E+03  0.18250000000E+03  0.00000000000E+00 0. -1.
        -11    1    1    2    0    0 -0.13332552851E+01  0.18454448842E+01  0.14945527293E+03  0.14947261235E+03  0.00000000000E+00 0.  1.
         11    1    1    2    0    0 -0.10162754233E+02  0.12382271133E+00 -0.18037421724E+03  0.18066033087E+03  0.00000000000E+00 0. -1.
        -15    1    1    2    0    0  0.11249394108E+02  0.21754437858E+01  0.22639195538E+02  0.25435650711E+02  0.17770000000E+01 0. -1.
         15    1    1    2    0    0  0.24661540930E+00 -0.41447113813E+01  0.82797487752E+01  0.94314060656E+01  0.17770000000E+01 0. -1.
</event>
<event>
 6    1  0.1045352E-002  0.1840411E+03  0.7546771E-02  0.1067235E+00
        -11   -1    0    0    0    0  0.00000000000E+00  0.00000000000E+00  0.18250000000E+03  0.18250000000E+03  0.00000000000E+00 0.  1.
         11   -1    0    0    0    0 -0.00000000000E+00 -0.00000000000E+00 -0.18250000000E+03  0.18250000000E+03  0.00000000000E+00 0. -1.
        -11    1    1    2    0    0 -0.25634262501E+01  0.21733381149E+01  0.18092773737E+03  0.18095894756E+03  0.00000000000E+00 0.  1.
         11    1    1    2    0    0  0.71810025441E+00  0.54205365575E+01 -0.15772634490E+03  0.15782109416E+03  0.00000000000E+00 0. -1.
        -15    1    1    2    0    0 -0.31589551403E+00 -0.12955485208E+01 -0.22600214841E+00  0.22331685822E+01  0.17770000000E+01 0. -1.
         15    1    1    2    0    0  0.21612215097E+01 -0.62983261516E+01 -0.22975390319E+02  0.23986789699E+02  0.17770000000E+01 0.  1.
</event>
<event>
 6    1  0.1045352E-002  0.1732601E+03  0.7546771E-02  0.1076057E+00
        -11   -1    0    0    0    0  0.00000000000E+00  0.00000000000E+00  0.18250000000E+03  0.18250000000E+03  0.00000000000E+00 0.  1.
         11   -1    0    0    0    0 -0.00000000000E+00 -0.00000000000E+00 -0.18250000000E+03  0.18250000000E+03  0.00000000000E+00 0. -1.
        -11    1    1    2    0    0 -0.29675137149E+01 -0.21169951413E+01  0.17257900752E+03  0.17261750097E+03  0.00000000000E+00 0.  1.
         11    1    1    2    0    0  0.34276651406E+01 -0.62053020852E+01 -0.17386083077E+03  0.17400529630E+03  0.00000000000E+00 0. -1.
        -15    1    1    2    0    0 -0.30989066111E+01  0.50624415078E+01 -0.67382814839E+01  0.91538900234E+01  0.17770000000E+01 0. -1.
         15    1    1    2    0    0  0.26387551854E+01  0.32598557187E+01  0.80201047403E+01  0.92233127064E+01  0.17770000000E+01 0. -1.
</event>
<event>
 6    1  0.1045352E-002  0.1826289E+03  0.7546771E-02  0.1068352E+00
        -11   -1    0    0    0    0  0.00000000000E+00  0.00000000000E+00  0.18250000000E+03  0.18250000000E+03  0.00000000000E+00 0.  1.
         11   -1    0    0    0    0 -0.00000000000E+00 -0.00000000000E+00 -0.18250000000E+03  0.18250000000E+03  0.00000000000E+00 0.  1.
        -11    1    1    2    0    0 -0.29467163434E+01  0.37595889256E+01  0.18230855679E+03  0.18237112580E+03  0.00000000000E+00 0.  1.
         11    1    1    2    0    0  0.94755194384E+00 -0.48020484846E-01 -0.70207466780E+02  0.70213877207E+02  0.00000000000E+00 0.  1.
        -15    1    1    2    0    0  0.63874714913E+00 -0.15593763741E+01 -0.11132619000E+02  0.11398797629E+02  0.17770000000E+01 0. -1.
         15    1    1    2    0    0  0.13604172504E+01 -0.21521920666E+01 -0.10096847101E+03  0.10101619936E+03  0.17770000000E+01 0.  1.
</event>
<event>
 6    1  0.1045352E-002  0.1838438E+03  0.7546771E-02  0.1067390E+00
        -11   -1    0    0    0    0  0.00000000000E+00  0.00000000000E+00  0.18250000000E+03  0.18250000000E+03  0.00000000000E+00 0.  1.
         11   -1    0    0    0    0 -0.00000000000E+00 -0.00000000000E+00 -0.18250000000E+03  0.18250000000E+03  0.00000000000E+00 0.  1.
        -11    1    1    2    0    0 -0.16522489148E+01  0.54081321615E+00  0.11003048266E+03  0.11004421621E+03  0.00000000000E+00 0.  1.
         11    1    1    2    0    0  0.12141342468E+01 -0.21185040113E+01 -0.18113970200E+03  0.18115615867E+03  0.00000000000E+00 0.  1.
        -15    1    1    2    0    0  0.45988644087E+01  0.23206124962E+01  0.68094919489E+02  0.68312594632E+02  0.17770000000E+01 0. -1.
         15    1    1    2    0    0 -0.41607497407E+01 -0.74292170106E+00  0.30142998503E+01  0.54870304943E+01  0.17770000000E+01 0.  1.
</event>
<event>
 6    1  0.1045352E-002  0.1832889E+03  0.7546771E-02  0.1067829E+00
        -11   -1    0    0    0    0  0.00000000000E+00  0.00000000000E+00  0.18250000000E+03  0.18250000000E+03  0.00000000000E+00 0. -1.
         11   -1    0    0    0    0 -0.00000000000E+00 -0.00000000000E+00 -0.18250000000E+03  0.18250000000E+03  0.00000000000E+00 0.  1.
        -11    1    1    2    0    0  0.20509585421E+01  0.86713849050E+00  0.13973986696E+03  0.13975760723E+03  0.00000000000E+00 0. -1.
         11    1    1    2    0    0  0.87320601052E+00  0.35232683701E+01 -0.18167483122E+03  0.18171108994E+03  0.00000000000E+00 0.  1.
        -15    1    1    2    0    0 -0.59599417533E+01 -0.22715957364E+00  0.21616228501E+02  0.22494256396E+02  0.17770000000E+01 0.  1.
         15    1    1    2    0    0  0.30357772007E+01 -0.41632472870E+01  0.20318735754E+02  0.21037046438E+02  0.17770000000E+01 0. -1.
</event>
<event>
 6    1  0.1045352E-002  0.1844924E+03  0.7546771E-02  0.1066880E+00
        -11   -1    0    0    0    0  0.00000000000E+00  0.00000000000E+00  0.18250000000E+03  0.18250000000E+03  0.00000000000E+00 0.  1.
         11   -1    0    0    0    0 -0.00000000000E+00 -0.00000000000E+00 -0.18250000000E+03  0.18250000000E+03  0.00000000000E+00 0.  1.
        -11    1    1    2    0    0 -0.46075392217E+01  0.72785484723E+00  0.13347966519E+03  0.13356114783E+03  0.00000000000E+00 0.  1.
         11    1    1    2    0    0  0.16772040724E+01 -0.44539758658E+01 -0.18044487377E+03  0.18050762694E+03  0.00000000000E+00 0.  1.
        -15    1    1    2    0    0  0.31230567832E+01 -0.16860072376E+01  0.44573884778E+02  0.44750251813E+02  0.17770000000E+01 0. -1.
         15    1    1    2    0    0 -0.19272163383E+00  0.54121282562E+01  0.23913237981E+01  0.61809734182E+01  0.17770000000E+01 0.  1.
</event>
<event>
 6    1  0.1045352E-002  0.1840836E+03  0.7546771E-02  0.1067201E+00
        -11   -1    0    0    0    0  0.00000000000E+00  0.00000000000E+00  0.18250000000E+03  0.18250000000E+03  0.00000000000E+00 0.  1.
         11   -1    0    0    0    0 -0.00000000000E+00 -0.00000000000E+00 -0.18250000000E+03  0.18250000000E+03  0.00000000000E+00 0.  1.
        -11    1    1    2    0    0  0.26841569073E+01  0.97850215801E+01  0.14448324211E+03  0.14483907828E+03  0.00000000000E+00 0.  1.
         11    1    1    2    0    0  0.24246662792E+01  0.22028862770E+01 -0.18088677900E+03  0.18091644074E+03  0.00000000000E+00 0.  1.
        -15    1    1    2    0    0 -0.38040884925E+01 -0.70919574700E+01  0.14365530509E+02  0.16561797783E+02  0.17770000000E+01 0. -1.
         15    1    1    2    0    0 -0.13047346940E+01 -0.48959503872E+01  0.22038006375E+02  0.22682683193E+02  0.17770000000E+01 0. -1.
</event>
<event>
 6    1  0.1045352E-002  0.1761076E+03  0.7546771E-02  0.1073660E+00
        -11   -1    0    0    0    0  0.00000000000E+00  0.00000000000E+00  0.18250000000E+03  0.18250000000E+03  0.00000000000E+00 0.  1.
         11   -1    0    0    0    0 -0.00000000000E+00 -0.00000000000E+00 -0.18250000000E+03  0.18250000000E+03  0.00000000000E+00 0.  1.
        -11    1    1    2    0    0  0.15967105483E+01  0.21449777420E+01  0.17812568554E+03  0.17814575567E+03  0.00000000000E+00 0.  1.
         11    1    1    2    0    0  0.61244134974E+01 -0.38034044041E+01 -0.17403239214E+03  0.17418165185E+03  0.00000000000E+00 0.  1.
        -15    1    1    2    0    0  0.10052405352E+01  0.12615441934E+01 -0.27626935292E+01  0.36595364217E+01  0.17770000000E+01 0.  1.
         15    1    1    2    0    0 -0.87263645810E+01  0.39688246864E+00 -0.13305998733E+01  0.90130560587E+01  0.17770000000E+01 0.  1.
</event>
<event>
 6    1  0.1045352E-002  0.1112315E+03  0.7546771E-02  0.1145695E+00
        -11   -1    0    0    0    0  0.00000000000E+00  0.00000000000E+00  0.18250000000E+03  0.18250000000E+03  0.00000000000E+00 0. -1.
         11   -1    0    0    0    0 -0.00000000000E+00 -0.00000000000E+00 -0.18250000000E+03  0.18250000000E+03  0.00000000000E+00 0.  1.
        -11    1    1    2    0    0 -0.18418653909E+01  0.17833347393E+00  0.69326250954E+02  0.69350943341E+02  0.00000000000E+00 0. -1.
         11    1    1    2    0    0 -0.15588518486E+02 -0.87335430323E+01 -0.14865730823E+03  0.14972732541E+03  0.00000000000E+00 0.  1.
        -15    1    1    2    0    0 -0.14606473066E+02  0.52491263074E+02  0.73059365187E+02  0.91156515538E+02  0.17770000000E+01 0. -1.
         15    1    1    2    0    0  0.32036856943E+02 -0.43936053516E+02  0.62716920933E+01  0.54765215713E+02  0.17770000000E+01 0.  1.
</event>
<event>
 6    1  0.1045352E-002  0.1870788E+03  0.7546771E-02  0.1064867E+00
        -11   -1    0    0    0    0  0.00000000000E+00  0.00000000000E+00  0.18250000000E+03  0.18250000000E+03  0.00000000000E+00 0.  1.
         11   -1    0    0    0    0 -0.00000000000E+00 -0.00000000000E+00 -0.18250000000E+03  0.18250000000E+03  0.00000000000E+00 0.  1.
        -11    1    1    2    0    0 -0.88207381565E+01  0.32461856554E+00  0.17770211232E+03  0.17792119470E+03  0.00000000000E+00 0.  1.
         11    1    1    2    0    0  0.11700319712E+01 -0.13866933557E+01 -0.10604703924E+03  0.10606255901E+03  0.00000000000E+00 0.  1.
        -15    1    1    2    0    0  0.47058224372E+01 -0.61059081497E+01  0.95834085799E+00  0.79688785499E+01  0.17770000000E+01 0. -1.
         15    1    1    2    0    0  0.29448837481E+01  0.71679829399E+01 -0.72613413942E+02  0.73047367736E+02  0.17770000000E+01 0.  1.
</event>
<event>
 6    1  0.1045352E-002  0.1836739E+03  0.7546771E-02  0.1067524E+00
        -11   -1    0    0    0    0  0.00000000000E+00  0.00000000000E+00  0.18250000000E+03  0.18250000000E+03  0.00000000000E+00 0. -1.
         11   -1    0    0    0    0 -0.00000000000E+00 -0.00000000000E+00 -0.18250000000E+03  0.18250000000E+03  0.00000000000E+00 0. -1.
        -11    1    1    2    0    0 -0.19431824376E+01 -0.19798488922E+01  0.16470050668E+03  0.16472386791E+03  0.00000000000E+00 0. -1.
         11    1    1    2    0    0 -0.40761050135E+01 -0.20885944968E+00 -0.18128017827E+03  0.18132611861E+03  0.00000000000E+00 0. -1.
        -15    1    1    2    0    0  0.10101514503E+01 -0.16428720815E+01  0.49393275090E+01  0.55923268744E+01  0.17770000000E+01 0.  1.
         15    1    1    2    0    0  0.50091360008E+01  0.38315804234E+01  0.11640344086E+02  0.13357686605E+02  0.17770000000E+01 0. -1.
</event>
<event>
 6    1  0.1045352E-002  0.1843314E+03  0.7546771E-02  0.1067006E+00
        -11   -1    0    0    0    0  0.00000000000E+00  0.00000000000E+00  0.18250000000E+03  0.18250000000E+03  0.00000000000E+00 0.  1.
         11   -1    0    0    0    0 -0.00000000000E+00 -0.00000000000E+00 -0.18250000000E+03  0.18250000000E+03  0.00000000000E+00 0.  1.
        -11    1    1    2    0    0  0.23909380060E+01  0.32094049582E+00  0.12900304042E+03  0.12902559446E+03  0.00000000000E+00 0.  1.
         11    1    1    2    0    0 -0.40699708066E+01  0.64727176971E+01 -0.18050677858E+03  0.18066864103E+03  0.00000000000E+00 0.  1.
        -15    1    1    2    0    0 -0.54155697274E+01 -0.51691481307E+01  0.44122840153E+02  0.44788740104E+02  0.17770000000E+01 0. -1.
         15    1    1    2    0    0  0.70946025280E+01 -0.16245100622E+01  0.73808980095E+01  0.10517024408E+02  0.17770000000E+01 0.  1.
</event>
<event>
 6    1  0.1045352E-002  0.1883914E+03  0.7546771E-02  0.1063860E+00
        -11   -1    0    0    0    0  0.00000000000E+00  0.00000000000E+00  0.18250000000E+03  0.18250000000E+03  0.00000000000E+00 0. -1.
         11   -1    0    0    0    0 -0.00000000000E+00 -0.00000000000E+00 -0.18250000000E+03  0.18250000000E+03  0.00000000000E+00 0.  1.
        -11    1    1    2    0    0 -0.32367716366E+01 -0.23887400378E+01  0.17656274727E+03  0.17660856857E+03  0.00000000000E+00 0. -1.
         11    1    1    2    0    0  0.92980216269E+00  0.45874032412E+01 -0.17207337257E+03  0.17213702202E+03  0.00000000000E+00 0.  1.
        -15    1    1    2    0    0 -0.53106862636E+00 -0.42580625918E+01 -0.90871229793E+01  0.10205227286E+02  0.17770000000E+01 0.  1.
         15    1    1    2    0    0  0.28380381003E+01  0.20593993884E+01  0.45977482828E+01  0.60491821242E+01  0.17770000000E+01 0.  1.
</event>
<event>
 6    1  0.1045352E-002  0.1854085E+03  0.7546771E-02  0.1066163E+00
        -11   -1    0    0    0    0  0.00000000000E+00  0.00000000000E+00  0.18250000000E+03  0.18250000000E+03  0.00000000000E+00 0.  1.
         11   -1    0    0    0    0 -0.00000000000E+00 -0.00000000000E+00 -0.18250000000E+03  0.18250000000E+03  0.00000000000E+00 0. -1.
        -11    1    1    2    0    0 -0.25283726878E+01 -0.18896679837E+01  0.17956375091E+03  0.17959149243E+03  0.00000000000E+00 0.  1.
         11    1    1    2    0    0 -0.19573614878E+01 -0.43261796950E+01 -0.79351921164E+02  0.79493864463E+02  0.00000000000E+00 0. -1.
        -15    1    1    2    0    0  0.26100387779E+01 -0.10717606562E+02 -0.13484869358E+02  0.17512247812E+02  0.17770000000E+01 0.  1.
         15    1    1    2    0    0  0.18756953977E+01  0.16933454241E+02 -0.86726960389E+02  0.88402395291E+02  0.17770000000E+01 0. -1.
</event>
<event>
 6    1  0.1045352E-002  0.1719773E+03  0.7546771E-02  0.1077154E+00
        -11   -1    0    0    0    0  0.00000000000E+00  0.00000000000E+00  0.18250000000E+03  0.18250000000E+03  0.00000000000E+00 0.  1.
         11   -1    0    0    0    0 -0.00000000000E+00 -0.00000000000E+00 -0.18250000000E+03  0.18250000000E+03  0.00000000000E+00 0.  1.
        -11    1    1    2    0    0  0.10510227067E+01  0.47870991621E+01  0.16981808468E+03  0.16988879555E+03  0.00000000000E+00 0.  1.
         11    1    1    2    0    0 -0.79658426420E+01 -0.68691831709E+01 -0.17384732367E+03  0.17416524416E+03  0.00000000000E+00 0.  1.
        -15    1    1    2    0    0  0.87849700439E+01  0.72649885696E+01 -0.29198401514E+01  0.11901216455E+02  0.17770000000E+01 0. -1.
         15    1    1    2    0    0 -0.18701501086E+01 -0.51829045608E+01  0.69490791422E+01  0.90447438349E+01  0.17770000000E+01 0. -1.
</event>
<event>
 6    1  0.1045352E-002  0.1827596E+03  0.7546771E-02  0.1068248E+00
        -11   -1    0    0    0    0  0.00000000000E+00  0.00000000000E+00  0.18250000000E+03  0.18250000000E+03  0.00000000000E+00 0. -1.
         11   -1    0    0    0    0 -0.00000000000E+00 -0.00000000000E+00 -0.18250000000E+03  0.18250000000E+03  0.00000000000E+00 0.  1.
        -11    1    1    2    0    0 -0.99562176595E+00 -0.29129973313E+00  0.68255627419E+02  0.68263509964E+02  0.00000000000E+00 0. -1.
         11    1    1    2    0    0 -0.32770890941E+01  0.42993831917E+00 -0.18221046638E+03  0.18224044067E+03  0.00000000000E+00 0.  1.
        -15    1    1    2    0    0  0.57488571070E+01 -0.16406870232E+00  0.35464810336E+02  0.35972027713E+02  0.17770000000E+01 0. -1.
         15    1    1    2    0    0 -0.14761462469E+01  0.25430116281E-01  0.78490028620E+02  0.78524021650E+02  0.17770000000E+01 0. -1.
</event>
<event>
 6    1  0.1045352E-002  0.1847139E+03  0.7546771E-02  0.1066706E+00
        -11   -1    0    0    0    0  0.00000000000E+00  0.00000000000E+00  0.18250000000E+03  0.18250000000E+03  0.00000000000E+00 0.  1.
         11   -1    0    0    0    0 -0.00000000000E+00 -0.00000000000E+00 -0.18250000000E+03  0.18250000000E+03  0.00000000000E+00 0. -1.
        -11    1    1    2    0    0  0.11110938011E+01 -0.11173921666E+01  0.97614509058E+02  0.97627227110E+02  0.00000000000E+00 0.  1.
         11    1    1    2    0    0 -0.13588113134E+01  0.57429754568E+01 -0.18018945267E+03  0.18028606987E+03  0.00000000000E+00 0. -1.
        -15    1    1    2    0    0 -0.12348710418E+02 -0.31152381036E+01  0.25109006623E+02  0.28210198510E+02  0.17770000000E+01 0. -1.
         15    1    1    2    0    0  0.12596427930E+02 -0.15103451866E+01  0.57465936994E+02  0.58876504506E+02  0.17770000000E+01 0.  1.
</event>
<event>
 6    1  0.1045352E-002  0.1840767E+03  0.7546771E-02  0.1067207E+00
        -11   -1    0    0    0    0  0.00000000000E+00  0.00000000000E+00  0.18250000000E+03  0.18250000000E+03  0.00000000000E+00 0.  1.
         11   -1    0    0    0    0 -0.00000000000E+00 -0.00000000000E+00 -0.18250000000E+03  0.18250000000E+03  0.00000000000E+00 0.  1.
        -11    1    1    2    0    0 -0.30846161612E+01  0.23656807731E+01  0.18088154026E+03  0.18092330671E+03  0.00000000000E+00 0.  1.
         11    1    1    2    0    0  0.33170252626E+01 -0.33258007948E+01 -0.16981737126E+03  0.16988232159E+03  0.00000000000E+00 0.  1.
        -15    1    1    2    0    0 -0.30304494387E+01  0.38092455466E+00 -0.10090716044E+02  0.10691539019E+02  0.17770000000E+01 0. -1.
         15    1    1    2    0    0  0.27980403373E+01  0.57919546712E+00 -0.97345296177E+00  0.35028326804E+01  0.17770000000E+01 0.  1.
</event>
<event>
 6    1  0.1045352E-002  0.1845883E+03  0.7546771E-02  0.1066805E+00
        -11   -1    0    0    0    0  0.00000000000E+00  0.00000000000E+00  0.18250000000E+03  0.18250000000E+03  0.00000000000E+00 0. -1.
         11   -1    0    0    0    0 -0.00000000000E+00 -0.00000000000E+00 -0.18250000000E+03  0.18250000000E+03  0.00000000000E+00 0.  1.
        -11    1    1    2    0    0  0.36384693289E+01 -0.40320052136E+01  0.18032991051E+03  0.18041167410E+03  0.00000000000E+00 0. -1.
         11    1    1    2    0    0  0.92751371467E+00 -0.23570203992E+01 -0.16454870920E+03  0.16456820326E+03  0.00000000000E+00 0.  1.
        -15    1    1    2    0    0 -0.50795688916E+00  0.97665794893E-01 -0.10560895269E+02  0.10721837374E+02  0.17770000000E+01 0. -1.
         15    1    1    2    0    0 -0.40580261544E+01  0.62913598180E+01 -0.52203060470E+01  0.92982852642E+01  0.17770000000E+01 0. -1.
</event>
<event>
 6    1  0.1045352E-002  0.1826224E+03  0.7546771E-02  0.1068357E+00
        -11   -1    0    0    0    0  0.00000000000E+00  0.00000000000E+00  0.18250000000E+03  0.18250000000E+03  0.00000000000E+00 0. -1.
         11   -1    0    0    0    0 -0.00000000000E+00 -0.00000000000E+00 -0.18250000000E+03  0.18250000000E+03  0.00000000000E+00 0.  1.
        -11    1    1    2    0    0 -0.86032308056E+00  0.86885985166E+00  0.51834893238E+02  0.51849312727E+02  0.00000000000E+00 0. -1.
         11    1    1    2    0    0  0.38258772845E+01 -0.13457475266E+01 -0.18233252996E+03  0.18237762981E+03  0.00000000000E+00 0.  1.
        -15    1    1    2    0    0  0.14383116613E+01  0.10772814465E+01  0.18338184369E+02  0.18511510222E+02  0.17770000000E+01 0. -1.
         15    1    1    2    0    0 -0.44038658652E+01 -0.60039377158E+00  0.11215945235E+03  0.11226154724E+03  0.17770000000E+01 0. -1.
</event>
<event>
 6    1  0.1045352E-002  0.1843343E+03  0.7546771E-02  0.1067004E+00
        -11   -1    0    0    0    0  0.00000000000E+00  0.00000000000E+00  0.18250000000E+03  0.18250000000E+03  0.00000000000E+00 0.  1.
         11   -1    0    0    0    0 -0.00000000000E+00 -0.00000000000E+00 -0.18250000000E+03  0.18250000000E+03  0.00000000000E+00 0.  1.
        -11    1    1    2    0    0  0.64122855349E+01  0.45316661139E+00  0.16831593633E+03  0.16843864517E+03  0.00000000000E+00 0.  1.
         11    1    1    2    0    0 -0.17965854289E+01  0.48693066024E+01 -0.18059118262E+03  0.18066574967E+03  0.00000000000E+00 0.  1.
        -15    1    1    2    0    0 -0.10645466481E+01 -0.13811528397E+01  0.91591600452E+01  0.94915111793E+01  0.17770000000E+01 0.  1.
         15    1    1    2    0    0 -0.35511534579E+01 -0.39413203741E+01  0.31160862447E+01  0.64040939763E+01  0.17770000000E+01 0. -1.
</event>
<event>
 6    1  0.1045352E-002  0.1838323E+03  0.7546771E-02  0.1067399E+00
        -11   -1    0    0    0    0  0.00000000000E+00  0.00000000000E+00  0.18250000000E+03  0.18250000000E+03  0.00000000000E+00 0.  1.
         11   -1    0    0    0    0 -0.00000000000E+00 -0.00000000000E+00 -0.18250000000E+03  0.18250000000E+03  0.00000000000E+00 0.  1.
        -11    1    1    2    0    0 -0.13893449091E+01 -0.32057457246E+01  0.18113403652E+03  0.18116772967E+03  0.00000000000E+00 0.  1.
         11    1    1    2    0    0  0.19013081852E+00 -0.37434331497E+01 -0.88794378675E+02  0.88873455687E+02  0.00000000000E+00 0.  1.
        -15    1    1    2    0    0  0.38383265307E+01  0.61534167536E+00 -0.27352862763E+01  0.50745360326E+01  0.17770000000E+01 0.  1.
         15    1    1    2    0    0 -0.26391124401E+01  0.63338371989E+01 -0.89604371572E+02  0.89884278614E+02  0.17770000000E+01 0. -1.
</event>
<event>
 6    1  0.1045352E-002  0.1828219E+03  0.7546771E-02  0.1068199E+00
        -11   -1    0    0    0    0  0.00000000000E+00  0.00000000000E+00  0.18250000000E+03  0.18250000000E+03  0.00000000000E+00 0. -1.
         11   -1    0    0    0    0 -0.00000000000E+00 -0.00000000000E+00 -0.18250000000E+03  0.18250000000E+03  0.00000000000E+00 0. -1.
        -11    1    1    2    0    0 -0.74346845501E+00 -0.23014566094E+01  0.14383627401E+03  0.14385660628E+03  0.00000000000E+00 0. -1.
         11    1    1    2    0    0 -0.34659779586E+01  0.45552409863E+00 -0.18214459035E+03  0.18217813343E+03  0.00000000000E+00 0. -1.
        -15    1    1    2    0    0  0.47030279557E+00 -0.10066829547E+01  0.10901631984E+02  0.11101256875E+02  0.17770000000E+01 0. -1.
         15    1    1    2    0    0  0.37391436180E+01  0.28526154655E+01  0.27406684358E+02  0.27864003418E+02  0.17770000000E+01 0.  1.
</event>
<event>
 6    1  0.1045352E-002  0.1830851E+03  0.7546771E-02  0.1067990E+00
        -11   -1    0    0    0    0  0.00000000000E+00  0.00000000000E+00  0.18250000000E+03  0.18250000000E+03  0.00000000000E+00 0. -1.
         11   -1    0    0    0    0 -0.00000000000E+00 -0.00000000000E+00 -0.18250000000E+03  0.18250000000E+03  0.00000000000E+00 0. -1.
        -11    1    1    2    0    0 -0.34557111050E+00  0.25135376326E+01  0.18189718287E+03  0.18191487687E+03  0.00000000000E+00 0. -1.
         11    1    1    2    0    0 -0.15859910853E+01  0.22312172534E+01 -0.77720823014E+02  0.77769017148E+02  0.00000000000E+00 0. -1.
        -15    1    1    2    0    0  0.16537305742E+01 -0.17518268010E+01 -0.36125410157E+01  0.46916845101E+01  0.17770000000E+01 0.  1.
         15    1    1    2    0    0  0.27783162161E+00 -0.29929280850E+01 -0.10056381884E+03  0.10062442147E+03  0.17770000000E+01 0. -1.
</event>
<event>
 6    1  0.1045352E-002  0.1827555E+03  0.7546771E-02  0.1068252E+00
        -11   -1    0    0    0    0  0.00000000000E+00  0.00000000000E+00  0.18250000000E+03  0.18250000000E+03  0.00000000000E+00 0. -1.
         11   -1    0    0    0    0 -0.00000000000E+00 -0.00000000000E+00 -0.18250000000E+03  0.18250000000E+03  0.00000000000E+00 0. -1.
        -11    1    1    2    0    0 -0.34775833494E+01  0.15772646556E+01  0.18220448291E+03  0.18224449222E+03  0.00000000000E+00 0. -1.
         11    1    1    2    0    0 -0.21361886522E+01 -0.22435084022E+01 -0.11072721667E+03  0.11077054276E+03  0.00000000000E+00 0. -1.
        -15    1    1    2    0    0  0.60468199922E+01  0.37938927727E+00 -0.62542768916E+02  0.62860668474E+02  0.17770000000E+01 0.  1.
         15    1    1    2    0    0 -0.43304799063E+00  0.28685446932E+00 -0.89344973238E+01  0.91242965470E+01  0.17770000000E+01 0.  1.
</event>
<event>
 6    1  0.1045352E-002  0.1829019E+03  0.7546771E-02  0.1068135E+00
        -11   -1    0    0    0    0  0.00000000000E+00  0.00000000000E+00  0.18250000000E+03  0.18250000000E+03  0.00000000000E+00 0.  1.
         11   -1    0    0    0    0 -0.00000000000E+00 -0.00000000000E+00 -0.18250000000E+03  0.18250000000E+03  0.00000000000E+00 0. -1.
        -11    1    1    2    0    0 -0.29632908717E+01  0.24325381953E+01  0.18205772578E+03  0.18209808855E+03  0.00000000000E+00 0.  1.
         11    1    1    2    0    0 -0.11792541383E+01  0.18648124712E+00 -0.24142715140E+02  0.24172217728E+02  0.00000000000E+00 0. -1.
        -15    1    1    2    0    0 -0.25008600670E+01 -0.24366708466E+01 -0.12691844612E+03  0.12697890124E+03  0.17770000000E+01 0.  1.
         15    1    1    2    0    0  0.66434050770E+01 -0.18234859574E+00 -0.30996564527E+02  0.31750792486E+02  0.17770000000E+01 0. -1.
</event>
<event>
 6    1  0.1045352E-002  0.1873040E+03  0.7546771E-02  0.1064694E+00
        -11   -1    0    0    0    0  0.00000000000E+00  0.00000000000E+00  0.18250000000E+03  0.18250000000E+03  0.00000000000E+00 0. -1.
         11   -1    0    0    0    0 -0.00000000000E+00 -0.00000000000E+00 -0.18250000000E+03  0.18250000000E+03  0.00000000000E+00 0.  1.
        -11    1    1    2    0    0  0.10293859091E+02 -0.60149441176E+00  0.17739654663E+03  0.17769597656E+03  0.00000000000E+00 0. -1.
         11    1    1    2    0    0 -0.12259220679E+01  0.77885933818E+01 -0.16611655163E+03  0.16630355919E+03  0.00000000000E+00 0.  1.
        -15    1    1    2    0    0  0.24832201471E+01 -0.49157186585E+01 -0.32117803819E+01  0.66184540831E+01  0.17770000000E+01 0.  1.
         15    1    1    2    0    0 -0.11551157170E+02 -0.22713803115E+01 -0.80682146116E+01  0.14382010169E+02  0.17770000000E+01 0. -1.
</event>
<event>
 6    1  0.1045352E-002  0.1901666E+03  0.7546771E-02  0.1062511E+00
        -11   -1    0    0    0    0  0.00000000000E+00  0.00000000000E+00  0.18250000000E+03  0.18250000000E+03  0.00000000000E+00 0. -1.
         11   -1    0    0    0    0 -0.00000000000E+00 -0.00000000000E+00 -0.18250000000E+03  0.18250000000E+03  0.00000000000E+00 0.  1.
        -11    1    1    2    0    0  0.21532753560E+01  0.43220309706E+01  0.30928226812E+02  0.31302903383E+02  0.00000000000E+00 0. -1.
         11    1    1    2    0    0 -0.68753165989E+01  0.41452156494E+01 -0.17464901809E+03  0.17483344163E+03  0.00000000000E+00 0.  1.
        -15    1    1    2    0    0  0.28224520917E+01 -0.42367191198E+01 -0.65652045654E+01  0.84956262098E+01  0.17770000000E+01 0.  1.
         15    1    1    2    0    0  0.18995891512E+01 -0.42305275002E+01  0.15028599585E+03  0.15036802878E+03  0.17770000000E+01 0. -1.
</event>
<event>
 6    1  0.1045352E-002  0.1733451E+03  0.7546771E-02  0.1075985E+00
        -11   -1    0    0    0    0  0.00000000000E+00  0.00000000000E+00  0.18250000000E+03  0.18250000000E+03  0.00000000000E+00 0.  1.
         11   -1    0    0    0    0 -0.00000000000E+00 -0.00000000000E+00 -0.18250000000E+03  0.18250000000E+03  0.00000000000E+00 0.  1.
        -11    1    1    2    0    0  0.32525090850E+01  0.84351501992E+01  0.17526060345E+03  0.17549361725E+03  0.00000000000E+00 0.  1.
         11    1    1    2    0    0 -0.45169861737E+01 -0.25193212094E+00 -0.17125880487E+03  0.17131854797E+03  0.00000000000E+00 0.  1.
        -15    1    1    2    0    0  0.13292491700E+01 -0.28461126483E+01 -0.95972335273E+01  0.10253383878E+02  0.17770000000E+01 0.  1.
         15    1    1    2    0    0 -0.64772081313E-01 -0.53371054300E+01  0.55954349453E+01  0.79344508960E+01  0.17770000000E+01 0. -1.
</event>
<event>
 6    1  0.1045352E-002  0.1792375E+03  0.7546771E-02  0.1071082E+00
        -11   -1    0    0    0    0  0.00000000000E+00  0.00000000000E+00  0.18250000000E+03  0.18250000000E+03  0.00000000000E+00 0. -1.
         11   -1    0    0    0    0 -0.00000000000E+00 -0.00000000000E+00 -0.18250000000E+03  0.18250000000E+03  0.00000000000E+00 0.  1.
        -11    1    1    2    0    0 -0.67615233222E+00 -0.32012629911E+01  0.17838007481E+03  0.17841007919E+03  0.00000000000E+00 0. -1.
         11    1    1    2    0    0  0.43424894990E+01  0.32045542015E+01 -0.18000646689E+03  0.18008735243E+03  0.00000000000E+00 0.  1.
        -15    1    1    2    0    0 -0.15241733484E+01 -0.82161327496E+00  0.24499588211E+01  0.34868581839E+01  0.17770000000E+01 0. -1.
         15    1    1    2    0    0 -0.21421638183E+01  0.81832206450E+00 -0.82356674542E+00  0.30157101999E+01  0.17770000000E+01 0.  1.
</event>
<event>
 6    1  0.1045352E-002  0.1843742E+03  0.7546771E-02  0.1066973E+00
        -11   -1    0    0    0    0  0.00000000000E+00  0.00000000000E+00  0.18250000000E+03  0.18250000000E+03  0.00000000000E+00 0. -1.
         11   -1    0    0    0    0 -0.00000000000E+00 -0.00000000000E+00 -0.18250000000E+03  0.18250000000E+03  0.00000000000E+00 0. -1.
        -11    1    1    2    0    0  0.13291308087E+01  0.18894623566E+01  0.14784496373E+03  0.14786301078E+03  0.00000000000E+00 0. -1.
         11    1    1    2    0    0  0.12306331026E+01 -0.38316709774E+01 -0.18058095507E+03  0.18062579410E+03  0.00000000000E+00 0. -1.
        -15    1    1    2    0    0  0.16175783325E+01  0.13352014128E+01 -0.63991798588E+00  0.28225071308E+01  0.17770000000E+01 0.  1.
         15    1    1    2    0    0 -0.41773422438E+01  0.60700720796E+00  0.33375909329E+02  0.33688687990E+02  0.17770000000E+01 0. -1.
</event>
<event>
 6    1  0.1045352E-002  0.1828249E+03  0.7546771E-02  0.1068196E+00
        -11   -1    0    0    0    0  0.00000000000E+00  0.00000000000E+00  0.18250000000E+03  0.18250000000E+03  0.00000000000E+00 0.  1.
         11   -1    0    0    0    0 -0.00000000000E+00 -0.00000000000E+00 -0.18250000000E+03  0.18250000000E+03  0.00000000000E+00 0. -1.
        -11    1    1    2    0    0  0.34469582626E+01  0.15793567947E+01  0.18213564167E+03  0.18217510219E+03  0.00000000000E+00 0.  1.
         11    1    1    2    0    0 -0.14239195101E+01 -0.17645785736E+01 -0.86845148174E+02  0.86874743428E+02  0.00000000000E+00 0. -1.
        -15    1    1    2    0    0 -0.29640870389E+01 -0.16305246721E+01 -0.11547428493E+02  0.12163274908E+02  0.17770000000E+01 0. -1.
         15    1    1    2    0    0  0.94104828635E+00  0.18157464510E+01 -0.83743065006E+02  0.83786879478E+02  0.17770000000E+01 0. -1.
</event>
<event>
 6    1  0.1045352E-002  0.1907583E+03  0.7546771E-02  0.1062065E+00
        -11   -1    0    0    0    0  0.00000000000E+00  0.00000000000E+00  0.18250000000E+03  0.18250000000E+03  0.00000000000E+00 0.  1.
         11   -1    0    0    0    0 -0.00000000000E+00 -0.00000000000E+00 -0.18250000000E+03  0.18250000000E+03  0.00000000000E+00 0. -1.
        -11    1    1    2    0    0 -0.40032248962E+01 -0.52615635359E+01  0.16410554591E+03  0.16423866798E+03  0.00000000000E+00 0.  1.
         11    1    1    2    0    0 -0.70046581480E+01  0.11033250757E+01 -0.17409734805E+03  0.17424169753E+03  0.00000000000E+00 0. -1.
        -15    1    1    2    0    0  0.10627570215E+02  0.33951709064E+01 -0.43033796951E+01  0.12089219990E+02  0.17770000000E+01 0.  1.
         15    1    1    2    0    0  0.38031282924E+00  0.76306755387E+00  0.14295181832E+02  0.14430414497E+02  0.17770000000E+01 0. -1.
</event>
<event>
 6    1  0.1045352E-002  0.1829567E+03  0.7546771E-02  0.1068092E+00
        -11   -1    0    0    0    0  0.00000000000E+00  0.00000000000E+00  0.18250000000E+03  0.18250000000E+03  0.00000000000E+00 0. -1.
         11   -1    0    0    0    0 -0.00000000000E+00 -0.00000000000E+00 -0.18250000000E+03  0.18250000000E+03  0.00000000000E+00 0. -1.
        -11    1    1    2    0    0 -0.46475382224E+01  0.44327971389E+00  0.18198343699E+03  0.18204331201E+03  0.00000000000E+00 0. -1.
         11    1    1    2    0    0  0.13472222157E+01 -0.18301808856E+01 -0.15723741201E+03  0.15725383400E+03  0.00000000000E+00 0. -1.
        -15    1    1    2    0    0  0.26907602410E+01  0.30433237267E+01 -0.16439461780E+02  0.17026909367E+02  0.17770000000E+01 0. -1.
         15    1    1    2    0    0  0.60955576578E+00 -0.16564225550E+01 -0.83065632003E+01  0.86759446237E+01  0.17770000000E+01 0.  1.
</event>
<event>
 6    1  0.1045352E-002  0.1855613E+03  0.7546771E-02  0.1066044E+00
        -11   -1    0    0    0    0  0.00000000000E+00  0.00000000000E+00  0.18250000000E+03  0.18250000000E+03  0.00000000000E+00 0.  1.
         11   -1    0    0    0    0 -0.00000000000E+00 -0.00000000000E+00 -0.18250000000E+03  0.18250000000E+03  0.00000000000E+00 0. -1.
        -11    1    1    2    0    0  0.10285262535E+01 -0.28044506574E+01  0.17404905794E+03  0.17407468908E+03  0.00000000000E+00 0.  1.
         11    1    1    2    0    0 -0.21230809396E+01 -0.32782838563E+01 -0.17939622221E+03  0.17943873373E+03  0.00000000000E+00 0. -1.
        -15    1    1    2    0    0  0.10503213938E+01  0.44928725613E+01  0.70107199294E+01  0.85788694949E+01  0.17770000000E+01 0. -1.
         15    1    1    2    0    0  0.44233292304E-01  0.15898619525E+01 -0.16635556576E+01  0.29077076947E+01  0.17770000000E+01 0.  1.
</event>
<event>
 6    1  0.1045352E-002  0.1837669E+03  0.7546771E-02  0.1067451E+00
        -11   -1    0    0    0    0  0.00000000000E+00  0.00000000000E+00  0.18250000000E+03  0.18250000000E+03  0.00000000000E+00 0. -1.
         11   -1    0    0    0    0 -0.00000000000E+00 -0.00000000000E+00 -0.18250000000E+03  0.18250000000E+03  0.00000000000E+00 0.  1.
        -11    1    1    2    0    0 -0.10911848745E+02  0.43999500671E+01  0.75100123848E+02  0.76016160161E+02  0.00000000000E+00 0. -1.
         11    1    1    2    0    0  0.13174696936E+01 -0.69605304113E+01 -0.18109458399E+03  0.18123309041E+03  0.00000000000E+00 0.  1.
        -15    1    1    2    0    0  0.18169634324E+00  0.27047610499E+01  0.79693062727E+02  0.79758953865E+02  0.17770000000E+01 0. -1.
         15    1    1    2    0    0  0.94126827085E+01 -0.14418070569E+00  0.26301397414E+02  0.27991795562E+02  0.17770000000E+01 0.  1.
</event>
<event>
 6    1  0.1045352E-002  0.1839913E+03  0.7546771E-02  0.1067274E+00
        -11   -1    0    0    0    0  0.00000000000E+00  0.00000000000E+00  0.18250000000E+03  0.18250000000E+03  0.00000000000E+00 0.  1.
         11   -1    0    0    0    0 -0.00000000000E+00 -0.00000000000E+00 -0.18250000000E+03  0.18250000000E+03  0.00000000000E+00 0. -1.
        -11    1    1    2    0    0  0.11857997246E+01  0.19180891377E+01  0.16274221021E+03  0.16275783291E+03  0.00000000000E+00 0.  1.
         11    1    1    2    0    0  0.27703227924E+01  0.62516230782E+00 -0.18098638716E+03  0.18100866790E+03  0.00000000000E+00 0. -1.
        -15    1    1    2    0    0 -0.19077910369E+01  0.19100404408E+01  0.12631546470E+01  0.34700446378E+01  0.17770000000E+01 0. -1.
         15    1    1    2    0    0 -0.20483314800E+01 -0.44532918863E+01  0.16981022301E+02  0.17763454558E+02  0.17770000000E+01 0. -1.
</event>
<event>
 6    1  0.1045352E-002  0.1867313E+03  0.7546771E-02  0.1065136E+00
        -11   -1    0    0    0    0  0.00000000000E+00  0.00000000000E+00  0.18250000000E+03  0.18250000000E+03  0.00000000000E+00 0.  1.
         11   -1    0    0    0    0 -0.00000000000E+00 -0.00000000000E+00 -0.18250000000E+03  0.18250000000E+03  0.00000000000E+00 0.  1.
        -11    1    1    2    0    0  0.71478954536E+01 -0.10220983096E+01  0.17812240766E+03  0.17826869945E+03  0.00000000000E+00 0.  1.
         11    1    1    2    0    0  0.86568939719E+01 -0.59273294636E+01 -0.49996610520E+02  0.51085576353E+02  0.00000000000E+00 0.  1.
        -15    1    1    2    0    0 -0.99573981003E+01  0.29020982411E+01 -0.12787924786E+03  0.12831146369E+03  0.17770000000E+01 0.  1.
         15    1    1    2    0    0 -0.58473913252E+01  0.40473295321E+01 -0.24654927824E+00  0.73342605079E+01  0.17770000000E+01 0. -1.
</event>
<event>
 6    1  0.1045352E-002  0.1838689E+03  0.7546771E-02  0.1067370E+00
        -11   -1    0    0    0    0  0.00000000000E+00  0.00000000000E+00  0.18250000000E+03  0.18250000000E+03  0.00000000000E+00 0.  1.
         11   -1    0    0    0    0 -0.00000000000E+00 -0.00000000000E+00 -0.18250000000E+03  0.18250000000E+03  0.00000000000E+00 0.  1.
        -11    1    1    2    0    0  0.11158487094E+02 -0.14209288842E+01  0.18078146884E+03  0.18113108609E+03  0.00000000000E+00 0.  1.
         11    1    1    2    0    0 -0.47849618710E+01  0.22685243870E+01 -0.13239398601E+03  0.13249984753E+03  0.00000000000E+00 0.  1.
        -15    1    1    2    0    0 -0.62203528969E+01 -0.54634018190E+01 -0.12234033577E+02  0.14878536762E+02  0.17770000000E+01 0.  1.
         15    1    1    2    0    0 -0.15317232625E+00  0.46158063162E+01 -0.36153449253E+02  0.36490529615E+02  0.17770000000E+01 0. -1.
</event>
<event>
 6    1  0.1045352E-002  0.2031875E+03  0.7546771E-02  0.1053085E+00
        -11   -1    0    0    0    0  0.00000000000E+00  0.00000000000E+00  0.18250000000E+03  0.18250000000E+03  0.00000000000E+00 0. -1.
         11   -1    0    0    0    0 -0.00000000000E+00 -0.00000000000E+00 -0.18250000000E+03  0.18250000000E+03  0.00000000000E+00 0.  1.
        -11    1    1    2    0    0 -0.24923351513E+02  0.60461408988E+01  0.15976721534E+03  0.16181252229E+03  0.00000000000E+00 0. -1.
         11    1    1    2    0    0  0.61480625196E+01 -0.36087877617E+01 -0.12881623087E+03  0.12901334566E+03  0.00000000000E+00 0.  1.
        -15    1    1    2    0    0 -0.78820921050E+01  0.25941133837E+02 -0.57838921461E+01  0.27779145740E+02  0.17770000000E+01 0.  1.
         15    1    1    2    0    0  0.26657381098E+02 -0.28378486974E+02 -0.25167092328E+02  0.46394986315E+02  0.17770000000E+01 0. -1.
</event>
<event>
 6    1  0.1045352E-002  0.1915071E+03  0.7546771E-02  0.1061503E+00
        -11   -1    0    0    0    0  0.00000000000E+00  0.00000000000E+00  0.18250000000E+03  0.18250000000E+03  0.00000000000E+00 0. -1.
         11   -1    0    0    0    0 -0.00000000000E+00 -0.00000000000E+00 -0.18250000000E+03  0.18250000000E+03  0.00000000000E+00 0.  1.
        -11    1    1    2    0    0  0.31194682530E+01  0.62114089839E+01  0.17335358972E+03  0.17349288099E+03  0.00000000000E+00 0. -1.
         11    1    1    2    0    0 -0.75177735876E+01  0.55602217046E+01 -0.10424114658E+03  0.10465968481E+03  0.00000000000E+00 0.  1.
        -15    1    1    2    0    0 -0.65399587192E+01  0.15240412599E+00  0.65663932687E+01  0.94376658463E+01  0.17770000000E+01 0. -1.
         15    1    1    2    0    0  0.10938264054E+02 -0.11924034814E+02 -0.75678836412E+02  0.77409768353E+02  0.17770000000E+01 0.  1.
</event>
<event>
 6    1  0.1045352E-002  0.1832514E+03  0.7546771E-02  0.1067858E+00
        -11   -1    0    0    0    0  0.00000000000E+00  0.00000000000E+00  0.18250000000E+03  0.18250000000E+03  0.00000000000E+00 0.  1.
         11   -1    0    0    0    0 -0.00000000000E+00 -0.00000000000E+00 -0.18250000000E+03  0.18250000000E+03  0.00000000000E+00 0.  1.
        -11    1    1    2    0    0 -0.31755297136E+01  0.21180572023E+01  0.11695142818E+03  0.11701370308E+03  0.00000000000E+00 0.  1.
         11    1    1    2    0    0  0.63060150744E+01 -0.75435796354E+00 -0.18163762444E+03  0.18174862171E+03  0.00000000000E+00 0.  1.
        -15    1    1    2    0    0 -0.69908473456E+01 -0.21993564538E+00  0.18744608345E+02  0.20085775795E+02  0.17770000000E+01 0. -1.
         15    1    1    2    0    0  0.38603619848E+01 -0.11437635934E+01  0.45941587917E+02  0.46151899410E+02  0.17770000000E+01 0.  1.
</event>
<event>
 6    1  0.1045352E-002  0.1852710E+03  0.7546771E-02  0.1066270E+00
        -11   -1    0    0    0    0  0.00000000000E+00  0.00000000000E+00  0.18250000000E+03  0.18250000000E+03  0.00000000000E+00 0.  1.
         11   -1    0    0    0    0 -0.00000000000E+00 -0.00000000000E+00 -0.18250000000E+03  0.18250000000E+03  0.00000000000E+00 0. -1.
        -11    1    1    2    0    0 -0.56309492386E-01  0.59331196213E+01  0.17963100080E+03  0.17972896686E+03  0.00000000000E+00 0.  1.
         11    1    1    2    0    0  0.37286510828E+01  0.84232805117E+00 -0.15661846594E+03  0.15666510853E+03  0.00000000000E+00 0. -1.
        -15    1    1    2    0    0 -0.33054146116E+01  0.69700436837E+00  0.51693029694E+00  0.38518212285E+01  0.17770000000E+01 0. -1.
         15    1    1    2    0    0 -0.36692697877E+00 -0.74724520408E+01 -0.23529465156E+02  0.24754103386E+02  0.17770000000E+01 0.  1.
</event>
<event>
 6    1  0.1045352E-002  0.1851770E+03  0.7546771E-02  0.1066344E+00
        -11   -1    0    0    0    0  0.00000000000E+00  0.00000000000E+00  0.18250000000E+03  0.18250000000E+03  0.00000000000E+00 0.  1.
         11   -1    0    0    0    0 -0.00000000000E+00 -0.00000000000E+00 -0.18250000000E+03  0.18250000000E+03  0.00000000000E+00 0.  1.
        -11    1    1    2    0    0  0.80655929226E+01 -0.10830450349E+01  0.16248886383E+03  0.16269252486E+03  0.00000000000E+00 0.  1.
         11    1    1    2    0    0  0.37688996345E+01  0.36674047231E+01 -0.17974608576E+03  0.17982299577E+03  0.00000000000E+00 0.  1.
        -15    1    1    2    0    0 -0.10943901231E+02 -0.41437307399E+01  0.13464303252E+02  0.17927204737E+02  0.17770000000E+01 0.  1.
         15    1    1    2    0    0 -0.89059132592E+00  0.15593710517E+01  0.37929186781E+01  0.45572746335E+01  0.17770000000E+01 0.  1.
</event>
<event>
 6    1  0.1045352E-002  0.1832599E+03  0.7546771E-02  0.1067852E+00
        -11   -1    0    0    0    0  0.00000000000E+00  0.00000000000E+00  0.18250000000E+03  0.18250000000E+03  0.00000000000E+00 0.  1.
         11   -1    0    0    0    0 -0.00000000000E+00 -0.00000000000E+00 -0.18250000000E+03  0.18250000000E+03  0.00000000000E+00 0.  1.
        -11    1    1    2    0    0  0.19363994093E+01  0.22009771900E+01  0.13420711632E+03  0.13423912997E+03  0.00000000000E+00 0.  1.
         11    1    1    2    0    0 -0.31865285704E+01  0.84835335843E+00 -0.18171020860E+03  0.18174012649E+03  0.00000000000E+00 0.  1.
        -15    1    1    2    0    0  0.37888641099E+01 -0.14635627945E+01  0.64873081679E+01  0.78575061923E+01  0.17770000000E+01 0.  1.
         15    1    1    2    0    0 -0.25387349489E+01 -0.15857677539E+01  0.41015784108E+02  0.41163237354E+02  0.17770000000E+01 0.  1.
</event>
<event>
 6    1  0.1045352E-002  0.1844091E+03  0.7546771E-02  0.1066945E+00
        -11   -1    0    0    0    0  0.00000000000E+00  0.00000000000E+00  0.18250000000E+03  0.18250000000E+03  0.00000000000E+00 0. -1.
         11   -1    0    0    0    0 -0.00000000000E+00 -0.00000000000E+00 -0.18250000000E+03  0.18250000000E+03  0.00000000000E+00 0. -1.
        -11    1    1    2    0    0  0.15643434509E+01 -0.24131223042E+01  0.15867339581E+03  0.15869945452E+03  0.00000000000E+00 0. -1.
         11    1    1    2    0    0 -0.25913636910E+01  0.14378302898E+01 -0.18056655986E+03  0.18059087757E+03  0.00000000000E+00 0. -1.
        -15    1    1    2    0    0  0.69550046371E+00  0.99910774003E-01  0.23222592342E+02  0.23301077810E+02  0.17770000000E+01 0. -1.
         15    1    1    2    0    0  0.33151977637E+00  0.87538124044E+00 -0.13294282901E+01  0.24085900973E+01  0.17770000000E+01 0. -1.
</event>
<event>
 6    1  0.1045352E-002  0.1831570E+03  0.7546771E-02  0.1067933E+00
        -11   -1    0    0    0    0  0.00000000000E+00  0.00000000000E+00  0.18250000000E+03  0.18250000000E+03  0.00000000000E+00 0. -1.
         11   -1    0    0    0    0 -0.00000000000E+00 -0.00000000000E+00 -0.18250000000E+03  0.18250000000E+03  0.00000000000E+00 0.  1.
        -11    1    1    2    0    0  0.39433388708E+01  0.97665109494E-01  0.95184487799E+02  0.95266185908E+02  0.00000000000E+00 0. -1.
         11    1    1    2    0    0  0.23144687728E+01  0.66332940478E+01 -0.18170723169E+03  0.18184299658E+03  0.00000000000E+00 0.  1.
        -15    1    1    2    0    0  0.34695102425E+01 -0.10292065712E+01  0.23013007060E+02  0.23363496965E+02  0.17770000000E+01 0.  1.
         15    1    1    2    0    0 -0.97273178860E+01 -0.57017525861E+01  0.63509736832E+02  0.64527320549E+02  0.17770000000E+01 0. -1.
</event>
<event>
 6    1  0.1045352E-002  0.1892881E+03  0.7546771E-02  0.1063176E+00
        -11   -1    0    0    0    0  0.00000000000E+00  0.00000000000E+00  0.18250000000E+03  0.18250000000E+03  0.00000000000E+00 0.  1.
         11   -1    0    0    0    0 -0.00000000000E+00 -0.00000000000E+00 -0.18250000000E+03  0.18250000000E+03  0.00000000000E+00 0. -1.
        -11    1    1    2    0    0 -0.23810606856E+01  0.15629279588E+02  0.15830454594E+03  0.15909202713E+03  0.00000000000E+00 0.  1.
         11    1    1    2    0    0 -0.14362539095E+02 -0.70933468493E+01 -0.17498016365E+03  0.17571185438E+03  0.00000000000E+00 0. -1.
        -15    1    1    2    0    0 -0.25584832002E+01 -0.42082159494E+00  0.56496464576E+01  0.64652270800E+01  0.17770000000E+01 0.  1.
         15    1    1    2    0    0  0.19302082981E+02 -0.81151111435E+01  0.11025971245E+02  0.23730891411E+02  0.17770000000E+01 0. -1.
</event>
<event>
 6    1  0.1045352E-002  0.1841000E+03  0.7546771E-02  0.1067188E+00
        -11   -1    0    0    0    0  0.00000000000E+00  0.00000000000E+00  0.18250000000E+03  0.18250000000E+03  0.00000000000E+00 0. -1.
         11   -1    0    0    0    0 -0.00000000000E+00 -0.00000000000E+00 -0.18250000000E+03  0.18250000000E+03  0.00000000000E+00 0.  1.
        -11    1    1    2    0    0 -0.20513426749E+01  0.21935230679E+01  0.18087504671E+03  0.18089997808E+03  0.00000000000E+00 0. -1.
         11    1    1    2    0    0 -0.23764671983E+01 -0.10361831344E+01 -0.17149143908E+03  0.17151103448E+03  0.00000000000E+00 0.  1.
        -15    1    1    2    0    0  0.24439474317E+01  0.57353163953E+00 -0.88485825361E+01  0.93678684603E+01  0.17770000000E+01 0.  1.
         15    1    1    2    0    0  0.19838624415E+01 -0.17308715731E+01 -0.53502508959E+00  0.32211189726E+01  0.17770000000E+01 0.  1.
</event>
<event>
 6    1  0.1045352E-002  0.1870926E+03  0.7546771E-02  0.1064857E+00
        -11   -1    0    0    0    0  0.00000000000E+00  0.00000000000E+00  0.18250000000E+03  0.18250000000E+03  0.00000000000E+00 0. -1.
         11   -1    0    0    0    0 -0.00000000000E+00 -0.00000000000E+00 -0.18250000000E+03  0.18250000000E+03  0.00000000000E+00 0. -1.
        -11    1    1    2    0    0 -0.12356906605E+01  0.30601293280E+01  0.16565248081E+03  0.16568535156E+03  0.00000000000E+00 0. -1.
         11    1    1    2    0    0 -0.66401668296E+01 -0.99273662506E-01 -0.17778341134E+03  0.17790740013E+03  0.00000000000E+00 0. -1.
        -15    1    1    2    0    0 -0.24862588192E+01 -0.24310612915E+01  0.99060680059E+01  0.10647978881E+02  0.17770000000E+01 0.  1.
         15    1    1    2    0    0  0.10362116309E+02 -0.52979437405E+00  0.22248625284E+01  0.10759269434E+02  0.17770000000E+01 0. -1.
</event>
<event>
 6    1  0.1045352E-002  0.1857791E+03  0.7546771E-02  0.1065874E+00
        -11   -1    0    0    0    0  0.00000000000E+00  0.00000000000E+00  0.18250000000E+03  0.18250000000E+03  0.00000000000E+00 0. -1.
         11   -1    0    0    0    0 -0.00000000000E+00 -0.00000000000E+00 -0.18250000000E+03  0.18250000000E+03  0.00000000000E+00 0.  1.
        -11    1    1    2    0    0 -0.40393022409E+01  0.55905478538E+01  0.16809284834E+03  0.16823428857E+03  0.00000000000E+00 0. -1.
         11    1    1    2    0    0  0.31898358836E+01 -0.67079390675E+00 -0.17919125156E+03  0.17922089625E+03  0.00000000000E+00 0.  1.
        -15    1    1    2    0    0  0.44551297378E+01 -0.65543905069E+01  0.10325593496E+02  0.13137116348E+02  0.17770000000E+01 0.  1.
         15    1    1    2    0    0 -0.36056633805E+01  0.16346365599E+01  0.77280972252E+00  0.44076988286E+01  0.17770000000E+01 0.  1.
</event>
<event>
 6    1  0.1045352E-002  0.1860926E+03  0.7546771E-02  0.1065631E+00
        -11   -1    0    0    0    0  0.00000000000E+00  0.00000000000E+00  0.18250000000E+03  0.18250000000E+03  0.00000000000E+00 0.  1.
         11   -1    0    0    0    0 -0.00000000000E+00 -0.00000000000E+00 -0.18250000000E+03  0.18250000000E+03  0.00000000000E+00 0. -1.
        -11    1    1    2    0    0  0.54427166792E+01  0.33017985423E+01  0.17879414468E+03  0.17890743755E+03  0.00000000000E+00 0.  1.
         11    1    1    2    0    0  0.97760505133E+00 -0.21792102825E+01 -0.17243074931E+03  0.17244729043E+03  0.00000000000E+00 0. -1.
        -15    1    1    2    0    0 -0.38525437755E+01  0.26211682497E+01  0.72788373739E+00  0.50398571676E+01  0.17770000000E+01 0.  1.
         15    1    1    2    0    0 -0.25677779550E+01 -0.37437565096E+01 -0.70912791091E+01  0.86054148554E+01  0.17770000000E+01 0. -1.
</event>
<event>
 6    1  0.1045352E-002  0.1856735E+03  0.7546771E-02  0.1065956E+00
        -11   -1    0    0    0    0  0.00000000000E+00  0.00000000000E+00  0.18250000000E+03  0.18250000000E+03  0.00000000000E+00 0. -1.
         11   -1    0    0    0    0 -0.00000000000E+00 -0.00000000000E+00 -0.18250000000E+03  0.18250000000E+03  0.00000000000E+00 0. -1.
        -11    1    1    2    0    0 -0.43411030439E+01  0.30974454676E+01  0.17924717028E+03  0.17932648270E+03  0.00000000000E+00 0. -1.
         11    1    1    2    0    0 -0.45369254756E+01 -0.69871502291E+01 -0.16232087055E+03  0.16253451626E+03  0.00000000000E+00 0. -1.
        -15    1    1    2    0    0  0.75367526837E+01  0.73856144717E+01 -0.15334788574E+02  0.18699289071E+02  0.17770000000E+01 0.  1.
         15    1    1    2    0    0  0.13412758358E+01 -0.34959097102E+01 -0.15915111608E+01  0.44397119664E+01  0.17770000000E+01 0. -1.
</event>
<event>
 6    1  0.1045352E-002  0.1843573E+03  0.7546771E-02  0.1066986E+00
        -11   -1    0    0    0    0  0.00000000000E+00  0.00000000000E+00  0.18250000000E+03  0.18250000000E+03  0.00000000000E+00 0.  1.
         11   -1    0    0    0    0 -0.00000000000E+00 -0.00000000000E+00 -0.18250000000E+03  0.18250000000E+03  0.00000000000E+00 0. -1.
        -11    1    1    2    0    0  0.26532394637E+01  0.13633694280E+01  0.18061811692E+03  0.18064274859E+03  0.00000000000E+00 0.  1.
         11    1    1    2    0    0  0.22308336514E+01 -0.31588867330E+00 -0.16094072205E+03  0.16095649232E+03  0.00000000000E+00 0. -1.
        -15    1    1    2    0    0 -0.50458653611E+01  0.15884541673E+01 -0.19421575524E+02  0.20207406284E+02  0.17770000000E+01 0. -1.
         15    1    1    2    0    0  0.16179224598E+00 -0.26359349220E+01 -0.25581934430E+00  0.31933528118E+01  0.17770000000E+01 0.  1.
</event>
<event>
 6    1  0.1045352E-002  0.1850948E+03  0.7546771E-02  0.1066408E+00
        -11   -1    0    0    0    0  0.00000000000E+00  0.00000000000E+00  0.18250000000E+03  0.18250000000E+03  0.00000000000E+00 0.  1.
         11   -1    0    0    0    0 -0.00000000000E+00 -0.00000000000E+00 -0.18250000000E+03  0.18250000000E+03  0.00000000000E+00 0.  1.
        -11    1    1    2    0    0 -0.61401141635E+00  0.64868989522E+01  0.17978712617E+03  0.17990516280E+03  0.00000000000E+00 0.  1.
         11    1    1    2    0    0 -0.10143129350E+01 -0.10668369695E+02 -0.11038064449E+03  0.11089963760E+03  0.00000000000E+00 0.  1.
        -15    1    1    2    0    0 -0.28494906346E+01  0.13598531680E+02 -0.26160703796E+02  0.29674565083E+02  0.17770000000E+01 0.  1.
         15    1    1    2    0    0  0.44778149859E+01 -0.94170609378E+01 -0.43245777883E+02  0.44520634513E+02  0.17770000000E+01 0. -1.
</event>
<event>
 6    1  0.1045352E-002  0.1854712E+03  0.7546771E-02  0.1066114E+00
        -11   -1    0    0    0    0  0.00000000000E+00  0.00000000000E+00  0.18250000000E+03  0.18250000000E+03  0.00000000000E+00 0.  1.
         11   -1    0    0    0    0 -0.00000000000E+00 -0.00000000000E+00 -0.18250000000E+03  0.18250000000E+03  0.00000000000E+00 0.  1.
        -11    1    1    2    0    0  0.12304992730E+01 -0.44561162122E+01  0.17946927365E+03  0.17952880350E+03  0.00000000000E+00 0.  1.
         11    1    1    2    0    0  0.25519501892E+01  0.20593233436E+00 -0.17355333841E+03  0.17357222166E+03  0.00000000000E+00 0.  1.
        -15    1    1    2    0    0 -0.23175197005E+01 -0.15832364810E+01 -0.65995419578E-01  0.33225923181E+01  0.17770000000E+01 0.  1.
         15    1    1    2    0    0 -0.14649297617E+01  0.58334203589E+01 -0.58499398214E+01  0.85763825244E+01  0.17770000000E+01 0. -1.
</event>
<event>
 6    1  0.1045352E-002  0.1830695E+03  0.7546771E-02  0.1068002E+00
        -11   -1    0    0    0    0  0.00000000000E+00  0.00000000000E+00  0.18250000000E+03  0.18250000000E+03  0.00000000000E+00 0.  1.
         11   -1    0    0    0    0 -0.00000000000E+00 -0.00000000000E+00 -0.18250000000E+03  0.18250000000E+03  0.00000000000E+00 0. -1.
        -11    1    1    2    0    0 -0.21717520374E+01 -0.13300312564E+01  0.18191269485E+03  0.18193051980E+03  0.00000000000E+00 0.  1.
         11    1    1    2    0    0  0.19519198345E+01  0.18685128439E+01 -0.16783554497E+03  0.16785729500E+03  0.00000000000E+00 0. -1.
        -15    1    1    2    0    0 -0.93360128352E+00 -0.21274152747E+01 -0.54174748833E+01  0.61566443960E+01  0.17770000000E+01 0. -1.
         15    1    1    2    0    0  0.11534334865E+01  0.15889336872E+01 -0.86596749962E+01  0.90555407961E+01  0.17770000000E+01 0.  1.
</event>
<event>
 6    1  0.1045352E-002  0.1837266E+03  0.7546771E-02  0.1067483E+00
        -11   -1    0    0    0    0  0.00000000000E+00  0.00000000000E+00  0.18250000000E+03  0.18250000000E+03  0.00000000000E+00 0.  1.
         11   -1    0    0    0    0 -0.00000000000E+00 -0.00000000000E+00 -0.18250000000E+03  0.18250000000E+03  0.00000000000E+00 0. -1.
        -11    1    1    2    0    0 -0.22751263992E+01 -0.17454465362E+01  0.12401071128E+03  0.12404386037E+03  0.00000000000E+00 0.  1.
         11    1    1    2    0    0 -0.22187398550E+01  0.63372720806E+01 -0.18114902887E+03  0.18127342465E+03  0.00000000000E+00 0. -1.
        -15    1    1    2    0    0  0.68578297263E+01 -0.78458604618E+01  0.23624828163E+02  0.25881993541E+02  0.17770000000E+01 0.  1.
         15    1    1    2    0    0 -0.23639634722E+01  0.32540349174E+01  0.33513489435E+02  0.33800721437E+02  0.17770000000E+01 0. -1.
</event>
<event>
 6    1  0.1045352E-002  0.1826493E+03  0.7546771E-02  0.1068336E+00
        -11   -1    0    0    0    0  0.00000000000E+00  0.00000000000E+00  0.18250000000E+03  0.18250000000E+03  0.00000000000E+00 0. -1.
         11   -1    0    0    0    0 -0.00000000000E+00 -0.00000000000E+00 -0.18250000000E+03  0.18250000000E+03  0.00000000000E+00 0.  1.
        -11    1    1    2    0    0  0.47377603143E+00 -0.25196377905E+00  0.24715529984E+02  0.24721354572E+02  0.00000000000E+00 0. -1.
         11    1    1    2    0    0  0.43836575662E+01  0.26820995309E+01 -0.18227830448E+03  0.18235073456E+03  0.00000000000E+00 0.  1.
        -15    1    1    2    0    0 -0.35066936595E+00  0.27054400561E+01  0.31555810876E+02  0.31723324289E+02  0.17770000000E+01 0.  1.
         15    1    1    2    0    0 -0.45067642317E+01 -0.51355758080E+01  0.12600696362E+03  0.12620458658E+03  0.17770000000E+01 0. -1.
</event>
<event>
 6    1  0.1045352E-002  0.1833934E+03  0.7546771E-02  0.1067746E+00
        -11   -1    0    0    0    0  0.00000000000E+00  0.00000000000E+00  0.18250000000E+03  0.18250000000E+03  0.00000000000E+00 0.  1.
         11   -1    0    0    0    0 -0.00000000000E+00 -0.00000000000E+00 -0.18250000000E+03  0.18250000000E+03  0.00000000000E+00 0. -1.
        -11    1    1    2    0    0 -0.69877400592E+00 -0.72831602890E+01  0.10866700117E+03  0.10891303802E+03  0.00000000000E+00 0.  1.
         11    1    1    2    0    0  0.44881040336E+01  0.19660590673E+01 -0.18154046620E+03  0.18160657844E+03  0.00000000000E+00 0. -1.
        -15    1    1    2    0    0 -0.18270093208E+01  0.36367361958E+01  0.56620081723E+01  0.71958237027E+01  0.17770000000E+01 0.  1.
         15    1    1    2    0    0 -0.19623207069E+01  0.16803650259E+01  0.67211456861E+02  0.67284559830E+02  0.17770000000E+01 0. -1.
</event>
<event>
 6    1  0.1045352E-002  0.1859039E+03  0.7546771E-02  0.1065777E+00
        -11   -1    0    0    0    0  0.00000000000E+00  0.00000000000E+00  0.18250000000E+03  0.18250000000E+03  0.00000000000E+00 0.  1.
         11   -1    0    0    0    0 -0.00000000000E+00 -0.00000000000E+00 -0.18250000000E+03  0.18250000000E+03  0.00000000000E+00 0.  1.
        -11    1    1    2    0    0 -0.35077064952E+01  0.32207675986E+01  0.17903276552E+03  0.17909608727E+03  0.00000000000E+00 0.  1.
         11    1    1    2    0    0  0.18046946969E+02  0.31186914965E+01 -0.90089014577E+02  0.91931763167E+02  0.00000000000E+00 0.  1.
        -15    1    1    2    0    0 -0.22606701076E+01 -0.27056521326E+01  0.14438750293E+00  0.39509188234E+01  0.17770000000E+01 0.  1.
         15    1    1    2    0    0 -0.12278570366E+02 -0.36338069625E+01 -0.89088138441E+02  0.90021230736E+02  0.17770000000E+01 0. -1.
</event>
<event>
 6    1  0.1045352E-002  0.1850728E+03  0.7546771E-02  0.1066425E+00
        -11   -1    0    0    0    0  0.00000000000E+00  0.00000000000E+00  0.18250000000E+03  0.18250000000E+03  0.00000000000E+00 0.  1.
         11   -1    0    0    0    0 -0.00000000000E+00 -0.00000000000E+00 -0.18250000000E+03  0.18250000000E+03  0.00000000000E+00 0. -1.
        -11    1    1    2    0    0  0.34560737222E+00  0.28761094394E+01  0.17538134545E+03  0.17540526726E+03  0.00000000000E+00 0.  1.
         11    1    1    2    0    0 -0.24284696987E+01  0.10779845260E+01 -0.17990758902E+03  0.17992720778E+03  0.00000000000E+00 0. -1.
        -15    1    1    2    0    0  0.25022955496E+01 -0.28843313560E+00 -0.56469235699E+00  0.31338926512E+01  0.17770000000E+01 0.  1.
         15    1    1    2    0    0 -0.41943322316E+00 -0.36656608298E+01  0.50909359204E+01  0.65336323047E+01  0.17770000000E+01 0.  1.
</event>
<event>
 6    1  0.1045352E-002  0.1963646E+03  0.7546771E-02  0.1057925E+00
        -11   -1    0    0    0    0  0.00000000000E+00  0.00000000000E+00  0.18250000000E+03  0.18250000000E+03  0.00000000000E+00 0. -1.
         11   -1    0    0    0    0 -0.00000000000E+00 -0.00000000000E+00 -0.18250000000E+03  0.18250000000E+03  0.00000000000E+00 0. -1.
        -11    1    1    2    0    0 -0.18640810084E+02 -0.79652598939E+01  0.16741263330E+03  0.16863544987E+03  0.00000000000E+00 0. -1.
         11    1    1    2    0    0  0.67837468046E+01  0.22720510430E+01 -0.12412126841E+03  0.12432727259E+03  0.00000000000E+00 0. -1.
        -15    1    1    2    0    0 -0.54681921802E+00 -0.24223201606E+02 -0.12530220205E+02  0.27335446854E+02  0.17770000000E+01 0. -1.
         15    1    1    2    0    0  0.12403882498E+02  0.29916410457E+02 -0.30761144680E+02  0.44701830686E+02  0.17770000000E+01 0.  1.
</event>
<event>
 6    1  0.1045352E-002  0.1870630E+03  0.7546771E-02  0.1064880E+00
        -11   -1    0    0    0    0  0.00000000000E+00  0.00000000000E+00  0.18250000000E+03  0.18250000000E+03  0.00000000000E+00 0.  1.
         11   -1    0    0    0    0 -0.00000000000E+00 -0.00000000000E+00 -0.18250000000E+03  0.18250000000E+03  0.00000000000E+00 0.  1.
        -11    1    1    2    0    0  0.19086107353E+01 -0.41176451554E+01  0.14071823314E+03  0.14079140220E+03  0.00000000000E+00 0.  1.
         11    1    1    2    0    0 -0.52200344685E+01  0.39419556657E+01 -0.17781676071E+03  0.17793703427E+03  0.00000000000E+00 0.  1.
        -15    1    1    2    0    0  0.58825061476E+00  0.25874172665E+01 -0.39186219962E+01  0.50551057601E+01  0.17770000000E+01 0.  1.
         15    1    1    2    0    0  0.27231731184E+01 -0.24117277768E+01  0.41017149571E+02  0.41216457764E+02  0.17770000000E+01 0. -1.
</event>
<event>
 6    1  0.1045352E-002  0.1827364E+03  0.7546771E-02  0.1068267E+00
        -11   -1    0    0    0    0  0.00000000000E+00  0.00000000000E+00  0.18250000000E+03  0.18250000000E+03  0.00000000000E+00 0. -1.
         11   -1    0    0    0    0 -0.00000000000E+00 -0.00000000000E+00 -0.18250000000E+03  0.18250000000E+03  0.00000000000E+00 0. -1.
        -11    1    1    2    0    0  0.27995797585E+01  0.17459011412E+01  0.18223370217E+03  0.18226356746E+03  0.00000000000E+00 0. -1.
         11    1    1    2    0    0 -0.34666613482E+00  0.14181637399E+01 -0.73009065700E+02  0.73023660825E+02  0.00000000000E+00 0. -1.
        -15    1    1    2    0    0 -0.33938962963E+01 -0.12184217869E+01 -0.99815744578E+02  0.99896665002E+02  0.17770000000E+01 0. -1.
         15    1    1    2    0    0  0.94098267263E+00 -0.19456430943E+01 -0.94088918885E+01  0.98161067135E+01  0.17770000000E+01 0.  1.
</event>
<event>
 6    1  0.1045352E-002  0.1867855E+03  0.7546771E-02  0.1065094E+00
        -11   -1    0    0    0    0  0.00000000000E+00  0.00000000000E+00  0.18250000000E+03  0.18250000000E+03  0.00000000000E+00 0. -1.
         11   -1    0    0    0    0 -0.00000000000E+00 -0.00000000000E+00 -0.18250000000E+03  0.18250000000E+03  0.00000000000E+00 0.  1.
        -11    1    1    2    0    0  0.25383314294E+01  0.42100441319E+01  0.83673650270E+02  0.83817941680E+02  0.00000000000E+00 0. -1.
         11    1    1    2    0    0 -0.22868233341E+01  0.21968999626E+02 -0.17684045421E+03  0.17821451330E+03  0.00000000000E+00 0.  1.
        -15    1    1    2    0    0 -0.96244300296E+01  0.48364595048E+01  0.30552921377E+02  0.32444718023E+02  0.17770000000E+01 0. -1.
         15    1    1    2    0    0  0.93729219342E+01 -0.31015503262E+02  0.62613882567E+02  0.70522826994E+02  0.17770000000E+01 0.  1.
</event>
<event>
 6    1  0.1045352E-002  0.1889065E+03  0.7546771E-02  0.1063467E+00
        -11   -1    0    0    0    0  0.00000000000E+00  0.00000000000E+00  0.18250000000E+03  0.18250000000E+03  0.00000000000E+00 0.  1.
         11   -1    0    0    0    0 -0.00000000000E+00 -0.00000000000E+00 -0.18250000000E+03  0.18250000000E+03  0.00000000000E+00 0. -1.
        -11    1    1    2    0    0 -0.27238159420E+01 -0.98241715275E+00  0.17606965756E+03  0.17609346560E+03  0.00000000000E+00 0.  1.
         11    1    1    2    0    0 -0.12180391641E+01 -0.24387101165E+01 -0.11485163052E+03  0.11488397608E+03  0.00000000000E+00 0. -1.
        -15    1    1    2    0    0 -0.78906143284E+01  0.26755361127E+01  0.27412541549E+01  0.89494408379E+01  0.17770000000E+01 0.  1.
         15    1    1    2    0    0  0.11832469434E+02  0.74559115657E+00 -0.63959281187E+02  0.65073117476E+02  0.17770000000E+01 0. -1.
</event>
<event>
 6    1  0.1045352E-002  0.1854613E+03  0.7546771E-02  0.1066122E+00
        -11   -1    0    0    0    0  0.00000000000E+00  0.00000000000E+00  0.18250000000E+03  0.18250000000E+03  0.00000000000E+00 0.  1.
         11   -1    0    0    0    0 -0.00000000000E+00 -0.00000000000E+00 -0.18250000000E+03  0.18250000000E+03  0.00000000000E+00 0.  1.
        -11    1    1    2    0    0 -0.55844117316E+00 -0.51164978861E+01  0.13291416448E+03  0.13301377946E+03  0.00000000000E+00 0.  1.
         11    1    1    2    0    0  0.42889491531E+01  0.27047263328E+01 -0.17946705607E+03  0.17953867228E+03  0.00000000000E+00 0.  1.
        -15    1    1    2    0    0 -0.97268863780E+01  0.71819695441E+01  0.41095255325E+02  0.42873893506E+02  0.17770000000E+01 0.  1.
         15    1    1    2    0    0  0.59963783981E+01 -0.47701979907E+01  0.54576362640E+01  0.95736547542E+01  0.17770000000E+01 0. -1.
</event>
<event>
 6    1  0.1045352E-002  0.1885507E+03  0.7546771E-02  0.1063738E+00
        -11   -1    0    0    0    0  0.00000000000E+00  0.00000000000E+00  0.18250000000E+03  0.18250000000E+03  0.00000000000E+00 0.  1.
         11   -1    0    0    0    0 -0.00000000000E+00 -0.00000000000E+00 -0.18250000000E+03  0.18250000000E+03  0.00000000000E+00 0. -1.
        -11    1    1    2    0    0  0.69065976253E+01  0.55299637811E+01  0.16828142335E+03  0.16851385414E+03  0.00000000000E+00 0.  1.
         11    1    1    2    0    0 -0.47819421418E+00  0.28344780303E+01 -0.17642590285E+03  0.17644931887E+03  0.00000000000E+00 0. -1.
        -15    1    1    2    0    0 -0.11766572282E+01 -0.57990624359E+01 -0.33439158446E+01  0.70251796806E+01  0.17770000000E+01 0. -1.
         15    1    1    2    0    0 -0.52517461829E+01 -0.25653793755E+01  0.11488395339E+02  0.13011647312E+02  0.17770000000E+01 0.  1.
</event>
<event>
 6    1  0.1045352E-002  0.1828678E+03  0.7546771E-02  0.1068162E+00
        -11   -1    0    0    0    0  0.00000000000E+00  0.00000000000E+00  0.18250000000E+03  0.18250000000E+03  0.00000000000E+00 0.  1.
         11   -1    0    0    0    0 -0.00000000000E+00 -0.00000000000E+00 -0.18250000000E+03  0.18250000000E+03  0.00000000000E+00 0. -1.
        -11    1    1    2    0    0 -0.77617649002E+01  0.93264008634E+00  0.18196431445E+03  0.18213216780E+03  0.00000000000E+00 0.  1.
         11    1    1    2    0    0  0.89880622625E+00 -0.16223647765E+00 -0.47706345596E+02  0.47715087587E+02  0.00000000000E+00 0. -1.
        -15    1    1    2    0    0  0.36691364066E+01  0.47302568499E+01 -0.27916859613E+02  0.28606759193E+02  0.17770000000E+01 0.  1.
         15    1    1    2    0    0  0.31938222674E+01 -0.55006604586E+01 -0.10634110924E+03  0.10654598542E+03  0.17770000000E+01 0. -1.
</event>
<event>
 6    1  0.1045352E-002  0.1827577E+03  0.7546771E-02  0.1068250E+00
        -11   -1    0    0    0    0  0.00000000000E+00  0.00000000000E+00  0.18250000000E+03  0.18250000000E+03  0.00000000000E+00 0.  1.
         11   -1    0    0    0    0 -0.00000000000E+00 -0.00000000000E+00 -0.18250000000E+03  0.18250000000E+03  0.00000000000E+00 0.  1.
        -11    1    1    2    0    0  0.64540782878E+00 -0.85527732097E-01  0.51214700438E+01  0.51626855093E+01  0.00000000000E+00 0.  1.
         11    1    1    2    0    0  0.35207411752E+01 -0.55567819572E+01 -0.18212349089E+03  0.18224225464E+03  0.00000000000E+00 0.  1.
        -15    1    1    2    0    0  0.87299762473E+00  0.42827013300E+01  0.22245465389E+02  0.22740319147E+02  0.17770000000E+01 0. -1.
         15    1    1    2    0    0 -0.50391466287E+01  0.13596083592E+01  0.15475655545E+03  0.15485474070E+03  0.17770000000E+01 0.  1.
</event>
<event>
 6    1  0.1045352E-002  0.1761849E+03  0.7546771E-02  0.1073596E+00
        -11   -1    0    0    0    0  0.00000000000E+00  0.00000000000E+00  0.18250000000E+03  0.18250000000E+03  0.00000000000E+00 0.  1.
         11   -1    0    0    0    0 -0.00000000000E+00 -0.00000000000E+00 -0.18250000000E+03  0.18250000000E+03  0.00000000000E+00 0.  1.
        -11    1    1    2    0    0 -0.29069889859E+01  0.55024088600E+00  0.17629890013E+03  0.17632372370E+03  0.00000000000E+00 0.  1.
         11    1    1    2    0    0 -0.27314035208E+01 -0.23342711621E+01 -0.17605909999E+03  0.17609575826E+03  0.00000000000E+00 0.  1.
        -15    1    1    2    0    0  0.10226080941E+01  0.31516182791E+01 -0.45333653700E+01  0.58896142207E+01  0.17770000000E+01 0.  1.
         15    1    1    2    0    0  0.46157844127E+01 -0.13675880030E+01  0.42935652248E+01  0.66909038276E+01  0.17770000000E+01 0.  1.
</event>
<event>
 6    1  0.1045352E-002  0.1830984E+03  0.7546771E-02  0.1067979E+00
        -11   -1    0    0    0    0  0.00000000000E+00  0.00000000000E+00  0.18250000000E+03  0.18250000000E+03  0.00000000000E+00 0. -1.
         11   -1    0    0    0    0 -0.00000000000E+00 -0.00000000000E+00 -0.18250000000E+03  0.18250000000E+03  0.00000000000E+00 0.  1.
        -11    1    1    2    0    0 -0.33767926839E+01 -0.80108974015E+00  0.18186846918E+03  0.18190157931E+03  0.00000000000E+00 0. -1.
         11    1    1    2    0    0 -0.97359603679E+00 -0.35212972440E+01 -0.11995113067E+03  0.12000675469E+03  0.00000000000E+00 0.  1.
        -15    1    1    2    0    0 -0.43451040019E+00  0.61292738182E+01 -0.26392427696E+02  0.27156486619E+02  0.17770000000E+01 0. -1.
         15    1    1    2    0    0  0.47848991209E+01 -0.18068868340E+01 -0.35524910815E+02  0.35935179380E+02  0.17770000000E+01 0.  1.
</event>
<event>
 6    1  0.1045352E-002  0.1842674E+03  0.7546771E-02  0.1067057E+00
        -11   -1    0    0    0    0  0.00000000000E+00  0.00000000000E+00  0.18250000000E+03  0.18250000000E+03  0.00000000000E+00 0. -1.
         11   -1    0    0    0    0 -0.00000000000E+00 -0.00000000000E+00 -0.18250000000E+03  0.18250000000E+03  0.00000000000E+00 0.  1.
        -11    1    1    2    0    0 -0.57222882256E+01  0.57430682304E+01  0.18055064688E+03  0.18073257455E+03  0.00000000000E+00 0. -1.
         11    1    1    2    0    0  0.52022068950E+01 -0.33876591886E+01 -0.13343144863E+03  0.13357578626E+03  0.00000000000E+00 0.  1.
        -15    1    1    2    0    0  0.21680033353E+01  0.33224820489E+01 -0.43114314279E+02  0.43332908397E+02  0.17770000000E+01 0.  1.
         15    1    1    2    0    0 -0.16479220048E+01 -0.56778910907E+01 -0.40048839699E+01  0.73587307862E+01  0.17770000000E+01 0. -1.
</event>
<event>
 6    1  0.1045352E-002  0.1835078E+03  0.7546771E-02  0.1067655E+00
        -11   -1    0    0    0    0  0.00000000000E+00  0.00000000000E+00  0.18250000000E+03  0.18250000000E+03  0.00000000000E+00 0. -1.
         11   -1    0    0    0    0 -0.00000000000E+00 -0.00000000000E+00 -0.18250000000E+03  0.18250000000E+03  0.00000000000E+00 0. -1.
        -11    1    1    2    0    0  0.81941566362E+01 -0.83399261083E+00  0.18130518222E+03  0.18149217296E+03  0.00000000000E+00 0. -1.
         11    1    1    2    0    0 -0.34881507548E+01 -0.10055673831E+01 -0.12902809357E+03  0.12907915127E+03  0.00000000000E+00 0. -1.
        -15    1    1    2    0    0 -0.84478670290E+01 -0.13262996498E+01 -0.21386478317E+02  0.23101184210E+02  0.17770000000E+01 0. -1.
         15    1    1    2    0    0  0.37418611476E+01  0.31658596437E+01 -0.30890610327E+02  0.31327491561E+02  0.17770000000E+01 0. -1.
</event>
<event>
 6    1  0.1045352E-002  0.1852760E+03  0.7546771E-02  0.1066266E+00
        -11   -1    0    0    0    0  0.00000000000E+00  0.00000000000E+00  0.18250000000E+03  0.18250000000E+03  0.00000000000E+00 0.  1.
         11   -1    0    0    0    0 -0.00000000000E+00 -0.00000000000E+00 -0.18250000000E+03  0.18250000000E+03  0.00000000000E+00 0. -1.
        -11    1    1    2    0    0 -0.24858181209E+01 -0.19042997027E+01  0.17969674749E+03  0.17972402930E+03  0.00000000000E+00 0.  1.
         11    1    1    2    0    0  0.12790807356E+02  0.91951396336E+00 -0.93647677338E+02  0.94521625724E+02  0.00000000000E+00 0. -1.
        -15    1    1    2    0    0 -0.42246060376E+01  0.89787716842E+01 -0.10634601463E+02  0.14653262927E+02  0.17770000000E+01 0.  1.
         15    1    1    2    0    0 -0.60803831970E+01 -0.79939859448E+01 -0.75414468694E+02  0.76101082046E+02  0.17770000000E+01 0. -1.
</event>
<event>
 6    1  0.1045352E-002  0.1900701E+03  0.7546771E-02  0.1062584E+00
        -11   -1    0    0    0    0  0.00000000000E+00  0.00000000000E+00  0.18250000000E+03  0.18250000000E+03  0.00000000000E+00 0. -1.
         11   -1    0    0    0    0 -0.00000000000E+00 -0.00000000000E+00 -0.18250000000E+03  0.18250000000E+03  0.00000000000E+00 0. -1.
        -11    1    1    2    0    0  0.43682244353E+01 -0.77404475445E+01  0.15592644981E+03  0.15617955585E+03  0.00000000000E+00 0. -1.
         11    1    1    2    0    0  0.11361231057E+01 -0.29816541666E+01 -0.17490080428E+03  0.17492990704E+03  0.00000000000E+00 0. -1.
        -15    1    1    2    0    0 -0.12728555321E+01 -0.48223900486E+01 -0.33779186181E+01  0.62804195861E+01  0.17770000000E+01 0.  1.
         15    1    1    2    0    0 -0.42314920089E+01  0.15544491760E+02  0.22352273089E+02  0.27610117529E+02  0.17770000000E+01 0. -1.
</event>
<event>
 6    1  0.1045352E-002  0.1850784E+03  0.7546771E-02  0.1066421E+00
        -11   -1    0    0    0    0  0.00000000000E+00  0.00000000000E+00  0.18250000000E+03  0.18250000000E+03  0.00000000000E+00 0.  1.
         11   -1    0    0    0    0 -0.00000000000E+00 -0.00000000000E+00 -0.18250000000E+03  0.18250000000E+03  0.00000000000E+00 0. -1.
        -11    1    1    2    0    0 -0.13931387620E+02  0.83452185738E+01  0.13025119641E+03  0.13125966784E+03  0.00000000000E+00 0.  1.
         11    1    1    2    0    0 -0.15455337260E+01 -0.43661542258E+01 -0.17986194863E+03  0.17992157331E+03  0.00000000000E+00 0. -1.
        -15    1    1    2    0    0  0.58128301228E+01 -0.48129626000E+01  0.37033739630E+02  0.37836611939E+02  0.17770000000E+01 0.  1.
         15    1    1    2    0    0  0.96640912228E+01  0.83389825194E+00  0.12577012586E+02  0.15982146916E+02  0.17770000000E+01 0. -1.
</event>
<event>
 6    1  0.1045352E-002  0.1828962E+03  0.7546771E-02  0.1068140E+00
        -11   -1    0    0    0    0  0.00000000000E+00  0.00000000000E+00  0.18250000000E+03  0.18250000000E+03  0.00000000000E+00 0. -1.
         11   -1    0    0    0    0 -0.00000000000E+00 -0.00000000000E+00 -0.18250000000E+03  0.18250000000E+03  0.00000000000E+00 0.  1.
        -11    1    1    2    0    0  0.36471402267E+01 -0.26801553090E+01  0.18204759344E+03  0.18210384714E+03  0.00000000000E+00 0. -1.
         11    1    1    2    0    0  0.19110360973E+01  0.17177330633E+01 -0.14705141270E+03  0.14707386118E+03  0.00000000000E+00 0.  1.
        -15    1    1    2    0    0 -0.19914145890E+01  0.66210083351E+00 -0.66549574946E+01  0.72007150918E+01  0.17770000000E+01 0. -1.
         15    1    1    2    0    0 -0.35667617349E+01  0.30032141217E+00 -0.28341223248E+02  0.28621576589E+02  0.17770000000E+01 0.  1.
</event>
<event>
 6    1  0.1045352E-002  0.1833408E+03  0.7546771E-02  0.1067788E+00
        -11   -1    0    0    0    0  0.00000000000E+00  0.00000000000E+00  0.18250000000E+03  0.18250000000E+03  0.00000000000E+00 0. -1.
         11   -1    0    0    0    0 -0.00000000000E+00 -0.00000000000E+00 -0.18250000000E+03  0.18250000000E+03  0.00000000000E+00 0.  1.
        -11    1    1    2    0    0 -0.11833830504E+01  0.15157589223E+01  0.14046134966E+03  0.14047451252E+03  0.00000000000E+00 0. -1.
         11    1    1    2    0    0  0.24132414407E+01  0.28197849147E+01 -0.18162130999E+03  0.18165922813E+03  0.00000000000E+00 0.  1.
        -15    1    1    2    0    0 -0.34098586235E+01 -0.60371897337E+01  0.36300189784E+02  0.36999139220E+02  0.17770000000E+01 0.  1.
         15    1    1    2    0    0  0.21800002333E+01  0.17016458967E+01  0.48597705500E+01  0.58671201261E+01  0.17770000000E+01 0.  1.
</event>
<event>
 6    1  0.1045352E-002  0.1838114E+03  0.7546771E-02  0.1067416E+00
        -11   -1    0    0    0    0  0.00000000000E+00  0.00000000000E+00  0.18250000000E+03  0.18250000000E+03  0.00000000000E+00 0. -1.
         11   -1    0    0    0    0 -0.00000000000E+00 -0.00000000000E+00 -0.18250000000E+03  0.18250000000E+03  0.00000000000E+00 0.  1.
        -11    1    1    2    0    0 -0.42319865414E+01 -0.10708831984E+01  0.18113600353E+03  0.18118859864E+03  0.00000000000E+00 0. -1.
         11    1    1    2    0    0  0.62625397548E-01 -0.22029503015E+01 -0.15395552782E+03  0.15397130076E+03  0.00000000000E+00 0.  1.
        -15    1    1    2    0    0  0.26591590016E+01  0.29105480070E+01 -0.27137141000E+02  0.27479529962E+02  0.17770000000E+01 0. -1.
         15    1    1    2    0    0  0.15102021422E+01  0.36328549284E+00 -0.43334712959E-01  0.23605706423E+01  0.17770000000E+01 0.  1.
</event>
<event>
 6    1  0.1045352E-002  0.1835647E+03  0.7546771E-02  0.1067610E+00
        -11   -1    0    0    0    0  0.00000000000E+00  0.00000000000E+00  0.18250000000E+03  0.18250000000E+03  0.00000000000E+00 0.  1.
         11   -1    0    0    0    0 -0.00000000000E+00 -0.00000000000E+00 -0.18250000000E+03  0.18250000000E+03  0.00000000000E+00 0. -1.
        -11    1    1    2    0    0 -0.14594928309E+01  0.22274129123E+01  0.18141571329E+03  0.18143525709E+03  0.00000000000E+00 0.  1.
         11    1    1    2    0    0 -0.12120937221E+01  0.25891168202E+01 -0.87010689221E+02  0.87057640307E+02  0.00000000000E+00 0. -1.
        -15    1    1    2    0    0  0.10384741997E+02 -0.19924388685E+00 -0.41662399359E+02  0.42974362286E+02  0.17770000000E+01 0. -1.
         15    1    1    2    0    0 -0.77131554437E+01 -0.46172858457E+01 -0.52742624709E+02  0.53532740315E+02  0.17770000000E+01 0.  1.
</event>
<event>
 6    1  0.1045352E-002  0.1826589E+03  0.7546771E-02  0.1068328E+00
        -11   -1    0    0    0    0  0.00000000000E+00  0.00000000000E+00  0.18250000000E+03  0.18250000000E+03  0.00000000000E+00 0.  1.
         11   -1    0    0    0    0 -0.00000000000E+00 -0.00000000000E+00 -0.18250000000E+03  0.18250000000E+03  0.00000000000E+00 0.  1.
        -11    1    1    2    0    0 -0.18552314619E+01 -0.98795030077E+00  0.99441434082E+02  0.99463645328E+02  0.00000000000E+00 0.  1.
         11    1    1    2    0    0  0.26990619924E+01 -0.96463169644E+00 -0.18231852311E+03  0.18234105221E+03  0.00000000000E+00 0.  1.
        -15    1    1    2    0    0  0.10522301417E+01  0.27801901918E+00  0.66280592162E+02  0.66313340357E+02  0.17770000000E+01 0.  1.
         15    1    1    2    0    0 -0.18960606722E+01  0.16745629780E+01  0.16596496870E+02  0.16881962107E+02  0.17770000000E+01 0.  1.
</event>
<event>
 6    1  0.1045352E-002  0.1852177E+03  0.7546771E-02  0.1066312E+00
        -11   -1    0    0    0    0  0.00000000000E+00  0.00000000000E+00  0.18250000000E+03  0.18250000000E+03  0.00000000000E+00 0. -1.
         11   -1    0    0    0    0 -0.00000000000E+00 -0.00000000000E+00 -0.18250000000E+03  0.18250000000E+03  0.00000000000E+00 0. -1.
        -11    1    1    2    0    0  0.20033760803E+01  0.21416751015E+01  0.15543879286E+03  0.15546645495E+03  0.00000000000E+00 0. -1.
         11    1    1    2    0    0 -0.51742812607E+01 -0.20041505179E+01 -0.17969668744E+03  0.17978233863E+03  0.00000000000E+00 0. -1.
        -15    1    1    2    0    0  0.21502472740E+01  0.25115157066E+01 -0.13019149205E+01  0.39729064857E+01  0.17770000000E+01 0. -1.
         15    1    1    2    0    0  0.10206579063E+01 -0.26490402902E+01  0.25559809498E+02  0.25778299936E+02  0.17770000000E+01 0.  1.
</event>
<event>
 6    1  0.1045352E-002  0.1827394E+03  0.7546771E-02  0.1068264E+00
        -11   -1    0    0    0    0  0.00000000000E+00  0.00000000000E+00  0.18250000000E+03  0.18250000000E+03  0.00000000000E+00 0.  1.
         11   -1    0    0    0    0 -0.00000000000E+00 -0.00000000000E+00 -0.18250000000E+03  0.18250000000E+03  0.00000000000E+00 0. -1.
        -11    1    1    2    0    0 -0.36161070836E+01  0.28056727928E+01  0.18220312039E+03  0.18226059670E+03  0.00000000000E+00 0.  1.
         11    1    1    2    0    0 -0.13019890605E+01 -0.62061058842E-01 -0.95096492054E+02  0.95105424809E+02  0.00000000000E+00 0. -1.
        -15    1    1    2    0    0 -0.43058868370E+00  0.14766792292E+01 -0.30648987013E+02  0.30738967486E+02  0.17770000000E+01 0. -1.
         15    1    1    2    0    0  0.53486848278E+01 -0.42202909631E+01 -0.56457641320E+02  0.56895011008E+02  0.17770000000E+01 0. -1.
</event>
<event>
 6    1  0.1045352E-002  0.1841152E+03  0.7546771E-02  0.1067176E+00
        -11   -1    0    0    0    0  0.00000000000E+00  0.00000000000E+00  0.18250000000E+03  0.18250000000E+03  0.00000000000E+00 0.  1.
         11   -1    0    0    0    0 -0.00000000000E+00 -0.00000000000E+00 -0.18250000000E+03  0.18250000000E+03  0.00000000000E+00 0. -1.
        -11    1    1    2    0    0  0.18934484962E+01 -0.72345834165E+01  0.83861909037E+02  0.84194679949E+02  0.00000000000E+00 0.  1.
         11    1    1    2    0    0 -0.11871219822E+02 -0.25093766852E+01 -0.18047741832E+03  0.18088482897E+03  0.00000000000E+00 0. -1.
        -15    1    1    2    0    0  0.19811668900E+01  0.39895004943E+01  0.82368603955E+02  0.82508095257E+02  0.17770000000E+01 0.  1.
         15    1    1    2    0    0  0.79966044359E+01  0.57544596074E+01  0.14246905323E+02  0.17412395819E+02  0.17770000000E+01 0. -1.
</event>
<event>
 6    1  0.1045352E-002  0.1833030E+03  0.7546771E-02  0.1067817E+00
        -11   -1    0    0    0    0  0.00000000000E+00  0.00000000000E+00  0.18250000000E+03  0.18250000000E+03  0.00000000000E+00 0.  1.
         11   -1    0    0    0    0 -0.00000000000E+00 -0.00000000000E+00 -0.18250000000E+03  0.18250000000E+03  0.00000000000E+00 0. -1.
        -11    1    1    2    0    0  0.33919325228E+01  0.79365203323E+00  0.18166361266E+03  0.18169700948E+03  0.00000000000E+00 0.  1.
         11    1    1    2    0    0 -0.81726395053E-01 -0.85322769510E+01 -0.12998809338E+03  0.13026784273E+03  0.00000000000E+00 0. -1.
        -15    1    1    2    0    0 -0.32070711193E+01  0.57007864341E+01 -0.17721611229E+02  0.18973600203E+02  0.17770000000E+01 0.  1.
         15    1    1    2    0    0 -0.10313500839E+00  0.20378384836E+01 -0.33953908058E+02  0.34061547586E+02  0.17770000000E+01 0. -1.
</event>
<event>
 6    1  0.1045352E-002  0.1919181E+03  0.7546771E-02  0.1061196E+00
        -11   -1    0    0    0    0  0.00000000000E+00  0.00000000000E+00  0.18250000000E+03  0.18250000000E+03  0.00000000000E+00 0. -1.
         11   -1    0    0    0    0 -0.00000000000E+00 -0.00000000000E+00 -0.18250000000E+03  0.18250000000E+03  0.00000000000E+00 0. -1.
        -11    1    1    2    0    0  0.31336749416E+01  0.44214584209E+01  0.15791339429E+03  0.15800635845E+03  0.00000000000E+00 0. -1.
         11    1    1    2    0    0  0.24998955542E+01  0.85147671731E+00 -0.17306175895E+03  0.17308190807E+03  0.00000000000E+00 0. -1.
        -15    1    1    2    0    0 -0.32762018819E+01 -0.12376869601E+02 -0.37904049081E+01  0.13470163261E+02  0.17770000000E+01 0. -1.
         15    1    1    2    0    0 -0.23573686139E+01  0.71039344632E+01  0.18938769560E+02  0.20441570221E+02  0.17770000000E+01 0.  1.
</event>
<event>
 6    1  0.1045352E-002  0.1831856E+03  0.7546771E-02  0.1067910E+00
        -11   -1    0    0    0    0  0.00000000000E+00  0.00000000000E+00  0.18250000000E+03  0.18250000000E+03  0.00000000000E+00 0. -1.
         11   -1    0    0    0    0 -0.00000000000E+00 -0.00000000000E+00 -0.18250000000E+03  0.18250000000E+03  0.00000000000E+00 0.  1.
        -11    1    1    2    0    0 -0.32822489667E+01 -0.96852005819E-02  0.18178476385E+03  0.18181439333E+03  0.00000000000E+00 0. -1.
         11    1    1    2    0    0 -0.25775142332E+01 -0.21564069630E+00 -0.15778298464E+03  0.15780418347E+03  0.00000000000E+00 0.  1.
        -15    1    1    2    0    0  0.22749251803E+01 -0.25772461118E+00 -0.17452365749E+02  0.17691368115E+02  0.17770000000E+01 0.  1.
         15    1    1    2    0    0  0.35848380196E+01  0.48305050806E+00 -0.65494134666E+01  0.76900550828E+01  0.17770000000E+01 0.  1.
</event>
<event>
 6    1  0.1045352E-002  0.1863555E+03  0.7546771E-02  0.1065427E+00
        -11   -1    0    0    0    0  0.00000000000E+00  0.00000000000E+00  0.18250000000E+03  0.18250000000E+03  0.00000000000E+00 0. -1.
         11   -1    0    0    0    0 -0.00000000000E+00 -0.00000000000E+00 -0.18250000000E+03  0.18250000000E+03  0.00000000000E+00 0.  1.
        -11    1    1    2    0    0  0.29147213783E+01  0.41922678621E+01  0.16176823049E+03  0.16184879087E+03  0.00000000000E+00 0. -1.
         11    1    1    2    0    0 -0.30518049795E+01 -0.22873269811E+01 -0.17860380026E+03  0.17864451529E+03  0.00000000000E+00 0.  1.
        -15    1    1    2    0    0 -0.22795238271E+01  0.45058356155E+01 -0.88415083695E+00  0.54257013533E+01  0.17770000000E+01 0.  1.
         15    1    1    2    0    0  0.24166074282E+01 -0.64107764965E+01  0.17719720603E+02  0.19080992479E+02  0.17770000000E+01 0. -1.
</event>
<event>
 6    1  0.1045352E-002  0.2110911E+03  0.7546771E-02  0.1047731E+00
        -11   -1    0    0    0    0  0.00000000000E+00  0.00000000000E+00  0.18250000000E+03  0.18250000000E+03  0.00000000000E+00 0.  1.
         11   -1    0    0    0    0 -0.00000000000E+00 -0.00000000000E+00 -0.18250000000E+03  0.18250000000E+03  0.00000000000E+00 0. -1.
        -11    1    1    2    0    0  0.25621185343E+00  0.68751373392E+01  0.13619439279E+03  0.13636805266E+03  0.00000000000E+00 0.  1.
         11    1    1    2    0    0  0.17184567059E-01  0.68946354326E+01 -0.15375436586E+03  0.15390887341E+03  0.00000000000E+00 0. -1.
        -15    1    1    2    0    0  0.32056738141E+01 -0.15358596675E+01  0.44606083502E+02  0.44782760343E+02  0.17770000000E+01 0. -1.
         15    1    1    2    0    0 -0.34790702346E+01 -0.12233913104E+02 -0.27046110431E+02  0.29940313592E+02  0.17770000000E+01 0. -1.
</event>
<event>
 6    1  0.1045352E-002  0.1827654E+03  0.7546771E-02  0.1068244E+00
        -11   -1    0    0    0    0  0.00000000000E+00  0.00000000000E+00  0.18250000000E+03  0.18250000000E+03  0.00000000000E+00 0.  1.
         11   -1    0    0    0    0 -0.00000000000E+00 -0.00000000000E+00 -0.18250000000E+03  0.18250000000E+03  0.00000000000E+00 0. -1.
        -11    1    1    2    0    0 -0.22876339210E+01  0.35588365092E+00  0.12601477389E+03  0.12603603914E+03  0.00000000000E+00 0.  1.
         11    1    1    2    0    0  0.23449492189E+01 -0.23541571875E+01 -0.18220434593E+03  0.18223464138E+03  0.00000000000E+00 0. -1.
        -15    1    1    2    0    0  0.18541196130E+01  0.12557766982E+01  0.86048856013E+01  0.90673325662E+01  0.17770000000E+01 0.  1.
         15    1    1    2    0    0 -0.19114349110E+01  0.74249683839E+00  0.47584686436E+02  0.47661986920E+02  0.17770000000E+01 0. -1.
</event>
<event>
 6    1  0.1045352E-002  0.1851194E+03  0.7546771E-02  0.1066389E+00
        -11   -1    0    0    0    0  0.00000000000E+00  0.00000000000E+00  0.18250000000E+03  0.18250000000E+03  0.00000000000E+00 0.  1.
         11   -1    0    0    0    0 -0.00000000000E+00 -0.00000000000E+00 -0.18250000000E+03  0.18250000000E+03  0.00000000000E+00 0. -1.
        -11    1    1    2    0    0  0.14933478324E+01 -0.83934247217E+01  0.16650149523E+03  0.16671960767E+03  0.00000000000E+00 0.  1.
         11    1    1    2    0    0  0.15417480352E+01  0.41847862785E+01 -0.17982525934E+03  0.17988055293E+03  0.00000000000E+00 0. -1.
        -15    1    1    2    0    0 -0.22688760088E+01 -0.45959135789E+00  0.13013692883E+02  0.13336901965E+02  0.17770000000E+01 0.  1.
         15    1    1    2    0    0 -0.76621985877E+00  0.46682298011E+01  0.31007122440E+00  0.50629374391E+01  0.17770000000E+01 0. -1.
</event>
<event>
 6    1  0.1045352E-002  0.1898496E+03  0.7546771E-02  0.1062751E+00
        -11   -1    0    0    0    0  0.00000000000E+00  0.00000000000E+00  0.18250000000E+03  0.18250000000E+03  0.00000000000E+00 0. -1.
         11   -1    0    0    0    0 -0.00000000000E+00 -0.00000000000E+00 -0.18250000000E+03  0.18250000000E+03  0.00000000000E+00 0.  1.
        -11    1    1    2    0    0 -0.38784758785E+01  0.16219272704E+01  0.15699858828E+03  0.15705486285E+03  0.00000000000E+00 0. -1.
         11    1    1    2    0    0  0.37732819352E+01 -0.57812275756E+01 -0.17501430433E+03  0.17515041241E+03  0.00000000000E+00 0.  1.
        -15    1    1    2    0    0  0.18529564515E+01  0.14481539475E+02  0.16441671023E+02  0.22059798462E+02  0.17770000000E+01 0. -1.
         15    1    1    2    0    0 -0.17477625082E+01 -0.10322239170E+02  0.15740450238E+01  0.10734926269E+02  0.17770000000E+01 0.  1.
</event>
<event>
 6    1  0.1045352E-002  0.1764414E+03  0.7546771E-02  0.1073382E+00
        -11   -1    0    0    0    0  0.00000000000E+00  0.00000000000E+00  0.18250000000E+03  0.18250000000E+03  0.00000000000E+00 0. -1.
         11   -1    0    0    0    0 -0.00000000000E+00 -0.00000000000E+00 -0.18250000000E+03  0.18250000000E+03  0.00000000000E+00 0. -1.
        -11    1    1    2    0    0  0.25459896642E+01 -0.33106894726E+01  0.17575988732E+03  0.17580950122E+03  0.00000000000E+00 0. -1.
         11    1    1    2    0    0 -0.52494715049E+01  0.18617913412E+01 -0.17700123999E+03  0.17708885391E+03  0.00000000000E+00 0. -1.
        -15    1    1    2    0    0  0.13521971338E+01  0.28477545634E+01 -0.45059963127E+01  0.57792624886E+01  0.17770000000E+01 0.  1.
         15    1    1    2    0    0  0.13512847069E+01 -0.13988564320E+01  0.57473489891E+01  0.63223823895E+01  0.17770000000E+01 0. -1.
</event>
<event>
 6    1  0.1045352E-002  0.1836628E+03  0.7546771E-02  0.1067533E+00
        -11   -1    0    0    0    0  0.00000000000E+00  0.00000000000E+00  0.18250000000E+03  0.18250000000E+03  0.00000000000E+00 0.  1.
         11   -1    0    0    0    0 -0.00000000000E+00 -0.00000000000E+00 -0.18250000000E+03  0.18250000000E+03  0.00000000000E+00 0.  1.
        -11    1    1    2    0    0 -0.14863095429E+01  0.19980961860E+01  0.66531939186E+02  0.66578528342E+02  0.00000000000E+00 0.  1.
         11    1    1    2    0    0 -0.68453895334E+01  0.63940605198E+01 -0.18109512010E+03  0.18133721596E+03  0.00000000000E+00 0.  1.
        -15    1    1    2    0    0  0.72625590180E+01 -0.46528401521E+00  0.10071801550E+03  0.10099622581E+03  0.17770000000E+01 0.  1.
         15    1    1    2    0    0  0.10691400583E+01 -0.79268726905E+01  0.13845165418E+02  0.16088029885E+02  0.17770000000E+01 0. -1.
</event>
<event>
 6    1  0.1045352E-002  0.2353801E+03  0.7546771E-02  0.1032751E+00
        -11   -1    0    0    0    0  0.00000000000E+00  0.00000000000E+00  0.18250000000E+03  0.18250000000E+03  0.00000000000E+00 0. -1.
         11   -1    0    0    0    0 -0.00000000000E+00 -0.00000000000E+00 -0.18250000000E+03  0.18250000000E+03  0.00000000000E+00 0. -1.
        -11    1    1    2    0    0  0.25135520146E+01 -0.17612444872E+00  0.12576701296E+03  0.12579225140E+03  0.00000000000E+00 0. -1.
         11    1    1    2    0    0 -0.21112146090E+01  0.24815447703E+00 -0.12960251317E+03  0.12961994533E+03  0.00000000000E+00 0. -1.
        -15    1    1    2    0    0  0.59679740567E+01 -0.15185855850E+01 -0.52478441201E+02  0.52868396385E+02  0.17770000000E+01 0.  1.
         15    1    1    2    0    0 -0.63703114623E+01  0.14465555566E+01  0.56313941406E+02  0.56719406879E+02  0.17770000000E+01 0. -1.
</event>
<event>
 6    1  0.1045352E-002  0.1834487E+03  0.7546771E-02  0.1067702E+00
        -11   -1    0    0    0    0  0.00000000000E+00  0.00000000000E+00  0.18250000000E+03  0.18250000000E+03  0.00000000000E+00 0.  1.
         11   -1    0    0    0    0 -0.00000000000E+00 -0.00000000000E+00 -0.18250000000E+03  0.18250000000E+03  0.00000000000E+00 0.  1.
        -11    1    1    2    0    0  0.19042026565E+01 -0.22773357157E+01  0.16309883515E+03  0.16312584797E+03  0.00000000000E+00 0.  1.
         11    1    1    2    0    0  0.95043000400E+00 -0.26968958631E+01 -0.18152882818E+03  0.18155134818E+03  0.00000000000E+00 0.  1.
        -15    1    1    2    0    0  0.30039005281E+00  0.12554052171E+01  0.11254277780E+02  0.11466593818E+02  0.17770000000E+01 0.  1.
         15    1    1    2    0    0 -0.31550227134E+01  0.37188263616E+01  0.71757152501E+01  0.88562100348E+01  0.17770000000E+01 0.  1.
</event>
<event>
 6    1  0.1045352E-002  0.1845933E+03  0.7546771E-02  0.1066801E+00
        -11   -1    0    0    0    0  0.00000000000E+00  0.00000000000E+00  0.18250000000E+03  0.18250000000E+03  0.00000000000E+00 0. -1.
         11   -1    0    0    0    0 -0.00000000000E+00 -0.00000000000E+00 -0.18250000000E+03  0.18250000000E+03  0.00000000000E+00 0. -1.
        -11    1    1    2    0    0  0.26494573549E+01 -0.14078297717E+01  0.14815149682E+03  0.14818187345E+03  0.00000000000E+00 0. -1.
         11    1    1    2    0    0  0.62958650517E+01 -0.17633292776E+01 -0.18028823194E+03  0.18040674550E+03  0.00000000000E+00 0. -1.
        -15    1    1    2    0    0 -0.67724361849E+01  0.36128348578E+01  0.54648853579E+01  0.95885957555E+01  0.17770000000E+01 0.  1.
         15    1    1    2    0    0 -0.21728862216E+01 -0.44167580848E+00  0.26671849758E+02  0.26822785287E+02  0.17770000000E+01 0. -1.
</event>
<event>
 6    1  0.1045352E-002  0.1897534E+03  0.7546771E-02  0.1062823E+00
        -11   -1    0    0    0    0  0.00000000000E+00  0.00000000000E+00  0.18250000000E+03  0.18250000000E+03  0.00000000000E+00 0.  1.
         11   -1    0    0    0    0 -0.00000000000E+00 -0.00000000000E+00 -0.18250000000E+03  0.18250000000E+03  0.00000000000E+00 0. -1.
        -11    1    1    2    0    0 -0.75285570042E+01  0.64964157951E+01  0.16191319781E+03  0.16221826720E+03  0.00000000000E+00 0.  1.
         11    1    1    2    0    0  0.19990884664E+01  0.32980492394E+01 -0.17520411573E+03  0.17524655675E+03  0.00000000000E+00 0. -1.
        -15    1    1    2    0    0  0.70090259087E+01 -0.10945515980E+02  0.17935338273E+02  0.22220820242E+02  0.17770000000E+01 0. -1.
         15    1    1    2    0    0 -0.14795573709E+01  0.11510509453E+01 -0.46444203529E+01  0.53143558130E+01  0.17770000000E+01 0.  1.
</event>
<event>
 6    1  0.1045352E-002  0.2020392E+03  0.7546771E-02  0.1053885E+00
        -11   -1    0    0    0    0  0.00000000000E+00  0.00000000000E+00  0.18250000000E+03  0.18250000000E+03  0.00000000000E+00 0.  1.
         11   -1    0    0    0    0 -0.00000000000E+00 -0.00000000000E+00 -0.18250000000E+03  0.18250000000E+03  0.00000000000E+00 0.  1.
        -11    1    1    2    0    0 -0.20708684708E+01  0.32393022650E+01  0.16291539628E+03  0.16296075576E+03  0.00000000000E+00 0.  1.
         11    1    1    2    0    0  0.11244146428E+02  0.36573826693E+01 -0.14629508516E+03  0.14677213366E+03  0.00000000000E+00 0.  1.
        -15    1    1    2    0    0  0.62369929691E+01  0.49753662272E+00  0.16620056003E+02  0.17847454007E+02  0.17770000000E+01 0. -1.
         15    1    1    2    0    0 -0.15410270926E+02 -0.73942215570E+01 -0.33240367119E+02  0.37419656568E+02  0.17770000000E+01 0.  1.
</event>
<event>
 6    1  0.1045352E-002  0.1867014E+03  0.7546771E-02  0.1065159E+00
        -11   -1    0    0    0    0  0.00000000000E+00  0.00000000000E+00  0.18250000000E+03  0.18250000000E+03  0.00000000000E+00 0. -1.
         11   -1    0    0    0    0 -0.00000000000E+00 -0.00000000000E+00 -0.18250000000E+03  0.18250000000E+03  0.00000000000E+00 0.  1.
        -11    1    1    2    0    0 -0.24853075028E+01 -0.41468849192E+00  0.17409838550E+03  0.17411661768E+03  0.00000000000E+00 0. -1.
         11    1    1    2    0    0 -0.33738115217E+01  0.14925477031E+01 -0.17826047185E+03  0.17829864309E+03  0.00000000000E+00 0.  1.
        -15    1    1    2    0    0  0.28132176261E+01 -0.29550936810E+01  0.65587874107E+01  0.79260452543E+01  0.17770000000E+01 0.  1.
         15    1    1    2    0    0  0.30459013984E+01  0.18772344699E+01 -0.23967010584E+01  0.46586939744E+01  0.17770000000E+01 0. -1.
</event>
<event>
 6    1  0.1045352E-002  0.1852184E+03  0.7546771E-02  0.1066311E+00
        -11   -1    0    0    0    0  0.00000000000E+00  0.00000000000E+00  0.18250000000E+03  0.18250000000E+03  0.00000000000E+00 0. -1.
         11   -1    0    0    0    0 -0.00000000000E+00 -0.00000000000E+00 -0.18250000000E+03  0.18250000000E+03  0.00000000000E+00 0.  1.
        -11    1    1    2    0    0 -0.28934540020E+01  0.45965581072E+01  0.71937200970E+01  0.90138799265E+01  0.00000000000E+00 0. -1.
         11    1    1    2    0    0 -0.29665988580E+01 -0.68732649588E+00 -0.17975580823E+03  0.17978160005E+03  0.00000000000E+00 0.  1.
        -15    1    1    2    0    0  0.27687419048E+01 -0.35299115856E+01  0.17255126755E+03  0.17261872399E+03  0.17770000000E+01 0. -1.
         15    1    1    2    0    0  0.30913109553E+01 -0.37932002572E+00  0.10820578344E-01  0.35857960328E+01  0.17770000000E+01 0. -1.
</event>
<event>
 6    1  0.1045352E-002  0.1828391E+03  0.7546771E-02  0.1068185E+00
        -11   -1    0    0    0    0  0.00000000000E+00  0.00000000000E+00  0.18250000000E+03  0.18250000000E+03  0.00000000000E+00 0.  1.
         11   -1    0    0    0    0 -0.00000000000E+00 -0.00000000000E+00 -0.18250000000E+03  0.18250000000E+03  0.00000000000E+00 0. -1.
        -11    1    1    2    0    0  0.20800056965E+00 -0.36382768817E+01  0.13263071678E+03  0.13268077237E+03  0.00000000000E+00 0.  1.
         11    1    1    2    0    0 -0.32514591538E+01 -0.28949646218E+01 -0.18210888082E+03  0.18216091041E+03  0.00000000000E+00 0. -1.
        -15    1    1    2    0    0  0.54821762328E+00  0.26550541144E+01  0.22318465356E+02  0.22552637978E+02  0.17770000000E+01 0.  1.
         15    1    1    2    0    0  0.24952409609E+01  0.38781873891E+01  0.27159698684E+02  0.27605679244E+02  0.17770000000E+01 0. -1.
</event>
<event>
 6    1  0.1045352E-002  0.1846916E+03  0.7546771E-02  0.1066724E+00
        -11   -1    0    0    0    0  0.00000000000E+00  0.00000000000E+00  0.18250000000E+03  0.18250000000E+03  0.00000000000E+00 0. -1.
         11   -1    0    0    0    0 -0.00000000000E+00 -0.00000000000E+00 -0.18250000000E+03  0.18250000000E+03  0.00000000000E+00 0.  1.
        -11    1    1    2    0    0 -0.68152755675E+01 -0.25926387178E+01  0.18016092921E+03  0.18030843067E+03  0.00000000000E+00 0. -1.
         11    1    1    2    0    0 -0.24713435667E+01 -0.74136169766E+00 -0.15055769819E+03  0.15057980489E+03  0.00000000000E+00 0.  1.
        -15    1    1    2    0    0  0.55194710894E+01  0.68485069041E+01 -0.26181866720E+02  0.27676966631E+02  0.17770000000E+01 0.  1.
         15    1    1    2    0    0  0.37671480449E+01 -0.35145064886E+01 -0.34213642987E+01  0.64347978146E+01  0.17770000000E+01 0. -1.
</event>
<event>
 6    1  0.1045352E-002  0.1863621E+03  0.7546771E-02  0.1065421E+00
        -11   -1    0    0    0    0  0.00000000000E+00  0.00000000000E+00  0.18250000000E+03  0.18250000000E+03  0.00000000000E+00 0.  1.
         11   -1    0    0    0    0 -0.00000000000E+00 -0.00000000000E+00 -0.18250000000E+03  0.18250000000E+03  0.00000000000E+00 0.  1.
        -11    1    1    2    0    0  0.72581010285E+01 -0.22286881506E+01  0.17847644352E+03  0.17863786825E+03  0.00000000000E+00 0.  1.
         11    1    1    2    0    0  0.53695841317E+00  0.21780141828E+01 -0.14647590004E+03  0.14649307616E+03  0.00000000000E+00 0.  1.
        -15    1    1    2    0    0 -0.25447547956E+01  0.99714256606E+01 -0.74881254071E+01  0.12850480839E+02  0.17770000000E+01 0.  1.
         15    1    1    2    0    0 -0.52503046461E+01 -0.99207516928E+01 -0.24512418069E+02  0.27018574752E+02  0.17770000000E+01 0. -1.
</event>
<event>
 6    1  0.1045352E-002  0.1845640E+03  0.7546771E-02  0.1066824E+00
        -11   -1    0    0    0    0  0.00000000000E+00  0.00000000000E+00  0.18250000000E+03  0.18250000000E+03  0.00000000000E+00 0.  1.
         11   -1    0    0    0    0 -0.00000000000E+00 -0.00000000000E+00 -0.18250000000E+03  0.18250000000E+03  0.00000000000E+00 0.  1.
        -11    1    1    2    0    0  0.27293031481E+01 -0.14242514550E+01  0.17684128022E+03  0.17686807507E+03  0.00000000000E+00 0.  1.
         11    1    1    2    0    0  0.10078382664E+01  0.37012150433E+01 -0.18039526296E+03  0.18043604304E+03  0.00000000000E+00 0.  1.
        -15    1    1    2    0    0 -0.38449417087E+01 -0.12576356466E+01  0.12103812682E+01  0.45812635787E+01  0.17770000000E+01 0.  1.
         15    1    1    2    0    0  0.10780029410E+00 -0.10193279418E+01  0.23436014707E+01  0.31146183088E+01  0.17770000000E+01 0. -1.
</event>
<event>
 6    1  0.1045352E-002  0.1835745E+03  0.7546771E-02  0.1067603E+00
        -11   -1    0    0    0    0  0.00000000000E+00  0.00000000000E+00  0.18250000000E+03  0.18250000000E+03  0.00000000000E+00 0.  1.
         11   -1    0    0    0    0 -0.00000000000E+00 -0.00000000000E+00 -0.18250000000E+03  0.18250000000E+03  0.00000000000E+00 0. -1.
        -11    1    1    2    0    0  0.11507011119E+01 -0.24685406111E+01  0.17433376013E+03  0.17435503356E+03  0.00000000000E+00 0.  1.
         11    1    1    2    0    0 -0.13003288594E+00  0.33886805259E+01 -0.18139380942E+03  0.18142550581E+03  0.00000000000E+00 0. -1.
        -15    1    1    2    0    0 -0.71692889333E+00  0.13877567881E+01  0.52965160934E+01  0.58009195537E+01  0.17770000000E+01 0. -1.
         15    1    1    2    0    0 -0.30373933263E+00 -0.23078967028E+01  0.17635331931E+01  0.34185410772E+01  0.17770000000E+01 0.  1.
</event>
<event>
 6    1  0.1045352E-002  0.1850193E+03  0.7546771E-02  0.1066467E+00
        -11   -1    0    0    0    0  0.00000000000E+00  0.00000000000E+00  0.18250000000E+03  0.18250000000E+03  0.00000000000E+00 0.  1.
         11   -1    0    0    0    0 -0.00000000000E+00 -0.00000000000E+00 -0.18250000000E+03  0.18250000000E+03  0.00000000000E+00 0.  1.
        -11    1    1    2    0    0 -0.39717972881E+01 -0.55698238013E+01  0.17985064918E+03  0.17998070485E+03  0.00000000000E+00 0.  1.
         11    1    1    2    0    0 -0.64123979716E+01 -0.38605778262E+01 -0.14378670662E+03  0.14398138737E+03  0.00000000000E+00 0.  1.
        -15    1    1    2    0    0  0.91038155971E+01  0.52350414110E+01 -0.34416161256E+02  0.36026587426E+02  0.17770000000E+01 0.  1.
         15    1    1    2    0    0  0.12803796627E+01  0.41953602166E+01 -0.16477813032E+01  0.50113203500E+01  0.17770000000E+01 0. -1.
</event>
<event>
 6    1  0.1045352E-002  0.1868839E+03  0.7546771E-02  0.1065018E+00
        -11   -1    0    0    0    0  0.00000000000E+00  0.00000000000E+00  0.18250000000E+03  0.18250000000E+03  0.00000000000E+00 0. -1.
         11   -1    0    0    0    0 -0.00000000000E+00 -0.00000000000E+00 -0.18250000000E+03  0.18250000000E+03  0.00000000000E+00 0. -1.
        -11    1    1    2    0    0 -0.28416717180E+01 -0.61424003766E+01  0.17798742718E+03  0.17811605322E+03  0.00000000000E+00 0. -1.
         11    1    1    2    0    0 -0.46480426313E+00  0.31293279477E+01 -0.17297401850E+03  0.17300294741E+03  0.00000000000E+00 0. -1.
        -15    1    1    2    0    0  0.17763980065E+01  0.74578867646E+01 -0.24681115478E+01  0.82477250490E+01  0.17770000000E+01 0.  1.
         15    1    1    2    0    0  0.15300779746E+01 -0.44448143357E+01 -0.25452971347E+01  0.56332743224E+01  0.17770000000E+01 0.  1.
</event>
<event>
 6    1  0.1045352E-002  0.1740334E+03  0.7546771E-02  0.1075401E+00
        -11   -1    0    0    0    0  0.00000000000E+00  0.00000000000E+00  0.18250000000E+03  0.18250000000E+03  0.00000000000E+00 0.  1.
         11   -1    0    0    0    0 -0.00000000000E+00 -0.00000000000E+00 -0.18250000000E+03  0.18250000000E+03  0.00000000000E+00 0. -1.
        -11    1    1    2    0    0 -0.84878306877E+00  0.47094776771E+01  0.17195031305E+03  0.17201688804E+03  0.00000000000E+00 0.  1.
         11    1    1    2    0    0  0.16690327410E+01  0.20496580908E+01 -0.17612168395E+03  0.17614151789E+03  0.00000000000E+00 0. -1.
        -15    1    1    2    0    0 -0.26946685271E+01 -0.36554027927E+01  0.91879201161E+01  0.10401865847E+02  0.17770000000E+01 0.  1.
         15    1    1    2    0    0  0.18744188548E+01 -0.31037329751E+01 -0.50165492208E+01  0.64397282170E+01  0.17770000000E+01 0. -1.
</event>
<event>
 6    1  0.1045352E-002  0.1835491E+03  0.7546771E-02  0.1067623E+00
        -11   -1    0    0    0    0  0.00000000000E+00  0.00000000000E+00  0.18250000000E+03  0.18250000000E+03  0.00000000000E+00 0. -1.
         11   -1    0    0    0    0 -0.00000000000E+00 -0.00000000000E+00 -0.18250000000E+03  0.18250000000E+03  0.00000000000E+00 0.  1.
        -11    1    1    2    0    0 -0.45400260711E+01 -0.35645004812E+00  0.18139378299E+03  0.18145093937E+03  0.00000000000E+00 0. -1.
         11    1    1    2    0    0  0.17031875616E+01 -0.41086250594E+01 -0.15445070857E+03  0.15451473401E+03  0.00000000000E+00 0.  1.
        -15    1    1    2    0    0  0.46761891049E+01 -0.64902645048E+00 -0.14125621995E+02  0.14999296837E+02  0.17770000000E+01 0.  1.
         15    1    1    2    0    0 -0.18393505954E+01  0.51141015580E+01 -0.12817452417E+02  0.14035029777E+02  0.17770000000E+01 0. -1.
</event>
<event>
 6    1  0.1045352E-002  0.1767092E+03  0.7546771E-02  0.1073160E+00
        -11   -1    0    0    0    0  0.00000000000E+00  0.00000000000E+00  0.18250000000E+03  0.18250000000E+03  0.00000000000E+00 0. -1.
         11   -1    0    0    0    0 -0.00000000000E+00 -0.00000000000E+00 -0.18250000000E+03  0.18250000000E+03  0.00000000000E+00 0. -1.
        -11    1    1    2    0    0  0.28312929202E+01  0.69535051421E+00  0.17835391238E+03  0.17837773906E+03  0.00000000000E+00 0. -1.
         11    1    1    2    0    0  0.58227579965E+01 -0.38108902732E+01 -0.17503760169E+03  0.17517588133E+03  0.00000000000E+00 0. -1.
        -15    1    1    2    0    0 -0.77251200232E+01  0.25223610300E+01 -0.10859447328E+01  0.83890875249E+01  0.17770000000E+01 0. -1.
         15    1    1    2    0    0 -0.92893089359E+00  0.59317872899E+00 -0.22303659557E+01  0.30572920871E+01  0.17770000000E+01 0.  1.
</event>
<event>
 6    1  0.1045352E-002  0.1830389E+03  0.7546771E-02  0.1068027E+00
        -11   -1    0    0    0    0  0.00000000000E+00  0.00000000000E+00  0.18250000000E+03  0.18250000000E+03  0.00000000000E+00 0.  1.
         11   -1    0    0    0    0 -0.00000000000E+00 -0.00000000000E+00 -0.18250000000E+03  0.18250000000E+03  0.00000000000E+00 0.  1.
        -11    1    1    2    0    0 -0.79990682391E+00 -0.27148815221E+01  0.18193904600E+03  0.18196105872E+03  0.00000000000E+00 0.  1.
         11    1    1    2    0    0 -0.32457232354E+01  0.49348557392E+00 -0.16504633345E+03  0.16507898241E+03  0.00000000000E+00 0.  1.
        -15    1    1    2    0    0  0.10954828240E+01  0.85906505991E+00 -0.83329467096E+01  0.86332963148E+01  0.17770000000E+01 0.  1.
         15    1    1    2    0    0  0.29501472353E+01  0.13623308882E+01 -0.85597658385E+01  0.93266625525E+01  0.17770000000E+01 0. -1.
</event>
<event>
 6    1  0.1045352E-002  0.1828123E+03  0.7546771E-02  0.1068206E+00
        -11   -1    0    0    0    0  0.00000000000E+00  0.00000000000E+00  0.18250000000E+03  0.18250000000E+03  0.00000000000E+00 0. -1.
         11   -1    0    0    0    0 -0.00000000000E+00 -0.00000000000E+00 -0.18250000000E+03  0.18250000000E+03  0.00000000000E+00 0.  1.
        -11    1    1    2    0    0 -0.13991942922E+01 -0.12393211463E+02  0.18176030067E+03  0.18218769534E+03  0.00000000000E+00 0. -1.
         11    1    1    2    0    0  0.73628652942E+00  0.87591247773E+00 -0.14947964520E+02  0.14991697163E+02  0.00000000000E+00 0.  1.
        -15    1    1    2    0    0  0.11992311289E+01  0.10481823545E+02 -0.16371456457E+03  0.16406377772E+03  0.17770000000E+01 0.  1.
         15    1    1    2    0    0 -0.53632336613E+00  0.10354754397E+01 -0.30977715845E+01  0.37568297711E+01  0.17770000000E+01 0.  1.
</event>
<event>
 6    1  0.1045352E-002  0.1826047E+03  0.7546771E-02  0.1068372E+00
        -11   -1    0    0    0    0  0.00000000000E+00  0.00000000000E+00  0.18250000000E+03  0.18250000000E+03  0.00000000000E+00 0.  1.
         11   -1    0    0    0    0 -0.00000000000E+00 -0.00000000000E+00 -0.18250000000E+03  0.18250000000E+03  0.00000000000E+00 0.  1.
        -11    1    1    2    0    0  0.40307256289E+01  0.19128068569E+01  0.18234073668E+03  0.18239531198E+03  0.00000000000E+00 0.  1.
         11    1    1    2    0    0 -0.10860630988E+01 -0.59469787628E+00 -0.84278229348E+02  0.84287324911E+02  0.00000000000E+00 0.  1.
        -15    1    1    2    0    0 -0.24201197685E+01 -0.30643408967E+01 -0.48448328915E+02  0.48637901563E+02  0.17770000000E+01 0. -1.
         15    1    1    2    0    0 -0.52454276165E+00  0.17462319160E+01 -0.49614178414E+02  0.49679461548E+02  0.17770000000E+01 0.  1.
</event>
<event>
 6    1  0.1045352E-002  0.1861187E+03  0.7546771E-02  0.1065610E+00
        -11   -1    0    0    0    0  0.00000000000E+00  0.00000000000E+00  0.18250000000E+03  0.18250000000E+03  0.00000000000E+00 0. -1.
         11   -1    0    0    0    0 -0.00000000000E+00 -0.00000000000E+00 -0.18250000000E+03  0.18250000000E+03  0.00000000000E+00 0. -1.
        -11    1    1    2    0    0 -0.15628433075E+01 -0.58394129512E+01  0.17877916213E+03  0.17888132948E+03  0.00000000000E+00 0. -1.
         11    1    1    2    0    0  0.61528386177E+01  0.59991477552E+01 -0.13313103289E+03  0.13340809240E+03  0.00000000000E+00 0. -1.
        -15    1    1    2    0    0 -0.48555321455E+01 -0.15757665452E+01 -0.48642743254E+02  0.48942143730E+02  0.17770000000E+01 0.  1.
         15    1    1    2    0    0  0.26553683522E+00  0.14160317412E+01  0.29946140166E+01  0.37684343979E+01  0.17770000000E+01 0. -1.
</event>
<event>
 6    1  0.1045352E-002  0.1830411E+03  0.7546771E-02  0.1068025E+00
        -11   -1    0    0    0    0  0.00000000000E+00  0.00000000000E+00  0.18250000000E+03  0.18250000000E+03  0.00000000000E+00 0. -1.
         11   -1    0    0    0    0 -0.00000000000E+00 -0.00000000000E+00 -0.18250000000E+03  0.18250000000E+03  0.00000000000E+00 0.  1.
        -11    1    1    2    0    0 -0.95927094373E+00  0.18118071116E+01  0.14612778804E+03  0.14614216805E+03  0.00000000000E+00 0. -1.
         11    1    1    2    0    0 -0.55017485940E+01 -0.10122827167E+01 -0.18187284001E+03  0.18195885218E+03  0.00000000000E+00 0.  1.
        -15    1    1    2    0    0  0.10089968584E+01 -0.24341735540E+01  0.11450172625E+02  0.11883074421E+02  0.17770000000E+01 0. -1.
         15    1    1    2    0    0  0.54520226793E+01  0.16346491591E+01  0.24294879342E+02  0.25015905349E+02  0.17770000000E+01 0.  1.
</event>
<event>
 6    1  0.1045352E-002  0.1746739E+03  0.7546771E-02  0.1074861E+00
        -11   -1    0    0    0    0  0.00000000000E+00  0.00000000000E+00  0.18250000000E+03  0.18250000000E+03  0.00000000000E+00 0. -1.
         11   -1    0    0    0    0 -0.00000000000E+00 -0.00000000000E+00 -0.18250000000E+03  0.18250000000E+03  0.00000000000E+00 0.  1.
        -11    1    1    2    0    0 -0.13978658960E+00  0.44358579622E+01  0.17539703807E+03  0.17545317706E+03  0.00000000000E+00 0. -1.
         11    1    1    2    0    0 -0.32371398471E+01 -0.31357705069E+00 -0.17390810018E+03  0.17393850843E+03  0.00000000000E+00 0.  1.
        -15    1    1    2    0    0 -0.16373494192E+01  0.29461248915E+01 -0.48298141150E+01  0.61518613754E+01  0.17770000000E+01 0. -1.
         15    1    1    2    0    0  0.50142758559E+01 -0.70684058029E+01  0.33408762277E+01  0.94564531365E+01  0.17770000000E+01 0.  1.
</event>
<event>
 6    1  0.1045352E-002  0.1893798E+03  0.7546771E-02  0.1063107E+00
        -11   -1    0    0    0    0  0.00000000000E+00  0.00000000000E+00  0.18250000000E+03  0.18250000000E+03  0.00000000000E+00 0.  1.
         11   -1    0    0    0    0 -0.00000000000E+00 -0.00000000000E+00 -0.18250000000E+03  0.18250000000E+03  0.00000000000E+00 0.  1.
        -11    1    1    2    0    0  0.57879223707E+01  0.85151280351E+01  0.17531811943E+03  0.17562018805E+03  0.00000000000E+00 0.  1.
         11    1    1    2    0    0  0.17865770368E+01  0.22366014715E+01 -0.15243958007E+03  0.15246645472E+03  0.00000000000E+00 0.  1.
        -15    1    1    2    0    0 -0.47435477697E+00  0.19154669155E+01 -0.22104258407E+02  0.22263198213E+02  0.17770000000E+01 0.  1.
         15    1    1    2    0    0 -0.71001446305E+01 -0.12667196422E+02 -0.77428095440E+00  0.14650159008E+02  0.17770000000E+01 0. -1.
</event>
<event>
 6    1  0.1045352E-002  0.1835812E+03  0.7546771E-02  0.1067597E+00
        -11   -1    0    0    0    0  0.00000000000E+00  0.00000000000E+00  0.18250000000E+03  0.18250000000E+03  0.00000000000E+00 0. -1.
         11   -1    0    0    0    0 -0.00000000000E+00 -0.00000000000E+00 -0.18250000000E+03  0.18250000000E+03  0.00000000000E+00 0.  1.
        -11    1    1    2    0    0  0.58239398584E+01 -0.15366562259E+00  0.18132520069E+03  0.18141877052E+03  0.00000000000E+00 0. -1.
         11    1    1    2    0    0 -0.31220623210E+01 -0.62164839230E+00 -0.23561584504E+01  0.39604548354E+01  0.00000000000E+00 0.  1.
        -15    1    1    2    0    0 -0.20035477181E+01  0.10295724679E+01 -0.17633122488E+03  0.17635456563E+03  0.17770000000E+01 0.  1.
         15    1    1    2    0    0 -0.69832981920E+00 -0.25425845297E+00 -0.26378173654E+01  0.32662090182E+01  0.17770000000E+01 0.  1.
</event>
<event>
 6    1  0.1045352E-002  0.1896124E+03  0.7546771E-02  0.1062930E+00
        -11   -1    0    0    0    0  0.00000000000E+00  0.00000000000E+00  0.18250000000E+03  0.18250000000E+03  0.00000000000E+00 0. -1.
         11   -1    0    0    0    0 -0.00000000000E+00 -0.00000000000E+00 -0.18250000000E+03  0.18250000000E+03  0.00000000000E+00 0. -1.
        -11    1    1    2    0    0  0.47322826001E+01 -0.49691901367E+00  0.17532309075E+03  0.17538764944E+03  0.00000000000E+00 0. -1.
         11    1    1    2    0    0 -0.55858124970E+01  0.16063507899E+01 -0.17294768387E+03  0.17304532071E+03  0.00000000000E+00 0. -1.
        -15    1    1    2    0    0 -0.41665419335E+01  0.26247457518E+00  0.53938993725E+01  0.70484639481E+01  0.17770000000E+01 0. -1.
         15    1    1    2    0    0  0.50200718304E+01 -0.13719063514E+01 -0.77693062537E+01  0.95185659048E+01  0.17770000000E+01 0.  1.
</event>
<event>
 6    1  0.1045352E-002  0.1865082E+03  0.7546771E-02  0.1065308E+00
        -11   -1    0    0    0    0  0.00000000000E+00  0.00000000000E+00  0.18250000000E+03  0.18250000000E+03  0.00000000000E+00 0.  1.
         11   -1    0    0    0    0 -0.00000000000E+00 -0.00000000000E+00 -0.18250000000E+03  0.18250000000E+03  0.00000000000E+00 0. -1.
        -11    1    1    2    0    0 -0.32354444026E+01  0.16550509038E+01  0.17056926260E+03  0.17060797354E+03  0.00000000000E+00 0.  1.
         11    1    1    2    0    0  0.14570454638E+01  0.24309564253E+01 -0.17846933145E+03  0.17849183399E+03  0.00000000000E+00 0. -1.
        -15    1    1    2    0    0  0.11222074489E+01 -0.51553365433E+01 -0.18838555601E+01  0.58773706029E+01  0.17770000000E+01 0. -1.
         15    1    1    2    0    0  0.65619148997E+00  0.10693292142E+01  0.97839244140E+01  0.10022821867E+02  0.17770000000E+01 0.  1.
</event>
<event>
 6    1  0.1045352E-002  0.1865779E+03  0.7546771E-02  0.1065254E+00
        -11   -1    0    0    0    0  0.00000000000E+00  0.00000000000E+00  0.18250000000E+03  0.18250000000E+03  0.00000000000E+00 0.  1.
         11   -1    0    0    0    0 -0.00000000000E+00 -0.00000000000E+00 -0.18250000000E+03  0.18250000000E+03  0.00000000000E+00 0.  1.
        -11    1    1    2    0    0  0.69072008033E+01 -0.74926476553E+01  0.17813082789E+03  0.17842208674E+03  0.00000000000E+00 0.  1.
         11    1    1    2    0    0 -0.20089986508E+01 -0.14657960606E+01 -0.16314169453E+03  0.16316064822E+03  0.00000000000E+00 0.  1.
        -15    1    1    2    0    0  0.18654557199E+01  0.10489711811E+02 -0.96837794068E+01  0.14506801560E+02  0.17770000000E+01 0.  1.
         15    1    1    2    0    0 -0.67636578724E+01 -0.15312680946E+01 -0.53053539535E+01  0.89104634764E+01  0.17770000000E+01 0. -1.
</event>
<event>
 6    1  0.1045352E-002  0.1830536E+03  0.7546771E-02  0.1068015E+00
        -11   -1    0    0    0    0  0.00000000000E+00  0.00000000000E+00  0.18250000000E+03  0.18250000000E+03  0.00000000000E+00 0. -1.
         11   -1    0    0    0    0 -0.00000000000E+00 -0.00000000000E+00 -0.18250000000E+03  0.18250000000E+03  0.00000000000E+00 0. -1.
        -11    1    1    2    0    0 -0.12811298289E+01 -0.25013760573E+01  0.15633811329E+03  0.15636337117E+03  0.00000000000E+00 0. -1.
         11    1    1    2    0    0 -0.17647400893E+00  0.35663477054E+01 -0.18191131794E+03  0.18194635906E+03  0.00000000000E+00 0. -1.
        -15    1    1    2    0    0  0.28194392392E+01  0.99116461866E+00  0.64546006868E+01  0.73315239856E+01  0.17770000000E+01 0.  1.
         15    1    1    2    0    0 -0.13618354014E+01 -0.20561362668E+01  0.19118603964E+02  0.19358745789E+02  0.17770000000E+01 0. -1.
</event>
<event>
 6    1  0.1045352E-002  0.1836713E+03  0.7546771E-02  0.1067526E+00
        -11   -1    0    0    0    0  0.00000000000E+00  0.00000000000E+00  0.18250000000E+03  0.18250000000E+03  0.00000000000E+00 0. -1.
         11   -1    0    0    0    0 -0.00000000000E+00 -0.00000000000E+00 -0.18250000000E+03  0.18250000000E+03  0.00000000000E+00 0.  1.
        -11    1    1    2    0    0 -0.21859839654E+01  0.18751636606E+01  0.18130578127E+03  0.18132865490E+03  0.00000000000E+00 0. -1.
         11    1    1    2    0    0 -0.26301832551E+01 -0.88441551622E+00 -0.16000289994E+03  0.16002696036E+03  0.00000000000E+00 0.  1.
        -15    1    1    2    0    0 -0.21023442908E+01 -0.14264145406E+01 -0.62189178148E+01  0.69488975921E+01  0.17770000000E+01 0. -1.
         15    1    1    2    0    0  0.69185115114E+01  0.43566639615E+00 -0.15083963518E+02  0.16695487150E+02  0.17770000000E+01 0.  1.
</event>
<event>
 6    1  0.1045352E-002  0.1883087E+03  0.7546771E-02  0.1063923E+00
        -11   -1    0    0    0    0  0.00000000000E+00  0.00000000000E+00  0.18250000000E+03  0.18250000000E+03  0.00000000000E+00 0.  1.
         11   -1    0    0    0    0 -0.00000000000E+00 -0.00000000000E+00 -0.18250000000E+03  0.18250000000E+03  0.00000000000E+00 0. -1.
        -11    1    1    2    0    0  0.42155753152E+01  0.35151999699E+01  0.17660606554E+03  0.17669134130E+03  0.00000000000E+00 0.  1.
         11    1    1    2    0    0  0.48244277600E+01  0.45392653560E+01 -0.14840106936E+03  0.14854883851E+03  0.00000000000E+00 0. -1.
        -15    1    1    2    0    0 -0.28856025861E+01  0.19627761565E+01 -0.27576199789E+02  0.27852894218E+02  0.17770000000E+01 0.  1.
         15    1    1    2    0    0 -0.61544004891E+01 -0.10017241482E+02 -0.62879638263E+00  0.11906925976E+02  0.17770000000E+01 0. -1.
</event>
<event>
 6    1  0.1045352E-002  0.1826608E+03  0.7546771E-02  0.1068327E+00
        -11   -1    0    0    0    0  0.00000000000E+00  0.00000000000E+00  0.18250000000E+03  0.18250000000E+03  0.00000000000E+00 0.  1.
         11   -1    0    0    0    0 -0.00000000000E+00 -0.00000000000E+00 -0.18250000000E+03  0.18250000000E+03  0.00000000000E+00 0. -1.
        -11    1    1    2    0    0 -0.22982292019E+01  0.19696886136E+01  0.78381902350E+02  0.78440322199E+02  0.00000000000E+00 0.  1.
         11    1    1    2    0    0  0.31335265879E+01 -0.32206278064E+00 -0.18231195008E+03  0.18233916161E+03  0.00000000000E+00 0. -1.
        -15    1    1    2    0    0 -0.15383926357E+01 -0.23755788031E+01  0.95022219561E+02  0.95080965318E+02  0.17770000000E+01 0. -1.
         15    1    1    2    0    0  0.70309524966E+00  0.72795297008E+00  0.89078281714E+01  0.91395508745E+01  0.17770000000E+01 0. -1.
</event>
<event>
 6    1  0.1045352E-002  0.1844655E+03  0.7546771E-02  0.1066901E+00
        -11   -1    0    0    0    0  0.00000000000E+00  0.00000000000E+00  0.18250000000E+03  0.18250000000E+03  0.00000000000E+00 0. -1.
         11   -1    0    0    0    0 -0.00000000000E+00 -0.00000000000E+00 -0.18250000000E+03  0.18250000000E+03  0.00000000000E+00 0.  1.
        -11    1    1    2    0    0  0.82780807320E+00  0.43344742273E+01  0.16137169899E+03  0.16143202337E+03  0.00000000000E+00 0. -1.
         11    1    1    2    0    0  0.12770572408E+01  0.64038261843E+01 -0.18041637508E+03  0.18053450712E+03  0.00000000000E+00 0.  1.
        -15    1    1    2    0    0 -0.14070464486E+01 -0.94606557133E+01  0.18101734113E+02  0.20550286936E+02  0.17770000000E+01 0.  1.
         15    1    1    2    0    0 -0.69781886542E+00 -0.12776446983E+01  0.94294197215E+00  0.24831825762E+01  0.17770000000E+01 0. -1.
</event>
<event>
 6    1  0.1045352E-002  0.1764644E+03  0.7546771E-02  0.1073363E+00
        -11   -1    0    0    0    0  0.00000000000E+00  0.00000000000E+00  0.18250000000E+03  0.18250000000E+03  0.00000000000E+00 0. -1.
         11   -1    0    0    0    0 -0.00000000000E+00 -0.00000000000E+00 -0.18250000000E+03  0.18250000000E+03  0.00000000000E+00 0.  1.
        -11    1    1    2    0    0 -0.98808302100E+00 -0.55698837782E+01  0.17814212177E+03  0.17823191483E+03  0.00000000000E+00 0. -1.
         11    1    1    2    0    0  0.28725029711E+01 -0.38642706551E+01 -0.17477776726E+03  0.17484407851E+03  0.00000000000E+00 0.  1.
        -15    1    1    2    0    0 -0.11525706498E+01  0.38260119319E+01  0.10921463246E+01  0.45074714641E+01  0.17770000000E+01 0. -1.
         15    1    1    2    0    0 -0.73184930030E+00  0.56081425014E+01 -0.44565008368E+01  0.74165352034E+01  0.17770000000E+01 0.  1.
</event>
<event>
 6    1  0.1045352E-002  0.1865541E+03  0.7546771E-02  0.1065273E+00
        -11   -1    0    0    0    0  0.00000000000E+00  0.00000000000E+00  0.18250000000E+03  0.18250000000E+03  0.00000000000E+00 0. -1.
         11   -1    0    0    0    0 -0.00000000000E+00 -0.00000000000E+00 -0.18250000000E+03  0.18250000000E+03  0.00000000000E+00 0. -1.
        -11    1    1    2    0    0  0.14992288703E+01  0.33692869967E+01  0.17840776812E+03  0.17844587837E+03  0.00000000000E+00 0. -1.
         11    1    1    2    0    0  0.27583312623E+01 -0.42179966406E+00 -0.17175268727E+03  0.17177535298E+03  0.00000000000E+00 0. -1.
        -15    1    1    2    0    0 -0.25330663270E+01 -0.68143812933E+01 -0.10884982036E+01  0.75627227085E+01  0.17770000000E+01 0. -1.
         15    1    1    2    0    0 -0.17244938056E+01  0.38668939606E+01 -0.55665826412E+01  0.72160459457E+01  0.17770000000E+01 0.  1.
</event>
<event>
 6    1  0.1045352E-002  0.1868944E+03  0.7546771E-02  0.1065010E+00
        -11   -1    0    0    0    0  0.00000000000E+00  0.00000000000E+00  0.18250000000E+03  0.18250000000E+03  0.00000000000E+00 0. -1.
         11   -1    0    0    0    0 -0.00000000000E+00 -0.00000000000E+00 -0.18250000000E+03  0.18250000000E+03  0.00000000000E+00 0.  1.
        -11    1    1    2    0    0 -0.42761712618E+01 -0.49935724446E+01  0.17798418276E+03  0.17810556061E+03  0.00000000000E+00 0. -1.
         11    1    1    2    0    0  0.65584134855E+01  0.47807522654E+01 -0.15062341115E+03  0.15084190520E+03  0.00000000000E+00 0.  1.
        -15    1    1    2    0    0  0.57264460159E+00  0.88332758179E+01 -0.22692746903E+01  0.93092438003E+01  0.17770000000E+01 0. -1.
         15    1    1    2    0    0 -0.28548868253E+01 -0.86204556386E+01 -0.25091496919E+02  0.26743290389E+02  0.17770000000E+01 0.  1.
</event>
<event>
 6    1  0.1045352E-002  0.1826599E+03  0.7546771E-02  0.1068328E+00
        -11   -1    0    0    0    0  0.00000000000E+00  0.00000000000E+00  0.18250000000E+03  0.18250000000E+03  0.00000000000E+00 0.  1.
         11   -1    0    0    0    0 -0.00000000000E+00 -0.00000000000E+00 -0.18250000000E+03  0.18250000000E+03  0.00000000000E+00 0.  1.
        -11    1    1    2    0    0  0.25553400666E+01 -0.47797452369E+00  0.10604268275E+03  0.10607454354E+03  0.00000000000E+00 0.  1.
         11    1    1    2    0    0 -0.77238509728E+00  0.26873954927E+01 -0.18231869974E+03  0.18234014081E+03  0.00000000000E+00 0.  1.
        -15    1    1    2    0    0  0.15219488917E+01 -0.20067213030E+01  0.38297123289E+02  0.38420966152E+02  0.17770000000E+01 0. -1.
         15    1    1    2    0    0 -0.33049038611E+01 -0.20269966607E+00  0.37978893710E+02  0.38164349505E+02  0.17770000000E+01 0.  1.
</event>
<event>
 6    1  0.1045352E-002  0.1625973E+03  0.7546771E-02  0.1085503E+00
        -11   -1    0    0    0    0  0.00000000000E+00  0.00000000000E+00  0.18250000000E+03  0.18250000000E+03  0.00000000000E+00 0. -1.
         11   -1    0    0    0    0 -0.00000000000E+00 -0.00000000000E+00 -0.18250000000E+03  0.18250000000E+03  0.00000000000E+00 0. -1.
        -11    1    1    2    0    0 -0.59720149522E+01 -0.88211819456E+01  0.16595871554E+03  0.16630025098E+03  0.00000000000E+00 0. -1.
         11    1    1    2    0    0 -0.24445918194E+01 -0.97760261926E+01 -0.15928436751E+03  0.15960280840E+03  0.00000000000E+00 0. -1.
        -15    1    1    2    0    0  0.48474180193E+01  0.11512111201E+02 -0.19905767286E+02  0.23567423830E+02  0.17770000000E+01 0. -1.
         15    1    1    2    0    0  0.35691887523E+01  0.70850969374E+01  0.13231419258E+02  0.15529516784E+02  0.17770000000E+01 0. -1.
</event>
<event>
 6    1  0.1045352E-002  0.1826407E+03  0.7546771E-02  0.1068343E+00
        -11   -1    0    0    0    0  0.00000000000E+00  0.00000000000E+00  0.18250000000E+03  0.18250000000E+03  0.00000000000E+00 0.  1.
         11   -1    0    0    0    0 -0.00000000000E+00 -0.00000000000E+00 -0.18250000000E+03  0.18250000000E+03  0.00000000000E+00 0. -1.
        -11    1    1    2    0    0  0.21303302743E+01  0.21603585641E+00  0.24643760482E+02  0.24736610707E+02  0.00000000000E+00 0.  1.
         11    1    1    2    0    0 -0.19349156167E+01 -0.44243709639E+01 -0.18229532136E+03  0.18235926943E+03  0.00000000000E+00 0. -1.
        -15    1    1    2    0    0  0.21184051360E+01  0.29818866503E+01  0.13133614597E+03  0.13139908773E+03  0.17770000000E+01 0.  1.
         15    1    1    2    0    0 -0.23138197936E+01  0.12264484572E+01  0.26315414903E+02  0.26505032133E+02  0.17770000000E+01 0.  1.
</event>
<event>
 6    1  0.1045352E-002  0.1899665E+03  0.7546771E-02  0.1062662E+00
        -11   -1    0    0    0    0  0.00000000000E+00  0.00000000000E+00  0.18250000000E+03  0.18250000000E+03  0.00000000000E+00 0.  1.
         11   -1    0    0    0    0 -0.00000000000E+00 -0.00000000000E+00 -0.18250000000E+03  0.18250000000E+03  0.00000000000E+00 0.  1.
        -11    1    1    2    0    0 -0.40235651883E+01 -0.69469539283E+01  0.15449406937E+03  0.15470251038E+03  0.00000000000E+00 0.  1.
         11    1    1    2    0    0 -0.14609409933E+01 -0.45733363441E+01 -0.17496763467E+03  0.17503349090E+03  0.00000000000E+00 0.  1.
        -15    1    1    2    0    0  0.30904140346E+01  0.19645301057E+02  0.12966466500E+02  0.23807047172E+02  0.17770000000E+01 0.  1.
         15    1    1    2    0    0  0.23940921470E+01 -0.81250107851E+01  0.75070988006E+01  0.11456951552E+02  0.17770000000E+01 0. -1.
</event>
<event>
 6    1  0.1045352E-002  0.1844950E+03  0.7546771E-02  0.1066878E+00
        -11   -1    0    0    0    0  0.00000000000E+00  0.00000000000E+00  0.18250000000E+03  0.18250000000E+03  0.00000000000E+00 0.  1.
         11   -1    0    0    0    0 -0.00000000000E+00 -0.00000000000E+00 -0.18250000000E+03  0.18250000000E+03  0.00000000000E+00 0. -1.
        -11    1    1    2    0    0 -0.15632133019E+01 -0.29625141904E+01  0.83232589827E+02  0.83299964798E+02  0.00000000000E+00 0.  1.
         11    1    1    2    0    0 -0.53813491793E+01  0.57653140086E+01 -0.18033261550E+03  0.18050498602E+03  0.00000000000E+00 0. -1.
        -15    1    1    2    0    0  0.63245682370E+01  0.67097754204E-01  0.97516805625E+02  0.97737862539E+02  0.17770000000E+01 0.  1.
         15    1    1    2    0    0  0.61999424419E+00 -0.28698975723E+01 -0.41677994727E+00  0.34571866399E+01  0.17770000000E+01 0. -1.
</event>
<event>
 6    1  0.1045352E-002  0.1829619E+03  0.7546771E-02  0.1068088E+00
        -11   -1    0    0    0    0  0.00000000000E+00  0.00000000000E+00  0.18250000000E+03  0.18250000000E+03  0.00000000000E+00 0.  1.
         11   -1    0    0    0    0 -0.00000000000E+00 -0.00000000000E+00 -0.18250000000E+03  0.18250000000E+03  0.00000000000E+00 0.  1.
        -11    1    1    2    0    0  0.55716597633E+01  0.61873601288E+00  0.18195178318E+03  0.18203812137E+03  0.00000000000E+00 0.  1.
         11    1    1    2    0    0  0.25613535800E+01 -0.14614081451E+01 -0.16939437206E+02  0.17194207710E+02  0.00000000000E+00 0.  1.
        -15    1    1    2    0    0 -0.42008299128E+01 -0.47970476832E+01 -0.12145714724E+03  0.12163739138E+03  0.17770000000E+01 0.  1.
         15    1    1    2    0    0 -0.39321834306E+01  0.56397198154E+01 -0.43555198738E+02  0.44130279540E+02  0.17770000000E+01 0. -1.
</event>
<event>
 6    1  0.1045352E-002  0.1765583E+03  0.7546771E-02  0.1073285E+00
        -11   -1    0    0    0    0  0.00000000000E+00  0.00000000000E+00  0.18250000000E+03  0.18250000000E+03  0.00000000000E+00 0.  1.
         11   -1    0    0    0    0 -0.00000000000E+00 -0.00000000000E+00 -0.18250000000E+03  0.18250000000E+03  0.00000000000E+00 0. -1.
        -11    1    1    2    0    0  0.25167886336E+01 -0.16932374659E+01  0.17475504899E+03  0.17478137322E+03  0.00000000000E+00 0.  1.
         11    1    1    2    0    0  0.13792129493E+01 -0.50858458307E+01 -0.17836230181E+03  0.17844012655E+03  0.00000000000E+00 0. -1.
        -15    1    1    2    0    0 -0.24431323164E+01  0.71436002174E+01  0.33302898003E+00  0.77632826100E+01  0.17770000000E+01 0. -1.
         15    1    1    2    0    0 -0.14528692664E+01 -0.36451692085E+00  0.32742238423E+01  0.40152176106E+01  0.17770000000E+01 0. -1.
</event>
<event>
 6    1  0.1045352E-002  0.1847531E+03  0.7546771E-02  0.1066675E+00
        -11   -1    0    0    0    0  0.00000000000E+00  0.00000000000E+00  0.18250000000E+03  0.18250000000E+03  0.00000000000E+00 0.  1.
         11   -1    0    0    0    0 -0.00000000000E+00 -0.00000000000E+00 -0.18250000000E+03  0.18250000000E+03  0.00000000000E+00 0.  1.
        -11    1    1    2    0    0 -0.15466170350E+01 -0.17945369378E+00  0.49594344149E+02  0.49618778698E+02  0.00000000000E+00 0.  1.
         11    1    1    2    0    0 -0.32987502319E+01  0.14689538670E+02 -0.17961707617E+03  0.18024693715E+03  0.00000000000E+00 0.  1.
        -15    1    1    2    0    0 -0.72867554106E+00 -0.29183017923E+01 -0.86903914038E+00  0.36000571415E+01  0.17770000000E+01 0. -1.
         15    1    1    2    0    0  0.55740428080E+01 -0.11591783184E+02  0.13089177116E+03  0.13153422702E+03  0.17770000000E+01 0.  1.
</event>
<event>
 6    1  0.1045352E-002  0.1853710E+03  0.7546771E-02  0.1066192E+00
        -11   -1    0    0    0    0  0.00000000000E+00  0.00000000000E+00  0.18250000000E+03  0.18250000000E+03  0.00000000000E+00 0. -1.
         11   -1    0    0    0    0 -0.00000000000E+00 -0.00000000000E+00 -0.18250000000E+03  0.18250000000E+03  0.00000000000E+00 0.  1.
        -11    1    1    2    0    0 -0.82491677115E+00  0.41732851511E+01  0.17957861457E+03  0.17962899434E+03  0.00000000000E+00 0. -1.
         11    1    1    2    0    0 -0.96786135113E+00 -0.26660850697E+01 -0.16960607997E+03  0.16962979434E+03  0.00000000000E+00 0.  1.
        -15    1    1    2    0    0 -0.15977370026E+01 -0.26694277215E+01  0.12754071632E+01  0.38030251540E+01  0.17770000000E+01 0.  1.
         15    1    1    2    0    0  0.33905151248E+01  0.11622276401E+01 -0.11247941764E+02  0.11938186161E+02  0.17770000000E+01 0. -1.
</event>
<event>
 6    1  0.1403603E-002  0.1825657E+03  0.7546771E-02  0.1068403E+00
        -11   -1    0    0    0    0  0.00000000000E+00  0.00000000000E+00  0.18250000000E+03  0.18250000000E+03  0.00000000000E+00 0. -1.
         11   -1    0    0    0    0 -0.00000000000E+00 -0.00000000000E+00 -0.18250000000E+03  0.18250000000E+03  0.00000000000E+00 0.  1.
        -11    1    1    2    0    0  0.21211409061E+00 -0.27471877322E+01  0.18241349468E+03  0.18243430345E+03  0.00000000000E+00 0. -1.
         11    1    1    2    0    0 -0.68930015387E+00  0.71088610429E+00 -0.67733694230E+02  0.67740931702E+02  0.00000000000E+00 0.  1.
        -15    1    1    2    0    0  0.41944554464E+00  0.70663889844E+00 -0.94992967215E+02  0.95013140262E+02  0.17770000000E+01 0.  1.
         15    1    1    2    0    0  0.57740518609E-01  0.13296627295E+01 -0.19686833236E+02  0.19811624588E+02  0.17770000000E+01 0. -1.
</event>
<event>
 6    1  0.1045352E-002  0.1762651E+03  0.7546771E-02  0.1073529E+00
        -11   -1    0    0    0    0  0.00000000000E+00  0.00000000000E+00  0.18250000000E+03  0.18250000000E+03  0.00000000000E+00 0. -1.
         11   -1    0    0    0    0 -0.00000000000E+00 -0.00000000000E+00 -0.18250000000E+03  0.18250000000E+03  0.00000000000E+00 0.  1.
        -11    1    1    2    0    0 -0.40734361291E+01  0.62098909210E+00  0.17602424781E+03  0.17607246897E+03  0.00000000000E+00 0. -1.
         11    1    1    2    0    0  0.89134838652E+00  0.23867377445E+01 -0.17646671621E+03  0.17648510687E+03  0.00000000000E+00 0.  1.
        -15    1    1    2    0    0  0.41739701183E+01 -0.32084264713E+01  0.49824453917E+01  0.74631439790E+01  0.17770000000E+01 0. -1.
         15    1    1    2    0    0 -0.99188237568E+00  0.20069963470E+00 -0.45399770002E+01  0.49792801842E+01  0.17770000000E+01 0. -1.
</event>
<event>
 6    1  0.1045352E-002  0.1829336E+03  0.7546771E-02  0.1068110E+00
        -11   -1    0    0    0    0  0.00000000000E+00  0.00000000000E+00  0.18250000000E+03  0.18250000000E+03  0.00000000000E+00 0. -1.
         11   -1    0    0    0    0 -0.00000000000E+00 -0.00000000000E+00 -0.18250000000E+03  0.18250000000E+03  0.00000000000E+00 0. -1.
        -11    1    1    2    0    0  0.13585170727E+01 -0.18553534059E+01  0.28803416766E+02  0.28895063978E+02  0.00000000000E+00 0. -1.
         11    1    1    2    0    0 -0.92649125417E+01 -0.54586303354E+00 -0.18182971287E+03  0.18206641934E+03  0.00000000000E+00 0. -1.
        -15    1    1    2    0    0  0.65310277076E+00 -0.36319712808E+01  0.10402597033E+03  0.10410657035E+03  0.17770000000E+01 0. -1.
         15    1    1    2    0    0  0.72532926983E+01  0.60331877202E+01  0.49000325775E+02  0.49931946328E+02  0.17770000000E+01 0.  1.
</event>
<event>
 6    1  0.1045352E-002  0.1841694E+03  0.7546771E-02  0.1067134E+00
        -11   -1    0    0    0    0  0.00000000000E+00  0.00000000000E+00  0.18250000000E+03  0.18250000000E+03  0.00000000000E+00 0. -1.
         11   -1    0    0    0    0 -0.00000000000E+00 -0.00000000000E+00 -0.18250000000E+03  0.18250000000E+03  0.00000000000E+00 0. -1.
        -11    1    1    2    0    0 -0.27703836680E+01  0.11585588684E+01  0.17743464092E+03  0.17746004926E+03  0.00000000000E+00 0. -1.
         11    1    1    2    0    0  0.16574148539E+01 -0.17924048555E+01 -0.18081407488E+03  0.18083055443E+03  0.00000000000E+00 0. -1.
        -15    1    1    2    0    0 -0.11196131622E+01  0.13585572070E+01  0.42259017848E+00  0.25368332182E+01  0.17770000000E+01 0. -1.
         15    1    1    2    0    0  0.22325819763E+01 -0.72471122000E+00  0.29568437793E+01  0.41725630934E+01  0.17770000000E+01 0. -1.
</event>
<event>
 6    1  0.1045352E-002  0.1839125E+03  0.7546771E-02  0.1067336E+00
        -11   -1    0    0    0    0  0.00000000000E+00  0.00000000000E+00  0.18250000000E+03  0.18250000000E+03  0.00000000000E+00 0. -1.
         11   -1    0    0    0    0 -0.00000000000E+00 -0.00000000000E+00 -0.18250000000E+03  0.18250000000E+03  0.00000000000E+00 0. -1.
        -11    1    1    2    0    0  0.17440948671E+01 -0.90791950842E+01  0.18085132837E+03  0.18108748334E+03  0.00000000000E+00 0. -1.
         11    1    1    2    0    0  0.43772990166E+01 -0.16396683670E+01 -0.11494977545E+03  0.11504477448E+03  0.00000000000E+00 0. -1.
        -15    1    1    2    0    0 -0.73417361894E+01  0.50053024034E+01 -0.14457904329E+02  0.17062909160E+02  0.17770000000E+01 0. -1.
         15    1    1    2    0    0  0.12203423057E+01  0.57135610478E+01 -0.51443648592E+02  0.51804833024E+02  0.17770000000E+01 0.  1.
</event>
<event>
 6    1  0.1045352E-002  0.1852750E+03  0.7546771E-02  0.1066267E+00
        -11   -1    0    0    0    0  0.00000000000E+00  0.00000000000E+00  0.18250000000E+03  0.18250000000E+03  0.00000000000E+00 0.  1.
         11   -1    0    0    0    0 -0.00000000000E+00 -0.00000000000E+00 -0.18250000000E+03  0.18250000000E+03  0.00000000000E+00 0.  1.
        -11    1    1    2    0    0  0.82459061793E+00 -0.16605715002E+01  0.11846786490E+03  0.11848237194E+03  0.00000000000E+00 0.  1.
         11    1    1    2    0    0  0.16584535484E+01  0.23998471483E+01 -0.17970135345E+03  0.17972502932E+03  0.00000000000E+00 0.  1.
        -15    1    1    2    0    0 -0.55145600563E+01 -0.10735432153E+01  0.62695647233E+02  0.62971936437E+02  0.17770000000E+01 0.  1.
         15    1    1    2    0    0  0.30315158900E+01  0.33426756726E+00 -0.14621586826E+01  0.38206623000E+01  0.17770000000E+01 0. -1.
</event>
<event>
 6    1  0.1045352E-002  0.1838699E+03  0.7546771E-02  0.1067370E+00
        -11   -1    0    0    0    0  0.00000000000E+00  0.00000000000E+00  0.18250000000E+03  0.18250000000E+03  0.00000000000E+00 0. -1.
         11   -1    0    0    0    0 -0.00000000000E+00 -0.00000000000E+00 -0.18250000000E+03  0.18250000000E+03  0.00000000000E+00 0. -1.
        -11    1    1    2    0    0 -0.73769715544E+01  0.62762983925E+01  0.18087096708E+03  0.18113011446E+03  0.00000000000E+00 0. -1.
         11    1    1    2    0    0 -0.16172230495E+01 -0.21592735513E+01 -0.14766798238E+03  0.14769262302E+03  0.00000000000E+00 0. -1.
        -15    1    1    2    0    0  0.38468834885E+01 -0.50334598772E+01 -0.27350910034E+02  0.28131196910E+02  0.17770000000E+01 0. -1.
         15    1    1    2    0    0  0.51473111153E+01  0.91643503601E+00 -0.58520746690E+01  0.80460656115E+01  0.17770000000E+01 0.  1.
</event>
<event>
 6    1  0.1045352E-002  0.1841776E+03  0.7546771E-02  0.1067127E+00
        -11   -1    0    0    0    0  0.00000000000E+00  0.00000000000E+00  0.18250000000E+03  0.18250000000E+03  0.00000000000E+00 0.  1.
         11   -1    0    0    0    0 -0.00000000000E+00 -0.00000000000E+00 -0.18250000000E+03  0.18250000000E+03  0.00000000000E+00 0. -1.
        -11    1    1    2    0    0  0.17954564926E+01 -0.17598245246E+01  0.18080489129E+03  0.18082236963E+03  0.00000000000E+00 0.  1.
         11    1    1    2    0    0 -0.52586921297E+01 -0.34375780676E+01 -0.15398653407E+03  0.15411464389E+03  0.00000000000E+00 0. -1.
        -15    1    1    2    0    0  0.21713157798E+00  0.40991863996E+01 -0.25639577145E+02  0.26026834622E+02  0.17770000000E+01 0. -1.
         15    1    1    2    0    0  0.32461040592E+01  0.10982161926E+01 -0.11787800726E+01  0.40361518589E+01  0.17770000000E+01 0.  1.
</event>
<event>
 6    1  0.1045352E-002  0.1855329E+03  0.7546771E-02  0.1066066E+00
        -11   -1    0    0    0    0  0.00000000000E+00  0.00000000000E+00  0.18250000000E+03  0.18250000000E+03  0.00000000000E+00 0. -1.
         11   -1    0    0    0    0 -0.00000000000E+00 -0.00000000000E+00 -0.18250000000E+03  0.18250000000E+03  0.00000000000E+00 0.  1.
        -11    1    1    2    0    0 -0.91886043943E+00 -0.22162661459E+01  0.16322826281E+03  0.16324589404E+03  0.00000000000E+00 0. -1.
         11    1    1    2    0    0  0.42846062408E+01 -0.18988791343E+01 -0.17940587752E+03  0.17946707910E+03  0.00000000000E+00 0.  1.
        -15    1    1    2    0    0 -0.85250362959E+01  0.37249891399E+01  0.77434096051E+01  0.12233965394E+02  0.17770000000E+01 0. -1.
         15    1    1    2    0    0  0.51592904945E+01  0.39015614036E+00  0.84342051024E+01  0.10053061471E+02  0.17770000000E+01 0.  1.
</event>
<event>
 6    1  0.1045352E-002  0.1862919E+03  0.7546771E-02  0.1065476E+00
        -11   -1    0    0    0    0  0.00000000000E+00  0.00000000000E+00  0.18250000000E+03  0.18250000000E+03  0.00000000000E+00 0. -1.
         11   -1    0    0    0    0 -0.00000000000E+00 -0.00000000000E+00 -0.18250000000E+03  0.18250000000E+03  0.00000000000E+00 0. -1.
        -11    1    1    2    0    0 -0.15634239178E+01  0.18567008445E+01  0.17869162550E+03  0.17870811021E+03  0.00000000000E+00 0. -1.
         11    1    1    2    0    0 -0.23665876227E+01 -0.79616581003E+00 -0.13559638517E+03  0.13561937284E+03  0.00000000000E+00 0. -1.
        -15    1    1    2    0    0  0.14628850593E+01  0.82692752479E+01 -0.25465917607E+01  0.89534241728E+01  0.17770000000E+01 0.  1.
         15    1    1    2    0    0  0.24671264813E+01 -0.93298102824E+01 -0.40548648565E+02  0.41719092780E+02  0.17770000000E+01 0. -1.
</event>
<event>
 6    1  0.1045352E-002  0.1955669E+03  0.7546771E-02  0.1058505E+00
        -11   -1    0    0    0    0  0.00000000000E+00  0.00000000000E+00  0.18250000000E+03  0.18250000000E+03  0.00000000000E+00 0. -1.
         11   -1    0    0    0    0 -0.00000000000E+00 -0.00000000000E+00 -0.18250000000E+03  0.18250000000E+03  0.00000000000E+00 0.  1.
        -11    1    1    2    0    0 -0.77090995966E+00 -0.38722561068E+01  0.16938704842E+03  0.16943305712E+03  0.00000000000E+00 0. -1.
         11    1    1    2    0    0  0.15909841311E+02  0.52228868306E+01 -0.15316796226E+03  0.15408058366E+03  0.00000000000E+00 0.  1.
        -15    1    1    2    0    0 -0.29600258680E+01  0.16124624002E+02 -0.44231377168E+01  0.17072994132E+02  0.17770000000E+01 0. -1.
         15    1    1    2    0    0 -0.12178905483E+02 -0.17475254726E+02 -0.11795948448E+02  0.24413365096E+02  0.17770000000E+01 0.  1.
</event>
<event>
 6    1  0.1045352E-002  0.1833489E+03  0.7546771E-02  0.1067781E+00
        -11   -1    0    0    0    0  0.00000000000E+00  0.00000000000E+00  0.18250000000E+03  0.18250000000E+03  0.00000000000E+00 0.  1.
         11   -1    0    0    0    0 -0.00000000000E+00 -0.00000000000E+00 -0.18250000000E+03  0.18250000000E+03  0.00000000000E+00 0. -1.
        -11    1    1    2    0    0 -0.40483341103E+01  0.36844843516E+01  0.18156861931E+03  0.18165111602E+03  0.00000000000E+00 0.  1.
         11    1    1    2    0    0 -0.43309334983E+00 -0.32371536105E+01 -0.14585683854E+03  0.14589339973E+03  0.00000000000E+00 0. -1.
        -15    1    1    2    0    0  0.25136077857E+01  0.40552537580E+01 -0.10037633415E+02  0.11255004252E+02  0.17770000000E+01 0.  1.
         15    1    1    2    0    0  0.19678196744E+01 -0.45025844991E+01 -0.25674147347E+02  0.26200480004E+02  0.17770000000E+01 0. -1.
</event>
<event>
 6    1  0.1045352E-002  0.1846549E+03  0.7546771E-02  0.1066752E+00
        -11   -1    0    0    0    0  0.00000000000E+00  0.00000000000E+00  0.18250000000E+03  0.18250000000E+03  0.00000000000E+00 0.  1.
         11   -1    0    0    0    0 -0.00000000000E+00 -0.00000000000E+00 -0.18250000000E+03  0.18250000000E+03  0.00000000000E+00 0. -1.
        -11    1    1    2    0    0 -0.11583487656E+01 -0.21849718709E+01  0.11139836057E+03  0.11142580766E+03  0.00000000000E+00 0.  1.
         11    1    1    2    0    0  0.80969001197E+00  0.66601949533E+01 -0.18022028226E+03  0.18034512450E+03  0.00000000000E+00 0. -1.
        -15    1    1    2    0    0 -0.19266555851E+01  0.32388008527E+01  0.63011950111E+02  0.63149548047E+02  0.17770000000E+01 0.  1.
         15    1    1    2    0    0  0.22753143388E+01 -0.77140239351E+01  0.58099715743E+01  0.10079519795E+02  0.17770000000E+01 0. -1.
</event>
<event>
 6    1  0.1045352E-002  0.1962439E+03  0.7546771E-02  0.1058012E+00
        -11   -1    0    0    0    0  0.00000000000E+00  0.00000000000E+00  0.18250000000E+03  0.18250000000E+03  0.00000000000E+00 0. -1.
         11   -1    0    0    0    0 -0.00000000000E+00 -0.00000000000E+00 -0.18250000000E+03  0.18250000000E+03  0.00000000000E+00 0. -1.
        -11    1    1    2    0    0 -0.21464982360E+01  0.20219926365E+01  0.15928375758E+03  0.15931105215E+03  0.00000000000E+00 0. -1.
         11    1    1    2    0    0 -0.32201216401E+01 -0.55614937599E+01 -0.16863366781E+03  0.16875607638E+03  0.00000000000E+00 0. -1.
        -15    1    1    2    0    0 -0.21726883085E+01  0.30111064857E+01 -0.12808466745E+02  0.13453694143E+02  0.17770000000E+01 0.  1.
         15    1    1    2    0    0  0.75393081846E+01  0.52839463774E+00  0.22158376970E+02  0.23479177323E+02  0.17770000000E+01 0. -1.
</event>
<event>
 6    1  0.1045352E-002  0.1892585E+03  0.7546771E-02  0.1063199E+00
        -11   -1    0    0    0    0  0.00000000000E+00  0.00000000000E+00  0.18250000000E+03  0.18250000000E+03  0.00000000000E+00 0.  1.
         11   -1    0    0    0    0 -0.00000000000E+00 -0.00000000000E+00 -0.18250000000E+03  0.18250000000E+03  0.00000000000E+00 0.  1.
        -11    1    1    2    0    0 -0.39523614011E+01  0.74917597524E+00  0.16701216896E+03  0.16706060878E+03  0.00000000000E+00 0.  1.
         11    1    1    2    0    0 -0.15266418363E+01  0.29903924392E+01 -0.17570941663E+03  0.17574149247E+03  0.00000000000E+00 0.  1.
        -15    1    1    2    0    0  0.10936485524E+02 -0.16286531372E+01 -0.43473590051E+00  0.11207406076E+02  0.17770000000E+01 0.  1.
         15    1    1    2    0    0 -0.54574822861E+01 -0.21109152773E+01  0.91319835709E+01  0.10990492671E+02  0.17770000000E+01 0. -1.
</event>
<event>
 6    1  0.1045352E-002  0.1826289E+03  0.7546771E-02  0.1068352E+00
        -11   -1    0    0    0    0  0.00000000000E+00  0.00000000000E+00  0.18250000000E+03  0.18250000000E+03  0.00000000000E+00 0. -1.
         11   -1    0    0    0    0 -0.00000000000E+00 -0.00000000000E+00 -0.18250000000E+03  0.18250000000E+03  0.00000000000E+00 0. -1.
        -11    1    1    2    0    0  0.21733928061E+01 -0.21224646537E+01  0.18234575902E+03  0.18237106219E+03  0.00000000000E+00 0. -1.
         11    1    1    2    0    0  0.59395631738E-01 -0.20052227565E+01 -0.42075691378E+02  0.42123488116E+02  0.00000000000E+00 0. -1.
        -15    1    1    2    0    0  0.17402703409E+00  0.47086841355E+01 -0.79948506433E+02  0.80106949770E+02  0.17770000000E+01 0.  1.
         15    1    1    2    0    0 -0.24068154719E+01 -0.58099672529E+00 -0.60321561206E+02  0.60398499925E+02  0.17770000000E+01 0. -1.
</event>
<event>
 6    1  0.1045352E-002  0.1943760E+03  0.7546771E-02  0.1059376E+00
        -11   -1    0    0    0    0  0.00000000000E+00  0.00000000000E+00  0.18250000000E+03  0.18250000000E+03  0.00000000000E+00 0. -1.
         11   -1    0    0    0    0 -0.00000000000E+00 -0.00000000000E+00 -0.18250000000E+03  0.18250000000E+03  0.00000000000E+00 0. -1.
        -11    1    1    2    0    0 -0.63535550405E+00 -0.65437426402E+01  0.10510101512E+03  0.10530644626E+03  0.00000000000E+00 0. -1.
         11    1    1    2    0    0  0.29492559007E+02  0.68098407257E+00 -0.16805442828E+03  0.17062404766E+03  0.00000000000E+00 0. -1.
        -15    1    1    2    0    0  0.12522379344E+02  0.47012542239E+01  0.38868338552E+02  0.41143860374E+02  0.17770000000E+01 0. -1.
         15    1    1    2    0    0 -0.41379582847E+02  0.11615043438E+01  0.24085074607E+02  0.47925645710E+02  0.17770000000E+01 0.  1.
</event>
<event>
 6    1  0.1045352E-002  0.1837968E+03  0.7546771E-02  0.1067427E+00
        -11   -1    0    0    0    0  0.00000000000E+00  0.00000000000E+00  0.18250000000E+03  0.18250000000E+03  0.00000000000E+00 0.  1.
         11   -1    0    0    0    0 -0.00000000000E+00 -0.00000000000E+00 -0.18250000000E+03  0.18250000000E+03  0.00000000000E+00 0.  1.
        -11    1    1    2    0    0  0.44175161279E+01  0.25219725146E+01  0.82851256539E+02  0.83007261756E+02  0.00000000000E+00 0.  1.
         11    1    1    2    0    0  0.32682709994E+01 -0.47258619555E+01 -0.18111205481E+03  0.18120317813E+03  0.00000000000E+00 0.  1.
        -15    1    1    2    0    0 -0.20702169164E+01 -0.74693108623E+01  0.17295086506E+02  0.19035602147E+02  0.17770000000E+01 0. -1.
         15    1    1    2    0    0 -0.56155702109E+01  0.96732003032E+01  0.80965711764E+02  0.81753957968E+02  0.17770000000E+01 0.  1.
</event>
<event>
 6    1  0.1045352E-002  0.1894047E+03  0.7546771E-02  0.1063088E+00
        -11   -1    0    0    0    0  0.00000000000E+00  0.00000000000E+00  0.18250000000E+03  0.18250000000E+03  0.00000000000E+00 0.  1.
         11   -1    0    0    0    0 -0.00000000000E+00 -0.00000000000E+00 -0.18250000000E+03  0.18250000000E+03  0.00000000000E+00 0.  1.
        -11    1    1    2    0    0  0.49552645476E+01 -0.46131363541E+01  0.16012426509E+03  0.16026732651E+03  0.00000000000E+00 0.  1.
         11    1    1    2    0    0 -0.17464122000E+01  0.35792767484E+01 -0.17555017760E+03  0.17559534741E+03  0.00000000000E+00 0.  1.
        -15    1    1    2    0    0  0.24540926290E+01 -0.37568459031E+01 -0.52308785766E+01  0.71173226324E+01  0.17770000000E+01 0.  1.
         15    1    1    2    0    0 -0.56629449767E+01  0.47907055088E+01  0.20656791083E+02  0.22020003450E+02  0.17770000000E+01 0.  1.
</event>
<event>
 6    1  0.1045352E-002  0.1827575E+03  0.7546771E-02  0.1068250E+00
        -11   -1    0    0    0    0  0.00000000000E+00  0.00000000000E+00  0.18250000000E+03  0.18250000000E+03  0.00000000000E+00 0.  1.
         11   -1    0    0    0    0 -0.00000000000E+00 -0.00000000000E+00 -0.18250000000E+03  0.18250000000E+03  0.00000000000E+00 0. -1.
        -11    1    1    2    0    0  0.43691308441E+01 -0.19136328658E+01  0.18218005247E+03  0.18224248356E+03  0.00000000000E+00 0.  1.
         11    1    1    2    0    0 -0.20628558773E+01  0.26446353174E+00 -0.13261803104E+03  0.13263433746E+03  0.00000000000E+00 0. -1.
        -15    1    1    2    0    0  0.19640135934E+01  0.82070533515E+00 -0.17319589237E+02  0.17540148431E+02  0.17770000000E+01 0.  1.
         15    1    1    2    0    0 -0.42702885602E+01  0.82846399892E+00 -0.32242432194E+02  0.32583030549E+02  0.17770000000E+01 0.  1.
</event>
<event>
 6    1  0.1045352E-002  0.1835179E+03  0.7546771E-02  0.1067647E+00
        -11   -1    0    0    0    0  0.00000000000E+00  0.00000000000E+00  0.18250000000E+03  0.18250000000E+03  0.00000000000E+00 0. -1.
         11   -1    0    0    0    0 -0.00000000000E+00 -0.00000000000E+00 -0.18250000000E+03  0.18250000000E+03  0.00000000000E+00 0. -1.
        -11    1    1    2    0    0 -0.78336125677E+00 -0.24269338153E+01  0.16137023840E+03  0.16139038851E+03  0.00000000000E+00 0. -1.
         11    1    1    2    0    0 -0.83772804436E+00  0.25412888491E+01 -0.18146241869E+03  0.18148214604E+03  0.00000000000E+00 0. -1.
        -15    1    1    2    0    0 -0.15703174320E+01 -0.32424766359E+01  0.58599118205E+01  0.71046356075E+01  0.17770000000E+01 0. -1.
         15    1    1    2    0    0  0.31914067332E+01  0.31281216021E+01  0.14232268469E+02  0.15022829842E+02  0.17770000000E+01 0.  1.
</event>
<event>
 6    1  0.1045352E-002  0.1831609E+03  0.7546771E-02  0.1067930E+00
        -11   -1    0    0    0    0  0.00000000000E+00  0.00000000000E+00  0.18250000000E+03  0.18250000000E+03  0.00000000000E+00 0.  1.
         11   -1    0    0    0    0 -0.00000000000E+00 -0.00000000000E+00 -0.18250000000E+03  0.18250000000E+03  0.00000000000E+00 0.  1.
        -11    1    1    2    0    0  0.20219102898E+01  0.10770717135E+01  0.14535834282E+03  0.14537639434E+03  0.00000000000E+00 0.  1.
         11    1    1    2    0    0  0.75035330000E+00 -0.47107107292E+01 -0.18177652702E+03  0.18183910361E+03  0.00000000000E+00 0.  1.
        -15    1    1    2    0    0 -0.50506136199E+01  0.37265629115E+01  0.30601185660E+02  0.31288756158E+02  0.17770000000E+01 0.  1.
         15    1    1    2    0    0  0.22783500300E+01 -0.92923895742E-01  0.58169985435E+01  0.64957458975E+01  0.17770000000E+01 0.  1.
</event>
<event>
 6    1  0.1045352E-002  0.1829683E+03  0.7546771E-02  0.1068083E+00
        -11   -1    0    0    0    0  0.00000000000E+00  0.00000000000E+00  0.18250000000E+03  0.18250000000E+03  0.00000000000E+00 0. -1.
         11   -1    0    0    0    0 -0.00000000000E+00 -0.00000000000E+00 -0.18250000000E+03  0.18250000000E+03  0.00000000000E+00 0. -1.
        -11    1    1    2    0    0 -0.77533969059E+00  0.84803788984E-01  0.44305052073E+02  0.44311916936E+02  0.00000000000E+00 0. -1.
         11    1    1    2    0    0 -0.17257288583E+01  0.25660577166E+01 -0.18200544087E+03  0.18203170960E+03  0.00000000000E+00 0. -1.
        -15    1    1    2    0    0  0.21377860841E+01  0.63845448476E+01  0.52772198368E+02  0.53229645799E+02  0.17770000000E+01 0.  1.
         15    1    1    2    0    0  0.36328246485E+00 -0.90354063531E+01  0.84928190427E+02  0.85426727670E+02  0.17770000000E+01 0. -1.
</event>
<event>
 6    1  0.1045352E-002  0.1840816E+03  0.7546771E-02  0.1067203E+00
        -11   -1    0    0    0    0  0.00000000000E+00  0.00000000000E+00  0.18250000000E+03  0.18250000000E+03  0.00000000000E+00 0.  1.
         11   -1    0    0    0    0 -0.00000000000E+00 -0.00000000000E+00 -0.18250000000E+03  0.18250000000E+03  0.00000000000E+00 0. -1.
        -11    1    1    2    0    0  0.14677825707E+01 -0.18787672872E+01  0.17123637818E+03  0.17125297476E+03  0.00000000000E+00 0.  1.
         11    1    1    2    0    0  0.81905396722E+00  0.67334699375E+00 -0.17693532150E+02  0.17725273638E+02  0.00000000000E+00 0. -1.
        -15    1    1    2    0    0  0.22559277910E+02 -0.33787407540E+02 -0.95641684140E+02  0.10392785672E+03  0.17770000000E+01 0. -1.
         15    1    1    2    0    0 -0.24846114448E+02  0.34992827834E+02 -0.57901161887E+02  0.72093894886E+02  0.17770000000E+01 0.  1.
</event>
<event>
 6    1  0.1045352E-002  0.1830904E+03  0.7546771E-02  0.1067986E+00
        -11   -1    0    0    0    0  0.00000000000E+00  0.00000000000E+00  0.18250000000E+03  0.18250000000E+03  0.00000000000E+00 0.  1.
         11   -1    0    0    0    0 -0.00000000000E+00 -0.00000000000E+00 -0.18250000000E+03  0.18250000000E+03  0.00000000000E+00 0. -1.
        -11    1    1    2    0    0  0.38270919927E+01  0.19489819768E+01  0.18185888503E+03  0.18190959081E+03  0.00000000000E+00 0.  1.
         11    1    1    2    0    0 -0.50364175547E+01 -0.48528073776E+01 -0.13331327173E+03  0.13349660543E+03  0.00000000000E+00 0. -1.
        -15    1    1    2    0    0 -0.11020576229E+01 -0.25335795117E+01 -0.26441764763E+02  0.26645040982E+02  0.17770000000E+01 0.  1.
         15    1    1    2    0    0  0.23113831849E+01  0.54374049126E+01 -0.22103848534E+02  0.22948762786E+02  0.17770000000E+01 0. -1.
</event>
<event>
 6    1  0.1045352E-002  0.1826328E+03  0.7546771E-02  0.1068349E+00
        -11   -1    0    0    0    0  0.00000000000E+00  0.00000000000E+00  0.18250000000E+03  0.18250000000E+03  0.00000000000E+00 0. -1.
         11   -1    0    0    0    0 -0.00000000000E+00 -0.00000000000E+00 -0.18250000000E+03  0.18250000000E+03  0.00000000000E+00 0.  1.
        -11    1    1    2    0    0 -0.23741651082E+01 -0.16438857906E+01  0.18234433890E+03  0.18236720360E+03  0.00000000000E+00 0. -1.
         11    1    1    2    0    0  0.98743575024E+00 -0.43737491037E+00 -0.71125071217E+01  0.71940311182E+01  0.00000000000E+00 0.  1.
        -15    1    1    2    0    0 -0.26525663527E+01  0.16067304478E+01 -0.10888318511E+03  0.10894183503E+03  0.17770000000E+01 0. -1.
         15    1    1    2    0    0  0.40392957107E+01  0.47453025318E+00 -0.66348646669E+02  0.66496930249E+02  0.17770000000E+01 0.  1.
</event>
<event>
 6    1  0.1045352E-002  0.1829025E+03  0.7546771E-02  0.1068135E+00
        -11   -1    0    0    0    0  0.00000000000E+00  0.00000000000E+00  0.18250000000E+03  0.18250000000E+03  0.00000000000E+00 0.  1.
         11   -1    0    0    0    0 -0.00000000000E+00 -0.00000000000E+00 -0.18250000000E+03  0.18250000000E+03  0.00000000000E+00 0.  1.
        -11    1    1    2    0    0  0.26025327322E+01  0.31400989495E+01  0.12745605378E+03  0.12752128858E+03  0.00000000000E+00 0.  1.
         11    1    1    2    0    0 -0.27104556753E+01 -0.20440336541E-01 -0.18207736552E+03  0.18209753986E+03  0.00000000000E+00 0.  1.
        -15    1    1    2    0    0  0.10606321795E+01  0.20552745356E+01  0.10034371490E+02  0.10449661920E+02  0.17770000000E+01 0.  1.
         15    1    1    2    0    0 -0.95270923636E+00 -0.51749331486E+01  0.44586940254E+02  0.44931509636E+02  0.17770000000E+01 0. -1.
</event>
<event>
 6    1  0.1045352E-002  0.1826908E+03  0.7546771E-02  0.1068303E+00
        -11   -1    0    0    0    0  0.00000000000E+00  0.00000000000E+00  0.18250000000E+03  0.18250000000E+03  0.00000000000E+00 0. -1.
         11   -1    0    0    0    0 -0.00000000000E+00 -0.00000000000E+00 -0.18250000000E+03  0.18250000000E+03  0.00000000000E+00 0. -1.
        -11    1    1    2    0    0 -0.32774611157E+01 -0.32613700229E+01  0.18225054978E+03  0.18230919116E+03  0.00000000000E+00 0. -1.
         11    1    1    2    0    0 -0.56473454406E+00 -0.20976402936E+01 -0.42218962088E+02  0.42274812592E+02  0.00000000000E+00 0. -1.
        -15    1    1    2    0    0  0.24078367529E+01  0.61786525557E+01 -0.68475568563E+02  0.68818853843E+02  0.17770000000E+01 0.  1.
         15    1    1    2    0    0  0.14343589069E+01 -0.81964223917E+00 -0.71556019126E+02  0.71597142408E+02  0.17770000000E+01 0. -1.
</event>
<event>
 6    1  0.1045352E-002  0.1843391E+03  0.7546771E-02  0.1067000E+00
        -11   -1    0    0    0    0  0.00000000000E+00  0.00000000000E+00  0.18250000000E+03  0.18250000000E+03  0.00000000000E+00 0. -1.
         11   -1    0    0    0    0 -0.00000000000E+00 -0.00000000000E+00 -0.18250000000E+03  0.18250000000E+03  0.00000000000E+00 0.  1.
        -11    1    1    2    0    0  0.47148449456E+01  0.25072499968E+01  0.14172473196E+03  0.14182529998E+03  0.00000000000E+00 0. -1.
         11    1    1    2    0    0 -0.74933987764E+00  0.26052937215E+01 -0.18064052911E+03  0.18066086965E+03  0.00000000000E+00 0.  1.
        -15    1    1    2    0    0  0.25151386482E+00 -0.14044901625E+01 -0.76069777511E+00  0.24025490517E+01  0.17770000000E+01 0.  1.
         15    1    1    2    0    0 -0.42170189327E+01 -0.37080535557E+01  0.39676494931E+02  0.40111281316E+02  0.17770000000E+01 0. -1.
</event>
<event>
 6    1  0.1045352E-002  0.1850373E+03  0.7546771E-02  0.1066453E+00
        -11   -1    0    0    0    0  0.00000000000E+00  0.00000000000E+00  0.18250000000E+03  0.18250000000E+03  0.00000000000E+00 0. -1.
         11   -1    0    0    0    0 -0.00000000000E+00 -0.00000000000E+00 -0.18250000000E+03  0.18250000000E+03  0.00000000000E+00 0. -1.
        -11    1    1    2    0    0 -0.27036286098E+01  0.83445268525E+01  0.17974879912E+03  0.17996269480E+03  0.00000000000E+00 0. -1.
         11    1    1    2    0    0  0.26387497240E+01 -0.27357544931E+00 -0.16186016198E+03  0.16188190103E+03  0.00000000000E+00 0. -1.
        -15    1    1    2    0    0  0.30380012709E+01 -0.14618859957E+01 -0.14441556159E+02  0.14935957809E+02  0.17770000000E+01 0. -1.
         15    1    1    2    0    0 -0.29731223851E+01 -0.66090654075E+01 -0.34470809735E+01  0.82194463631E+01  0.17770000000E+01 0.  1.
</event>
<event>
 6    1  0.1045352E-002  0.1829800E+03  0.7546771E-02  0.1068073E+00
        -11   -1    0    0    0    0  0.00000000000E+00  0.00000000000E+00  0.18250000000E+03  0.18250000000E+03  0.00000000000E+00 0.  1.
         11   -1    0    0    0    0 -0.00000000000E+00 -0.00000000000E+00 -0.18250000000E+03  0.18250000000E+03  0.00000000000E+00 0.  1.
        -11    1    1    2    0    0 -0.24919095649E+01 -0.15723121945E+01  0.18199610541E+03  0.18201995540E+03  0.00000000000E+00 0.  1.
         11    1    1    2    0    0  0.22862285563E+01 -0.42254526138E+00 -0.14388555113E+03  0.14390433353E+03  0.00000000000E+00 0.  1.
        -15    1    1    2    0    0  0.20589861133E+01  0.26427127883E+01 -0.80474647153E+01  0.88962223466E+01  0.17770000000E+01 0.  1.
         15    1    1    2    0    0 -0.18533051046E+01 -0.64785533242E+00 -0.30063089569E+02  0.30179488726E+02  0.17770000000E+01 0. -1.
</event>
<event>
 6    1  0.1045352E-002  0.1850140E+03  0.7546771E-02  0.1066471E+00
        -11   -1    0    0    0    0  0.00000000000E+00  0.00000000000E+00  0.18250000000E+03  0.18250000000E+03  0.00000000000E+00 0.  1.
         11   -1    0    0    0    0 -0.00000000000E+00 -0.00000000000E+00 -0.18250000000E+03  0.18250000000E+03  0.00000000000E+00 0. -1.
        -11    1    1    2    0    0 -0.81304674601E+01  0.16511840783E+01  0.98068592288E+02  0.98418899117E+02  0.00000000000E+00 0.  1.
         11    1    1    2    0    0  0.78275617520E+00  0.15204964962E+02 -0.17934093729E+03  0.17998604239E+03  0.00000000000E+00 0. -1.
        -15    1    1    2    0    0 -0.80088700691E+01 -0.19841489945E+01  0.23072906817E+02  0.24568182777E+02  0.17770000000E+01 0. -1.
         15    1    1    2    0    0  0.15356581354E+02 -0.14872000046E+02  0.58199438189E+02  0.62026875713E+02  0.17770000000E+01 0.  1.
</event>
<event>
 6    1  0.1045352E-002  0.1837793E+03  0.7546771E-02  0.1067441E+00
        -11   -1    0    0    0    0  0.00000000000E+00  0.00000000000E+00  0.18250000000E+03  0.18250000000E+03  0.00000000000E+00 0.  1.
         11   -1    0    0    0    0 -0.00000000000E+00 -0.00000000000E+00 -0.18250000000E+03  0.18250000000E+03  0.00000000000E+00 0.  1.
        -11    1    1    2    0    0 -0.41803267176E+01  0.16203391481E+01  0.18116525843E+03  0.18122072589E+03  0.00000000000E+00 0.  1.
         11    1    1    2    0    0 -0.18537773431E+01  0.24843739794E+01 -0.16493536195E+03  0.16496448778E+03  0.00000000000E+00 0.  1.
        -15    1    1    2    0    0  0.19902353587E+01 -0.10800244673E+01 -0.10849342875E+02  0.11224680818E+02  0.17770000000E+01 0.  1.
         15    1    1    2    0    0  0.40438687020E+01 -0.30246886603E+01 -0.53805536047E+01  0.75901055107E+01  0.17770000000E+01 0. -1.
</event>
<event>
 6    1  0.1045352E-002  0.1828891E+03  0.7546771E-02  0.1068146E+00
        -11   -1    0    0    0    0  0.00000000000E+00  0.00000000000E+00  0.18250000000E+03  0.18250000000E+03  0.00000000000E+00 0. -1.
         11   -1    0    0    0    0 -0.00000000000E+00 -0.00000000000E+00 -0.18250000000E+03  0.18250000000E+03  0.00000000000E+00 0.  1.
        -11    1    1    2    0    0  0.22614722111E+01  0.16040735476E+01  0.65156829426E+02  0.65215793558E+02  0.00000000000E+00 0. -1.
         11    1    1    2    0    0  0.48780798507E+01 -0.92813361527E+00 -0.18204322968E+03  0.18211094028E+03  0.00000000000E+00 0.  1.
        -15    1    1    2    0    0 -0.66054106231E+00 -0.10727381676E+01  0.87458362558E+02  0.87485484464E+02  0.17770000000E+01 0.  1.
         15    1    1    2    0    0 -0.64790109995E+01  0.39679823519E+00  0.29428037698E+02  0.30187781703E+02  0.17770000000E+01 0. -1.
</event>
<event>
 6    1  0.1045352E-002  0.1832879E+03  0.7546771E-02  0.1067829E+00
        -11   -1    0    0    0    0  0.00000000000E+00  0.00000000000E+00  0.18250000000E+03  0.18250000000E+03  0.00000000000E+00 0. -1.
         11   -1    0    0    0    0 -0.00000000000E+00 -0.00000000000E+00 -0.18250000000E+03  0.18250000000E+03  0.00000000000E+00 0. -1.
        -11    1    1    2    0    0  0.30445824444E+01 -0.23041103533E+01  0.18167195422E+03  0.18171207268E+03  0.00000000000E+00 0. -1.
         11    1    1    2    0    0  0.38598883631E+00  0.26930901696E+01 -0.14748553913E+03  0.14751063004E+03  0.00000000000E+00 0. -1.
        -15    1    1    2    0    0  0.11247127471E+01  0.20202370093E+01 -0.32591509017E+01  0.43733431076E+01  0.17770000000E+01 0.  1.
         15    1    1    2    0    0 -0.45552840278E+01 -0.24092168256E+01 -0.30927264195E+02  0.31403954175E+02  0.17770000000E+01 0. -1.
</event>
<event>
 6    1  0.1045352E-002  0.1837379E+03  0.7546771E-02  0.1067474E+00
        -11   -1    0    0    0    0  0.00000000000E+00  0.00000000000E+00  0.18250000000E+03  0.18250000000E+03  0.00000000000E+00 0.  1.
         11   -1    0    0    0    0 -0.00000000000E+00 -0.00000000000E+00 -0.18250000000E+03  0.18250000000E+03  0.00000000000E+00 0.  1.
        -11    1    1    2    0    0  0.24639183501E+01  0.59048412412E+00  0.14993002171E+03  0.14995142872E+03  0.00000000000E+00 0.  1.
         11    1    1    2    0    0  0.29521731505E+01  0.13537809030E+01 -0.18123299008E+03  0.18126208855E+03  0.00000000000E+00 0.  1.
        -15    1    1    2    0    0  0.38840242984E+00 -0.17955116154E+01  0.78999097642E+00  0.26751697426E+01  0.17770000000E+01 0. -1.
         15    1    1    2    0    0 -0.58044939304E+01 -0.14875341167E+00  0.30512977401E+02  0.31111312994E+02  0.17770000000E+01 0.  1.
</event>
<event>
 6    1  0.1045352E-002  0.1829713E+03  0.7546771E-02  0.1068080E+00
        -11   -1    0    0    0    0  0.00000000000E+00  0.00000000000E+00  0.18250000000E+03  0.18250000000E+03  0.00000000000E+00 0. -1.
         11   -1    0    0    0    0 -0.00000000000E+00 -0.00000000000E+00 -0.18250000000E+03  0.18250000000E+03  0.00000000000E+00 0.  1.
        -11    1    1    2    0    0  0.42001407906E+01 -0.29267665029E+01  0.87789994245E+02  0.87939128006E+02  0.00000000000E+00 0. -1.
         11    1    1    2    0    0  0.16952933847E+01 -0.24087055238E+01 -0.18200486935E+03  0.18202870199E+03  0.00000000000E+00 0.  1.
        -15    1    1    2    0    0 -0.60123434510E+01  0.46644399954E+01  0.90692883264E+02  0.91028907925E+02  0.17770000000E+01 0.  1.
         15    1    1    2    0    0  0.11690927571E+00  0.67103203124E+00  0.35219918382E+01  0.40032620791E+01  0.17770000000E+01 0. -1.
</event>
<event>
 6    1  0.1045352E-002  0.1828233E+03  0.7546771E-02  0.1068198E+00
        -11   -1    0    0    0    0  0.00000000000E+00  0.00000000000E+00  0.18250000000E+03  0.18250000000E+03  0.00000000000E+00 0.  1.
         11   -1    0    0    0    0 -0.00000000000E+00 -0.00000000000E+00 -0.18250000000E+03  0.18250000000E+03  0.00000000000E+00 0.  1.
        -11    1    1    2    0    0 -0.19594474232E+01  0.20535929547E+01  0.76291558502E+02  0.76344342141E+02  0.00000000000E+00 0.  1.
         11    1    1    2    0    0 -0.29319179809E+01 -0.40176129998E+00 -0.18215261530E+03  0.18217665277E+03  0.00000000000E+00 0.  1.
        -15    1    1    2    0    0  0.73821370502E+01  0.64406219163E+00  0.68420959252E+02  0.68843998704E+02  0.17770000000E+01 0.  1.
         15    1    1    2    0    0 -0.24907716461E+01 -0.22958938464E+01  0.37440097547E+02  0.37635006381E+02  0.17770000000E+01 0.  1.
</event>
<event>
 6    1  0.1045352E-002  0.1852195E+03  0.7546771E-02  0.1066310E+00
        -11   -1    0    0    0    0  0.00000000000E+00  0.00000000000E+00  0.18250000000E+03  0.18250000000E+03  0.00000000000E+00 0.  1.
         11   -1    0    0    0    0 -0.00000000000E+00 -0.00000000000E+00 -0.18250000000E+03  0.18250000000E+03  0.00000000000E+00 0. -1.
        -11    1    1    2    0    0 -0.66239546665E+01  0.26745904263E+01  0.17963854151E+03  0.17978052121E+03  0.00000000000E+00 0.  1.
         11    1    1    2    0    0 -0.29081705793E+00  0.54522772017E+01 -0.14533953216E+03  0.14544205551E+03  0.00000000000E+00 0. -1.
        -15    1    1    2    0    0  0.23512481752E+01  0.33202073171E+01 -0.14860219654E+01  0.46816807764E+01  0.17770000000E+01 0. -1.
         15    1    1    2    0    0  0.45635235491E+01 -0.11447074945E+02 -0.32812987384E+02  0.35095742506E+02  0.17770000000E+01 0.  1.
</event>
<event>
 6    1  0.1045352E-002  0.1874693E+03  0.7546771E-02  0.1064567E+00
        -11   -1    0    0    0    0  0.00000000000E+00  0.00000000000E+00  0.18250000000E+03  0.18250000000E+03  0.00000000000E+00 0. -1.
         11   -1    0    0    0    0 -0.00000000000E+00 -0.00000000000E+00 -0.18250000000E+03  0.18250000000E+03  0.00000000000E+00 0.  1.
        -11    1    1    2    0    0  0.14315958276E+01 -0.21302868982E+01  0.10329021903E+03  0.10332210284E+03  0.00000000000E+00 0. -1.
         11    1    1    2    0    0 -0.35158975370E+01  0.19194935251E+02 -0.17645488618E+03  0.17753065631E+03  0.00000000000E+00 0.  1.
        -15    1    1    2    0    0 -0.11256801875E+02  0.32340079236E+01  0.46709106180E+02  0.48187889815E+02  0.17770000000E+01 0. -1.
         15    1    1    2    0    0  0.13341103585E+02 -0.20298656277E+02  0.26455560967E+02  0.35959351031E+02  0.17770000000E+01 0.  1.
</event>
<event>
 6    1  0.1045352E-002  0.1830801E+03  0.7546771E-02  0.1067994E+00
        -11   -1    0    0    0    0  0.00000000000E+00  0.00000000000E+00  0.18250000000E+03  0.18250000000E+03  0.00000000000E+00 0.  1.
         11   -1    0    0    0    0 -0.00000000000E+00 -0.00000000000E+00 -0.18250000000E+03  0.18250000000E+03  0.00000000000E+00 0.  1.
        -11    1    1    2    0    0  0.82832397701E+00 -0.59131043567E+01  0.18182190049E+03  0.18191991211E+03  0.00000000000E+00 0.  1.
         11    1    1    2    0    0  0.81890163185E+00  0.16238459886E+01 -0.11189671294E+03  0.11191149111E+03  0.00000000000E+00 0.  1.
        -15    1    1    2    0    0  0.37828268255E+01  0.26081796599E+01 -0.12505784079E+02  0.13441158595E+02  0.17770000000E+01 0.  1.
         15    1    1    2    0    0 -0.54300524343E+01  0.16810787082E+01 -0.57419403474E+02  0.57727438185E+02  0.17770000000E+01 0. -1.
</event>
<event>
 6    1  0.1045352E-002  0.1850579E+03  0.7546771E-02  0.1066437E+00
        -11   -1    0    0    0    0  0.00000000000E+00  0.00000000000E+00  0.18250000000E+03  0.18250000000E+03  0.00000000000E+00 0.  1.
         11   -1    0    0    0    0 -0.00000000000E+00 -0.00000000000E+00 -0.18250000000E+03  0.18250000000E+03  0.00000000000E+00 0.  1.
        -11    1    1    2    0    0 -0.28102960904E+01  0.42872585780E+01  0.17986907255E+03  0.17994210627E+03  0.00000000000E+00 0.  1.
         11    1    1    2    0    0  0.15943613042E+01  0.51708642772E+01 -0.11058125241E+03  0.11071356380E+03  0.00000000000E+00 0.  1.
        -15    1    1    2    0    0  0.75404149523E+01 -0.81076087905E+01 -0.65868489482E+02  0.66816216696E+02  0.17770000000E+01 0. -1.
         15    1    1    2    0    0 -0.63244801662E+01 -0.13505140646E+01 -0.34193306604E+01  0.75281132281E+01  0.17770000000E+01 0.  1.
</event>
<event>
 6    1  0.1045352E-002  0.1855437E+03  0.7546771E-02  0.1066058E+00
        -11   -1    0    0    0    0  0.00000000000E+00  0.00000000000E+00  0.18250000000E+03  0.18250000000E+03  0.00000000000E+00 0.  1.
         11   -1    0    0    0    0 -0.00000000000E+00 -0.00000000000E+00 -0.18250000000E+03  0.18250000000E+03  0.00000000000E+00 0. -1.
        -11    1    1    2    0    0  0.11745478893E+02  0.26463643110E+01  0.17905197821E+03  0.17945631897E+03  0.00000000000E+00 0.  1.
         11    1    1    2    0    0 -0.27121636032E+01  0.25484072421E+01 -0.13601752340E+03  0.13606842721E+03  0.00000000000E+00 0. -1.
        -15    1    1    2    0    0 -0.16106014745E+02 -0.40519691117E+01 -0.33345814062E+02  0.37295082908E+02  0.17770000000E+01 0. -1.
         15    1    1    2    0    0  0.70726994547E+01 -0.11428024414E+01 -0.96886407461E+01  0.12180170914E+02  0.17770000000E+01 0.  1.
</event>
<event>
 6    1  0.1045352E-002  0.1839519E+03  0.7546771E-02  0.1067305E+00
        -11   -1    0    0    0    0  0.00000000000E+00  0.00000000000E+00  0.18250000000E+03  0.18250000000E+03  0.00000000000E+00 0. -1.
         11   -1    0    0    0    0 -0.00000000000E+00 -0.00000000000E+00 -0.18250000000E+03  0.18250000000E+03  0.00000000000E+00 0.  1.
        -11    1    1    2    0    0 -0.16093162194E+01  0.14725517035E+01  0.14813687621E+03  0.14815293585E+03  0.00000000000E+00 0. -1.
         11    1    1    2    0    0 -0.61235430565E+00  0.47088632133E+01 -0.18098579384E+03  0.18104807633E+03  0.00000000000E+00 0.  1.
        -15    1    1    2    0    0 -0.42081686823E+01 -0.41655147377E+01  0.22414620855E+02  0.23251519386E+02  0.17770000000E+01 0. -1.
         15    1    1    2    0    0  0.64298392074E+01 -0.20159001791E+01  0.10434296780E+02  0.12547468432E+02  0.17770000000E+01 0.  1.
</event>
<event>
 6    1  0.1045352E-002  0.1921282E+03  0.7546771E-02  0.1061039E+00
        -11   -1    0    0    0    0  0.00000000000E+00  0.00000000000E+00  0.18250000000E+03  0.18250000000E+03  0.00000000000E+00 0. -1.
         11   -1    0    0    0    0 -0.00000000000E+00 -0.00000000000E+00 -0.18250000000E+03  0.18250000000E+03  0.00000000000E+00 0.  1.
        -11    1    1    2    0    0 -0.35272800932E+01  0.46772793769E+01  0.13480599091E+03  0.13493321990E+03  0.00000000000E+00 0. -1.
         11    1    1    2    0    0 -0.60583402423E+01 -0.14077884497E+02 -0.17219103763E+03  0.17287175524E+03  0.00000000000E+00 0.  1.
        -15    1    1    2    0    0 -0.10690040212E+02  0.16808723519E+02  0.25762619583E+02  0.32614114166E+02  0.17770000000E+01 0.  1.
         15    1    1    2    0    0  0.20275660548E+02 -0.74081183989E+01  0.11622427140E+02  0.24580910692E+02  0.17770000000E+01 0. -1.
</event>
<event>
 6    1  0.1045352E-002  0.1858345E+03  0.7546771E-02  0.1065831E+00
        -11   -1    0    0    0    0  0.00000000000E+00  0.00000000000E+00  0.18250000000E+03  0.18250000000E+03  0.00000000000E+00 0. -1.
         11   -1    0    0    0    0 -0.00000000000E+00 -0.00000000000E+00 -0.18250000000E+03  0.18250000000E+03  0.00000000000E+00 0. -1.
        -11    1    1    2    0    0  0.12941200299E+01  0.24376054944E+01  0.10484607286E+03  0.10488238967E+03  0.00000000000E+00 0. -1.
         11    1    1    2    0    0  0.23008074045E+01  0.15106131687E+01 -0.17914431141E+03  0.17916545419E+03  0.00000000000E+00 0. -1.
        -15    1    1    2    0    0  0.12772051745E+02 -0.26534873892E+01  0.18124886803E+02  0.22401686358E+02  0.17770000000E+01 0.  1.
         15    1    1    2    0    0 -0.16366979179E+02 -0.12947312739E+01  0.56173351743E+02  0.58550469781E+02  0.17770000000E+01 0. -1.
</event>
<event>
 6    1  0.1045352E-002  0.1711825E+03  0.7546771E-02  0.1077838E+00
        -11   -1    0    0    0    0  0.00000000000E+00  0.00000000000E+00  0.18250000000E+03  0.18250000000E+03  0.00000000000E+00 0. -1.
         11   -1    0    0    0    0 -0.00000000000E+00 -0.00000000000E+00 -0.18250000000E+03  0.18250000000E+03  0.00000000000E+00 0. -1.
        -11    1    1    2    0    0  0.36210660410E+01 -0.25020018435E+01  0.16967698751E+03  0.16973406323E+03  0.00000000000E+00 0. -1.
         11    1    1    2    0    0  0.10034593206E+01 -0.55700545440E+01 -0.17267763567E+03  0.17277036290E+03  0.00000000000E+00 0. -1.
        -15    1    1    2    0    0 -0.61342483735E+01 -0.30756407937E+01  0.74361446520E+01  0.10273390175E+02  0.17770000000E+01 0.  1.
         15    1    1    2    0    0  0.15097230120E+01  0.11147697181E+02 -0.44354964923E+01  0.12222183690E+02  0.17770000000E+01 0. -1.
</event>
<event>
 6    1  0.1045352E-002  0.1840738E+03  0.7546771E-02  0.1067209E+00
        -11   -1    0    0    0    0  0.00000000000E+00  0.00000000000E+00  0.18250000000E+03  0.18250000000E+03  0.00000000000E+00 0. -1.
         11   -1    0    0    0    0 -0.00000000000E+00 -0.00000000000E+00 -0.18250000000E+03  0.18250000000E+03  0.00000000000E+00 0. -1.
        -11    1    1    2    0    0  0.13646178576E+01 -0.25080231070E+01  0.18090365959E+03  0.18092619052E+03  0.00000000000E+00 0. -1.
         11    1    1    2    0    0  0.12989072087E+01  0.34311807721E+01 -0.17129803236E+03  0.17133731658E+03  0.00000000000E+00 0. -1.
        -15    1    1    2    0    0 -0.28877028902E-01  0.28693761039E+01 -0.45185319019E+01  0.56399479304E+01  0.17770000000E+01 0. -1.
         15    1    1    2    0    0 -0.26346480374E+01 -0.37925337689E+01 -0.50870953316E+01  0.70965449750E+01  0.17770000000E+01 0.  1.
</event>
<event>
 6    1  0.1045352E-002  0.1839450E+03  0.7546771E-02  0.1067310E+00
        -11   -1    0    0    0    0  0.00000000000E+00  0.00000000000E+00  0.18250000000E+03  0.18250000000E+03  0.00000000000E+00 0. -1.
         11   -1    0    0    0    0 -0.00000000000E+00 -0.00000000000E+00 -0.18250000000E+03  0.18250000000E+03  0.00000000000E+00 0.  1.
        -11    1    1    2    0    0 -0.19025158246E+01 -0.20090119561E+01  0.18103384130E+03  0.18105498444E+03  0.00000000000E+00 0. -1.
         11    1    1    2    0    0 -0.48079895758E+01 -0.62679222112E+00 -0.16402879950E+03  0.16410044698E+03  0.00000000000E+00 0.  1.
        -15    1    1    2    0    0  0.47639626536E+01  0.42269647706E+01 -0.14265763606E+02  0.15723622725E+02  0.17770000000E+01 0. -1.
         15    1    1    2    0    0  0.19465427469E+01 -0.15911605934E+01 -0.27392781965E+01  0.41209458547E+01  0.17770000000E+01 0. -1.
</event>
<event>
 6    1  0.1045352E-002  0.1842644E+03  0.7546771E-02  0.1067059E+00
        -11   -1    0    0    0    0  0.00000000000E+00  0.00000000000E+00  0.18250000000E+03  0.18250000000E+03  0.00000000000E+00 0.  1.
         11   -1    0    0    0    0 -0.00000000000E+00 -0.00000000000E+00 -0.18250000000E+03  0.18250000000E+03  0.00000000000E+00 0.  1.
        -11    1    1    2    0    0 -0.30043755457E+01 -0.77284348860E+00  0.15542716159E+03  0.15545811693E+03  0.00000000000E+00 0.  1.
         11    1    1    2    0    0  0.91584975101E+00 -0.59166856418E+01 -0.18063641509E+03  0.18073560912E+03  0.00000000000E+00 0.  1.
        -15    1    1    2    0    0  0.20750537953E+01  0.34566320447E+01  0.12711838678E+01  0.45856069142E+01  0.17770000000E+01 0. -1.
         15    1    1    2    0    0  0.13471999382E-01  0.32328970857E+01  0.23938069623E+02  0.24220667029E+02  0.17770000000E+01 0.  1.
</event>
<event>
 6    1  0.1045352E-002  0.1869430E+03  0.7546771E-02  0.1064972E+00
        -11   -1    0    0    0    0  0.00000000000E+00  0.00000000000E+00  0.18250000000E+03  0.18250000000E+03  0.00000000000E+00 0. -1.
         11   -1    0    0    0    0 -0.00000000000E+00 -0.00000000000E+00 -0.18250000000E+03  0.18250000000E+03  0.00000000000E+00 0. -1.
        -11    1    1    2    0    0 -0.22855733090E+01  0.46211728693E+01  0.16734596662E+03  0.16742536137E+03  0.00000000000E+00 0. -1.
         11    1    1    2    0    0  0.32381033283E+01 -0.23669861605E+01 -0.17801183090E+03  0.17805701300E+03  0.00000000000E+00 0. -1.
        -15    1    1    2    0    0  0.70469058349E+01 -0.16327811763E+01  0.23121035601E+01  0.77992568933E+01  0.17770000000E+01 0. -1.
         15    1    1    2    0    0 -0.79994358542E+01 -0.62140553248E+00  0.83537607171E+01  0.11718368741E+02  0.17770000000E+01 0.  1.
</event>
<event>
 6    1  0.1045352E-002  0.1842736E+03  0.7546771E-02  0.1067052E+00
        -11   -1    0    0    0    0  0.00000000000E+00  0.00000000000E+00  0.18250000000E+03  0.18250000000E+03  0.00000000000E+00 0.  1.
         11   -1    0    0    0    0 -0.00000000000E+00 -0.00000000000E+00 -0.18250000000E+03  0.18250000000E+03  0.00000000000E+00 0.  1.
        -11    1    1    2    0    0 -0.24123740243E+01 -0.12264443428E+01  0.18070614645E+03  0.18072640946E+03  0.00000000000E+00 0.  1.
         11    1    1    2    0    0 -0.42078239817E+01  0.87746952084E+01 -0.68735853578E+02  0.69421312475E+02  0.00000000000E+00 0.  1.
        -15    1    1    2    0    0  0.10219552638E+01  0.32253307316E+01 -0.22230313223E+01  0.44211704501E+01  0.17770000000E+01 0. -1.
         15    1    1    2    0    0  0.55982427422E+01 -0.10773581597E+02 -0.10974726155E+03  0.11043110761E+03  0.17770000000E+01 0.  1.
</event>
<event>
 6    1  0.1045352E-002  0.1828680E+03  0.7546771E-02  0.1068162E+00
        -11   -1    0    0    0    0  0.00000000000E+00  0.00000000000E+00  0.18250000000E+03  0.18250000000E+03  0.00000000000E+00 0.  1.
         11   -1    0    0    0    0 -0.00000000000E+00 -0.00000000000E+00 -0.18250000000E+03  0.18250000000E+03  0.00000000000E+00 0. -1.
        -11    1    1    2    0    0  0.15181635049E+01  0.58046485115E+00  0.10891482366E+03  0.10892695063E+03  0.00000000000E+00 0.  1.
         11    1    1    2    0    0  0.42133337663E+01 -0.19544879239E+01 -0.18207280913E+03  0.18213204009E+03  0.00000000000E+00 0. -1.
        -15    1    1    2    0    0 -0.52936421890E+01  0.44570579860E+01  0.47980243560E+02  0.48509272460E+02  0.17770000000E+01 0.  1.
         15    1    1    2    0    0 -0.43785508213E+00 -0.30830349132E+01  0.25177741905E+02  0.25431736822E+02  0.17770000000E+01 0.  1.
</event>
<event>
 6    1  0.1045352E-002  0.1829989E+03  0.7546771E-02  0.1068058E+00
        -11   -1    0    0    0    0  0.00000000000E+00  0.00000000000E+00  0.18250000000E+03  0.18250000000E+03  0.00000000000E+00 0.  1.
         11   -1    0    0    0    0 -0.00000000000E+00 -0.00000000000E+00 -0.18250000000E+03  0.18250000000E+03  0.00000000000E+00 0. -1.
        -11    1    1    2    0    0 -0.55702513221E+00  0.91048061610E-01  0.16434160498E+02  0.16443849854E+02  0.00000000000E+00 0.  1.
         11    1    1    2    0    0  0.41939554688E+01  0.12469982123E+01 -0.18194852685E+03  0.18200112827E+03  0.00000000000E+00 0. -1.
        -15    1    1    2    0    0  0.59377461793E+01 -0.14421604678E+01  0.11066346774E+03  0.11084627859E+03  0.17770000000E+01 0.  1.
         15    1    1    2    0    0 -0.95746765160E+01  0.10411419391E+00  0.54850898621E+02  0.55708743288E+02  0.17770000000E+01 0. -1.
</event>
<event>
 6    1  0.1045352E-002  0.1900856E+03  0.7546771E-02  0.1062572E+00
        -11   -1    0    0    0    0  0.00000000000E+00  0.00000000000E+00  0.18250000000E+03  0.18250000000E+03  0.00000000000E+00 0.  1.
         11   -1    0    0    0    0 -0.00000000000E+00 -0.00000000000E+00 -0.18250000000E+03  0.18250000000E+03  0.00000000000E+00 0.  1.
        -11    1    1    2    0    0  0.40657135500E+01 -0.36300067410E+01  0.35940500950E+02  0.36351431666E+02  0.00000000000E+00 0.  1.
         11    1    1    2    0    0 -0.66967623185E+01  0.39630267294E+01 -0.17474125776E+03  0.17491443442E+03  0.00000000000E+00 0.  1.
        -15    1    1    2    0    0  0.16932767547E+02 -0.54551779997E+01  0.43285231875E+01  0.18394874987E+02  0.17770000000E+01 0. -1.
         15    1    1    2    0    0 -0.14301718779E+02  0.51221580113E+01  0.13447223362E+03  0.13533925893E+03  0.17770000000E+01 0.  1.
</event>
<event>
 6    1  0.1045352E-002  0.1713394E+03  0.7546771E-02  0.1077703E+00
        -11   -1    0    0    0    0  0.00000000000E+00  0.00000000000E+00  0.18250000000E+03  0.18250000000E+03  0.00000000000E+00 0.  1.
         11   -1    0    0    0    0 -0.00000000000E+00 -0.00000000000E+00 -0.18250000000E+03  0.18250000000E+03  0.00000000000E+00 0. -1.
        -11    1    1    2    0    0  0.48665384047E+01  0.79724887629E+01  0.17239422548E+03  0.17264707571E+03  0.00000000000E+00 0.  1.
         11    1    1    2    0    0 -0.12732870277E+01  0.30947866502E+01 -0.17020327051E+03  0.17023616613E+03  0.00000000000E+00 0. -1.
        -15    1    1    2    0    0 -0.23857885114E+01 -0.77431778167E+01 -0.10221517345E+02  0.13163811582E+02  0.17770000000E+01 0.  1.
         15    1    1    2    0    0 -0.12074628656E+01 -0.33240975964E+01  0.80305623806E+01  0.89529465849E+01  0.17770000000E+01 0. -1.
</event>
<event>
 6    1  0.1045352E-002  0.1855191E+03  0.7546771E-02  0.1066077E+00
        -11   -1    0    0    0    0  0.00000000000E+00  0.00000000000E+00  0.18250000000E+03  0.18250000000E+03  0.00000000000E+00 0. -1.
         11   -1    0    0    0    0 -0.00000000000E+00 -0.00000000000E+00 -0.18250000000E+03  0.18250000000E+03  0.00000000000E+00 0. -1.
        -11    1    1    2    0    0 -0.63231506298E+00  0.83133952336E+01  0.13473427053E+03  0.13499198501E+03  0.00000000000E+00 0. -1.
         11    1    1    2    0    0 -0.53629402328E+00 -0.42271490517E+01 -0.17943026319E+03  0.17948085065E+03  0.00000000000E+00 0. -1.
        -15    1    1    2    0    0  0.69671891701E+01 -0.93051429638E+01  0.11750677309E+02  0.16624185896E+02  0.17770000000E+01 0.  1.
         15    1    1    2    0    0 -0.57985800838E+01  0.52188967820E+01  0.32945315351E+02  0.33902978441E+02  0.17770000000E+01 0. -1.
</event>
<event>
 6    1  0.1045352E-002  0.1987261E+03  0.7546771E-02  0.1056226E+00
        -11   -1    0    0    0    0  0.00000000000E+00  0.00000000000E+00  0.18250000000E+03  0.18250000000E+03  0.00000000000E+00 0.  1.
         11   -1    0    0    0    0 -0.00000000000E+00 -0.00000000000E+00 -0.18250000000E+03  0.18250000000E+03  0.00000000000E+00 0. -1.
        -11    1    1    2    0    0 -0.67860408313E+01 -0.55334618387E+01  0.16604315942E+03  0.16627387149E+03  0.00000000000E+00 0.  1.
         11    1    1    2    0    0 -0.22465327584E+00 -0.34384850128E+01 -0.93046475290E+02  0.93110258362E+02  0.00000000000E+00 0. -1.
        -15    1    1    2    0    0  0.19323466141E+02 -0.74558550312E+01  0.78223703439E+01  0.22211108138E+02  0.17770000000E+01 0. -1.
         15    1    1    2    0    0 -0.12312772033E+02  0.16427801883E+02 -0.80819054477E+02  0.83404762007E+02  0.17770000000E+01 0.  1.
</event>
<event>
 6    1  0.1045352E-002  0.1832564E+03  0.7546771E-02  0.1067854E+00
        -11   -1    0    0    0    0  0.00000000000E+00  0.00000000000E+00  0.18250000000E+03  0.18250000000E+03  0.00000000000E+00 0. -1.
         11   -1    0    0    0    0 -0.00000000000E+00 -0.00000000000E+00 -0.18250000000E+03  0.18250000000E+03  0.00000000000E+00 0.  1.
        -11    1    1    2    0    0 -0.30523018930E+01 -0.19407872003E+01  0.18170764195E+03  0.18174363908E+03  0.00000000000E+00 0. -1.
         11    1    1    2    0    0  0.60294262670E+00  0.68534438310E+01 -0.15813125351E+03  0.15828084713E+03  0.00000000000E+00 0.  1.
        -15    1    1    2    0    0  0.30443868560E+01 -0.67028470878E+00 -0.95202366708E+01  0.10173996667E+02  0.17770000000E+01 0. -1.
         15    1    1    2    0    0 -0.59502758975E+00 -0.42423719219E+01 -0.14056151773E+02  0.14801517119E+02  0.17770000000E+01 0.  1.
</event>
<event>
 6    1  0.1045352E-002  0.1749750E+03  0.7546771E-02  0.1074608E+00
        -11   -1    0    0    0    0  0.00000000000E+00  0.00000000000E+00  0.18250000000E+03  0.18250000000E+03  0.00000000000E+00 0.  1.
         11   -1    0    0    0    0 -0.00000000000E+00 -0.00000000000E+00 -0.18250000000E+03  0.18250000000E+03  0.00000000000E+00 0.  1.
        -11    1    1    2    0    0  0.19851481065E+01 -0.12148572459E+01  0.17220634208E+03  0.17222206869E+03  0.00000000000E+00 0.  1.
         11    1    1    2    0    0 -0.59028082143E+01 -0.83541438672E+01 -0.17762826506E+03  0.17792255454E+03  0.00000000000E+00 0.  1.
        -15    1    1    2    0    0  0.45709607109E+01  0.84486362498E+01  0.87964827974E+00  0.98083967292E+01  0.17770000000E+01 0. -1.
         15    1    1    2    0    0 -0.65330060311E+00  0.11203648633E+01  0.45422747016E+01  0.50469800446E+01  0.17770000000E+01 0.  1.
</event>
<event>
 6    1  0.1045352E-002  0.1838671E+03  0.7546771E-02  0.1067372E+00
        -11   -1    0    0    0    0  0.00000000000E+00  0.00000000000E+00  0.18250000000E+03  0.18250000000E+03  0.00000000000E+00 0. -1.
         11   -1    0    0    0    0 -0.00000000000E+00 -0.00000000000E+00 -0.18250000000E+03  0.18250000000E+03  0.00000000000E+00 0.  1.
        -11    1    1    2    0    0 -0.26819177187E+01  0.33302214619E+01  0.12844200688E+03  0.12851315960E+03  0.00000000000E+00 0. -1.
         11    1    1    2    0    0  0.38277585711E+00 -0.36657901186E+01 -0.18109540849E+03  0.18113291118E+03  0.00000000000E+00 0.  1.
        -15    1    1    2    0    0  0.24218014358E+01 -0.26773523296E+01  0.51517140125E+02  0.51674043710E+02  0.17770000000E+01 0. -1.
         15    1    1    2    0    0 -0.12265957420E+00  0.30129209863E+01  0.11362614846E+01  0.36798855148E+01  0.17770000000E+01 0. -1.
</event>
<event>
 6    1  0.1045352E-002  0.1858731E+03  0.7546771E-02  0.1065801E+00
        -11   -1    0    0    0    0  0.00000000000E+00  0.00000000000E+00  0.18250000000E+03  0.18250000000E+03  0.00000000000E+00 0.  1.
         11   -1    0    0    0    0 -0.00000000000E+00 -0.00000000000E+00 -0.18250000000E+03  0.18250000000E+03  0.00000000000E+00 0.  1.
        -11    1    1    2    0    0 -0.10750257758E+01  0.56800379462E+01  0.17903363241E+03  0.17912693836E+03  0.00000000000E+00 0.  1.
         11    1    1    2    0    0 -0.45590175989E+01  0.95206775940E-01 -0.15602467939E+03  0.15609130112E+03  0.00000000000E+00 0.  1.
        -15    1    1    2    0    0  0.56352748432E+01 -0.32674420387E+01 -0.18790587783E+00  0.67546678418E+01  0.17770000000E+01 0. -1.
         15    1    1    2    0    0 -0.12314684265E-02 -0.25078026834E+01 -0.22821047143E+02  0.23027092685E+02  0.17770000000E+01 0.  1.
</event>
<event>
 6    1  0.1045352E-002  0.1827643E+03  0.7546771E-02  0.1068245E+00
        -11   -1    0    0    0    0  0.00000000000E+00  0.00000000000E+00  0.18250000000E+03  0.18250000000E+03  0.00000000000E+00 0. -1.
         11   -1    0    0    0    0 -0.00000000000E+00 -0.00000000000E+00 -0.18250000000E+03  0.18250000000E+03  0.00000000000E+00 0. -1.
        -11    1    1    2    0    0 -0.34261176188E+01  0.41365975809E+01  0.18215654341E+03  0.18223571557E+03  0.00000000000E+00 0. -1.
         11    1    1    2    0    0 -0.19183555533E+01 -0.31444203676E+01 -0.12832928276E+03  0.12838213381E+03  0.00000000000E+00 0. -1.
        -15    1    1    2    0    0  0.13169289458E+01  0.77243410252E+00 -0.88252095234E+01  0.91308821273E+01  0.17770000000E+01 0. -1.
         15    1    1    2    0    0  0.40275442264E+01 -0.17646113158E+01 -0.45002051125E+02  0.45251268491E+02  0.17770000000E+01 0.  1.
</event>
<event>
 6    1  0.1045352E-002  0.1921434E+03  0.7546771E-02  0.1061028E+00
        -11   -1    0    0    0    0  0.00000000000E+00  0.00000000000E+00  0.18250000000E+03  0.18250000000E+03  0.00000000000E+00 0.  1.
         11   -1    0    0    0    0 -0.00000000000E+00 -0.00000000000E+00 -0.18250000000E+03  0.18250000000E+03  0.00000000000E+00 0.  1.
        -11    1    1    2    0    0  0.28972047073E+01  0.48351513692E+01  0.12313889985E+03  0.12326784309E+03  0.00000000000E+00 0.  1.
         11    1    1    2    0    0 -0.33692568370E+01  0.70682857808E+01 -0.17267916023E+03  0.17285660223E+03  0.00000000000E+00 0.  1.
        -15    1    1    2    0    0  0.61096107555E+01 -0.85214728838E+01  0.57456894011E+02  0.58432826751E+02  0.17770000000E+01 0.  1.
         15    1    1    2    0    0 -0.56375586259E+01 -0.33819642662E+01 -0.79166336330E+01  0.10442727931E+02  0.17770000000E+01 0. -1.
</event>
<event>
 6    1  0.1319921E-002  0.1840171E+03  0.7546771E-02  0.1067254E+00
        -11   -1    0    0    0    0  0.00000000000E+00  0.00000000000E+00  0.18250000000E+03  0.18250000000E+03  0.00000000000E+00 0.  1.
         11   -1    0    0    0    0 -0.00000000000E+00 -0.00000000000E+00 -0.18250000000E+03  0.18250000000E+03  0.00000000000E+00 0.  1.
        -11    1    1    2    0    0  0.30073561610E+01 -0.50052117720E+01  0.18088872522E+03  0.18098294740E+03  0.00000000000E+00 0.  1.
         11    1    1    2    0    0  0.27355710230E+01  0.45488762115E+01 -0.98338589293E+02  0.98481743322E+02  0.00000000000E+00 0.  1.
        -15    1    1    2    0    0 -0.38921935185E+01 -0.22751881303E+01 -0.81499256022E+02  0.81643200038E+02  0.17770000000E+01 0. -1.
         15    1    1    2    0    0 -0.18507336655E+01  0.27315236908E+01 -0.10508799081E+01  0.38921092425E+01  0.17770000000E+01 0.  1.
</event>
<event>
 6    1  0.1045352E-002  0.1829834E+03  0.7546771E-02  0.1068071E+00
        -11   -1    0    0    0    0  0.00000000000E+00  0.00000000000E+00  0.18250000000E+03  0.18250000000E+03  0.00000000000E+00 0.  1.
         11   -1    0    0    0    0 -0.00000000000E+00 -0.00000000000E+00 -0.18250000000E+03  0.18250000000E+03  0.00000000000E+00 0.  1.
        -11    1    1    2    0    0  0.66297338768E+00 -0.47467533578E+00  0.53836406055E+02  0.53842580430E+02  0.00000000000E+00 0.  1.
         11    1    1    2    0    0  0.15131446127E+01 -0.43224589257E+01 -0.18195902583E+03  0.18201664852E+03  0.00000000000E+00 0.  1.
        -15    1    1    2    0    0 -0.97766133563E+00  0.18291102593E+01  0.33849040741E+01  0.43493414006E+01  0.17770000000E+01 0. -1.
         15    1    1    2    0    0 -0.11984566648E+01  0.29680240022E+01  0.12473771570E+03  0.12479142965E+03  0.17770000000E+01 0.  1.
</event>
<event>
 6    1  0.1045352E-002  0.1831615E+03  0.7546771E-02  0.1067929E+00
        -11   -1    0    0    0    0  0.00000000000E+00  0.00000000000E+00  0.18250000000E+03  0.18250000000E+03  0.00000000000E+00 0. -1.
         11   -1    0    0    0    0 -0.00000000000E+00 -0.00000000000E+00 -0.18250000000E+03  0.18250000000E+03  0.00000000000E+00 0.  1.
        -11    1    1    2    0    0  0.28209921959E+01  0.34795013728E+01  0.42571458675E+02  0.42806471713E+02  0.00000000000E+00 0. -1.
         11    1    1    2    0    0  0.28859665287E+01 -0.13700468441E+02 -0.18129868099E+03  0.18183850903E+03  0.00000000000E+00 0.  1.
        -15    1    1    2    0    0  0.73876489762E+00 -0.12922125229E+01  0.83986577168E+02  0.84018560212E+02  0.17770000000E+01 0. -1.
         15    1    1    2    0    0 -0.64457236222E+01  0.11513179591E+02  0.54740645148E+02  0.56336459043E+02  0.17770000000E+01 0.  1.
</event>
<event>
 6    1  0.1045352E-002  0.1827464E+03  0.7546771E-02  0.1068259E+00
        -11   -1    0    0    0    0  0.00000000000E+00  0.00000000000E+00  0.18250000000E+03  0.18250000000E+03  0.00000000000E+00 0.  1.
         11   -1    0    0    0    0 -0.00000000000E+00 -0.00000000000E+00 -0.18250000000E+03  0.18250000000E+03  0.00000000000E+00 0.  1.
        -11    1    1    2    0    0  0.90693239449E+00  0.24861573296E+01  0.76598592618E+02  0.76644294606E+02  0.00000000000E+00 0.  1.
         11    1    1    2    0    0 -0.19405128994E+01 -0.26559318397E+01 -0.18222387896E+03  0.18225356411E+03  0.00000000000E+00 0.  1.
        -15    1    1    2    0    0 -0.36928277260E+01 -0.20333989825E+00  0.69841285212E+02  0.69961712191E+02  0.17770000000E+01 0.  1.
         15    1    1    2    0    0  0.47264082309E+01  0.37311440832E+00  0.35784001135E+02  0.36140429097E+02  0.17770000000E+01 0. -1.
</event>
<event>
 6    1  0.1045352E-002  0.1896897E+03  0.7546771E-02  0.1062872E+00
        -11   -1    0    0    0    0  0.00000000000E+00  0.00000000000E+00  0.18250000000E+03  0.18250000000E+03  0.00000000000E+00 0.  1.
         11   -1    0    0    0    0 -0.00000000000E+00 -0.00000000000E+00 -0.18250000000E+03  0.18250000000E+03  0.00000000000E+00 0.  1.
        -11    1    1    2    0    0  0.28215335369E+01 -0.22074623948E+01  0.17527369834E+03  0.17531030566E+03  0.00000000000E+00 0.  1.
         11    1    1    2    0    0  0.30244615624E+01 -0.11177329834E+01 -0.15009539413E+03  0.15013002376E+03  0.00000000000E+00 0.  1.
        -15    1    1    2    0    0 -0.17628340176E+02 -0.61140198423E+00 -0.17126059201E+02  0.24649377731E+02  0.17770000000E+01 0.  1.
         15    1    1    2    0    0  0.11782345077E+02  0.39365973624E+01 -0.80522450043E+01  0.14910292851E+02  0.17770000000E+01 0. -1.
</event>
<event>
 6    1  0.1045352E-002  0.1831155E+03  0.7546771E-02  0.1067966E+00
        -11   -1    0    0    0    0  0.00000000000E+00  0.00000000000E+00  0.18250000000E+03  0.18250000000E+03  0.00000000000E+00 0. -1.
         11   -1    0    0    0    0 -0.00000000000E+00 -0.00000000000E+00 -0.18250000000E+03  0.18250000000E+03  0.00000000000E+00 0.  1.
        -11    1    1    2    0    0 -0.23666412842E+01  0.48505428392E+00  0.73207408695E+02  0.73247259037E+02  0.00000000000E+00 0. -1.
         11    1    1    2    0    0 -0.17950773268E+01 -0.12208747004E+02 -0.18146540180E+03  0.18188449043E+03  0.00000000000E+00 0.  1.
        -15    1    1    2    0    0  0.48856992308E+01  0.94792114628E+01  0.36950558557E+02  0.38499701475E+02  0.17770000000E+01 0. -1.
         15    1    1    2    0    0 -0.72398061979E+00  0.22444812577E+01  0.71307434551E+02  0.71368549062E+02  0.17770000000E+01 0. -1.
</event>
<event>
 6    1  0.1045352E-002  0.1860964E+03  0.7546771E-02  0.1065628E+00
        -11   -1    0    0    0    0  0.00000000000E+00  0.00000000000E+00  0.18250000000E+03  0.18250000000E+03  0.00000000000E+00 0.  1.
         11   -1    0    0    0    0 -0.00000000000E+00 -0.00000000000E+00 -0.18250000000E+03  0.18250000000E+03  0.00000000000E+00 0. -1.
        -11    1    1    2    0    0 -0.13132904688E+01  0.11219232906E+02  0.17854666491E+03  0.17890362620E+03  0.00000000000E+00 0.  1.
         11    1    1    2    0    0 -0.72130226409E+00  0.14436218669E+01 -0.10181061820E+03  0.10182340743E+03  0.00000000000E+00 0. -1.
        -15    1    1    2    0    0  0.13715235331E+01 -0.11272654318E+02 -0.50601936778E+01  0.12558546940E+02  0.17770000000E+01 0. -1.
         15    1    1    2    0    0  0.66306919975E+00 -0.13902004545E+01 -0.71675853028E+02  0.71714419432E+02  0.17770000000E+01 0. -1.
</event>
<event>
 6    1  0.1045352E-002  0.1828929E+03  0.7546771E-02  0.1068142E+00
        -11   -1    0    0    0    0  0.00000000000E+00  0.00000000000E+00  0.18250000000E+03  0.18250000000E+03  0.00000000000E+00 0.  1.
         11   -1    0    0    0    0 -0.00000000000E+00 -0.00000000000E+00 -0.18250000000E+03  0.18250000000E+03  0.00000000000E+00 0. -1.
        -11    1    1    2    0    0  0.16781600540E+00  0.35262917371E+01  0.91069174034E+02  0.91137573782E+02  0.00000000000E+00 0.  1.
         11    1    1    2    0    0 -0.29311685701E+00  0.29142507571E+01 -0.18208351503E+03  0.18210707076E+03  0.00000000000E+00 0. -1.
        -15    1    1    2    0    0  0.26137283342E+01  0.47077585586E+00  0.13480519421E+02  0.13854072995E+02  0.17770000000E+01 0. -1.
         15    1    1    2    0    0 -0.24884274826E+01 -0.69113183500E+01  0.77533821574E+02  0.77901282464E+02  0.17770000000E+01 0.  1.
</event>
<event>
 6    1  0.1045352E-002  0.1828282E+03  0.7546771E-02  0.1068194E+00
        -11   -1    0    0    0    0  0.00000000000E+00  0.00000000000E+00  0.18250000000E+03  0.18250000000E+03  0.00000000000E+00 0.  1.
         11   -1    0    0    0    0 -0.00000000000E+00 -0.00000000000E+00 -0.18250000000E+03  0.18250000000E+03  0.00000000000E+00 0.  1.
        -11    1    1    2    0    0 -0.14084375818E+01 -0.76578067705E+00  0.96264337284E+02  0.96277685624E+02  0.00000000000E+00 0.  1.
         11    1    1    2    0    0 -0.50780527983E+01  0.55799136622E+00 -0.18210015308E+03  0.18217179729E+03  0.00000000000E+00 0.  1.
        -15    1    1    2    0    0  0.77116479949E+01 -0.96970303865E+00  0.50121993935E+02  0.50752160976E+02  0.17770000000E+01 0.  1.
         15    1    1    2    0    0 -0.12251576148E+01  0.11774923495E+01  0.35713821862E+02  0.35798356113E+02  0.17770000000E+01 0.  1.
</event>
<event>
 6    1  0.1101974E-002  0.1695083E+03  0.7546771E-02  0.1079294E+00
        -11   -1    0    0    0    0  0.00000000000E+00  0.00000000000E+00  0.18250000000E+03  0.18250000000E+03  0.00000000000E+00 0.  1.
         11   -1    0    0    0    0 -0.00000000000E+00 -0.00000000000E+00 -0.18250000000E+03  0.18250000000E+03  0.00000000000E+00 0.  1.
        -11    1    1    2    0    0 -0.56172247636E+01  0.74730253875E+00  0.17060191907E+03  0.17069600600E+03  0.00000000000E+00 0.  1.
         11    1    1    2    0    0  0.40751039574E+01  0.68273303674E+01 -0.16822914207E+03  0.16841693250E+03  0.00000000000E+00 0.  1.
        -15    1    1    2    0    0 -0.17267593395E+01 -0.51693628696E+01 -0.13089992466E+02  0.14290193912E+02  0.17770000000E+01 0. -1.
         15    1    1    2    0    0  0.32688801457E+01 -0.24052700366E+01  0.10717215467E+02  0.11596867582E+02  0.17770000000E+01 0. -1.
</event>
<event>
 6    1  0.1045352E-002  0.1854834E+03  0.7546771E-02  0.1066105E+00
        -11   -1    0    0    0    0  0.00000000000E+00  0.00000000000E+00  0.18250000000E+03  0.18250000000E+03  0.00000000000E+00 0. -1.
         11   -1    0    0    0    0 -0.00000000000E+00 -0.00000000000E+00 -0.18250000000E+03  0.18250000000E+03  0.00000000000E+00 0. -1.
        -11    1    1    2    0    0  0.72779882657E+01  0.38415657242E+01  0.17932788430E+03  0.17951661992E+03  0.00000000000E+00 0. -1.
         11    1    1    2    0    0  0.15981746563E+00 -0.32656233884E+01 -0.17214948556E+03  0.17218053089E+03  0.00000000000E+00 0. -1.
        -15    1    1    2    0    0 -0.57862878395E+01 -0.29948973207E+01 -0.72072228797E+01  0.98768581827E+01  0.17770000000E+01 0. -1.
         15    1    1    2    0    0 -0.16515178917E+01  0.24189549850E+01  0.28824141505E-01  0.34259910095E+01  0.17770000000E+01 0.  1.
</event>
<event>
 6    1  0.1045352E-002  0.1789030E+03  0.7546771E-02  0.1071355E+00
        -11   -1    0    0    0    0  0.00000000000E+00  0.00000000000E+00  0.18250000000E+03  0.18250000000E+03  0.00000000000E+00 0.  1.
         11   -1    0    0    0    0 -0.00000000000E+00 -0.00000000000E+00 -0.18250000000E+03  0.18250000000E+03  0.00000000000E+00 0.  1.
        -11    1    1    2    0    0 -0.61156761869E-01  0.24456710850E+01  0.17920491884E+03  0.17922161696E+03  0.00000000000E+00 0.  1.
         11    1    1    2    0    0  0.24976474495E+01 -0.26271026789E+00 -0.17858225992E+03  0.17859991831E+03  0.00000000000E+00 0.  1.
        -15    1    1    2    0    0  0.75149011427E+00  0.98785160218E-01 -0.18785450189E+01  0.26946532778E+01  0.17770000000E+01 0. -1.
         15    1    1    2    0    0 -0.31879808019E+01 -0.22817459773E+01  0.12558861019E+01  0.44838114590E+01  0.17770000000E+01 0.  1.
</event>
<event>
 6    1  0.1045352E-002  0.1569532E+03  0.7546771E-02  0.1090830E+00
        -11   -1    0    0    0    0  0.00000000000E+00  0.00000000000E+00  0.18250000000E+03  0.18250000000E+03  0.00000000000E+00 0.  1.
         11   -1    0    0    0    0 -0.00000000000E+00 -0.00000000000E+00 -0.18250000000E+03  0.18250000000E+03  0.00000000000E+00 0.  1.
        -11    1    1    2    0    0 -0.24703223260E+01 -0.11427983962E+02  0.15894080199E+03  0.15937026024E+03  0.00000000000E+00 0.  1.
         11    1    1    2    0    0  0.51235983079E+00  0.25534536507E+01 -0.15467462720E+03  0.15469655115E+03  0.00000000000E+00 0.  1.
        -15    1    1    2    0    0  0.42949389877E+01  0.13743118214E+02  0.20727904810E+02  0.25300663350E+02  0.17770000000E+01 0.  1.
         15    1    1    2    0    0 -0.23369764925E+01 -0.48685879027E+01 -0.24994079603E+02  0.25632525265E+02  0.17770000000E+01 0.  1.
</event>
<event>
 6    1  0.1045352E-002  0.1825820E+03  0.7546771E-02  0.1068390E+00
        -11   -1    0    0    0    0  0.00000000000E+00  0.00000000000E+00  0.18250000000E+03  0.18250000000E+03  0.00000000000E+00 0. -1.
         11   -1    0    0    0    0 -0.00000000000E+00 -0.00000000000E+00 -0.18250000000E+03  0.18250000000E+03  0.00000000000E+00 0. -1.
        -11    1    1    2    0    0  0.24718354763E+00 -0.45264611623E+01  0.18236164330E+03  0.18241797855E+03  0.00000000000E+00 0. -1.
         11    1    1    2    0    0  0.53844027178E+00 -0.48024105571E+00 -0.18176741850E+02  0.18191055321E+02  0.00000000000E+00 0. -1.
        -15    1    1    2    0    0 -0.19231573207E+01  0.34764716290E+01 -0.13969056425E+03  0.13975834808E+03  0.17770000000E+01 0. -1.
         15    1    1    2    0    0  0.11375335013E+01  0.15302305890E+01 -0.24494337197E+02  0.24632618047E+02  0.17770000000E+01 0.  1.
</event>
<event>
 6    1  0.1045352E-002  0.1866544E+03  0.7546771E-02  0.1065195E+00
        -11   -1    0    0    0    0  0.00000000000E+00  0.00000000000E+00  0.18250000000E+03  0.18250000000E+03  0.00000000000E+00 0.  1.
         11   -1    0    0    0    0 -0.00000000000E+00 -0.00000000000E+00 -0.18250000000E+03  0.18250000000E+03  0.00000000000E+00 0.  1.
        -11    1    1    2    0    0 -0.23929255350E+01  0.92522242465E+01  0.65469962714E+02  0.66163779849E+02  0.00000000000E+00 0.  1.
         11    1    1    2    0    0 -0.49286879905E+01 -0.68966606527E+01 -0.17814407666E+03  0.17834564178E+03  0.00000000000E+00 0.  1.
        -15    1    1    2    0    0  0.16248263958E+02  0.76404080379E+01  0.10108955868E+03  0.10268709033E+03  0.17770000000E+01 0.  1.
         15    1    1    2    0    0 -0.89266504330E+01 -0.99959716317E+01  0.11584555263E+02  0.17803488042E+02  0.17770000000E+01 0. -1.
</event>
<event>
 6    1  0.1045352E-002  0.1833333E+03  0.7546771E-02  0.1067793E+00
        -11   -1    0    0    0    0  0.00000000000E+00  0.00000000000E+00  0.18250000000E+03  0.18250000000E+03  0.00000000000E+00 0. -1.
         11   -1    0    0    0    0 -0.00000000000E+00 -0.00000000000E+00 -0.18250000000E+03  0.18250000000E+03  0.00000000000E+00 0. -1.
        -11    1    1    2    0    0 -0.24396726986E+01 -0.75220699943E+00  0.18164876088E+03  0.18166670071E+03  0.00000000000E+00 0. -1.
         11    1    1    2    0    0 -0.67027008608E+01 -0.10597284572E+01 -0.33393937189E+02  0.34076447353E+02  0.00000000000E+00 0. -1.
        -15    1    1    2    0    0  0.49251846191E+01  0.15491879077E+00 -0.14562536145E+02  0.15476001788E+02  0.17770000000E+01 0.  1.
         15    1    1    2    0    0  0.42171889403E+01  0.16570166658E+01 -0.13369228755E+03  0.13378085015E+03  0.17770000000E+01 0. -1.
</event>
<event>
 6    1  0.1045352E-002  0.1835241E+03  0.7546771E-02  0.1067643E+00
        -11   -1    0    0    0    0  0.00000000000E+00  0.00000000000E+00  0.18250000000E+03  0.18250000000E+03  0.00000000000E+00 0.  1.
         11   -1    0    0    0    0 -0.00000000000E+00 -0.00000000000E+00 -0.18250000000E+03  0.18250000000E+03  0.00000000000E+00 0. -1.
        -11    1    1    2    0    0  0.38172374586E+01  0.38044952005E+01  0.18139583499E+03  0.18147587839E+03  0.00000000000E+00 0.  1.
         11    1    1    2    0    0  0.85335070107E+00  0.17519565880E+01 -0.62072400209E+02  0.62102982432E+02  0.00000000000E+00 0. -1.
        -15    1    1    2    0    0 -0.68085053651E+01  0.19074679883E+01 -0.10300490481E+03  0.10326258918E+03  0.17770000000E+01 0. -1.
         15    1    1    2    0    0  0.21379172054E+01 -0.74639197767E+01 -0.16318529973E+02  0.18158549994E+02  0.17770000000E+01 0.  1.
</event>
<event>
 6    1  0.1045352E-002  0.1832036E+03  0.7546771E-02  0.1067896E+00
        -11   -1    0    0    0    0  0.00000000000E+00  0.00000000000E+00  0.18250000000E+03  0.18250000000E+03  0.00000000000E+00 0. -1.
         11   -1    0    0    0    0 -0.00000000000E+00 -0.00000000000E+00 -0.18250000000E+03  0.18250000000E+03  0.00000000000E+00 0. -1.
        -11    1    1    2    0    0 -0.23340124383E+00  0.24439170450E+01  0.18177980615E+03  0.18179638371E+03  0.00000000000E+00 0. -1.
         11    1    1    2    0    0 -0.19315136542E+00  0.15371912566E+01 -0.57320059827E+02  0.57340993390E+02  0.00000000000E+00 0. -1.
        -15    1    1    2    0    0 -0.23306105626E+01 -0.23974551085E+01 -0.12019273319E+03  0.12025236121E+03  0.17770000000E+01 0. -1.
         15    1    1    2    0    0  0.27571631719E+01 -0.15836531931E+01 -0.42670131317E+01  0.56102616925E+01  0.17770000000E+01 0.  1.
</event>
<event>
 6    1  0.1045352E-002  0.1860566E+03  0.7546771E-02  0.1065658E+00
        -11   -1    0    0    0    0  0.00000000000E+00  0.00000000000E+00  0.18250000000E+03  0.18250000000E+03  0.00000000000E+00 0. -1.
         11   -1    0    0    0    0 -0.00000000000E+00 -0.00000000000E+00 -0.18250000000E+03  0.18250000000E+03  0.00000000000E+00 0. -1.
        -11    1    1    2    0    0  0.23459812586E+01  0.12381897989E+01  0.17848820867E+03  0.17850791965E+03  0.00000000000E+00 0. -1.
         11    1    1    2    0    0 -0.24835852551E+01 -0.13229791354E+01 -0.17892127203E+03  0.17894339902E+03  0.00000000000E+00 0. -1.
        -15    1    1    2    0    0 -0.22536188600E+01 -0.17301579725E+01  0.17975850790E+01  0.38027997176E+01  0.17770000000E+01 0. -1.
         15    1    1    2    0    0  0.23912228565E+01  0.18149473090E+01 -0.13645217228E+01  0.37458816073E+01  0.17770000000E+01 0. -1.
</event>
<event>
 6    1  0.1045352E-002  0.1834393E+03  0.7546771E-02  0.1067710E+00
        -11   -1    0    0    0    0  0.00000000000E+00  0.00000000000E+00  0.18250000000E+03  0.18250000000E+03  0.00000000000E+00 0.  1.
         11   -1    0    0    0    0 -0.00000000000E+00 -0.00000000000E+00 -0.18250000000E+03  0.18250000000E+03  0.00000000000E+00 0.  1.
        -11    1    1    2    0    0  0.23858695558E+01  0.12497563335E+01  0.61818665238E+02  0.61877311159E+02  0.00000000000E+00 0.  1.
         11    1    1    2    0    0 -0.13111788862E+00 -0.50517227983E+01 -0.18149034125E+03  0.18156068149E+03  0.00000000000E+00 0.  1.
        -15    1    1    2    0    0 -0.64813922559E+01  0.72481536556E+01  0.27683837342E+02  0.29395522720E+02  0.17770000000E+01 0. -1.
         15    1    1    2    0    0  0.42266405887E+01 -0.34461871907E+01  0.91987838672E+02  0.92166484632E+02  0.17770000000E+01 0.  1.
</event>
<event>
 6    1  0.1045352E-002  0.1849059E+03  0.7546771E-02  0.1066556E+00
        -11   -1    0    0    0    0  0.00000000000E+00  0.00000000000E+00  0.18250000000E+03  0.18250000000E+03  0.00000000000E+00 0. -1.
         11   -1    0    0    0    0 -0.00000000000E+00 -0.00000000000E+00 -0.18250000000E+03  0.18250000000E+03  0.00000000000E+00 0. -1.
        -11    1    1    2    0    0  0.31016432169E+01 -0.47034385035E+01  0.18000595294E+03  0.18009410212E+03  0.00000000000E+00 0. -1.
         11    1    1    2    0    0  0.19787065709E+01  0.12410974351E+01 -0.17061076881E+03  0.17062675651E+03  0.00000000000E+00 0. -1.
        -15    1    1    2    0    0 -0.61508735075E+01 -0.12308639720E+00 -0.70291951033E+01  0.95087174723E+01  0.17770000000E+01 0.  1.
         15    1    1    2    0    0  0.10705237197E+01  0.35854274657E+01 -0.23659890235E+01  0.47704239020E+01  0.17770000000E+01 0. -1.
</event>
<event>
 6    1  0.1045352E-002  0.2041553E+03  0.7546771E-02  0.1052415E+00
        -11   -1    0    0    0    0  0.00000000000E+00  0.00000000000E+00  0.18250000000E+03  0.18250000000E+03  0.00000000000E+00 0. -1.
         11   -1    0    0    0    0 -0.00000000000E+00 -0.00000000000E+00 -0.18250000000E+03  0.18250000000E+03  0.00000000000E+00 0.  1.
        -11    1    1    2    0    0  0.42886021692E+00 -0.21885434690E+01  0.94646167034E+02  0.94672438322E+02  0.00000000000E+00 0. -1.
         11    1    1    2    0    0  0.10155605826E+01  0.23686123307E+01 -0.16082404382E+03  0.16084469142E+03  0.00000000000E+00 0.  1.
        -15    1    1    2    0    0  0.25341972128E+01 -0.18503672619E+02  0.82471579324E+02  0.84578526714E+02  0.17770000000E+01 0. -1.
         15    1    1    2    0    0 -0.39786180124E+01  0.18323603757E+02 -0.16293702540E+02  0.24904343545E+02  0.17770000000E+01 0.  1.
</event>
<event>
 6    1  0.1045352E-002  0.1828126E+03  0.7546771E-02  0.1068206E+00
        -11   -1    0    0    0    0  0.00000000000E+00  0.00000000000E+00  0.18250000000E+03  0.18250000000E+03  0.00000000000E+00 0.  1.
         11   -1    0    0    0    0 -0.00000000000E+00 -0.00000000000E+00 -0.18250000000E+03  0.18250000000E+03  0.00000000000E+00 0.  1.
        -11    1    1    2    0    0  0.33997291652E+01 -0.42543030010E+00  0.61231247880E+02  0.61327032101E+02  0.00000000000E+00 0.  1.
         11    1    1    2    0    0 -0.10261501541E+01  0.33163250138E+01 -0.18215427974E+03  0.18218735583E+03  0.00000000000E+00 0.  1.
        -15    1    1    2    0    0 -0.60372654882E+01  0.49007527221E+00  0.72462371386E+02  0.72736797732E+02  0.17770000000E+01 0. -1.
         15    1    1    2    0    0  0.36636864771E+01 -0.33809699859E+01  0.48460660475E+02  0.48748814338E+02  0.17770000000E+01 0.  1.
</event>
<event>
 6    1  0.1045352E-002  0.1636125E+03  0.7546771E-02  0.1084570E+00
        -11   -1    0    0    0    0  0.00000000000E+00  0.00000000000E+00  0.18250000000E+03  0.18250000000E+03  0.00000000000E+00 0.  1.
         11   -1    0    0    0    0 -0.00000000000E+00 -0.00000000000E+00 -0.18250000000E+03  0.18250000000E+03  0.00000000000E+00 0.  1.
        -11    1    1    2    0    0  0.29460143130E+01 -0.49858937300E+00  0.16331179203E+03  0.16333912271E+03  0.00000000000E+00 0.  1.
         11    1    1    2    0    0  0.10962491390E+02  0.23706863121E+01 -0.16380353093E+03  0.16418706744E+03  0.00000000000E+00 0.  1.
        -15    1    1    2    0    0 -0.18993208826E+02  0.45159097383E+01 -0.11598157699E+02  0.22777410153E+02  0.17770000000E+01 0. -1.
         15    1    1    2    0    0  0.50847031225E+01 -0.63880066774E+01  0.12089896598E+02  0.14696399692E+02  0.17770000000E+01 0.  1.
</event>
<event>
 6    1  0.1045352E-002  0.1626586E+03  0.7546771E-02  0.1085446E+00
        -11   -1    0    0    0    0  0.00000000000E+00  0.00000000000E+00  0.18250000000E+03  0.18250000000E+03  0.00000000000E+00 0.  1.
         11   -1    0    0    0    0 -0.00000000000E+00 -0.00000000000E+00 -0.18250000000E+03  0.18250000000E+03  0.00000000000E+00 0. -1.
        -11    1    1    2    0    0 -0.14073255934E+00 -0.11110191453E+02  0.15731761353E+03  0.15770950411E+03  0.00000000000E+00 0.  1.
         11    1    1    2    0    0 -0.29252320831E+01 -0.14536965808E+02 -0.16815909577E+03  0.16881161645E+03  0.00000000000E+00 0. -1.
        -15    1    1    2    0    0 -0.14358529195E+01 -0.92081344395E+00  0.11203667009E+02  0.11471244677E+02  0.17770000000E+01 0.  1.
         15    1    1    2    0    0  0.45018175620E+01  0.26567970705E+02 -0.36218477491E+00  0.27007634764E+02  0.17770000000E+01 0. -1.
</event>
<event>
 6    1  0.1045352E-002  0.1766135E+03  0.7546771E-02  0.1073239E+00
        -11   -1    0    0    0    0  0.00000000000E+00  0.00000000000E+00  0.18250000000E+03  0.18250000000E+03  0.00000000000E+00 0.  1.
         11   -1    0    0    0    0 -0.00000000000E+00 -0.00000000000E+00 -0.18250000000E+03  0.18250000000E+03  0.00000000000E+00 0. -1.
        -11    1    1    2    0    0  0.39540659466E+01  0.39385162877E+00  0.17625284056E+03  0.17629762778E+03  0.00000000000E+00 0.  1.
         11    1    1    2    0    0 -0.24446722477E+01 -0.41570410439E+01 -0.17688740273E+03  0.17695313124E+03  0.00000000000E+00 0. -1.
        -15    1    1    2    0    0  0.34531525262E+01  0.36774470171E+01 -0.21770604618E+01  0.57745303001E+01  0.17770000000E+01 0. -1.
         15    1    1    2    0    0 -0.49625462251E+01  0.85742398044E-01  0.28116226338E+01  0.59747106734E+01  0.17770000000E+01 0. -1.
</event>
<event>
 6    1  0.1045352E-002  0.1775390E+03  0.7546771E-02  0.1072474E+00
        -11   -1    0    0    0    0  0.00000000000E+00  0.00000000000E+00  0.18250000000E+03  0.18250000000E+03  0.00000000000E+00 0. -1.
         11   -1    0    0    0    0 -0.00000000000E+00 -0.00000000000E+00 -0.18250000000E+03  0.18250000000E+03  0.00000000000E+00 0.  1.
        -11    1    1    2    0    0 -0.33663041168E+00  0.53383601963E+01  0.17671392250E+03  0.17679485800E+03  0.00000000000E+00 0. -1.
         11    1    1    2    0    0  0.53409345887E+00 -0.24313587739E+01 -0.17828107674E+03  0.17829845508E+03  0.00000000000E+00 0.  1.
        -15    1    1    2    0    0  0.11877500076E+01 -0.57307790043E+01  0.14810013003E+01  0.62931448361E+01  0.17770000000E+01 0.  1.
         15    1    1    2    0    0 -0.13852130548E+01  0.28237775819E+01  0.86152933012E-01  0.36135420804E+01  0.17770000000E+01 0. -1.
</event>
<event>
 6    1  0.1045352E-002  0.1936953E+03  0.7546771E-02  0.1059877E+00
        -11   -1    0    0    0    0  0.00000000000E+00  0.00000000000E+00  0.18250000000E+03  0.18250000000E+03  0.00000000000E+00 0.  1.
         11   -1    0    0    0    0 -0.00000000000E+00 -0.00000000000E+00 -0.18250000000E+03  0.18250000000E+03  0.00000000000E+00 0.  1.
        -11    1    1    2    0    0 -0.77506163955E+01 -0.10237637068E+02  0.16463908142E+03  0.16513905776E+03  0.00000000000E+00 0.  1.
         11    1    1    2    0    0  0.24204172240E+01  0.83712602392E+01 -0.17108294656E+03  0.17130473146E+03  0.00000000000E+00 0.  1.
        -15    1    1    2    0    0  0.57514704189E+01  0.72091254923E+01  0.15359300182E+02  0.18003242303E+02  0.17770000000E+01 0.  1.
         15    1    1    2    0    0 -0.42127124733E+00 -0.53427486633E+01 -0.89154350371E+01  0.10552968475E+02  0.17770000000E+01 0. -1.
</event>
<event>
 6    1  0.1045352E-002  0.1760783E+03  0.7546771E-02  0.1073685E+00
        -11   -1    0    0    0    0  0.00000000000E+00  0.00000000000E+00  0.18250000000E+03  0.18250000000E+03  0.00000000000E+00 0. -1.
         11   -1    0    0    0    0 -0.00000000000E+00 -0.00000000000E+00 -0.18250000000E+03  0.18250000000E+03  0.00000000000E+00 0.  1.
        -11    1    1    2    0    0  0.17577964439E+01 -0.27909123347E+01  0.17617063210E+03  0.17620150582E+03  0.00000000000E+00 0. -1.
         11    1    1    2    0    0 -0.31584506209E+01 -0.21758075353E+01 -0.17595121108E+03  0.17599300733E+03  0.00000000000E+00 0.  1.
        -15    1    1    2    0    0  0.56449409934E+01  0.55603650402E+01  0.36982561910E+00  0.81288079192E+01  0.17770000000E+01 0.  1.
         15    1    1    2    0    0 -0.42442868164E+01 -0.59364517014E+00 -0.58924664063E+00  0.46766789255E+01  0.17770000000E+01 0. -1.
</event>
<event>
 6    1  0.1045352E-002  0.1830155E+03  0.7546771E-02  0.1068045E+00
        -11   -1    0    0    0    0  0.00000000000E+00  0.00000000000E+00  0.18250000000E+03  0.18250000000E+03  0.00000000000E+00 0.  1.
         11   -1    0    0    0    0 -0.00000000000E+00 -0.00000000000E+00 -0.18250000000E+03  0.18250000000E+03  0.00000000000E+00 0. -1.
        -11    1    1    2    0    0  0.40098879990E+01 -0.25557415921E+01  0.18192240168E+03  0.18198453574E+03  0.00000000000E+00 0.  1.
         11    1    1    2    0    0 -0.83178792506E+00  0.56475041518E+01 -0.13335980785E+03  0.13348192583E+03  0.00000000000E+00 0. -1.
        -15    1    1    2    0    0  0.69328153127E+00 -0.45852501609E+01 -0.31250276353E+02  0.31642418672E+02  0.17770000000E+01 0.  1.
         15    1    1    2    0    0 -0.38713816053E+01  0.14934876013E+01 -0.17312317474E+02  0.17891119755E+02  0.17770000000E+01 0.  1.
</event>
<event>
 6    1  0.1045352E-002  0.1864642E+03  0.7546771E-02  0.1065342E+00
        -11   -1    0    0    0    0  0.00000000000E+00  0.00000000000E+00  0.18250000000E+03  0.18250000000E+03  0.00000000000E+00 0. -1.
         11   -1    0    0    0    0 -0.00000000000E+00 -0.00000000000E+00 -0.18250000000E+03  0.18250000000E+03  0.00000000000E+00 0.  1.
        -11    1    1    2    0    0  0.36606266707E+01 -0.68887866377E+01  0.17836525391E+03  0.17853576497E+03  0.00000000000E+00 0. -1.
         11    1    1    2    0    0  0.26795859580E+01 -0.25584203342E+01 -0.15171737398E+03  0.15176260166E+03  0.00000000000E+00 0.  1.
        -15    1    1    2    0    0 -0.33111870963E+01  0.47484832997E+01 -0.28028580019E+02  0.28675269493E+02  0.17770000000E+01 0. -1.
         15    1    1    2    0    0 -0.30290255323E+01  0.46987236722E+01  0.13807000911E+01  0.60263638759E+01  0.17770000000E+01 0. -1.
</event>
<event>
 6    1  0.1045352E-002  0.1840816E+03  0.7546771E-02  0.1067203E+00
        -11   -1    0    0    0    0  0.00000000000E+00  0.00000000000E+00  0.18250000000E+03  0.18250000000E+03  0.00000000000E+00 0.  1.
         11   -1    0    0    0    0 -0.00000000000E+00 -0.00000000000E+00 -0.18250000000E+03  0.18250000000E+03  0.00000000000E+00 0.  1.
        -11    1    1    2    0    0  0.18636880558E+01 -0.55885626853E+01  0.15396959800E+03  0.15408225879E+03  0.00000000000E+00 0.  1.
         11    1    1    2    0    0  0.69756312798E+01 -0.19613604219E+00 -0.18078380220E+03  0.18091843753E+03  0.00000000000E+00 0.  1.
        -15    1    1    2    0    0  0.92769230077E+00  0.72733095289E+00  0.27399947921E+01  0.34720201297E+01  0.17770000000E+01 0. -1.
         15    1    1    2    0    0 -0.97670116364E+01  0.50573677746E+01  0.24074209404E+02  0.26527283550E+02  0.17770000000E+01 0.  1.
</event>
<event>
 6    1  0.1045352E-002  0.1829004E+03  0.7546771E-02  0.1068137E+00
        -11   -1    0    0    0    0  0.00000000000E+00  0.00000000000E+00  0.18250000000E+03  0.18250000000E+03  0.00000000000E+00 0.  1.
         11   -1    0    0    0    0 -0.00000000000E+00 -0.00000000000E+00 -0.18250000000E+03  0.18250000000E+03  0.00000000000E+00 0. -1.
        -11    1    1    2    0    0  0.21958290004E+01 -0.41419434250E+01  0.18203927380E+03  0.18209962813E+03  0.00000000000E+00 0.  1.
         11    1    1    2    0    0 -0.13387936908E+01  0.48039947922E+00 -0.90151725004E+02  0.90162945124E+02  0.00000000000E+00 0. -1.
        -15    1    1    2    0    0 -0.48269433604E+01  0.53314885999E+01 -0.67792250583E+02  0.68195829205E+02  0.17770000000E+01 0.  1.
         15    1    1    2    0    0  0.39699080508E+01 -0.16699446541E+01 -0.24095298210E+02  0.24541597542E+02  0.17770000000E+01 0. -1.
</event>
<event>
 6    1  0.1045352E-002  0.1904169E+03  0.7546771E-02  0.1062322E+00
        -11   -1    0    0    0    0  0.00000000000E+00  0.00000000000E+00  0.18250000000E+03  0.18250000000E+03  0.00000000000E+00 0. -1.
         11   -1    0    0    0    0 -0.00000000000E+00 -0.00000000000E+00 -0.18250000000E+03  0.18250000000E+03  0.00000000000E+00 0.  1.
        -11    1    1    2    0    0 -0.26255601617E-01  0.27401997517E+01  0.17456156086E+03  0.17458306881E+03  0.00000000000E+00 0. -1.
         11    1    1    2    0    0  0.13133392025E+01  0.53181638855E+01 -0.16933741151E+03  0.16942599170E+03  0.00000000000E+00 0.  1.
        -15    1    1    2    0    0 -0.27551834392E+01 -0.31023738714E+01 -0.11686030678E+02  0.12527441934E+02  0.17770000000E+01 0. -1.
         15    1    1    2    0    0  0.14680998383E+01 -0.49559897658E+01  0.64618813236E+01  0.84634975592E+01  0.17770000000E+01 0.  1.
</event>
<event>
 6    1  0.1045352E-002  0.1917093E+03  0.7546771E-02  0.1061352E+00
        -11   -1    0    0    0    0  0.00000000000E+00  0.00000000000E+00  0.18250000000E+03  0.18250000000E+03  0.00000000000E+00 0. -1.
         11   -1    0    0    0    0 -0.00000000000E+00 -0.00000000000E+00 -0.18250000000E+03  0.18250000000E+03  0.00000000000E+00 0.  1.
        -11    1    1    2    0    0 -0.35494068951E+01  0.80509201942E+01  0.15904697557E+03  0.15929016305E+03  0.00000000000E+00 0. -1.
         11    1    1    2    0    0 -0.34944765167E+01 -0.85581489156E+00 -0.17325332299E+03  0.17329067405E+03  0.00000000000E+00 0.  1.
        -15    1    1    2    0    0  0.12013049172E+02 -0.71217361861E+00 -0.36521418690E+01  0.12701039757E+02  0.17770000000E+01 0. -1.
         15    1    1    2    0    0 -0.49691657603E+01 -0.64829316840E+01  0.17858489293E+02  0.19718123146E+02  0.17770000000E+01 0.  1.
</event>
<event>
 6    1  0.1045352E-002  0.1883692E+03  0.7546771E-02  0.1063877E+00
        -11   -1    0    0    0    0  0.00000000000E+00  0.00000000000E+00  0.18250000000E+03  0.18250000000E+03  0.00000000000E+00 0.  1.
         11   -1    0    0    0    0 -0.00000000000E+00 -0.00000000000E+00 -0.18250000000E+03  0.18250000000E+03  0.00000000000E+00 0. -1.
        -11    1    1    2    0    0 -0.11106830359E+01  0.51358676570E+01  0.16706873929E+03  0.16715135178E+03  0.00000000000E+00 0.  1.
         11    1    1    2    0    0  0.10343861231E+02 -0.77415308372E+00 -0.17632595737E+03  0.17663079579E+03  0.00000000000E+00 0. -1.
        -15    1    1    2    0    0  0.42267376449E+01 -0.87955452738E+00  0.43107739302E+01  0.63544809515E+01  0.17770000000E+01 0.  1.
         15    1    1    2    0    0 -0.13459915840E+02 -0.34821600459E+01  0.49464441492E+01  0.14863371479E+02  0.17770000000E+01 0. -1.
</event>
<event>
 6    1  0.1045352E-002  0.1835647E+03  0.7546771E-02  0.1067610E+00
        -11   -1    0    0    0    0  0.00000000000E+00  0.00000000000E+00  0.18250000000E+03  0.18250000000E+03  0.00000000000E+00 0.  1.
         11   -1    0    0    0    0 -0.00000000000E+00 -0.00000000000E+00 -0.18250000000E+03  0.18250000000E+03  0.00000000000E+00 0.  1.
        -11    1    1    2    0    0 -0.22458626216E+01  0.39486024488E+01  0.18137841547E+03  0.18143529138E+03  0.00000000000E+00 0.  1.
         11    1    1    2    0    0 -0.24032307708E+01 -0.20629237583E+01 -0.16700358300E+03  0.16703361310E+03  0.00000000000E+00 0.  1.
        -15    1    1    2    0    0  0.28515444624E+01 -0.37405292479E+01 -0.87912762806E+01  0.10127543262E+02  0.17770000000E+01 0. -1.
         15    1    1    2    0    0  0.17975489300E+01  0.18548505575E+01 -0.55835561903E+01  0.64035522545E+01  0.17770000000E+01 0. -1.
</event>
<event>
 6    1  0.1045352E-002  0.1830852E+03  0.7546771E-02  0.1067990E+00
        -11   -1    0    0    0    0  0.00000000000E+00  0.00000000000E+00  0.18250000000E+03  0.18250000000E+03  0.00000000000E+00 0. -1.
         11   -1    0    0    0    0 -0.00000000000E+00 -0.00000000000E+00 -0.18250000000E+03  0.18250000000E+03  0.00000000000E+00 0. -1.
        -11    1    1    2    0    0  0.19110207217E+01  0.24872343383E+01  0.28279622929E+02  0.28453038640E+02  0.00000000000E+00 0. -1.
         11    1    1    2    0    0  0.92759080684E+00  0.60847739354E+01 -0.18181061546E+03  0.18191477343E+03  0.00000000000E+00 0. -1.
        -15    1    1    2    0    0 -0.17538229840E+01 -0.97220286861E+01  0.15022262076E+03  0.15055758783E+03  0.17770000000E+01 0. -1.
         15    1    1    2    0    0 -0.10847885445E+01  0.11500204123E+01  0.33083717791E+01  0.40746000986E+01  0.17770000000E+01 0. -1.
</event>
<event>
 6    1  0.2036197E-002  0.1825979E+03  0.7546771E-02  0.1068377E+00
        -11   -1    0    0    0    0  0.00000000000E+00  0.00000000000E+00  0.18250000000E+03  0.18250000000E+03  0.00000000000E+00 0.  1.
         11   -1    0    0    0    0 -0.00000000000E+00 -0.00000000000E+00 -0.18250000000E+03  0.18250000000E+03  0.00000000000E+00 0.  1.
        -11    1    1    2    0    0  0.22079378109E+01 -0.27495343969E+01  0.18236804952E+03  0.18240213928E+03  0.00000000000E+00 0.  1.
         11    1    1    2    0    0 -0.10842887243E+01  0.23482143422E+01 -0.44014031258E+02  0.44089961899E+02  0.00000000000E+00 0.  1.
        -15    1    1    2    0    0 -0.17341182146E+01  0.12207944179E+01 -0.28330210584E+02  0.28464997203E+02  0.17770000000E+01 0. -1.
         15    1    1    2    0    0  0.61046912802E+00 -0.81947436312E+00 -0.11002380768E+03  0.11004290162E+03  0.17770000000E+01 0.  1.
</event>
<event>
 6    1  0.1045352E-002  0.1835082E+03  0.7546771E-02  0.1067655E+00
        -11   -1    0    0    0    0  0.00000000000E+00  0.00000000000E+00  0.18250000000E+03  0.18250000000E+03  0.00000000000E+00 0. -1.
         11   -1    0    0    0    0 -0.00000000000E+00 -0.00000000000E+00 -0.18250000000E+03  0.18250000000E+03  0.00000000000E+00 0. -1.
        -11    1    1    2    0    0  0.53018307906E+00  0.42902724673E+01  0.18144030242E+03  0.18149179285E+03  0.00000000000E+00 0. -1.
         11    1    1    2    0    0 -0.15728296182E+01 -0.15756510444E+01 -0.13801068049E+03  0.13802863616E+03  0.00000000000E+00 0. -1.
        -15    1    1    2    0    0  0.77933586557E+00  0.77288091475E+00 -0.40573023453E+02  0.40626748214E+02  0.17770000000E+01 0. -1.
         15    1    1    2    0    0  0.26331067354E+00 -0.34875023377E+01 -0.28565984723E+01  0.48528227763E+01  0.17770000000E+01 0. -1.
</event>
<event>
 6    1  0.1045352E-002  0.1845066E+03  0.7546771E-02  0.1066869E+00
        -11   -1    0    0    0    0  0.00000000000E+00  0.00000000000E+00  0.18250000000E+03  0.18250000000E+03  0.00000000000E+00 0. -1.
         11   -1    0    0    0    0 -0.00000000000E+00 -0.00000000000E+00 -0.18250000000E+03  0.18250000000E+03  0.00000000000E+00 0. -1.
        -11    1    1    2    0    0 -0.45910008522E+01  0.71971322172E+01  0.18029137842E+03  0.18049337144E+03  0.00000000000E+00 0. -1.
         11    1    1    2    0    0  0.20427893344E+01  0.64637946959E-01 -0.24934757577E+02  0.25018379279E+02  0.00000000000E+00 0. -1.
        -15    1    1    2    0    0 -0.65877551865E+01 -0.13082331303E+02 -0.27913236392E+02  0.31572969541E+02  0.17770000000E+01 0.  1.
         15    1    1    2    0    0  0.91359667043E+01  0.58205611389E+01 -0.12744338446E+03  0.12791527974E+03  0.17770000000E+01 0. -1.
</event>
<event>
 6    1  0.1045352E-002  0.1780196E+03  0.7546771E-02  0.1072078E+00
        -11   -1    0    0    0    0  0.00000000000E+00  0.00000000000E+00  0.18250000000E+03  0.18250000000E+03  0.00000000000E+00 0. -1.
         11   -1    0    0    0    0 -0.00000000000E+00 -0.00000000000E+00 -0.18250000000E+03  0.18250000000E+03  0.00000000000E+00 0.  1.
        -11    1    1    2    0    0 -0.34010723347E+01  0.10793083339E+01  0.17934202171E+03  0.17937751517E+03  0.00000000000E+00 0. -1.
         11    1    1    2    0    0 -0.24975650213E+01 -0.37948804256E+01 -0.17667249287E+03  0.17673089341E+03  0.00000000000E+00 0.  1.
        -15    1    1    2    0    0  0.36614038229E+01  0.35372139108E+01 -0.24136273285E+01  0.59077141168E+01  0.17770000000E+01 0. -1.
         15    1    1    2    0    0  0.22372335331E+01 -0.82164181917E+00 -0.25590150537E+00  0.29838773000E+01  0.17770000000E+01 0.  1.
</event>
<event>
 6    1  0.1045352E-002  0.2147930E+03  0.7546771E-02  0.1045310E+00
        -11   -1    0    0    0    0  0.00000000000E+00  0.00000000000E+00  0.18250000000E+03  0.18250000000E+03  0.00000000000E+00 0.  1.
         11   -1    0    0    0    0 -0.00000000000E+00 -0.00000000000E+00 -0.18250000000E+03  0.18250000000E+03  0.00000000000E+00 0.  1.
        -11    1    1    2    0    0 -0.17616466118E+01  0.16712560922E+02  0.14926398812E+03  0.15020702793E+03  0.00000000000E+00 0.  1.
         11    1    1    2    0    0 -0.42228893376E+01 -0.14363525992E+01 -0.85645229399E+02  0.85761303756E+02  0.00000000000E+00 0.  1.
        -15    1    1    2    0    0 -0.14697221715E+02 -0.86455616834E+01  0.29106543824E+02  0.33780211446E+02  0.17770000000E+01 0. -1.
         15    1    1    2    0    0  0.20681757665E+02 -0.66306466391E+01 -0.92725302541E+02  0.95251456867E+02  0.17770000000E+01 0.  1.
</event>
<event>
 6    1  0.1045352E-002  0.1847522E+03  0.7546771E-02  0.1066676E+00
        -11   -1    0    0    0    0  0.00000000000E+00  0.00000000000E+00  0.18250000000E+03  0.18250000000E+03  0.00000000000E+00 0.  1.
         11   -1    0    0    0    0 -0.00000000000E+00 -0.00000000000E+00 -0.18250000000E+03  0.18250000000E+03  0.00000000000E+00 0.  1.
        -11    1    1    2    0    0 -0.18400400727E+01 -0.11275476996E+01  0.15673709273E+03  0.15675194847E+03  0.00000000000E+00 0.  1.
         11    1    1    2    0    0  0.48792553813E+01  0.45182474547E+01 -0.18012509583E+03  0.18024780675E+03  0.00000000000E+00 0.  1.
        -15    1    1    2    0    0 -0.19898312871E+01 -0.12615576498E+01  0.24614981448E+02  0.24791248394E+02  0.17770000000E+01 0.  1.
         15    1    1    2    0    0 -0.10493840216E+01 -0.21291421053E+01 -0.12269783494E+01  0.32089963850E+01  0.17770000000E+01 0. -1.
</event>
<event>
 6    1  0.1045352E-002  0.1826541E+03  0.7546771E-02  0.1068332E+00
        -11   -1    0    0    0    0  0.00000000000E+00  0.00000000000E+00  0.18250000000E+03  0.18250000000E+03  0.00000000000E+00 0. -1.
         11   -1    0    0    0    0 -0.00000000000E+00 -0.00000000000E+00 -0.18250000000E+03  0.18250000000E+03  0.00000000000E+00 0. -1.
        -11    1    1    2    0    0 -0.32271628516E+01 -0.22854277660E+01  0.18230302016E+03  0.18234590459E+03  0.00000000000E+00 0. -1.
         11    1    1    2    0    0  0.11299479798E+01 -0.10676168276E+01 -0.39309914625E+02  0.39340640259E+02  0.00000000000E+00 0. -1.
        -15    1    1    2    0    0  0.39086180341E+01 -0.79803292494E+00 -0.48888483123E+02  0.49083150495E+02  0.17770000000E+01 0.  1.
         15    1    1    2    0    0 -0.18114031623E+01  0.41510775186E+01 -0.94104622417E+02  0.94230304654E+02  0.17770000000E+01 0. -1.
</event>
<event>
 6    1  0.1045352E-002  0.1880262E+03  0.7546771E-02  0.1064139E+00
        -11   -1    0    0    0    0  0.00000000000E+00  0.00000000000E+00  0.18250000000E+03  0.18250000000E+03  0.00000000000E+00 0. -1.
         11   -1    0    0    0    0 -0.00000000000E+00 -0.00000000000E+00 -0.18250000000E+03  0.18250000000E+03  0.00000000000E+00 0. -1.
        -11    1    1    2    0    0  0.24555555416E+01 -0.10212863087E+01  0.16141900665E+03  0.16144091330E+03  0.00000000000E+00 0. -1.
         11    1    1    2    0    0  0.37022406880E+01 -0.33867737701E+00 -0.17693479540E+03  0.17697384866E+03  0.00000000000E+00 0. -1.
        -15    1    1    2    0    0 -0.44120563414E+01  0.96210063216E+00 -0.43758105039E+01  0.65343190427E+01  0.17770000000E+01 0. -1.
         15    1    1    2    0    0 -0.17457398882E+01  0.39786305351E+00  0.19891599252E+02  0.20050918995E+02  0.17770000000E+01 0.  1.
</event>
<event>
 6    1  0.1045352E-002  0.1837565E+03  0.7546771E-02  0.1067459E+00
        -11   -1    0    0    0    0  0.00000000000E+00  0.00000000000E+00  0.18250000000E+03  0.18250000000E+03  0.00000000000E+00 0. -1.
         11   -1    0    0    0    0 -0.00000000000E+00 -0.00000000000E+00 -0.18250000000E+03  0.18250000000E+03  0.00000000000E+00 0.  1.
        -11    1    1    2    0    0  0.16855672242E+00 -0.31441506669E+01  0.18121619639E+03  0.18124354866E+03  0.00000000000E+00 0. -1.
         11    1    1    2    0    0  0.13519174399E+00  0.23566331918E+01 -0.17241283448E+03  0.17242899260E+03  0.00000000000E+00 0.  1.
        -15    1    1    2    0    0 -0.21085094037E+01 -0.16275729397E+01 -0.23005030591E+01  0.39426956394E+01  0.17770000000E+01 0.  1.
         15    1    1    2    0    0  0.18047609373E+01  0.24150904149E+01 -0.65028588572E+01  0.73847631018E+01  0.17770000000E+01 0.  1.
</event>
<event>
 6    1  0.1045352E-002  0.1946222E+03  0.7546771E-02  0.1059195E+00
        -11   -1    0    0    0    0  0.00000000000E+00  0.00000000000E+00  0.18250000000E+03  0.18250000000E+03  0.00000000000E+00 0.  1.
         11   -1    0    0    0    0 -0.00000000000E+00 -0.00000000000E+00 -0.18250000000E+03  0.18250000000E+03  0.00000000000E+00 0. -1.
        -11    1    1    2    0    0 -0.84756095671E+00  0.28924846341E+01  0.15494269199E+03  0.15497200595E+03  0.00000000000E+00 0.  1.
         11    1    1    2    0    0 -0.18704595565E+01  0.27270424400E+01 -0.17034573579E+03  0.17037783037E+03  0.00000000000E+00 0. -1.
        -15    1    1    2    0    0  0.14994738940E+01 -0.36887954458E+01  0.27177702059E+02  0.27525276602E+02  0.17770000000E+01 0.  1.
         15    1    1    2    0    0  0.12185466192E+01 -0.19307316284E+01 -0.11774658264E+02  0.12124887081E+02  0.17770000000E+01 0.  1.
</event>
<event>
 6    1  0.1045352E-002  0.1827381E+03  0.7546771E-02  0.1068265E+00
        -11   -1    0    0    0    0  0.00000000000E+00  0.00000000000E+00  0.18250000000E+03  0.18250000000E+03  0.00000000000E+00 0. -1.
         11   -1    0    0    0    0 -0.00000000000E+00 -0.00000000000E+00 -0.18250000000E+03  0.18250000000E+03  0.00000000000E+00 0. -1.
        -11    1    1    2    0    0 -0.19103895780E+00 -0.11930327272E+01  0.85956662696E+02  0.85965153899E+02  0.00000000000E+00 0. -1.
         11    1    1    2    0    0  0.32082859228E+01  0.16895810060E+00 -0.18223355010E+03  0.18226186773E+03  0.00000000000E+00 0. -1.
        -15    1    1    2    0    0  0.19527759652E+01  0.12441068757E+01  0.64009793385E+02  0.64076302282E+02  0.17770000000E+01 0. -1.
         15    1    1    2    0    0 -0.49700229302E+01 -0.22003224907E+00  0.32267094019E+02  0.32696676093E+02  0.17770000000E+01 0. -1.
</event>
<event>
 6    1  0.1045352E-002  0.1828399E+03  0.7546771E-02  0.1068185E+00
        -11   -1    0    0    0    0  0.00000000000E+00  0.00000000000E+00  0.18250000000E+03  0.18250000000E+03  0.00000000000E+00 0. -1.
         11   -1    0    0    0    0 -0.00000000000E+00 -0.00000000000E+00 -0.18250000000E+03  0.18250000000E+03  0.00000000000E+00 0.  1.
        -11    1    1    2    0    0  0.38870611872E+01  0.17327595822E+01  0.18211033574E+03  0.18216005622E+03  0.00000000000E+00 0. -1.
         11    1    1    2    0    0  0.19148786188E+01  0.29588219610E+01 -0.61368372575E+02  0.61469492759E+02  0.00000000000E+00 0.  1.
        -15    1    1    2    0    0 -0.31373300221E+01 -0.65267519541E+01 -0.10176537191E+03  0.10203817903E+03  0.17770000000E+01 0.  1.
         15    1    1    2    0    0 -0.26646097839E+01  0.18351704109E+01 -0.18976591254E+02  0.19332271992E+02  0.17770000000E+01 0. -1.
</event>
<event>
 6    1  0.1045352E-002  0.1854421E+03  0.7546771E-02  0.1066137E+00
        -11   -1    0    0    0    0  0.00000000000E+00  0.00000000000E+00  0.18250000000E+03  0.18250000000E+03  0.00000000000E+00 0. -1.
         11   -1    0    0    0    0 -0.00000000000E+00 -0.00000000000E+00 -0.18250000000E+03  0.18250000000E+03  0.00000000000E+00 0.  1.
        -11    1    1    2    0    0  0.11461511152E+01  0.64541237166E+01  0.15288400170E+03  0.15302446651E+03  0.00000000000E+00 0. -1.
         11    1    1    2    0    0  0.18314203802E+01  0.20183503002E+01 -0.17953724804E+03  0.17955793291E+03  0.00000000000E+00 0.  1.
        -15    1    1    2    0    0 -0.85002344104E+01 -0.83548207261E+01  0.13835984367E+02  0.18348002801E+02  0.17770000000E+01 0.  1.
         15    1    1    2    0    0  0.55226629151E+01 -0.11765329080E+00  0.12817261970E+02  0.14069597769E+02  0.17770000000E+01 0. -1.
</event>
<event>
 6    1  0.1045352E-002  0.1831630E+03  0.7546771E-02  0.1067928E+00
        -11   -1    0    0    0    0  0.00000000000E+00  0.00000000000E+00  0.18250000000E+03  0.18250000000E+03  0.00000000000E+00 0.  1.
         11   -1    0    0    0    0 -0.00000000000E+00 -0.00000000000E+00 -0.18250000000E+03  0.18250000000E+03  0.00000000000E+00 0. -1.
        -11    1    1    2    0    0 -0.27254312485E+01  0.38114513493E+01  0.97209415083E+02  0.97322276575E+02  0.00000000000E+00 0.  1.
         11    1    1    2    0    0  0.21074444842E+01  0.26255059521E+01 -0.18180578536E+03  0.18183695498E+03  0.00000000000E+00 0. -1.
        -15    1    1    2    0    0  0.22454978827E+01 -0.50041595209E+01  0.81339097555E+02  0.81543181158E+02  0.17770000000E+01 0.  1.
         15    1    1    2    0    0 -0.16275111185E+01 -0.14327977805E+01  0.32572727246E+01  0.42975872909E+01  0.17770000000E+01 0. -1.
</event>
<event>
 6    1  0.1045352E-002  0.1851306E+03  0.7546771E-02  0.1066380E+00
        -11   -1    0    0    0    0  0.00000000000E+00  0.00000000000E+00  0.18250000000E+03  0.18250000000E+03  0.00000000000E+00 0.  1.
         11   -1    0    0    0    0 -0.00000000000E+00 -0.00000000000E+00 -0.18250000000E+03  0.18250000000E+03  0.00000000000E+00 0.  1.
        -11    1    1    2    0    0  0.31815841447E+01  0.50931886142E+00  0.17282583806E+03  0.17285587113E+03  0.00000000000E+00 0.  1.
         11    1    1    2    0    0  0.29005555346E+01  0.47849049866E+00 -0.17984534597E+03  0.17986937105E+03  0.00000000000E+00 0.  1.
        -15    1    1    2    0    0  0.24116907105E+00 -0.59420133997E+00 -0.80304051809E+00  0.20527641918E+01  0.17770000000E+01 0. -1.
         15    1    1    2    0    0 -0.63233087504E+01 -0.39360802012E+00  0.78225484298E+01  0.10221993630E+02  0.17770000000E+01 0.  1.
</event>
<event>
 6    1  0.1045352E-002  0.1843858E+03  0.7546771E-02  0.1066964E+00
        -11   -1    0    0    0    0  0.00000000000E+00  0.00000000000E+00  0.18250000000E+03  0.18250000000E+03  0.00000000000E+00 0.  1.
         11   -1    0    0    0    0 -0.00000000000E+00 -0.00000000000E+00 -0.18250000000E+03  0.18250000000E+03  0.00000000000E+00 0. -1.
        -11    1    1    2    0    0 -0.11573814392E+01 -0.33721303771E+01  0.16672581804E+03  0.16676393254E+03  0.00000000000E+00 0.  1.
         11    1    1    2    0    0 -0.36632058349E+01 -0.97382147754E+00 -0.18057447022E+03  0.18061424833E+03  0.00000000000E+00 0. -1.
        -15    1    1    2    0    0  0.24203003866E+01  0.86658830893E+00  0.12437734897E+02  0.12824344335E+02  0.17770000000E+01 0.  1.
         15    1    1    2    0    0  0.24002868875E+01  0.34793635457E+01  0.14109172820E+01  0.47974747943E+01  0.17770000000E+01 0. -1.
</event>
<event>
 6    1  0.1045352E-002  0.1885044E+03  0.7546771E-02  0.1063773E+00
        -11   -1    0    0    0    0  0.00000000000E+00  0.00000000000E+00  0.18250000000E+03  0.18250000000E+03  0.00000000000E+00 0. -1.
         11   -1    0    0    0    0 -0.00000000000E+00 -0.00000000000E+00 -0.18250000000E+03  0.18250000000E+03  0.00000000000E+00 0.  1.
        -11    1    1    2    0    0  0.71709300612E+00 -0.59930412655E+01  0.17639236553E+03  0.17649560160E+03  0.00000000000E+00 0. -1.
         11    1    1    2    0    0 -0.20427961872E+01  0.27211345307E+01 -0.14844820323E+03  0.14848719350E+03  0.00000000000E+00 0.  1.
        -15    1    1    2    0    0 -0.37342472915E+01  0.28352922899E+01  0.47359319312E+01  0.68971200845E+01  0.17770000000E+01 0. -1.
         15    1    1    2    0    0  0.50599504726E+01  0.43661444491E+00 -0.32680094226E+02  0.33120084821E+02  0.17770000000E+01 0.  1.
</event>
<event>
 6    1  0.1045352E-002  0.1844981E+03  0.7546771E-02  0.1066875E+00
        -11   -1    0    0    0    0  0.00000000000E+00  0.00000000000E+00  0.18250000000E+03  0.18250000000E+03  0.00000000000E+00 0. -1.
         11   -1    0    0    0    0 -0.00000000000E+00 -0.00000000000E+00 -0.18250000000E+03  0.18250000000E+03  0.00000000000E+00 0. -1.
        -11    1    1    2    0    0  0.76561227120E+01  0.14105707124E+01  0.14352631807E+03  0.14373729476E+03  0.00000000000E+00 0. -1.
         11    1    1    2    0    0  0.30242497577E+01 -0.12412968050E+00 -0.18047654245E+03  0.18050192207E+03  0.00000000000E+00 0. -1.
        -15    1    1    2    0    0  0.19001347325E+01 -0.33285723770E+01  0.11291862593E+02  0.12056276203E+02  0.17770000000E+01 0. -1.
         15    1    1    2    0    0 -0.12580507202E+02  0.20421313451E+01  0.25658361787E+02  0.28704506972E+02  0.17770000000E+01 0.  1.
</event>
<event>
 6    1  0.1045352E-002  0.1907850E+03  0.7546771E-02  0.1062045E+00
        -11   -1    0    0    0    0  0.00000000000E+00  0.00000000000E+00  0.18250000000E+03  0.18250000000E+03  0.00000000000E+00 0.  1.
         11   -1    0    0    0    0 -0.00000000000E+00 -0.00000000000E+00 -0.18250000000E+03  0.18250000000E+03  0.00000000000E+00 0.  1.
        -11    1    1    2    0    0  0.13140380684E+02  0.13606610453E+01  0.17371338702E+03  0.17421498739E+03  0.00000000000E+00 0.  1.
         11    1    1    2    0    0  0.30497317754E+01  0.21421337784E+01 -0.15568516787E+03  0.15572976946E+03  0.00000000000E+00 0.  1.
        -15    1    1    2    0    0 -0.12337731335E+02 -0.54054287697E+01 -0.23944458931E+02  0.27530585122E+02  0.17770000000E+01 0.  1.
         15    1    1    2    0    0 -0.38523811242E+01  0.19026339460E+01  0.59162397802E+01  0.75246580252E+01  0.17770000000E+01 0. -1.
</event>
<event>
 6    1  0.1045352E-002  0.1864791E+03  0.7546771E-02  0.1065331E+00
        -11   -1    0    0    0    0  0.00000000000E+00  0.00000000000E+00  0.18250000000E+03  0.18250000000E+03  0.00000000000E+00 0.  1.
         11   -1    0    0    0    0 -0.00000000000E+00 -0.00000000000E+00 -0.18250000000E+03  0.18250000000E+03  0.00000000000E+00 0. -1.
        -11    1    1    2    0    0 -0.38179910465E+01  0.38136881791E+01  0.17843936033E+03  0.17852094160E+03  0.00000000000E+00 0.  1.
         11    1    1    2    0    0  0.97267923760E+01  0.64698456132E+01 -0.12344134652E+03  0.12399288457E+03  0.00000000000E+00 0. -1.
        -15    1    1    2    0    0 -0.47972719285E+01 -0.22213008030E+01 -0.53778754807E+02  0.54067182216E+02  0.17770000000E+01 0. -1.
         15    1    1    2    0    0 -0.11115294010E+01 -0.80622329893E+01 -0.12192590009E+01  0.84189916198E+01  0.17770000000E+01 0.  1.
</event>
<event>
 6    1  0.1045352E-002  0.1386996E+03  0.7546771E-02  0.1109902E+00
        -11   -1    0    0    0    0  0.00000000000E+00  0.00000000000E+00  0.18250000000E+03  0.18250000000E+03  0.00000000000E+00 0. -1.
         11   -1    0    0    0    0 -0.00000000000E+00 -0.00000000000E+00 -0.18250000000E+03  0.18250000000E+03  0.00000000000E+00 0.  1.
        -11    1    1    2    0    0 -0.76602195761E+02 -0.25984446145E+02  0.11102927662E+03  0.13737025916E+03  0.00000000000E+00 0. -1.
         11    1    1    2    0    0 -0.20935328709E+01  0.22690197133E+01 -0.10280665795E+03  0.10285300312E+03  0.00000000000E+00 0.  1.
        -15    1    1    2    0    0  0.62143105280E+02 -0.12003077095E+02 -0.39359049559E+02  0.74552879922E+02  0.17770000000E+01 0.  1.
         15    1    1    2    0    0  0.16552623353E+02  0.35718503527E+02  0.31136430897E+02  0.50223857798E+02  0.17770000000E+01 0. -1.
</event>
<event>
 6    1  0.1045352E-002  0.1862213E+03  0.7546771E-02  0.1065531E+00
        -11   -1    0    0    0    0  0.00000000000E+00  0.00000000000E+00  0.18250000000E+03  0.18250000000E+03  0.00000000000E+00 0. -1.
         11   -1    0    0    0    0 -0.00000000000E+00 -0.00000000000E+00 -0.18250000000E+03  0.18250000000E+03  0.00000000000E+00 0.  1.
        -11    1    1    2    0    0  0.23359866212E+01 -0.38375603708E+01  0.17204812443E+03  0.17210677158E+03  0.00000000000E+00 0. -1.
         11    1    1    2    0    0 -0.36331626304E+01 -0.79322347250E+00 -0.17874001542E+03  0.17877869612E+03  0.00000000000E+00 0.  1.
        -15    1    1    2    0    0 -0.16464984413E+01  0.39353364414E+01  0.88584330656E+01  0.99913660429E+01  0.17770000000E+01 0. -1.
         15    1    1    2    0    0  0.29436744505E+01  0.69544740191E+00 -0.21665420779E+01  0.41231662511E+01  0.17770000000E+01 0.  1.
</event>
<event>
 6    1  0.1045352E-002  0.1775374E+03  0.7546771E-02  0.1072475E+00
        -11   -1    0    0    0    0  0.00000000000E+00  0.00000000000E+00  0.18250000000E+03  0.18250000000E+03  0.00000000000E+00 0. -1.
         11   -1    0    0    0    0 -0.00000000000E+00 -0.00000000000E+00 -0.18250000000E+03  0.18250000000E+03  0.00000000000E+00 0.  1.
        -11    1    1    2    0    0  0.34737743366E+01  0.19200770664E+01  0.17711205971E+03  0.17715652825E+03  0.00000000000E+00 0. -1.
         11    1    1    2    0    0  0.21041732513E+01  0.40896515132E+01 -0.17795448469E+03  0.17801390793E+03  0.00000000000E+00 0.  1.
        -15    1    1    2    0    0  0.19389287875E-02 -0.15951002316E+01 -0.30298003638E+00  0.24070468235E+01  0.17770000000E+01 0.  1.
         15    1    1    2    0    0 -0.55798865167E+01 -0.44146283480E+01  0.11454050131E+01  0.74225170013E+01  0.17770000000E+01 0. -1.
</event>
<event>
 6    1  0.1045352E-002  0.1832142E+03  0.7546771E-02  0.1067888E+00
        -11   -1    0    0    0    0  0.00000000000E+00  0.00000000000E+00  0.18250000000E+03  0.18250000000E+03  0.00000000000E+00 0.  1.
         11   -1    0    0    0    0 -0.00000000000E+00 -0.00000000000E+00 -0.18250000000E+03  0.18250000000E+03  0.00000000000E+00 0. -1.
        -11    1    1    2    0    0  0.33654409682E+01  0.33202136626E+01  0.18172434830E+03  0.18178583216E+03  0.00000000000E+00 0.  1.
         11    1    1    2    0    0  0.13135309500E+01 -0.10869711333E+01 -0.11957730641E+03  0.11958946056E+03  0.00000000000E+00 0. -1.
        -15    1    1    2    0    0 -0.61008709155E+01 -0.49078145564E+01 -0.55766836496E+02  0.56341858785E+02  0.17770000000E+01 0. -1.
         15    1    1    2    0    0  0.14218989973E+01  0.26745720271E+01 -0.63802053933E+01  0.72828484913E+01  0.17770000000E+01 0. -1.
</event>
<event>
 6    1  0.1045352E-002  0.1888032E+03  0.7546771E-02  0.1063545E+00
        -11   -1    0    0    0    0  0.00000000000E+00  0.00000000000E+00  0.18250000000E+03  0.18250000000E+03  0.00000000000E+00 0. -1.
         11   -1    0    0    0    0 -0.00000000000E+00 -0.00000000000E+00 -0.18250000000E+03  0.18250000000E+03  0.00000000000E+00 0.  1.
        -11    1    1    2    0    0 -0.30724305398E+01 -0.10615261074E+01  0.17616682131E+03  0.17619680927E+03  0.00000000000E+00 0. -1.
         11    1    1    2    0    0 -0.45757470650E+00  0.39056034071E+01 -0.17012750594E+03  0.17017294553E+03  0.00000000000E+00 0.  1.
        -15    1    1    2    0    0  0.21513719023E+01 -0.34513386131E+01 -0.11697539673E+02  0.12511207084E+02  0.17770000000E+01 0. -1.
         15    1    1    2    0    0  0.13786333440E+01  0.60726131339E+00  0.56582243022E+01  0.61190381151E+01  0.17770000000E+01 0. -1.
</event>
<event>
 6    1  0.1045352E-002  0.1839700E+03  0.7546771E-02  0.1067291E+00
        -11   -1    0    0    0    0  0.00000000000E+00  0.00000000000E+00  0.18250000000E+03  0.18250000000E+03  0.00000000000E+00 0. -1.
         11   -1    0    0    0    0 -0.00000000000E+00 -0.00000000000E+00 -0.18250000000E+03  0.18250000000E+03  0.00000000000E+00 0.  1.
        -11    1    1    2    0    0 -0.16531244472E+01  0.19353770596E+01  0.18101215274E+03  0.18103004707E+03  0.00000000000E+00 0. -1.
         11    1    1    2    0    0  0.10238639298E+02 -0.22185717950E+01 -0.13583145949E+03  0.13623486038E+03  0.00000000000E+00 0.  1.
        -15    1    1    2    0    0 -0.85401374209E+01  0.43329634491E+01 -0.20941668270E+02  0.23095880982E+02  0.17770000000E+01 0. -1.
         15    1    1    2    0    0 -0.45377430384E-01 -0.40497687137E+01 -0.24239024978E+02  0.24639211567E+02  0.17770000000E+01 0.  1.
</event>
<event>
 6    1  0.1045352E-002  0.1843592E+03  0.7546771E-02  0.1066984E+00
        -11   -1    0    0    0    0  0.00000000000E+00  0.00000000000E+00  0.18250000000E+03  0.18250000000E+03  0.00000000000E+00 0. -1.
         11   -1    0    0    0    0 -0.00000000000E+00 -0.00000000000E+00 -0.18250000000E+03  0.18250000000E+03  0.00000000000E+00 0. -1.
        -11    1    1    2    0    0 -0.14768107717E+01  0.23615091545E+01  0.14686191594E+03  0.14688832509E+03  0.00000000000E+00 0. -1.
         11    1    1    2    0    0 -0.59963164322E+01 -0.21971956775E+00 -0.18054108572E+03  0.18064076981E+03  0.00000000000E+00 0. -1.
        -15    1    1    2    0    0  0.34101505293E+01  0.16890739593E+01  0.30531304797E+02  0.30818831891E+02  0.17770000000E+01 0. -1.
         15    1    1    2    0    0  0.40629766746E+01 -0.38308635461E+01  0.31478649797E+01  0.66520732030E+01  0.17770000000E+01 0.  1.
</event>
<event>
 6    1  0.1045352E-002  0.1930659E+03  0.7546771E-02  0.1060342E+00
        -11   -1    0    0    0    0  0.00000000000E+00  0.00000000000E+00  0.18250000000E+03  0.18250000000E+03  0.00000000000E+00 0. -1.
         11   -1    0    0    0    0 -0.00000000000E+00 -0.00000000000E+00 -0.18250000000E+03  0.18250000000E+03  0.00000000000E+00 0.  1.
        -11    1    1    2    0    0 -0.90710114071E+01 -0.31293656001E+02  0.16881866545E+03  0.17193405119E+03  0.00000000000E+00 0. -1.
         11    1    1    2    0    0 -0.12117183347E+01  0.78225785982E+00 -0.10501475665E+03  0.10502466045E+03  0.00000000000E+00 0.  1.
        -15    1    1    2    0    0 -0.10084058747E+02  0.21995110988E+02 -0.61086508912E+02  0.65728170888E+02  0.17770000000E+01 0.  1.
         15    1    1    2    0    0  0.20366788489E+02  0.85162871535E+01 -0.27173998932E+01  0.22313117474E+02  0.17770000000E+01 0. -1.
</event>
<event>
 6    1  0.1045352E-002  0.1835633E+03  0.7546771E-02  0.1067612E+00
        -11   -1    0    0    0    0  0.00000000000E+00  0.00000000000E+00  0.18250000000E+03  0.18250000000E+03  0.00000000000E+00 0. -1.
         11   -1    0    0    0    0 -0.00000000000E+00 -0.00000000000E+00 -0.18250000000E+03  0.18250000000E+03  0.00000000000E+00 0. -1.
        -11    1    1    2    0    0  0.14579046017E+01  0.30467215242E+01  0.15207189311E+03  0.15210939706E+03  0.00000000000E+00 0. -1.
         11    1    1    2    0    0  0.26255601489E+01 -0.87919576254E+00 -0.18141553770E+03  0.18143666628E+03  0.00000000000E+00 0. -1.
        -15    1    1    2    0    0 -0.16202784162E+01  0.16890703178E+00  0.26676363813E+02  0.26785069479E+02  0.17770000000E+01 0.  1.
         15    1    1    2    0    0 -0.24631863344E+01 -0.23364327934E+01  0.26672807700E+01  0.46688671884E+01  0.17770000000E+01 0. -1.
</event>
<event>
 6    1  0.1045352E-002  0.1829993E+03  0.7546771E-02  0.1068058E+00
        -11   -1    0    0    0    0  0.00000000000E+00  0.00000000000E+00  0.18250000000E+03  0.18250000000E+03  0.00000000000E+00 0.  1.
         11   -1    0    0    0    0 -0.00000000000E+00 -0.00000000000E+00 -0.18250000000E+03  0.18250000000E+03  0.00000000000E+00 0. -1.
        -11    1    1    2    0    0  0.16126480327E+01 -0.33912755029E+01  0.12926823977E+03  0.12932277138E+03  0.00000000000E+00 0.  1.
         11    1    1    2    0    0 -0.33164336529E+01  0.15153677841E+01 -0.18196413753E+03  0.18200066599E+03  0.00000000000E+00 0. -1.
        -15    1    1    2    0    0 -0.34223465133E+00 -0.89148385491E+00  0.45146323998E+02  0.45191372712E+02  0.17770000000E+01 0.  1.
         15    1    1    2    0    0  0.20460202715E+01  0.27673915737E+01  0.75495737581E+01  0.84851899214E+01  0.17770000000E+01 0. -1.
</event>
<event>
 6    1  0.1045352E-002  0.1830152E+03  0.7546771E-02  0.1068045E+00
        -11   -1    0    0    0    0  0.00000000000E+00  0.00000000000E+00  0.18250000000E+03  0.18250000000E+03  0.00000000000E+00 0. -1.
         11   -1    0    0    0    0 -0.00000000000E+00 -0.00000000000E+00 -0.18250000000E+03  0.18250000000E+03  0.00000000000E+00 0. -1.
        -11    1    1    2    0    0  0.39127026656E+01  0.58536490372E+00  0.40262408061E+02  0.40456314675E+02  0.00000000000E+00 0. -1.
         11    1    1    2    0    0 -0.54246741648E+00 -0.52785236367E+01 -0.18190739582E+03  0.18198477337E+03  0.00000000000E+00 0. -1.
        -15    1    1    2    0    0 -0.51111055355E+00  0.54456700637E+01  0.13451970751E+03  0.13464258611E+03  0.17770000000E+01 0. -1.
         15    1    1    2    0    0 -0.28591246956E+01 -0.75251133065E+00  0.71252802526E+01  0.79163258527E+01  0.17770000000E+01 0.  1.
</event>
<event>
 6    1  0.1045352E-002  0.1826891E+03  0.7546771E-02  0.1068304E+00
        -11   -1    0    0    0    0  0.00000000000E+00  0.00000000000E+00  0.18250000000E+03  0.18250000000E+03  0.00000000000E+00 0.  1.
         11   -1    0    0    0    0 -0.00000000000E+00 -0.00000000000E+00 -0.18250000000E+03  0.18250000000E+03  0.00000000000E+00 0. -1.
        -11    1    1    2    0    0  0.12240857202E+01 -0.49305794198E+01  0.76774526313E+02  0.76942425813E+02  0.00000000000E+00 0.  1.
         11    1    1    2    0    0 -0.36941618280E+01  0.50287086941E+01 -0.18220406974E+03  0.18231088221E+03  0.00000000000E+00 0. -1.
        -15    1    1    2    0    0  0.13930801789E+01 -0.20557085657E+01  0.90213401527E+02  0.90265066078E+02  0.17770000000E+01 0. -1.
         15    1    1    2    0    0  0.10769959289E+01  0.19575792913E+01  0.15216141903E+02  0.15481625895E+02  0.17770000000E+01 0.  1.
</event>
<event>
 6    1  0.1045352E-002  0.1838101E+03  0.7546771E-02  0.1067417E+00
        -11   -1    0    0    0    0  0.00000000000E+00  0.00000000000E+00  0.18250000000E+03  0.18250000000E+03  0.00000000000E+00 0. -1.
         11   -1    0    0    0    0 -0.00000000000E+00 -0.00000000000E+00 -0.18250000000E+03  0.18250000000E+03  0.00000000000E+00 0. -1.
        -11    1    1    2    0    0  0.13333085012E+01 -0.11817892738E+01  0.11393399506E+03  0.11394792481E+03  0.00000000000E+00 0. -1.
         11    1    1    2    0    0 -0.30476901647E+01 -0.72962395120E+01 -0.18101732302E+03  0.18118994112E+03  0.00000000000E+00 0. -1.
        -15    1    1    2    0    0 -0.27042520780E+01 -0.41738854159E+01  0.28343191185E+02  0.28831033875E+02  0.17770000000E+01 0. -1.
         15    1    1    2    0    0  0.44186337415E+01  0.12651914202E+02  0.38740136779E+02  0.41031100202E+02  0.17770000000E+01 0. -1.
</event>
<event>
 6    1  0.1045352E-002  0.1731434E+03  0.7546771E-02  0.1076157E+00
        -11   -1    0    0    0    0  0.00000000000E+00  0.00000000000E+00  0.18250000000E+03  0.18250000000E+03  0.00000000000E+00 0.  1.
         11   -1    0    0    0    0 -0.00000000000E+00 -0.00000000000E+00 -0.18250000000E+03  0.18250000000E+03  0.00000000000E+00 0. -1.
        -11    1    1    2    0    0  0.87415543679E+00  0.31120455708E+01  0.17531672469E+03  0.17534652244E+03  0.00000000000E+00 0.  1.
         11    1    1    2    0    0  0.64490066615E+01 -0.15615422999E+02 -0.17044230877E+03  0.17127758680E+03  0.00000000000E+00 0. -1.
        -15    1    1    2    0    0 -0.28012136522E+01  0.19607880727E+01 -0.55401836184E+01  0.67485443851E+01  0.17770000000E+01 0. -1.
         15    1    1    2    0    0 -0.45219484461E+01  0.10542589356E+02  0.66576769254E+00  0.11627346374E+02  0.17770000000E+01 0.  1.
</event>
<event>
 6    1  0.1045352E-002  0.1830165E+03  0.7546771E-02  0.1068044E+00
        -11   -1    0    0    0    0  0.00000000000E+00  0.00000000000E+00  0.18250000000E+03  0.18250000000E+03  0.00000000000E+00 0. -1.
         11   -1    0    0    0    0 -0.00000000000E+00 -0.00000000000E+00 -0.18250000000E+03  0.18250000000E+03  0.00000000000E+00 0.  1.
        -11    1    1    2    0    0  0.16047231545E+00  0.79177738622E+01  0.18181113152E+03  0.18198352793E+03  0.00000000000E+00 0. -1.
         11    1    1    2    0    0 -0.13527092142E+01 -0.33469657181E+01 -0.11731825790E+03  0.11737378599E+03  0.00000000000E+00 0.  1.
        -15    1    1    2    0    0 -0.80822634023E+00 -0.14421436670E+01 -0.23994214966E+01  0.34129108824E+01  0.17770000000E+01 0. -1.
         15    1    1    2    0    0  0.20004632390E+01 -0.31286644772E+01 -0.62093452125E+02  0.62229775191E+02  0.17770000000E+01 0.  1.
</event>
<event>
 6    1  0.1045352E-002  0.1827105E+03  0.7546771E-02  0.1068287E+00
        -11   -1    0    0    0    0  0.00000000000E+00  0.00000000000E+00  0.18250000000E+03  0.18250000000E+03  0.00000000000E+00 0. -1.
         11   -1    0    0    0    0 -0.00000000000E+00 -0.00000000000E+00 -0.18250000000E+03  0.18250000000E+03  0.00000000000E+00 0. -1.
        -11    1    1    2    0    0 -0.10823396229E+01 -0.88226634644E+00  0.66394435384E+02  0.66409117618E+02  0.00000000000E+00 0. -1.
         11    1    1    2    0    0 -0.49736492816E+01 -0.37736746246E-01 -0.18222166092E+03  0.18228952882E+03  0.00000000000E+00 0. -1.
        -15    1    1    2    0    0 -0.15934431469E+01 -0.33298367645E+00  0.19986980893E+02  0.20131742931E+02  0.17770000000E+01 0. -1.
         15    1    1    2    0    0  0.76494320515E+01  0.12529867691E+01  0.95840244640E+02  0.96169610627E+02  0.17770000000E+01 0. -1.
</event>
<event>
 6    1  0.1045352E-002  0.1967709E+03  0.7546771E-02  0.1057631E+00
        -11   -1    0    0    0    0  0.00000000000E+00  0.00000000000E+00  0.18250000000E+03  0.18250000000E+03  0.00000000000E+00 0.  1.
         11   -1    0    0    0    0 -0.00000000000E+00 -0.00000000000E+00 -0.18250000000E+03  0.18250000000E+03  0.00000000000E+00 0.  1.
        -11    1    1    2    0    0  0.56388828567E+01  0.11044533719E+02  0.16777142166E+03  0.16822909573E+03  0.00000000000E+00 0.  1.
         11    1    1    2    0    0 -0.49321326327E+01  0.21274188612E+01 -0.15024440588E+03  0.15034039158E+03  0.00000000000E+00 0.  1.
        -15    1    1    2    0    0 -0.44575591254E+01 -0.10872622914E+02  0.11784962582E+02  0.16736990005E+02  0.17770000000E+01 0.  1.
         15    1    1    2    0    0  0.37508089014E+01 -0.22993296666E+01 -0.29311978367E+02  0.29693522679E+02  0.17770000000E+01 0. -1.
</event>
<event>
 6    1  0.1045352E-002  0.2094378E+03  0.7546771E-02  0.1048829E+00
        -11   -1    0    0    0    0  0.00000000000E+00  0.00000000000E+00  0.18250000000E+03  0.18250000000E+03  0.00000000000E+00 0.  1.
         11   -1    0    0    0    0 -0.00000000000E+00 -0.00000000000E+00 -0.18250000000E+03  0.18250000000E+03  0.00000000000E+00 0. -1.
        -11    1    1    2    0    0  0.22889799022E+02  0.48552535221E+01  0.15379230384E+03  0.15556217120E+03  0.00000000000E+00 0.  1.
         11    1    1    2    0    0  0.87497450432E+01 -0.10437083749E+01 -0.10724867688E+03  0.10761006486E+03  0.00000000000E+00 0. -1.
        -15    1    1    2    0    0 -0.19585826338E+02 -0.91393239835E+01 -0.70864684213E+02  0.74108656943E+02  0.17770000000E+01 0.  1.
         15    1    1    2    0    0 -0.12053717727E+02  0.53277788363E+01  0.24321057252E+02  0.27719107006E+02  0.17770000000E+01 0. -1.
</event>
<event>
 6    1  0.1045352E-002  0.1829464E+03  0.7546771E-02  0.1068100E+00
        -11   -1    0    0    0    0  0.00000000000E+00  0.00000000000E+00  0.18250000000E+03  0.18250000000E+03  0.00000000000E+00 0.  1.
         11   -1    0    0    0    0 -0.00000000000E+00 -0.00000000000E+00 -0.18250000000E+03  0.18250000000E+03  0.00000000000E+00 0. -1.
        -11    1    1    2    0    0 -0.72487304736E+00 -0.64240846952E+00  0.58600598339E+02  0.58608602229E+02  0.00000000000E+00 0.  1.
         11    1    1    2    0    0 -0.79955455235E+00  0.30806990097E+01 -0.18202582247E+03  0.18205364605E+03  0.00000000000E+00 0. -1.
        -15    1    1    2    0    0 -0.20217583943E+01  0.12176777282E+01  0.10717224947E+03  0.10721296112E+03  0.17770000000E+01 0.  1.
         15    1    1    2    0    0  0.35461859940E+01 -0.36559682683E+01  0.16252974654E+02  0.17124790603E+02  0.17770000000E+01 0. -1.
</event>
<event>
 6    1  0.1045352E-002  0.1882831E+03  0.7546771E-02  0.1063942E+00
        -11   -1    0    0    0    0  0.00000000000E+00  0.00000000000E+00  0.18250000000E+03  0.18250000000E+03  0.00000000000E+00 0.  1.
         11   -1    0    0    0    0 -0.00000000000E+00 -0.00000000000E+00 -0.18250000000E+03  0.18250000000E+03  0.00000000000E+00 0.  1.
        -11    1    1    2    0    0  0.39010285523E+01  0.53248718399E+00  0.17667307920E+03  0.17671694452E+03  0.00000000000E+00 0.  1.
         11    1    1    2    0    0  0.39531475615E+01  0.27725458288E+01 -0.10930989837E+03  0.10941648992E+03  0.00000000000E+00 0.  1.
        -15    1    1    2    0    0 -0.88254909668E+01 -0.11564316169E+02 -0.68710944615E+02  0.70256489651E+02  0.17770000000E+01 0.  1.
         15    1    1    2    0    0  0.97131485302E+00  0.82592831564E+01  0.13477637781E+01  0.86100758999E+01  0.17770000000E+01 0. -1.
</event>
<event>
 6    1  0.1045352E-002  0.1767522E+03  0.7546771E-02  0.1073124E+00
        -11   -1    0    0    0    0  0.00000000000E+00  0.00000000000E+00  0.18250000000E+03  0.18250000000E+03  0.00000000000E+00 0. -1.
         11   -1    0    0    0    0 -0.00000000000E+00 -0.00000000000E+00 -0.18250000000E+03  0.18250000000E+03  0.00000000000E+00 0.  1.
        -11    1    1    2    0    0 -0.45508103900E+01 -0.11204113702E+01  0.17660775068E+03  0.17666992612E+03  0.00000000000E+00 0. -1.
         11    1    1    2    0    0 -0.97369786977E+00  0.21834320717E+01 -0.17686325972E+03  0.17687941684E+03  0.00000000000E+00 0.  1.
        -15    1    1    2    0    0  0.17274032413E+01 -0.38050861178E+01 -0.30307654772E+01  0.54594753136E+01  0.17770000000E+01 0. -1.
         15    1    1    2    0    0  0.37971050185E+01  0.27420654164E+01  0.32862745167E+01  0.59911817255E+01  0.17770000000E+01 0.  1.
</event>
<event>
 6    1  0.1045352E-002  0.1831043E+03  0.7546771E-02  0.1067975E+00
        -11   -1    0    0    0    0  0.00000000000E+00  0.00000000000E+00  0.18250000000E+03  0.18250000000E+03  0.00000000000E+00 0.  1.
         11   -1    0    0    0    0 -0.00000000000E+00 -0.00000000000E+00 -0.18250000000E+03  0.18250000000E+03  0.00000000000E+00 0.  1.
        -11    1    1    2    0    0  0.30578248697E+01 -0.89473478423E+00  0.28971481676E+02  0.29146142005E+02  0.00000000000E+00 0.  1.
         11    1    1    2    0    0  0.11190145690E+02  0.20633665791E+01 -0.18153946107E+03  0.18189571948E+03  0.00000000000E+00 0.  1.
        -15    1    1    2    0    0 -0.46539225932E+01  0.48712940847E+01  0.95144525474E+02  0.95399302714E+02  0.17770000000E+01 0. -1.
         15    1    1    2    0    0 -0.95940479661E+01 -0.60399258796E+01  0.57423453918E+02  0.58558835796E+02  0.17770000000E+01 0.  1.
</event>
<event>
 6    1  0.1045352E-002  0.1849769E+03  0.7546771E-02  0.1066500E+00
        -11   -1    0    0    0    0  0.00000000000E+00  0.00000000000E+00  0.18250000000E+03  0.18250000000E+03  0.00000000000E+00 0.  1.
         11   -1    0    0    0    0 -0.00000000000E+00 -0.00000000000E+00 -0.18250000000E+03  0.18250000000E+03  0.00000000000E+00 0.  1.
        -11    1    1    2    0    0  0.37140761591E+01  0.80959091179E+00  0.17383011195E+03  0.17387166997E+03  0.00000000000E+00 0.  1.
         11    1    1    2    0    0  0.56522917565E+00  0.28211539481E+01 -0.18000014207E+03  0.18002313612E+03  0.00000000000E+00 0.  1.
        -15    1    1    2    0    0 -0.17193999426E+00  0.73528636992E+00  0.40784377651E+01  0.45123821881E+01  0.17770000000E+01 0.  1.
         15    1    1    2    0    0 -0.41073653405E+01 -0.43660312298E+01  0.20915923547E+01  0.65928117156E+01  0.17770000000E+01 0. -1.
</event>
<event>
 6    1  0.1045352E-002  0.1879624E+03  0.7546771E-02  0.1064188E+00
        -11   -1    0    0    0    0  0.00000000000E+00  0.00000000000E+00  0.18250000000E+03  0.18250000000E+03  0.00000000000E+00 0. -1.
         11   -1    0    0    0    0 -0.00000000000E+00 -0.00000000000E+00 -0.18250000000E+03  0.18250000000E+03  0.00000000000E+00 0.  1.
        -11    1    1    2    0    0 -0.70018086061E+00  0.41969212588E+01  0.17698644727E+03  0.17703758618E+03  0.00000000000E+00 0. -1.
         11    1    1    2    0    0  0.75081881750E+00  0.22753483733E+01 -0.15378443612E+03  0.15380310053E+03  0.00000000000E+00 0.  1.
        -15    1    1    2    0    0  0.57823509860E+01 -0.15470617164E+01 -0.25288592952E+02  0.26048025748E+02  0.17770000000E+01 0.  1.
         15    1    1    2    0    0 -0.58329889429E+01 -0.49252079158E+01  0.20865818015E+01  0.81112875449E+01  0.17770000000E+01 0. -1.
</event>
<event>
 6    1  0.1045352E-002  0.1841617E+03  0.7546771E-02  0.1067140E+00
        -11   -1    0    0    0    0  0.00000000000E+00  0.00000000000E+00  0.18250000000E+03  0.18250000000E+03  0.00000000000E+00 0. -1.
         11   -1    0    0    0    0 -0.00000000000E+00 -0.00000000000E+00 -0.18250000000E+03  0.18250000000E+03  0.00000000000E+00 0. -1.
        -11    1    1    2    0    0  0.25966512466E+01 -0.40158167480E+01  0.18077509878E+03  0.18083834140E+03  0.00000000000E+00 0. -1.
         11    1    1    2    0    0  0.24477609608E+01 -0.33310140852E+01 -0.16571330662E+03  0.16576485508E+03  0.00000000000E+00 0. -1.
        -15    1    1    2    0    0 -0.56460208928E+00  0.14079996289E+00 -0.22163261588E+01  0.28997294341E+01  0.17770000000E+01 0. -1.
         15    1    1    2    0    0 -0.44798101181E+01  0.72060308703E+01 -0.12845466001E+02  0.15497074091E+02  0.17770000000E+01 0.  1.
</event>
<event>
 6    1  0.1045352E-002  0.1838953E+03  0.7546771E-02  0.1067350E+00
        -11   -1    0    0    0    0  0.00000000000E+00  0.00000000000E+00  0.18250000000E+03  0.18250000000E+03  0.00000000000E+00 0. -1.
         11   -1    0    0    0    0 -0.00000000000E+00 -0.00000000000E+00 -0.18250000000E+03  0.18250000000E+03  0.00000000000E+00 0.  1.
        -11    1    1    2    0    0 -0.20095176248E+01  0.21478678750E+01  0.18108080256E+03  0.18110468948E+03  0.00000000000E+00 0. -1.
         11    1    1    2    0    0 -0.93614489071E+00  0.31247494229E+01 -0.15983488607E+03  0.15986816828E+03  0.00000000000E+00 0.  1.
        -15    1    1    2    0    0 -0.30935867655E+01 -0.16357671951E+01 -0.82452725744E+01  0.91317173751E+01  0.17770000000E+01 0.  1.
         15    1    1    2    0    0  0.60392492810E+01 -0.36368501028E+01 -0.13000643914E+02  0.14895424859E+02  0.17770000000E+01 0. -1.
</event>
<event>
 6    1  0.1120613E-002  0.1832870E+03  0.7546771E-02  0.1067830E+00
        -11   -1    0    0    0    0  0.00000000000E+00  0.00000000000E+00  0.18250000000E+03  0.18250000000E+03  0.00000000000E+00 0.  1.
         11   -1    0    0    0    0 -0.00000000000E+00 -0.00000000000E+00 -0.18250000000E+03  0.18250000000E+03  0.00000000000E+00 0.  1.
        -11    1    1    2    0    0  0.44838102134E+01 -0.37784875053E+00  0.18165727960E+03  0.18171300052E+03  0.00000000000E+00 0.  1.
         11    1    1    2    0    0 -0.18438305790E+01 -0.19558533815E+00 -0.11959705276E+03  0.11961142501E+03  0.00000000000E+00 0.  1.
        -15    1    1    2    0    0 -0.32421659353E+01  0.37338026097E+00 -0.35638324680E+01  0.51487555420E+01  0.17770000000E+01 0.  1.
         15    1    1    2    0    0  0.60218630092E+00  0.20005382771E+00 -0.58496394380E+02  0.58526818932E+02  0.17770000000E+01 0.  1.
</event>
<event>
 6    1  0.1045352E-002  0.1863252E+03  0.7546771E-02  0.1065450E+00
        -11   -1    0    0    0    0  0.00000000000E+00  0.00000000000E+00  0.18250000000E+03  0.18250000000E+03  0.00000000000E+00 0.  1.
         11   -1    0    0    0    0 -0.00000000000E+00 -0.00000000000E+00 -0.18250000000E+03  0.18250000000E+03  0.00000000000E+00 0. -1.
        -11    1    1    2    0    0 -0.12639742740E+02  0.20320280356E+01  0.17821556640E+03  0.17867478933E+03  0.00000000000E+00 0.  1.
         11    1    1    2    0    0 -0.22465839133E+01 -0.12297802723E+01 -0.69603840952E+02  0.69650945249E+02  0.00000000000E+00 0. -1.
        -15    1    1    2    0    0  0.13956959686E+02 -0.21586806343E+00 -0.82919026832E+01  0.16332688137E+02  0.17770000000E+01 0. -1.
         15    1    1    2    0    0  0.92936696740E+00 -0.58637969992E+00 -0.10031982276E+03  0.10034157729E+03  0.17770000000E+01 0. -1.
</event>
<event>
 6    1  0.1045352E-002  0.1880434E+03  0.7546771E-02  0.1064126E+00
        -11   -1    0    0    0    0  0.00000000000E+00  0.00000000000E+00  0.18250000000E+03  0.18250000000E+03  0.00000000000E+00 0.  1.
         11   -1    0    0    0    0 -0.00000000000E+00 -0.00000000000E+00 -0.18250000000E+03  0.18250000000E+03  0.00000000000E+00 0. -1.
        -11    1    1    2    0    0  0.34431941208E+01  0.24567466028E+01  0.17187457148E+03  0.17192661083E+03  0.00000000000E+00 0.  1.
         11    1    1    2    0    0 -0.52160280446E+01 -0.37418652636E+01 -0.17684014360E+03  0.17695661868E+03  0.00000000000E+00 0. -1.
        -15    1    1    2    0    0  0.73349532612E+01  0.17907269089E+00  0.65187587531E+01  0.99742443851E+01  0.17770000000E+01 0.  1.
         15    1    1    2    0    0 -0.55621193373E+01  0.11060459700E+01 -0.15531866329E+01  0.61425261031E+01  0.17770000000E+01 0. -1.
</event>
<event>
 6    1  0.1045352E-002  0.1868403E+03  0.7546771E-02  0.1065051E+00
        -11   -1    0    0    0    0  0.00000000000E+00  0.00000000000E+00  0.18250000000E+03  0.18250000000E+03  0.00000000000E+00 0.  1.
         11   -1    0    0    0    0 -0.00000000000E+00 -0.00000000000E+00 -0.18250000000E+03  0.18250000000E+03  0.00000000000E+00 0.  1.
        -11    1    1    2    0    0  0.84859451460E+00 -0.49872249657E+01  0.17808786892E+03  0.17815970808E+03  0.00000000000E+00 0.  1.
         11    1    1    2    0    0 -0.13230989324E+02  0.16398350028E+02 -0.11032334138E+03  0.11231742792E+03  0.00000000000E+00 0.  1.
        -15    1    1    2    0    0  0.84844243341E+01 -0.16789631971E+00 -0.38513541316E+01  0.94870597712E+01  0.17770000000E+01 0. -1.
         15    1    1    2    0    0  0.38979704751E+01 -0.11243228743E+02 -0.63913173418E+02  0.65035804229E+02  0.17770000000E+01 0.  1.
</event>
<event>
 6    1  0.1045352E-002  0.1847317E+03  0.7546771E-02  0.1066692E+00
        -11   -1    0    0    0    0  0.00000000000E+00  0.00000000000E+00  0.18250000000E+03  0.18250000000E+03  0.00000000000E+00 0. -1.
         11   -1    0    0    0    0 -0.00000000000E+00 -0.00000000000E+00 -0.18250000000E+03  0.18250000000E+03  0.00000000000E+00 0.  1.
        -11    1    1    2    0    0 -0.13518504683E+01  0.29310420442E+01  0.16885369354E+03  0.16888454142E+03  0.00000000000E+00 0. -1.
         11    1    1    2    0    0  0.66684897448E+01 -0.56743262993E+01 -0.18005557450E+03  0.18026834620E+03  0.00000000000E+00 0.  1.
        -15    1    1    2    0    0 -0.31676484140E+01 -0.16294508173E+00 -0.31204096529E+00  0.36490609941E+01  0.17770000000E+01 0. -1.
         15    1    1    2    0    0 -0.21489908625E+01  0.29062293369E+01  0.11513921920E+02  0.12198051388E+02  0.17770000000E+01 0.  1.
</event>
<event>
 6    1  0.1045352E-002  0.1828668E+03  0.7546771E-02  0.1068163E+00
        -11   -1    0    0    0    0  0.00000000000E+00  0.00000000000E+00  0.18250000000E+03  0.18250000000E+03  0.00000000000E+00 0.  1.
         11   -1    0    0    0    0 -0.00000000000E+00 -0.00000000000E+00 -0.18250000000E+03  0.18250000000E+03  0.00000000000E+00 0.  1.
        -11    1    1    2    0    0 -0.23308040734E+01  0.25224307428E+00  0.15158265681E+03  0.15160078535E+03  0.00000000000E+00 0.  1.
         11    1    1    2    0    0 -0.17752018783E+01 -0.23830703281E+01 -0.18210895270E+03  0.18213319582E+03  0.00000000000E+00 0.  1.
        -15    1    1    2    0    0  0.34043555096E+01  0.27624151434E+01  0.22429967255E+02  0.22923388360E+02  0.17770000000E+01 0.  1.
         15    1    1    2    0    0  0.70165044218E+00 -0.63158788965E+00  0.80963286433E+01  0.83426304668E+01  0.17770000000E+01 0. -1.
</event>
<event>
 6    1  0.1045352E-002  0.1871616E+03  0.7546771E-02  0.1064804E+00
        -11   -1    0    0    0    0  0.00000000000E+00  0.00000000000E+00  0.18250000000E+03  0.18250000000E+03  0.00000000000E+00 0.  1.
         11   -1    0    0    0    0 -0.00000000000E+00 -0.00000000000E+00 -0.18250000000E+03  0.18250000000E+03  0.00000000000E+00 0. -1.
        -11    1    1    2    0    0 -0.59721687220E+00  0.30513799276E+01  0.17781121036E+03  0.17783839326E+03  0.00000000000E+00 0.  1.
         11    1    1    2    0    0  0.20405238767E+01 -0.45182425857E+01 -0.16289029948E+03  0.16296572620E+03  0.00000000000E+00 0. -1.
        -15    1    1    2    0    0 -0.57678712631E+01 -0.61628087213E+01 -0.12008719159E+02  0.14785655720E+02  0.17770000000E+01 0. -1.
         15    1    1    2    0    0  0.43245642586E+01  0.76296713794E+01 -0.29121917288E+01  0.94102248140E+01  0.17770000000E+01 0.  1.
</event>
<event>
 6    1  0.1087276E-002  0.1839747E+03  0.7546771E-02  0.1067287E+00
        -11   -1    0    0    0    0  0.00000000000E+00  0.00000000000E+00  0.18250000000E+03  0.18250000000E+03  0.00000000000E+00 0. -1.
         11   -1    0    0    0    0 -0.00000000000E+00 -0.00000000000E+00 -0.18250000000E+03  0.18250000000E+03  0.00000000000E+00 0. -1.
        -11    1    1    2    0    0 -0.20401547242E+01  0.17646627595E+01  0.18100519320E+03  0.18102529169E+03  0.00000000000E+00 0. -1.
         11    1    1    2    0    0  0.43215696850E+01 -0.75438447470E+01 -0.14997579274E+03  0.15022757392E+03  0.00000000000E+00 0. -1.
        -15    1    1    2    0    0  0.37428052426E+01 -0.56000583976E+00 -0.75707566110E+01  0.86484843925E+01  0.17770000000E+01 0.  1.
         15    1    1    2    0    0 -0.60242202034E+01  0.63391878273E+01 -0.23458643855E+02  0.25098650001E+02  0.17770000000E+01 0. -1.
</event>
<event>
 6    1  0.1045352E-002  0.1832880E+03  0.7546771E-02  0.1067829E+00
        -11   -1    0    0    0    0  0.00000000000E+00  0.00000000000E+00  0.18250000000E+03  0.18250000000E+03  0.00000000000E+00 0. -1.
         11   -1    0    0    0    0 -0.00000000000E+00 -0.00000000000E+00 -0.18250000000E+03  0.18250000000E+03  0.00000000000E+00 0.  1.
        -11    1    1    2    0    0  0.21897191528E+02 -0.26426535810E+01  0.18036841994E+03  0.18171196308E+03  0.00000000000E+00 0. -1.
         11    1    1    2    0    0 -0.28530499010E+01  0.16650771859E+01 -0.66939666289E+02  0.67021125764E+02  0.00000000000E+00 0.  1.
        -15    1    1    2    0    0 -0.17547354068E+02  0.44777918538E+01 -0.60642689423E+02  0.63313930253E+02  0.17770000000E+01 0. -1.
         15    1    1    2    0    0 -0.14967875587E+01 -0.35002154586E+01 -0.52786064226E+02  0.52952980905E+02  0.17770000000E+01 0.  1.
</event>
<event>
 6    1  0.1045352E-002  0.1832466E+03  0.7546771E-02  0.1067862E+00
        -11   -1    0    0    0    0  0.00000000000E+00  0.00000000000E+00  0.18250000000E+03  0.18250000000E+03  0.00000000000E+00 0. -1.
         11   -1    0    0    0    0 -0.00000000000E+00 -0.00000000000E+00 -0.18250000000E+03  0.18250000000E+03  0.00000000000E+00 0.  1.
        -11    1    1    2    0    0  0.16199292311E+01 -0.23565650790E+01  0.18173088225E+03  0.18175337998E+03  0.00000000000E+00 0. -1.
         11    1    1    2    0    0  0.34879942139E+01 -0.67355882720E+00 -0.14888427678E+03  0.14892665193E+03  0.00000000000E+00 0.  1.
        -15    1    1    2    0    0  0.98752693694E+00  0.28502619672E+01 -0.14030594173E+02  0.14460791976E+02  0.17770000000E+01 0.  1.
         15    1    1    2    0    0 -0.60954503820E+01  0.17986193894E+00 -0.18816011299E+02  0.19859176113E+02  0.17770000000E+01 0. -1.
</event>
<event>
 6    1  0.1045352E-002  0.1829171E+03  0.7546771E-02  0.1068123E+00
        -11   -1    0    0    0    0  0.00000000000E+00  0.00000000000E+00  0.18250000000E+03  0.18250000000E+03  0.00000000000E+00 0.  1.
         11   -1    0    0    0    0 -0.00000000000E+00 -0.00000000000E+00 -0.18250000000E+03  0.18250000000E+03  0.00000000000E+00 0.  1.
        -11    1    1    2    0    0 -0.18267045704E+00 -0.28882823023E+01  0.12970357781E+03  0.12973586104E+03  0.00000000000E+00 0.  1.
         11    1    1    2    0    0  0.53103286416E+00  0.36663189071E+01 -0.18204525212E+03  0.18208294184E+03  0.00000000000E+00 0.  1.
        -15    1    1    2    0    0  0.17187230400E+01 -0.11780296399E+01  0.47735184885E+02  0.47813673439E+02  0.17770000000E+01 0.  1.
         15    1    1    2    0    0 -0.20670854471E+01  0.39999303505E+00  0.46064894186E+01  0.53675236783E+01  0.17770000000E+01 0.  1.
</event>
<event>
 6    1  0.1227210E-002  0.1827985E+03  0.7546771E-02  0.1068217E+00
        -11   -1    0    0    0    0  0.00000000000E+00  0.00000000000E+00  0.18250000000E+03  0.18250000000E+03  0.00000000000E+00 0. -1.
         11   -1    0    0    0    0 -0.00000000000E+00 -0.00000000000E+00 -0.18250000000E+03  0.18250000000E+03  0.00000000000E+00 0. -1.
        -11    1    1    2    0    0 -0.39175597553E+01 -0.15432382379E+01  0.18215287890E+03  0.18220153718E+03  0.00000000000E+00 0. -1.
         11    1    1    2    0    0 -0.16096633546E+00 -0.84141566510E+00 -0.42844374612E+02  0.42852938363E+02  0.00000000000E+00 0. -1.
        -15    1    1    2    0    0  0.75337381008E+01  0.35245056981E+01 -0.69289674711E+02  0.69809713513E+02  0.17770000000E+01 0.  1.
         15    1    1    2    0    0 -0.34552120100E+01 -0.11398517951E+01 -0.70018829579E+02  0.70135810943E+02  0.17770000000E+01 0. -1.
</event>
<event>
 6    1  0.1045352E-002  0.1862550E+03  0.7546771E-02  0.1065504E+00
        -11   -1    0    0    0    0  0.00000000000E+00  0.00000000000E+00  0.18250000000E+03  0.18250000000E+03  0.00000000000E+00 0.  1.
         11   -1    0    0    0    0 -0.00000000000E+00 -0.00000000000E+00 -0.18250000000E+03  0.18250000000E+03  0.00000000000E+00 0.  1.
        -11    1    1    2    0    0  0.31840652590E+01 -0.38313178198E+01  0.17514135192E+03  0.17521218685E+03  0.00000000000E+00 0.  1.
         11    1    1    2    0    0 -0.44111996358E+01  0.33331041714E+01 -0.17865945044E+03  0.17874497894E+03  0.00000000000E+00 0.  1.
        -15    1    1    2    0    0 -0.28721606858E+01 -0.12206227960E+01  0.48862833021E+01  0.60640514941E+01  0.17770000000E+01 0.  1.
         15    1    1    2    0    0  0.40992950626E+01  0.17188364443E+01 -0.13681847795E+01  0.49787827150E+01  0.17770000000E+01 0.  1.
</event>
<event>
 6    1  0.1045352E-002  0.1850620E+03  0.7546771E-02  0.1066434E+00
        -11   -1    0    0    0    0  0.00000000000E+00  0.00000000000E+00  0.18250000000E+03  0.18250000000E+03  0.00000000000E+00 0.  1.
         11   -1    0    0    0    0 -0.00000000000E+00 -0.00000000000E+00 -0.18250000000E+03  0.18250000000E+03  0.00000000000E+00 0. -1.
        -11    1    1    2    0    0 -0.47848226545E+01  0.43191709933E+00  0.17987388651E+03  0.17993803413E+03  0.00000000000E+00 0.  1.
         11    1    1    2    0    0 -0.67855974670E+00 -0.40050005904E-01 -0.41561892510E+02  0.41567450684E+02  0.00000000000E+00 0. -1.
        -15    1    1    2    0    0  0.24484208201E+01  0.75874050305E+01 -0.43593265535E+01  0.92587761940E+01  0.17770000000E+01 0. -1.
         15    1    1    2    0    0  0.30149615811E+01 -0.79792721240E+01 -0.13395266745E+03  0.13423573899E+03  0.17770000000E+01 0.  1.
</event>
<event>
 6    1  0.1045352E-002  0.1878656E+03  0.7546771E-02  0.1064262E+00
        -11   -1    0    0    0    0  0.00000000000E+00  0.00000000000E+00  0.18250000000E+03  0.18250000000E+03  0.00000000000E+00 0. -1.
         11   -1    0    0    0    0 -0.00000000000E+00 -0.00000000000E+00 -0.18250000000E+03  0.18250000000E+03  0.00000000000E+00 0.  1.
        -11    1    1    2    0    0 -0.56656436066E+00 -0.53746224351E+01  0.17113962383E+03  0.17122493512E+03  0.00000000000E+00 0. -1.
         11    1    1    2    0    0 -0.73875024707E+01  0.93795477461E+01 -0.17673152679E+03  0.17713436615E+03  0.00000000000E+00 0.  1.
        -15    1    1    2    0    0  0.41533178365E+01  0.30941106171E+01  0.63204542621E+01  0.83623824740E+01  0.17770000000E+01 0. -1.
         15    1    1    2    0    0  0.38007489948E+01 -0.70990359281E+01 -0.72855130074E+00  0.82783162556E+01  0.17770000000E+01 0.  1.
</event>
<event>
 6    1  0.1045352E-002  0.1833076E+03  0.7546771E-02  0.1067814E+00
        -11   -1    0    0    0    0  0.00000000000E+00  0.00000000000E+00  0.18250000000E+03  0.18250000000E+03  0.00000000000E+00 0.  1.
         11   -1    0    0    0    0 -0.00000000000E+00 -0.00000000000E+00 -0.18250000000E+03  0.18250000000E+03  0.00000000000E+00 0. -1.
        -11    1    1    2    0    0 -0.10476299202E+01  0.23493362544E+01  0.17362118836E+03  0.17364024291E+03  0.00000000000E+00 0.  1.
         11    1    1    2    0    0  0.38100275569E+01 -0.18205567590E+00 -0.18165235773E+03  0.18169240084E+03  0.00000000000E+00 0. -1.
        -15    1    1    2    0    0 -0.71790753929E+00 -0.31978719050E+00  0.41794433261E+01  0.46090270771E+01  0.17770000000E+01 0.  1.
         15    1    1    2    0    0 -0.20444900974E+01 -0.18474933880E+01  0.38517260380E+01  0.50583291756E+01  0.17770000000E+01 0. -1.
</event>
<event>
 6    1  0.1045352E-002  0.1991249E+03  0.7546771E-02  0.1055941E+00
        -11   -1    0    0    0    0  0.00000000000E+00  0.00000000000E+00  0.18250000000E+03  0.18250000000E+03  0.00000000000E+00 0.  1.
         11   -1    0    0    0    0 -0.00000000000E+00 -0.00000000000E+00 -0.18250000000E+03  0.18250000000E+03  0.00000000000E+00 0.  1.
        -11    1    1    2    0    0 -0.90731927601E+00 -0.24143209162E+01  0.14767698648E+03  0.14769950748E+03  0.00000000000E+00 0.  1.
         11    1    1    2    0    0 -0.21207940739E+01 -0.21452289076E+01 -0.16584771396E+03  0.16587514582E+03  0.00000000000E+00 0.  1.
        -15    1    1    2    0    0  0.60466028808E+01  0.13259376430E+02 -0.12544339124E+02  0.19310376557E+02  0.17770000000E+01 0. -1.
         15    1    1    2    0    0 -0.30184895309E+01 -0.86998266060E+01  0.30715066604E+02  0.32114970147E+02  0.17770000000E+01 0. -1.
</event>
<event>
 6    1  0.1045352E-002  0.1837030E+03  0.7546771E-02  0.1067501E+00
        -11   -1    0    0    0    0  0.00000000000E+00  0.00000000000E+00  0.18250000000E+03  0.18250000000E+03  0.00000000000E+00 0. -1.
         11   -1    0    0    0    0 -0.00000000000E+00 -0.00000000000E+00 -0.18250000000E+03  0.18250000000E+03  0.00000000000E+00 0.  1.
        -11    1    1    2    0    0 -0.20588993959E+01  0.18637125463E+01  0.18127568195E+03  0.18129695353E+03  0.00000000000E+00 0. -1.
         11    1    1    2    0    0 -0.15274916600E+01  0.19679760325E+01 -0.15407406729E+03  0.15409420615E+03  0.00000000000E+00 0.  1.
        -15    1    1    2    0    0  0.64416687783E+01 -0.19012614736E+01 -0.22309649906E+02  0.23366388248E+02  0.17770000000E+01 0. -1.
         15    1    1    2    0    0 -0.28552777224E+01 -0.19304271053E+01 -0.48919647589E+01  0.62424520730E+01  0.17770000000E+01 0.  1.
</event>
<event>
 6    1  0.1045352E-002  0.1898326E+03  0.7546771E-02  0.1062763E+00
        -11   -1    0    0    0    0  0.00000000000E+00  0.00000000000E+00  0.18250000000E+03  0.18250000000E+03  0.00000000000E+00 0.  1.
         11   -1    0    0    0    0 -0.00000000000E+00 -0.00000000000E+00 -0.18250000000E+03  0.18250000000E+03  0.00000000000E+00 0. -1.
        -11    1    1    2    0    0 -0.22661696624E+01  0.30142132253E+00  0.70480595314E+02  0.70517662295E+02  0.00000000000E+00 0.  1.
         11    1    1    2    0    0  0.77807320669E+00 -0.36404292538E+01 -0.17512780941E+03  0.17516737068E+03  0.00000000000E+00 0. -1.
        -15    1    1    2    0    0 -0.46331393413E+01  0.72605997593E+01  0.10984932910E+03  0.11020079456E+03  0.17770000000E+01 0.  1.
         15    1    1    2    0    0  0.61212357971E+01 -0.39215918281E+01 -0.52021150098E+01  0.91141724652E+01  0.17770000000E+01 0. -1.
</event>
<event>
 6    1  0.1045352E-002  0.1831685E+03  0.7546771E-02  0.1067924E+00
        -11   -1    0    0    0    0  0.00000000000E+00  0.00000000000E+00  0.18250000000E+03  0.18250000000E+03  0.00000000000E+00 0.  1.
         11   -1    0    0    0    0 -0.00000000000E+00 -0.00000000000E+00 -0.18250000000E+03  0.18250000000E+03  0.00000000000E+00 0.  1.
        -11    1    1    2    0    0 -0.32666315081E+01 -0.34165343428E+00  0.18180178733E+03  0.18183145351E+03  0.00000000000E+00 0.  1.
         11    1    1    2    0    0  0.37208559849E+01 -0.31056356819E+01 -0.72563325567E+02  0.72725002300E+02  0.00000000000E+00 0.  1.
        -15    1    1    2    0    0  0.35998879749E+01  0.10973591925E+01 -0.74650571101E+01  0.85468238127E+01  0.17770000000E+01 0. -1.
         15    1    1    2    0    0 -0.40541124517E+01  0.23499299236E+01 -0.10177340466E+03  0.10189672037E+03  0.17770000000E+01 0.  1.
</event>
<event>
 6    1  0.1045352E-002  0.1852213E+03  0.7546771E-02  0.1066309E+00
        -11   -1    0    0    0    0  0.00000000000E+00  0.00000000000E+00  0.18250000000E+03  0.18250000000E+03  0.00000000000E+00 0. -1.
         11   -1    0    0    0    0 -0.00000000000E+00 -0.00000000000E+00 -0.18250000000E+03  0.18250000000E+03  0.00000000000E+00 0.  1.
        -11    1    1    2    0    0  0.41896352580E+01 -0.20985690675E+01  0.17971763499E+03  0.17977871221E+03  0.00000000000E+00 0. -1.
         11    1    1    2    0    0 -0.14857855727E+01 -0.25051574353E+01 -0.16811534465E+03  0.16814057356E+03  0.00000000000E+00 0.  1.
        -15    1    1    2    0    0  0.11167673772E+01  0.54281188107E+01 -0.11379583797E+02  0.12781404445E+02  0.17770000000E+01 0.  1.
         15    1    1    2    0    0 -0.38206170625E+01 -0.82439230795E+00 -0.22270654774E+00  0.42993097844E+01  0.17770000000E+01 0. -1.
</event>
<event>
 6    1  0.1045352E-002  0.1826633E+03  0.7546771E-02  0.1068325E+00
        -11   -1    0    0    0    0  0.00000000000E+00  0.00000000000E+00  0.18250000000E+03  0.18250000000E+03  0.00000000000E+00 0.  1.
         11   -1    0    0    0    0 -0.00000000000E+00 -0.00000000000E+00 -0.18250000000E+03  0.18250000000E+03  0.00000000000E+00 0.  1.
        -11    1    1    2    0    0 -0.30951179478E+01  0.31275669131E+01  0.18228355207E+03  0.18233665234E+03  0.00000000000E+00 0.  1.
         11    1    1    2    0    0  0.55106941594E+01 -0.22285301365E+01 -0.67163377023E+02  0.67425909781E+02  0.00000000000E+00 0.  1.
        -15    1    1    2    0    0 -0.17212701976E+01  0.39157860285E+00 -0.37762442835E+02  0.37845421424E+02  0.17770000000E+01 0.  1.
         15    1    1    2    0    0 -0.69430601402E+00 -0.12906153794E+01 -0.77357732215E+02  0.77392016457E+02  0.17770000000E+01 0.  1.
</event>
<event>
 6    1  0.1045352E-002  0.1829532E+03  0.7546771E-02  0.1068095E+00
        -11   -1    0    0    0    0  0.00000000000E+00  0.00000000000E+00  0.18250000000E+03  0.18250000000E+03  0.00000000000E+00 0. -1.
         11   -1    0    0    0    0 -0.00000000000E+00 -0.00000000000E+00 -0.18250000000E+03  0.18250000000E+03  0.00000000000E+00 0.  1.
        -11    1    1    2    0    0 -0.66337551566E+01 -0.19845958810E+00  0.18192578462E+03  0.18204679949E+03  0.00000000000E+00 0. -1.
         11    1    1    2    0    0 -0.38736687527E+01  0.36627297832E+01 -0.86850857790E+02  0.87014322947E+02  0.00000000000E+00 0.  1.
        -15    1    1    2    0    0  0.10223652083E+02 -0.29621631992E+01 -0.74218150268E+02  0.74998593527E+02  0.17770000000E+01 0.  1.
         15    1    1    2    0    0  0.28377182626E+00 -0.50210699589E+00 -0.20856776565E+02  0.20940284037E+02  0.17770000000E+01 0. -1.
</event>
<event>
 6    1  0.1045352E-002  0.1877158E+03  0.7546771E-02  0.1064377E+00
        -11   -1    0    0    0    0  0.00000000000E+00  0.00000000000E+00  0.18250000000E+03  0.18250000000E+03  0.00000000000E+00 0. -1.
         11   -1    0    0    0    0 -0.00000000000E+00 -0.00000000000E+00 -0.18250000000E+03  0.18250000000E+03  0.00000000000E+00 0. -1.
        -11    1    1    2    0    0  0.15807350624E+01 -0.33472094555E+00  0.24400745693E+02  0.24454184751E+02  0.00000000000E+00 0. -1.
         11    1    1    2    0    0  0.95321869970E+01 -0.16593251168E+02 -0.17624836626E+03  0.17728419327E+03  0.00000000000E+00 0. -1.
        -15    1    1    2    0    0 -0.80474450079E+00 -0.11866186820E+01  0.13834605752E+03  0.13836489815E+03  0.17770000000E+01 0. -1.
         15    1    1    2    0    0 -0.10308177559E+02  0.18114590796E+02  0.13501563042E+02  0.24896723838E+02  0.17770000000E+01 0. -1.
</event>
<event>
 6    1  0.1045352E-002  0.1847927E+03  0.7546771E-02  0.1066644E+00
        -11   -1    0    0    0    0  0.00000000000E+00  0.00000000000E+00  0.18250000000E+03  0.18250000000E+03  0.00000000000E+00 0. -1.
         11   -1    0    0    0    0 -0.00000000000E+00 -0.00000000000E+00 -0.18250000000E+03  0.18250000000E+03  0.00000000000E+00 0.  1.
        -11    1    1    2    0    0 -0.88094048775E+01  0.13223090812E+01  0.17998697865E+03  0.18020728786E+03  0.00000000000E+00 0. -1.
         11    1    1    2    0    0 -0.90084052481E+00  0.39542418737E+01 -0.12248281438E+03  0.12254993823E+03  0.00000000000E+00 0.  1.
        -15    1    1    2    0    0  0.59748455161E+01  0.73669034689E+01 -0.16279269403E+02  0.18924650247E+02  0.17770000000E+01 0. -1.
         15    1    1    2    0    0  0.37353998862E+01 -0.12643454424E+02 -0.41224894862E+02  0.43318123661E+02  0.17770000000E+01 0.  1.
</event>
<event>
 6    1  0.1045352E-002  0.1879547E+03  0.7546771E-02  0.1064194E+00
        -11   -1    0    0    0    0  0.00000000000E+00  0.00000000000E+00  0.18250000000E+03  0.18250000000E+03  0.00000000000E+00 0. -1.
         11   -1    0    0    0    0 -0.00000000000E+00 -0.00000000000E+00 -0.18250000000E+03  0.18250000000E+03  0.00000000000E+00 0. -1.
        -11    1    1    2    0    0 -0.16633932413E+01 -0.32416303786E+01  0.17173126214E+03  0.17176990842E+03  0.00000000000E+00 0. -1.
         11    1    1    2    0    0  0.28463442890E+01 -0.10632410988E+01 -0.17701918891E+03  0.17704526370E+03  0.00000000000E+00 0. -1.
        -15    1    1    2    0    0  0.33636556643E+01  0.50472464577E+01 -0.26363151925E+01  0.68481211311E+01  0.17770000000E+01 0. -1.
         15    1    1    2    0    0 -0.45466067120E+01 -0.74237498031E+00  0.79242419617E+01  0.93367067466E+01  0.17770000000E+01 0.  1.
</event>
<event>
 6    1  0.1045352E-002  0.1844401E+03  0.7546771E-02  0.1066921E+00
        -11   -1    0    0    0    0  0.00000000000E+00  0.00000000000E+00  0.18250000000E+03  0.18250000000E+03  0.00000000000E+00 0.  1.
         11   -1    0    0    0    0 -0.00000000000E+00 -0.00000000000E+00 -0.18250000000E+03  0.18250000000E+03  0.00000000000E+00 0. -1.
        -11    1    1    2    0    0 -0.85398077297E+00 -0.29692314569E+01  0.18053349978E+03  0.18055993510E+03  0.00000000000E+00 0.  1.
         11    1    1    2    0    0  0.50332372757E+01  0.27848034177E+01 -0.17181244385E+03  0.17190870970E+03  0.00000000000E+00 0. -1.
        -15    1    1    2    0    0 -0.31864091434E+01 -0.23069944225E+01 -0.82074533406E+01  0.92733729480E+01  0.17770000000E+01 0. -1.
         15    1    1    2    0    0 -0.99284735933E+00  0.24914224616E+01 -0.51360258742E+00  0.32579822558E+01  0.17770000000E+01 0.  1.
</event>
<event>
 6    1  0.1045352E-002  0.1851442E+03  0.7546771E-02  0.1066369E+00
        -11   -1    0    0    0    0  0.00000000000E+00  0.00000000000E+00  0.18250000000E+03  0.18250000000E+03  0.00000000000E+00 0. -1.
         11   -1    0    0    0    0 -0.00000000000E+00 -0.00000000000E+00 -0.18250000000E+03  0.18250000000E+03  0.00000000000E+00 0.  1.
        -11    1    1    2    0    0 -0.11229093194E+01 -0.40253788233E+01  0.14051865343E+03  0.14058078304E+03  0.00000000000E+00 0. -1.
         11    1    1    2    0    0 -0.12490922904E+02 -0.67385160325E+00 -0.17942031011E+03  0.17985584480E+03  0.00000000000E+00 0.  1.
        -15    1    1    2    0    0  0.47550550378E+00 -0.25754203811E+01  0.20509871992E+02  0.20752625707E+02  0.17770000000E+01 0.  1.
         15    1    1    2    0    0  0.13138326719E+02  0.72746508077E+01  0.18391784689E+02  0.23810746448E+02  0.17770000000E+01 0.  1.
</event>
<event>
 6    1  0.1045352E-002  0.1851977E+03  0.7546771E-02  0.1066328E+00
        -11   -1    0    0    0    0  0.00000000000E+00  0.00000000000E+00  0.18250000000E+03  0.18250000000E+03  0.00000000000E+00 0.  1.
         11   -1    0    0    0    0 -0.00000000000E+00 -0.00000000000E+00 -0.18250000000E+03  0.18250000000E+03  0.00000000000E+00 0. -1.
        -11    1    1    2    0    0  0.27770941347E+00 -0.54226745902E+01  0.16593397437E+03  0.16602278872E+03  0.00000000000E+00 0.  1.
         11    1    1    2    0    0  0.24755205881E+01 -0.20375502469E+01 -0.17977372785E+03  0.17980231655E+03  0.00000000000E+00 0. -1.
        -15    1    1    2    0    0  0.90990135465E+00  0.47842339427E+01  0.78822239120E+00  0.52436474359E+01  0.17770000000E+01 0. -1.
         15    1    1    2    0    0 -0.36631313562E+01  0.26759908944E+01  0.13051531083E+02  0.13931247296E+02  0.17770000000E+01 0.  1.
</event>
<event>
 6    1  0.1045352E-002  0.1848834E+03  0.7546771E-02  0.1066573E+00
        -11   -1    0    0    0    0  0.00000000000E+00  0.00000000000E+00  0.18250000000E+03  0.18250000000E+03  0.00000000000E+00 0.  1.
         11   -1    0    0    0    0 -0.00000000000E+00 -0.00000000000E+00 -0.18250000000E+03  0.18250000000E+03  0.00000000000E+00 0.  1.
        -11    1    1    2    0    0  0.28291577816E+01  0.48673117871E+01  0.18002855092E+03  0.18011655672E+03  0.00000000000E+00 0.  1.
         11    1    1    2    0    0 -0.39100280428E+01  0.91537207768E+00 -0.17114714937E+03  0.17119425506E+03  0.00000000000E+00 0.  1.
        -15    1    1    2    0    0  0.17172408987E+00 -0.67673410662E+00  0.11705050676E+01  0.22394797002E+01  0.17770000000E+01 0. -1.
         15    1    1    2    0    0  0.90914617125E+00 -0.51059497582E+01 -0.10051906614E+02  0.11449708523E+02  0.17770000000E+01 0.  1.
</event>
<event>
 6    1  0.1045352E-002  0.2005561E+03  0.7546771E-02  0.1054927E+00
        -11   -1    0    0    0    0  0.00000000000E+00  0.00000000000E+00  0.18250000000E+03  0.18250000000E+03  0.00000000000E+00 0.  1.
         11   -1    0    0    0    0 -0.00000000000E+00 -0.00000000000E+00 -0.18250000000E+03  0.18250000000E+03  0.00000000000E+00 0.  1.
        -11    1    1    2    0    0  0.21720683108E+01  0.32693815388E+01  0.13191851658E+03  0.13197689855E+03  0.00000000000E+00 0.  1.
         11    1    1    2    0    0 -0.15508634527E-01 -0.42942465331E+01 -0.16438785701E+03  0.16444393672E+03  0.00000000000E+00 0.  1.
        -15    1    1    2    0    0 -0.11141576731E+01  0.41348222470E+01 -0.17686852148E+02  0.18284435190E+02  0.17770000000E+01 0.  1.
         15    1    1    2    0    0 -0.10424020032E+01 -0.31099572527E+01  0.50156192577E+02  0.50294729534E+02  0.17770000000E+01 0. -1.
</event>
<event>
 6    1  0.1045352E-002  0.1863023E+03  0.7546771E-02  0.1065468E+00
        -11   -1    0    0    0    0  0.00000000000E+00  0.00000000000E+00  0.18250000000E+03  0.18250000000E+03  0.00000000000E+00 0.  1.
         11   -1    0    0    0    0 -0.00000000000E+00 -0.00000000000E+00 -0.18250000000E+03  0.18250000000E+03  0.00000000000E+00 0. -1.
        -11    1    1    2    0    0 -0.14861827712E+02  0.64878448304E+01  0.17796037288E+03  0.17869767869E+03  0.00000000000E+00 0.  1.
         11    1    1    2    0    0 -0.25176413244E+01  0.57601971760E+00 -0.82342423196E+02  0.82382916763E+02  0.00000000000E+00 0. -1.
        -15    1    1    2    0    0  0.13003416486E+01 -0.20422598220E+01 -0.82345719387E+02  0.82400466892E+02  0.17770000000E+01 0. -1.
         15    1    1    2    0    0  0.16079127387E+02 -0.50216047260E+01 -0.13272230300E+02  0.21518937653E+02  0.17770000000E+01 0. -1.
</event>
<event>
 6    1  0.1045352E-002  0.1843269E+03  0.7546771E-02  0.1067010E+00
        -11   -1    0    0    0    0  0.00000000000E+00  0.00000000000E+00  0.18250000000E+03  0.18250000000E+03  0.00000000000E+00 0. -1.
         11   -1    0    0    0    0 -0.00000000000E+00 -0.00000000000E+00 -0.18250000000E+03  0.18250000000E+03  0.00000000000E+00 0.  1.
        -11    1    1    2    0    0 -0.15188716107E+01 -0.24163001976E+01  0.16079084372E+03  0.16081617114E+03  0.00000000000E+00 0. -1.
         11    1    1    2    0    0  0.62379177639E+01 -0.29855578159E-01 -0.18056539101E+03  0.18067311073E+03  0.00000000000E+00 0.  1.
        -15    1    1    2    0    0  0.16206297753E+00  0.13269484259E+01  0.17647570436E+02  0.17787116906E+02  0.17770000000E+01 0.  1.
         15    1    1    2    0    0 -0.48811091308E+01  0.11192073499E+01  0.21269768525E+01  0.57236012239E+01  0.17770000000E+01 0. -1.
</event>
<event>
 6    1  0.1045352E-002  0.1834486E+03  0.7546771E-02  0.1067702E+00
        -11   -1    0    0    0    0  0.00000000000E+00  0.00000000000E+00  0.18250000000E+03  0.18250000000E+03  0.00000000000E+00 0.  1.
         11   -1    0    0    0    0 -0.00000000000E+00 -0.00000000000E+00 -0.18250000000E+03  0.18250000000E+03  0.00000000000E+00 0. -1.
        -11    1    1    2    0    0 -0.15159811660E+01 -0.26929923266E+01  0.18152511132E+03  0.18155141543E+03  0.00000000000E+00 0.  1.
         11    1    1    2    0    0  0.14695612359E+01  0.26874008607E+01 -0.16520106895E+03  0.16522946141E+03  0.00000000000E+00 0. -1.
        -15    1    1    2    0    0 -0.23887497738E+00 -0.35871882131E+01 -0.70267480249E+01  0.80906054988E+01  0.17770000000E+01 0.  1.
         15    1    1    2    0    0  0.28529490750E+00  0.35927796790E+01 -0.92972943405E+01  0.10128517664E+02  0.17770000000E+01 0.  1.
</event>
<event>
 6    1  0.1045352E-002  0.1838201E+03  0.7546771E-02  0.1067409E+00
        -11   -1    0    0    0    0  0.00000000000E+00  0.00000000000E+00  0.18250000000E+03  0.18250000000E+03  0.00000000000E+00 0.  1.
         11   -1    0    0    0    0 -0.00000000000E+00 -0.00000000000E+00 -0.18250000000E+03  0.18250000000E+03  0.00000000000E+00 0. -1.
        -11    1    1    2    0    0 -0.24129398824E+01  0.10468487709E+00  0.17088523333E+03  0.17090230018E+03  0.00000000000E+00 0.  1.
         11    1    1    2    0    0  0.54508608450E+01  0.20483098903E+00 -0.18109774316E+03  0.18117987310E+03  0.00000000000E+00 0. -1.
        -15    1    1    2    0    0 -0.19890641283E+01  0.33277743888E+00  0.22290600617E+00  0.26971342232E+01  0.17770000000E+01 0.  1.
         15    1    1    2    0    0 -0.10488568343E+01 -0.64229330500E+00  0.99896038301E+01  0.10220692493E+02  0.17770000000E+01 0. -1.
</event>
<event>
 6    1  0.1045352E-002  0.1707157E+03  0.7546771E-02  0.1078242E+00
        -11   -1    0    0    0    0  0.00000000000E+00  0.00000000000E+00  0.18250000000E+03  0.18250000000E+03  0.00000000000E+00 0. -1.
         11   -1    0    0    0    0 -0.00000000000E+00 -0.00000000000E+00 -0.18250000000E+03  0.18250000000E+03  0.00000000000E+00 0. -1.
        -11    1    1    2    0    0 -0.11252739343E+02 -0.62821066634E+01  0.16871102572E+03  0.16920253901E+03  0.00000000000E+00 0. -1.
         11    1    1    2    0    0 -0.32213689964E+01 -0.21380462709E+01 -0.17261835904E+03  0.17266165277E+03  0.00000000000E+00 0. -1.
        -15    1    1    2    0    0  0.16452873161E+02  0.54760413769E+01 -0.19038296466E+00  0.17432097954E+02  0.17770000000E+01 0.  1.
         15    1    1    2    0    0 -0.19787648209E+01  0.29441115574E+01  0.40977162850E+01  0.57037102689E+01  0.17770000000E+01 0. -1.
</event>
<event>
 6    1  0.1045352E-002  0.1905070E+03  0.7546771E-02  0.1062254E+00
        -11   -1    0    0    0    0  0.00000000000E+00  0.00000000000E+00  0.18250000000E+03  0.18250000000E+03  0.00000000000E+00 0.  1.
         11   -1    0    0    0    0 -0.00000000000E+00 -0.00000000000E+00 -0.18250000000E+03  0.18250000000E+03  0.00000000000E+00 0. -1.
        -11    1    1    2    0    0  0.95022870812E+01  0.10517244478E+02  0.86723268452E+02  0.87873950533E+02  0.00000000000E+00 0.  1.
         11    1    1    2    0    0 -0.48677439087E+01 -0.17581220110E+02 -0.17353677426E+03  0.17449299772E+03  0.00000000000E+00 0. -1.
        -15    1    1    2    0    0 -0.14835286741E+02  0.15525696842E+02  0.86619699238E+02  0.89259526215E+02  0.17770000000E+01 0.  1.
         15    1    1    2    0    0  0.10200743568E+02 -0.84617212098E+01  0.19380657341E+00  0.13373525533E+02  0.17770000000E+01 0. -1.
</event>
<event>
 6    1  0.1045352E-002  0.1834571E+03  0.7546771E-02  0.1067696E+00
        -11   -1    0    0    0    0  0.00000000000E+00  0.00000000000E+00  0.18250000000E+03  0.18250000000E+03  0.00000000000E+00 0.  1.
         11   -1    0    0    0    0 -0.00000000000E+00 -0.00000000000E+00 -0.18250000000E+03  0.18250000000E+03  0.00000000000E+00 0. -1.
        -11    1    1    2    0    0 -0.59354030447E+01  0.39689648875E+01  0.18140243909E+03  0.18154290568E+03  0.00000000000E+00 0.  1.
         11    1    1    2    0    0 -0.20002346224E+01 -0.35220230765E+01 -0.15259040928E+03  0.15264415675E+03  0.00000000000E+00 0. -1.
        -15    1    1    2    0    0  0.49716238079E+01 -0.34443329077E+01 -0.18043965625E+02  0.19113421906E+02  0.17770000000E+01 0. -1.
         15    1    1    2    0    0  0.29640138592E+01  0.29973910966E+01 -0.10768064189E+02  0.11699515671E+02  0.17770000000E+01 0.  1.
</event>
<event>
 6    1  0.1045352E-002  0.1875863E+03  0.7546771E-02  0.1064477E+00
        -11   -1    0    0    0    0  0.00000000000E+00  0.00000000000E+00  0.18250000000E+03  0.18250000000E+03  0.00000000000E+00 0. -1.
         11   -1    0    0    0    0 -0.00000000000E+00 -0.00000000000E+00 -0.18250000000E+03  0.18250000000E+03  0.00000000000E+00 0.  1.
        -11    1    1    2    0    0  0.22447623832E+01 -0.73737672761E+01  0.97943948997E+02  0.98246773724E+02  0.00000000000E+00 0. -1.
         11    1    1    2    0    0  0.41977014840E+01  0.40501768760E+01 -0.17731773483E+03  0.17741365143E+03  0.00000000000E+00 0.  1.
        -15    1    1    2    0    0 -0.73844929310E+01 -0.14656755092E+02  0.62345808112E+02  0.64494253417E+02  0.17770000000E+01 0.  1.
         15    1    1    2    0    0  0.94202906378E+00  0.17980345492E+02  0.17027977716E+02  0.24845321428E+02  0.17770000000E+01 0. -1.
</event>
<event>
 6    1  0.1045352E-002  0.1841192E+03  0.7546771E-02  0.1067173E+00
        -11   -1    0    0    0    0  0.00000000000E+00  0.00000000000E+00  0.18250000000E+03  0.18250000000E+03  0.00000000000E+00 0.  1.
         11   -1    0    0    0    0 -0.00000000000E+00 -0.00000000000E+00 -0.18250000000E+03  0.18250000000E+03  0.00000000000E+00 0. -1.
        -11    1    1    2    0    0 -0.31789194484E+01  0.19009580899E+01  0.12652123878E+03  0.12657544403E+03  0.00000000000E+00 0.  1.
         11    1    1    2    0    0 -0.56997373648E+00 -0.77917558546E+01 -0.18071201030E+03  0.18088080881E+03  0.00000000000E+00 0. -1.
        -15    1    1    2    0    0  0.53716481568E+00  0.73465390261E+00  0.49801517711E+02  0.49841520419E+02  0.17770000000E+01 0. -1.
         15    1    1    2    0    0  0.32117283692E+01  0.51561438621E+01  0.43892538123E+01  0.77022267347E+01  0.17770000000E+01 0.  1.
</event>
<event>
 6    1  0.1045352E-002  0.1842079E+03  0.7546771E-02  0.1067103E+00
        -11   -1    0    0    0    0  0.00000000000E+00  0.00000000000E+00  0.18250000000E+03  0.18250000000E+03  0.00000000000E+00 0.  1.
         11   -1    0    0    0    0 -0.00000000000E+00 -0.00000000000E+00 -0.18250000000E+03  0.18250000000E+03  0.00000000000E+00 0.  1.
        -11    1    1    2    0    0  0.53523999296E+01  0.66463896040E+01  0.23683080506E+02  0.25173616785E+02  0.00000000000E+00 0.  1.
         11    1    1    2    0    0 -0.26212875519E+01  0.19424689284E+01 -0.18076262506E+03  0.18079206551E+03  0.00000000000E+00 0.  1.
        -15    1    1    2    0    0  0.65671509495E+01  0.89637099254E+00  0.17260560147E+02  0.18574596043E+02  0.17770000000E+01 0. -1.
         15    1    1    2    0    0 -0.92982633272E+01 -0.94852295249E+01  0.13981898441E+03  0.14045972166E+03  0.17770000000E+01 0.  1.
</event>
<event>
 6    1  0.1045352E-002  0.1782979E+03  0.7546771E-02  0.1071850E+00
        -11   -1    0    0    0    0  0.00000000000E+00  0.00000000000E+00  0.18250000000E+03  0.18250000000E+03  0.00000000000E+00 0. -1.
         11   -1    0    0    0    0 -0.00000000000E+00 -0.00000000000E+00 -0.18250000000E+03  0.18250000000E+03  0.00000000000E+00 0. -1.
        -11    1    1    2    0    0  0.33171192316E+00  0.33059682745E+01  0.17875091057E+03  0.17878178735E+03  0.00000000000E+00 0. -1.
         11    1    1    2    0    0 -0.37436565076E+01 -0.98533110276E+00 -0.17779696627E+03  0.17783910441E+03  0.00000000000E+00 0. -1.
        -15    1    1    2    0    0  0.14567055024E+01 -0.36351321221E+01  0.14860665582E+01  0.45499779429E+01  0.17770000000E+01 0. -1.
         15    1    1    2    0    0  0.19552390820E+01  0.13144949503E+01 -0.24400108571E+01  0.38291302962E+01  0.17770000000E+01 0. -1.
</event>
<event>
 6    1  0.1045352E-002  0.2067759E+03  0.7546771E-02  0.1050622E+00
        -11   -1    0    0    0    0  0.00000000000E+00  0.00000000000E+00  0.18250000000E+03  0.18250000000E+03  0.00000000000E+00 0.  1.
         11   -1    0    0    0    0 -0.00000000000E+00 -0.00000000000E+00 -0.18250000000E+03  0.18250000000E+03  0.00000000000E+00 0.  1.
        -11    1    1    2    0    0  0.64586076581E+00 -0.25515522883E+01  0.15820223587E+03  0.15822412897E+03  0.00000000000E+00 0.  1.
         11    1    1    2    0    0  0.59023859683E+01 -0.80136262310E+01 -0.14565293191E+03  0.14599257837E+03  0.00000000000E+00 0.  1.
        -15    1    1    2    0    0  0.59862528143E+01 -0.42441295049E+01 -0.32222569188E+02  0.33095310123E+02  0.17770000000E+01 0.  1.
         15    1    1    2    0    0 -0.12534499548E+02  0.14809308024E+02  0.19673265228E+02  0.27687982534E+02  0.17770000000E+01 0. -1.
</event>
<event>
 6    1  0.1045352E-002  0.1827464E+03  0.7546771E-02  0.1068259E+00
        -11   -1    0    0    0    0  0.00000000000E+00  0.00000000000E+00  0.18250000000E+03  0.18250000000E+03  0.00000000000E+00 0. -1.
         11   -1    0    0    0    0 -0.00000000000E+00 -0.00000000000E+00 -0.18250000000E+03  0.18250000000E+03  0.00000000000E+00 0.  1.
        -11    1    1    2    0    0  0.28000536257E+01  0.25770718519E+01  0.18221390896E+03  0.18225364254E+03  0.00000000000E+00 0. -1.
         11    1    1    2    0    0  0.30576944963E+01 -0.82082443755E+00 -0.95781493074E+02  0.95833802303E+02  0.00000000000E+00 0.  1.
        -15    1    1    2    0    0 -0.51335339201E+01  0.64036778399E+00 -0.68603403817E+02  0.68821130372E+02  0.17770000000E+01 0. -1.
         15    1    1    2    0    0 -0.72421420193E+00 -0.23966151984E+01 -0.17829012068E+02  0.18091424790E+02  0.17770000000E+01 0.  1.
</event>
<event>
 6    1  0.1045352E-002  0.1826587E+03  0.7546771E-02  0.1068329E+00
        -11   -1    0    0    0    0  0.00000000000E+00  0.00000000000E+00  0.18250000000E+03  0.18250000000E+03  0.00000000000E+00 0. -1.
         11   -1    0    0    0    0 -0.00000000000E+00 -0.00000000000E+00 -0.18250000000E+03  0.18250000000E+03  0.00000000000E+00 0.  1.
        -11    1    1    2    0    0  0.11707012982E+01  0.95759116373E+00  0.52415722206E+02  0.52437538622E+02  0.00000000000E+00 0. -1.
         11    1    1    2    0    0 -0.14665657843E+01  0.29477326980E+01 -0.18231154227E+03  0.18234126903E+03  0.00000000000E+00 0.  1.
        -15    1    1    2    0    0  0.66412931831E+00  0.17655306046E+00  0.73163708381E+01  0.75603736663E+01  0.17770000000E+01 0.  1.
         15    1    1    2    0    0 -0.36826483224E+00 -0.40818769222E+01  0.12257944923E+03  0.12266081869E+03  0.17770000000E+01 0. -1.
</event>
<event>
 6    1  0.1045352E-002  0.1837057E+03  0.7546771E-02  0.1067499E+00
        -11   -1    0    0    0    0  0.00000000000E+00  0.00000000000E+00  0.18250000000E+03  0.18250000000E+03  0.00000000000E+00 0.  1.
         11   -1    0    0    0    0 -0.00000000000E+00 -0.00000000000E+00 -0.18250000000E+03  0.18250000000E+03  0.00000000000E+00 0.  1.
        -11    1    1    2    0    0 -0.52373268049E+01  0.20677577009E+01  0.18120684351E+03  0.18129430589E+03  0.00000000000E+00 0.  1.
         11    1    1    2    0    0  0.23412856847E+01  0.27988388259E+00 -0.16556188783E+03  0.16557867815E+03  0.00000000000E+00 0.  1.
        -15    1    1    2    0    0  0.50217189173E+00  0.22998745135E+01 -0.24890164946E+01  0.38593434023E+01  0.17770000000E+01 0.  1.
         15    1    1    2    0    0  0.23938692285E+01 -0.46475160969E+01 -0.13155939177E+02  0.14267672563E+02  0.17770000000E+01 0.  1.
</event>
<event>
 6    1  0.1045352E-002  0.1834027E+03  0.7546771E-02  0.1067738E+00
        -11   -1    0    0    0    0  0.00000000000E+00  0.00000000000E+00  0.18250000000E+03  0.18250000000E+03  0.00000000000E+00 0. -1.
         11   -1    0    0    0    0 -0.00000000000E+00 -0.00000000000E+00 -0.18250000000E+03  0.18250000000E+03  0.00000000000E+00 0.  1.
        -11    1    1    2    0    0 -0.19135502136E+01 -0.19719357225E+01  0.18157647700E+03  0.18159726651E+03  0.00000000000E+00 0. -1.
         11    1    1    2    0    0  0.52386525387E+00 -0.44315214232E+01 -0.12048641463E+03  0.12056902143E+03  0.00000000000E+00 0.  1.
        -15    1    1    2    0    0 -0.16789597534E+01  0.29395746343E+01 -0.54259112962E+02  0.54393649200E+02  0.17770000000E+01 0.  1.
         15    1    1    2    0    0  0.30686447131E+01  0.34638825114E+01 -0.68309494032E+01  0.84400628657E+01  0.17770000000E+01 0.  1.
</event>
<event>
 6    1  0.1045352E-002  0.1748726E+03  0.7546771E-02  0.1074694E+00
        -11   -1    0    0    0    0  0.00000000000E+00  0.00000000000E+00  0.18250000000E+03  0.18250000000E+03  0.00000000000E+00 0. -1.
         11   -1    0    0    0    0 -0.00000000000E+00 -0.00000000000E+00 -0.18250000000E+03  0.18250000000E+03  0.00000000000E+00 0. -1.
        -11    1    1    2    0    0 -0.86688546949E+00  0.61313914302E+01  0.17762934390E+03  0.17773724783E+03  0.00000000000E+00 0. -1.
         11    1    1    2    0    0  0.28043370619E+01 -0.16858316002E+02 -0.17138363091E+03  0.17223360900E+03  0.00000000000E+00 0. -1.
        -15    1    1    2    0    0  0.58154359250E+00 -0.33642284187E+00 -0.20678527570E+01  0.28080451035E+01  0.17770000000E+01 0. -1.
         15    1    1    2    0    0 -0.25189951849E+01  0.11063347414E+02 -0.41778602318E+01  0.12221098063E+02  0.17770000000E+01 0.  1.
</event>
<event>
 6    1  0.1045352E-002  0.1520243E+03  0.7546771E-02  0.1095688E+00
        -11   -1    0    0    0    0  0.00000000000E+00  0.00000000000E+00  0.18250000000E+03  0.18250000000E+03  0.00000000000E+00 0.  1.
         11   -1    0    0    0    0 -0.00000000000E+00 -0.00000000000E+00 -0.18250000000E+03  0.18250000000E+03  0.00000000000E+00 0.  1.
        -11    1    1    2    0    0 -0.22620300195E+01 -0.97281951278E-01  0.15088475193E+03  0.15090173826E+03  0.00000000000E+00 0.  1.
         11    1    1    2    0    0  0.18776265220E+02  0.34559372986E+02 -0.15048430518E+03  0.15553914139E+03  0.00000000000E+00 0.  1.
        -15    1    1    2    0    0 -0.28747971888E+02 -0.29895337006E+02 -0.94467409158E+01  0.42574355019E+02  0.17770000000E+01 0.  1.
         15    1    1    2    0    0  0.12233736687E+02 -0.45667540284E+01  0.90462941663E+01  0.15984765336E+02  0.17770000000E+01 0. -1.
</event>
<event>
 6    1  0.1045352E-002  0.1889644E+03  0.7546771E-02  0.1063422E+00
        -11   -1    0    0    0    0  0.00000000000E+00  0.00000000000E+00  0.18250000000E+03  0.18250000000E+03  0.00000000000E+00 0.  1.
         11   -1    0    0    0    0 -0.00000000000E+00 -0.00000000000E+00 -0.18250000000E+03  0.18250000000E+03  0.00000000000E+00 0. -1.
        -11    1    1    2    0    0 -0.36210584021E+01 -0.22533199538E+01  0.17598391755E+03  0.17603558944E+03  0.00000000000E+00 0.  1.
         11    1    1    2    0    0  0.68831478465E+00 -0.27371480458E+01 -0.15089969307E+03  0.15092608497E+03  0.00000000000E+00 0. -1.
        -15    1    1    2    0    0  0.82416077173E+01  0.92991718624E+01 -0.27774327015E+02  0.30479003679E+02  0.17770000000E+01 0. -1.
         15    1    1    2    0    0 -0.53088640999E+01 -0.43087038628E+01  0.26901025389E+01  0.75593219060E+01  0.17770000000E+01 0.  1.
</event>
<event>
 6    1  0.1045352E-002  0.1736124E+03  0.7546771E-02  0.1075758E+00
        -11   -1    0    0    0    0  0.00000000000E+00  0.00000000000E+00  0.18250000000E+03  0.18250000000E+03  0.00000000000E+00 0.  1.
         11   -1    0    0    0    0 -0.00000000000E+00 -0.00000000000E+00 -0.18250000000E+03  0.18250000000E+03  0.00000000000E+00 0.  1.
        -11    1    1    2    0    0  0.36384574274E+01 -0.21739936185E+01  0.17294591842E+03  0.17299784773E+03  0.00000000000E+00 0.  1.
         11    1    1    2    0    0  0.21097192719E+01  0.63221429194E+01 -0.17417396364E+03  0.17430143435E+03  0.00000000000E+00 0.  1.
        -15    1    1    2    0    0 -0.24619454293E+01 -0.53295249925E+01 -0.65610276979E+01  0.89816382356E+01  0.17770000000E+01 0.  1.
         15    1    1    2    0    0 -0.32862312700E+01  0.11813756916E+01  0.77890729223E+01  0.87190796804E+01  0.17770000000E+01 0.  1.
</event>
<event>
 6    1  0.1045352E-002  0.1837236E+03  0.7546771E-02  0.1067485E+00
        -11   -1    0    0    0    0  0.00000000000E+00  0.00000000000E+00  0.18250000000E+03  0.18250000000E+03  0.00000000000E+00 0. -1.
         11   -1    0    0    0    0 -0.00000000000E+00 -0.00000000000E+00 -0.18250000000E+03  0.18250000000E+03  0.00000000000E+00 0. -1.
        -11    1    1    2    0    0  0.28909257842E+01 -0.32663872611E+01  0.18122395208E+03  0.18127643958E+03  0.00000000000E+00 0. -1.
         11    1    1    2    0    0  0.69855818675E+00  0.79445075462E+00 -0.73820554536E+02  0.73828134255E+02  0.00000000000E+00 0. -1.
        -15    1    1    2    0    0  0.38428554433E+01  0.19749709323E+01 -0.96265957825E+02  0.96379253022E+02  0.17770000000E+01 0.  1.
         15    1    1    2    0    0 -0.74323394142E+01  0.49696557417E+00 -0.11137439721E+02  0.13516173145E+02  0.17770000000E+01 0. -1.
</event>
<event>
 6    1  0.1045352E-002  0.1832479E+03  0.7546771E-02  0.1067861E+00
        -11   -1    0    0    0    0  0.00000000000E+00  0.00000000000E+00  0.18250000000E+03  0.18250000000E+03  0.00000000000E+00 0.  1.
         11   -1    0    0    0    0 -0.00000000000E+00 -0.00000000000E+00 -0.18250000000E+03  0.18250000000E+03  0.00000000000E+00 0. -1.
        -11    1    1    2    0    0  0.25720049430E+00  0.37466096051E+01  0.87696049116E+02  0.87776422040E+02  0.00000000000E+00 0.  1.
         11    1    1    2    0    0 -0.21089301041E+01 -0.25804058282E+01 -0.18172151727E+03  0.18175207267E+03  0.00000000000E+00 0. -1.
        -15    1    1    2    0    0  0.81432739084E+01  0.26245507724E+01  0.58688596716E+02  0.59335573564E+02  0.17770000000E+01 0. -1.
         15    1    1    2    0    0 -0.62915442986E+01 -0.37907545492E+01  0.35336871439E+02  0.36135931727E+02  0.17770000000E+01 0.  1.
</event>
<event>
 6    1  0.1045352E-002  0.1843725E+03  0.7546771E-02  0.1066974E+00
        -11   -1    0    0    0    0  0.00000000000E+00  0.00000000000E+00  0.18250000000E+03  0.18250000000E+03  0.00000000000E+00 0. -1.
         11   -1    0    0    0    0 -0.00000000000E+00 -0.00000000000E+00 -0.18250000000E+03  0.18250000000E+03  0.00000000000E+00 0.  1.
        -11    1    1    2    0    0  0.12922470376E+01  0.58183452968E+01  0.18052916385E+03  0.18062752294E+03  0.00000000000E+00 0. -1.
         11    1    1    2    0    0 -0.35615536504E+01  0.76593550163E+01 -0.13035864674E+03  0.13063202962E+03  0.00000000000E+00 0.  1.
        -15    1    1    2    0    0 -0.24108150711E+01 -0.12387029723E+02 -0.43506042278E+02  0.45334137009E+02  0.17770000000E+01 0. -1.
         15    1    1    2    0    0  0.46801216840E+01 -0.10906705902E+01 -0.66644748308E+01  0.84063104323E+01  0.17770000000E+01 0.  1.
</event>
<event>
 6    1  0.1045352E-002  0.1846076E+03  0.7546771E-02  0.1066789E+00
        -11   -1    0    0    0    0  0.00000000000E+00  0.00000000000E+00  0.18250000000E+03  0.18250000000E+03  0.00000000000E+00 0.  1.
         11   -1    0    0    0    0 -0.00000000000E+00 -0.00000000000E+00 -0.18250000000E+03  0.18250000000E+03  0.00000000000E+00 0.  1.
        -11    1    1    2    0    0 -0.38042616760E+01  0.13873925062E+00  0.18035223985E+03  0.18039241135E+03  0.00000000000E+00 0.  1.
         11    1    1    2    0    0 -0.20475767020E+01 -0.18970395003E+01 -0.17243667686E+03  0.17245926724E+03  0.00000000000E+00 0.  1.
        -15    1    1    2    0    0  0.15312826822E+01 -0.56849359745E-01  0.45675443573E+00  0.23904836575E+01  0.17770000000E+01 0. -1.
         15    1    1    2    0    0  0.43205556959E+01  0.18151496095E+01 -0.83723174197E+01  0.97578377524E+01  0.17770000000E+01 0.  1.
</event>
<event>
 6    1  0.1045352E-002  0.1872341E+03  0.7546771E-02  0.1064748E+00
        -11   -1    0    0    0    0  0.00000000000E+00  0.00000000000E+00  0.18250000000E+03  0.18250000000E+03  0.00000000000E+00 0. -1.
         11   -1    0    0    0    0 -0.00000000000E+00 -0.00000000000E+00 -0.18250000000E+03  0.18250000000E+03  0.00000000000E+00 0. -1.
        -11    1    1    2    0    0 -0.48429778224E+01  0.42775326293E+01  0.50404334264E+02  0.50816814463E+02  0.00000000000E+00 0. -1.
         11    1    1    2    0    0 -0.45432785015E+01  0.32707962163E+01 -0.17767771028E+03  0.17776588036E+03  0.00000000000E+00 0. -1.
        -15    1    1    2    0    0  0.78122396713E+01 -0.22165580310E+02  0.30642590258E+02  0.38658376918E+02  0.17770000000E+01 0.  1.
         15    1    1    2    0    0  0.15740166526E+01  0.14617251464E+02  0.96630785762E+02  0.97758928261E+02  0.17770000000E+01 0. -1.
</event>
<event>
 6    1  0.1045352E-002  0.1826076E+03  0.7546771E-02  0.1068369E+00
        -11   -1    0    0    0    0  0.00000000000E+00  0.00000000000E+00  0.18250000000E+03  0.18250000000E+03  0.00000000000E+00 0. -1.
         11   -1    0    0    0    0 -0.00000000000E+00 -0.00000000000E+00 -0.18250000000E+03  0.18250000000E+03  0.00000000000E+00 0. -1.
        -11    1    1    2    0    0  0.13380663442E+01  0.23871803790E+01  0.18237187973E+03  0.18239241094E+03  0.00000000000E+00 0. -1.
         11    1    1    2    0    0  0.10668742654E+01  0.58421515204E+00 -0.61204359522E+02  0.61216445115E+02  0.00000000000E+00 0. -1.
        -15    1    1    2    0    0  0.36980511904E-01  0.53465892434E+00 -0.67191083829E+02  0.67216714460E+02  0.17770000000E+01 0.  1.
         15    1    1    2    0    0 -0.24419211215E+01 -0.35060544554E+01 -0.53976436381E+02  0.54174429485E+02  0.17770000000E+01 0.  1.
</event>
<event>
 6    1  0.1045352E-002  0.1826540E+03  0.7546771E-02  0.1068332E+00
        -11   -1    0    0    0    0  0.00000000000E+00  0.00000000000E+00  0.18250000000E+03  0.18250000000E+03  0.00000000000E+00 0. -1.
         11   -1    0    0    0    0 -0.00000000000E+00 -0.00000000000E+00 -0.18250000000E+03  0.18250000000E+03  0.00000000000E+00 0. -1.
        -11    1    1    2    0    0 -0.17437570038E+01  0.44794816123E+01  0.18228259839E+03  0.18234596821E+03  0.00000000000E+00 0. -1.
         11    1    1    2    0    0  0.23663477525E+01 -0.15873900042E+01 -0.12420651734E+03  0.12423919816E+03  0.00000000000E+00 0. -1.
        -15    1    1    2    0    0 -0.79911189058E+00  0.25947147807E+00 -0.93544297166E+01  0.95587127577E+01  0.17770000000E+01 0. -1.
         15    1    1    2    0    0  0.17652114185E+00 -0.31515630861E+01 -0.48721651333E+02  0.48856120877E+02  0.17770000000E+01 0. -1.
</event>
<event>
 6    1  0.1045352E-002  0.1838602E+03  0.7546771E-02  0.1067377E+00
        -11   -1    0    0    0    0  0.00000000000E+00  0.00000000000E+00  0.18250000000E+03  0.18250000000E+03  0.00000000000E+00 0. -1.
         11   -1    0    0    0    0 -0.00000000000E+00 -0.00000000000E+00 -0.18250000000E+03  0.18250000000E+03  0.00000000000E+00 0.  1.
        -11    1    1    2    0    0 -0.39108228050E+00 -0.24507478396E+01  0.16651947357E+03  0.16653796621E+03  0.00000000000E+00 0. -1.
         11    1    1    2    0    0  0.26090183938E+01 -0.27370298364E+01 -0.18110032086E+03  0.18113979277E+03  0.00000000000E+00 0.  1.
        -15    1    1    2    0    0 -0.15989491930E+00  0.24040211734E+01  0.12609544944E+02  0.12960063152E+02  0.17770000000E+01 0.  1.
         15    1    1    2    0    0 -0.20580411940E+01  0.27837565026E+01  0.19713023455E+01  0.43621778688E+01  0.17770000000E+01 0. -1.
</event>
<event>
 6    1  0.1045352E-002  0.1834841E+03  0.7546771E-02  0.1067674E+00
        -11   -1    0    0    0    0  0.00000000000E+00  0.00000000000E+00  0.18250000000E+03  0.18250000000E+03  0.00000000000E+00 0.  1.
         11   -1    0    0    0    0 -0.00000000000E+00 -0.00000000000E+00 -0.18250000000E+03  0.18250000000E+03  0.00000000000E+00 0.  1.
        -11    1    1    2    0    0  0.43813858816E+01  0.20907857633E+01  0.18145097860E+03  0.18151590995E+03  0.00000000000E+00 0.  1.
         11    1    1    2    0    0 -0.10379643174E+01 -0.26518405471E+01 -0.14887245662E+03  0.14889969096E+03  0.00000000000E+00 0.  1.
        -15    1    1    2    0    0 -0.12630738516E+01 -0.22682424090E+01 -0.19443816728E+01  0.36984629605E+01  0.17770000000E+01 0.  1.
         15    1    1    2    0    0 -0.20803477126E+01  0.28292971927E+01 -0.30634140312E+02  0.30885936134E+02  0.17770000000E+01 0. -1.
</event>
<event>
 6    1  0.1045352E-002  0.2046676E+03  0.7546771E-02  0.1052062E+00
        -11   -1    0    0    0    0  0.00000000000E+00  0.00000000000E+00  0.18250000000E+03  0.18250000000E+03  0.00000000000E+00 0. -1.
         11   -1    0    0    0    0 -0.00000000000E+00 -0.00000000000E+00 -0.18250000000E+03  0.18250000000E+03  0.00000000000E+00 0. -1.
        -11    1    1    2    0    0  0.90207448437E+00 -0.37580894422E+01  0.14896840548E+03  0.14901853175E+03  0.00000000000E+00 0. -1.
         11    1    1    2    0    0 -0.86477091179E+01  0.18410331156E+02 -0.15903696709E+03  0.16033240492E+03  0.00000000000E+00 0. -1.
        -15    1    1    2    0    0 -0.16691353506E+02  0.93882672828E+01  0.91808313918E+01  0.21311645607E+02  0.17770000000E+01 0.  1.
         15    1    1    2    0    0  0.24436988140E+02 -0.24040508997E+02  0.88773022110E+00  0.34337417726E+02  0.17770000000E+01 0. -1.
</event>
<event>
 6    1  0.1045352E-002  0.1830952E+03  0.7546771E-02  0.1067982E+00
        -11   -1    0    0    0    0  0.00000000000E+00  0.00000000000E+00  0.18250000000E+03  0.18250000000E+03  0.00000000000E+00 0. -1.
         11   -1    0    0    0    0 -0.00000000000E+00 -0.00000000000E+00 -0.18250000000E+03  0.18250000000E+03  0.00000000000E+00 0.  1.
        -11    1    1    2    0    0  0.95417562229E-01  0.38252180720E+01  0.18186459772E+03  0.18190484683E+03  0.00000000000E+00 0. -1.
         11    1    1    2    0    0  0.27525667200E+01 -0.21872410829E+00 -0.10582794639E+03  0.10586396318E+03  0.00000000000E+00 0.  1.
        -15    1    1    2    0    0 -0.60995883320E+01 -0.95418586227E+00 -0.64621985088E+02  0.64940543069E+02  0.17770000000E+01 0. -1.
         15    1    1    2    0    0  0.32516040498E+01 -0.26523081014E+01 -0.11414666242E+02  0.12290646914E+02  0.17770000000E+01 0.  1.
</event>
<event>
 6    1  0.1045352E-002  0.1866272E+03  0.7546771E-02  0.1065216E+00
        -11   -1    0    0    0    0  0.00000000000E+00  0.00000000000E+00  0.18250000000E+03  0.18250000000E+03  0.00000000000E+00 0. -1.
         11   -1    0    0    0    0 -0.00000000000E+00 -0.00000000000E+00 -0.18250000000E+03  0.18250000000E+03  0.00000000000E+00 0.  1.
        -11    1    1    2    0    0  0.22953725118E+01 -0.71721109032E+01  0.15889411799E+03  0.15907246349E+03  0.00000000000E+00 0. -1.
         11    1    1    2    0    0 -0.36207093090E+01  0.58457340470E+01 -0.17824024597E+03  0.17837283265E+03  0.00000000000E+00 0.  1.
        -15    1    1    2    0    0  0.17209581467E+01  0.10233807619E+02  0.10522060817E+02  0.14885026306E+02  0.17770000000E+01 0. -1.
         15    1    1    2    0    0 -0.39562134954E+00 -0.89074307623E+01  0.88240671616E+01  0.12669677554E+02  0.17770000000E+01 0. -1.
</event>
<event>
 6    1  0.1045352E-002  0.1831223E+03  0.7546771E-02  0.1067961E+00
        -11   -1    0    0    0    0  0.00000000000E+00  0.00000000000E+00  0.18250000000E+03  0.18250000000E+03  0.00000000000E+00 0.  1.
         11   -1    0    0    0    0 -0.00000000000E+00 -0.00000000000E+00 -0.18250000000E+03  0.18250000000E+03  0.00000000000E+00 0. -1.
        -11    1    1    2    0    0 -0.42296779522E+00 -0.36320186378E+01  0.18184089945E+03  0.18187765991E+03  0.00000000000E+00 0.  1.
         11    1    1    2    0    0 -0.20640769557E+00  0.17532472840E+01 -0.75891401445E+02  0.75911931166E+02  0.00000000000E+00 0. -1.
        -15    1    1    2    0    0  0.42516263287E+01  0.44746473279E+01 -0.17679637851E+02  0.18810266311E+02  0.17770000000E+01 0.  1.
         15    1    1    2    0    0 -0.36222508379E+01 -0.25958759741E+01 -0.88269860155E+02  0.88400142613E+02  0.17770000000E+01 0.  1.
</event>
<event>
 6    1  0.1045352E-002  0.1848007E+03  0.7546771E-02  0.1066638E+00
        -11   -1    0    0    0    0  0.00000000000E+00  0.00000000000E+00  0.18250000000E+03  0.18250000000E+03  0.00000000000E+00 0. -1.
         11   -1    0    0    0    0 -0.00000000000E+00 -0.00000000000E+00 -0.18250000000E+03  0.18250000000E+03  0.00000000000E+00 0. -1.
        -11    1    1    2    0    0 -0.42025818966E+01 -0.55280877638E+00  0.15527861279E+03  0.15533645703E+03  0.00000000000E+00 0. -1.
         11    1    1    2    0    0  0.83340340782E+01 -0.87711564709E-01 -0.18000649482E+03  0.18019933961E+03  0.00000000000E+00 0. -1.
        -15    1    1    2    0    0  0.23162220768E+01 -0.36990115983E+01  0.19182252724E+02  0.19752572493E+02  0.17770000000E+01 0. -1.
         15    1    1    2    0    0 -0.64476742584E+01  0.43395319394E+01  0.55456293062E+01  0.97116308722E+01  0.17770000000E+01 0.  1.
</event>
<event>
 6    1  0.1045352E-002  0.1918293E+03  0.7546771E-02  0.1061262E+00
        -11   -1    0    0    0    0  0.00000000000E+00  0.00000000000E+00  0.18250000000E+03  0.18250000000E+03  0.00000000000E+00 0.  1.
         11   -1    0    0    0    0 -0.00000000000E+00 -0.00000000000E+00 -0.18250000000E+03  0.18250000000E+03  0.00000000000E+00 0.  1.
        -11    1    1    2    0    0  0.22823107645E+01  0.37822422359E+01  0.87411161543E+02  0.87522713972E+02  0.00000000000E+00 0.  1.
         11    1    1    2    0    0 -0.31127354139E-01  0.10432174591E+02 -0.17285622063E+03  0.17317073727E+03  0.00000000000E+00 0.  1.
        -15    1    1    2    0    0 -0.24251909446E+02 -0.22838765114E+02  0.64775225439E+02  0.72861182144E+02  0.17770000000E+01 0.  1.
         15    1    1    2    0    0  0.22000726036E+02  0.86243482868E+01  0.20669833648E+02  0.31445366615E+02  0.17770000000E+01 0. -1.
</event>
<event>
 6    1  0.1045352E-002  0.1829448E+03  0.7546771E-02  0.1068101E+00
        -11   -1    0    0    0    0  0.00000000000E+00  0.00000000000E+00  0.18250000000E+03  0.18250000000E+03  0.00000000000E+00 0. -1.
         11   -1    0    0    0    0 -0.00000000000E+00 -0.00000000000E+00 -0.18250000000E+03  0.18250000000E+03  0.00000000000E+00 0.  1.
        -11    1    1    2    0    0  0.30973188994E+01 -0.15580282173E+01  0.18202215956E+03  0.18205517682E+03  0.00000000000E+00 0. -1.
         11    1    1    2    0    0 -0.12995333158E+00 -0.24682062249E+01 -0.15875750281E+03  0.15877674146E+03  0.00000000000E+00 0.  1.
        -15    1    1    2    0    0 -0.21965705002E+01  0.18541568647E+01 -0.15773716977E+02  0.16131667487E+02  0.17770000000E+01 0. -1.
         15    1    1    2    0    0 -0.77079506763E+00  0.21720775775E+01 -0.74909397709E+01  0.80364142308E+01  0.17770000000E+01 0.  1.
</event>
<event>
 6    1  0.1045352E-002  0.1852710E+03  0.7546771E-02  0.1066270E+00
        -11   -1    0    0    0    0  0.00000000000E+00  0.00000000000E+00  0.18250000000E+03  0.18250000000E+03  0.00000000000E+00 0. -1.
         11   -1    0    0    0    0 -0.00000000000E+00 -0.00000000000E+00 -0.18250000000E+03  0.18250000000E+03  0.00000000000E+00 0.  1.
        -11    1    1    2    0    0  0.10751266637E+01  0.12645761208E+01  0.75525906241E+02  0.75544143146E+02  0.00000000000E+00 0. -1.
         11    1    1    2    0    0  0.55645582003E+01  0.17695020820E+01 -0.17963413929E+03  0.17972901670E+03  0.00000000000E+00 0.  1.
        -15    1    1    2    0    0 -0.72220739985E+00 -0.10179038138E+02  0.97848143968E+02  0.98394874907E+02  0.17770000000E+01 0. -1.
         15    1    1    2    0    0 -0.59174774641E+01  0.71449599350E+01  0.62600890831E+01  0.11331965246E+02  0.17770000000E+01 0.  1.
</event>
<event>
 6    1  0.1045352E-002  0.1848885E+03  0.7546771E-02  0.1066569E+00
        -11   -1    0    0    0    0  0.00000000000E+00  0.00000000000E+00  0.18250000000E+03  0.18250000000E+03  0.00000000000E+00 0.  1.
         11   -1    0    0    0    0 -0.00000000000E+00 -0.00000000000E+00 -0.18250000000E+03  0.18250000000E+03  0.00000000000E+00 0.  1.
        -11    1    1    2    0    0  0.64070641679E+01 -0.53700967677E+01  0.15603094791E+02  0.17701552971E+02  0.00000000000E+00 0.  1.
         11    1    1    2    0    0  0.37048177174E+01  0.37873128333E+01 -0.18003358500E+03  0.18011152417E+03  0.00000000000E+00 0.  1.
        -15    1    1    2    0    0 -0.84219903029E+01  0.38715115280E+01  0.16340779109E+03  0.16368012231E+03  0.17770000000E+01 0.  1.
         15    1    1    2    0    0 -0.16898915824E+01 -0.22887275936E+01  0.10226991200E+01  0.35068005429E+01  0.17770000000E+01 0. -1.
</event>
<event>
 6    1  0.1045352E-002  0.1836887E+03  0.7546771E-02  0.1067512E+00
        -11   -1    0    0    0    0  0.00000000000E+00  0.00000000000E+00  0.18250000000E+03  0.18250000000E+03  0.00000000000E+00 0. -1.
         11   -1    0    0    0    0 -0.00000000000E+00 -0.00000000000E+00 -0.18250000000E+03  0.18250000000E+03  0.00000000000E+00 0. -1.
        -11    1    1    2    0    0 -0.28416187196E+01 -0.57364335324E+01  0.18119820706E+03  0.18131125643E+03  0.00000000000E+00 0. -1.
         11    1    1    2    0    0 -0.18367491693E+01  0.94213638050E+00 -0.14519420188E+03  0.14520887551E+03  0.00000000000E+00 0. -1.
        -15    1    1    2    0    0  0.70248633890E+01  0.30140629141E+01 -0.12742351122E+02  0.14965243800E+02  0.17770000000E+01 0.  1.
         15    1    1    2    0    0 -0.23464955001E+01  0.17802342378E+01 -0.23261654061E+02  0.23514624252E+02  0.17770000000E+01 0.  1.
</event>
<event>
 6    1  0.1045352E-002  0.1866628E+03  0.7546771E-02  0.1065189E+00
        -11   -1    0    0    0    0  0.00000000000E+00  0.00000000000E+00  0.18250000000E+03  0.18250000000E+03  0.00000000000E+00 0. -1.
         11   -1    0    0    0    0 -0.00000000000E+00 -0.00000000000E+00 -0.18250000000E+03  0.18250000000E+03  0.00000000000E+00 0.  1.
        -11    1    1    2    0    0 -0.14486050861E+01 -0.28971015781E+01  0.17830783116E+03  0.17833724879E+03  0.00000000000E+00 0. -1.
         11    1    1    2    0    0  0.30800675596E+01  0.12569718524E+01 -0.16801375731E+03  0.16804668827E+03  0.00000000000E+00 0.  1.
        -15    1    1    2    0    0  0.36245240822E+01  0.54920607804E+01 -0.96731049512E+01  0.11833283350E+02  0.17770000000E+01 0.  1.
         15    1    1    2    0    0 -0.52559865557E+01 -0.38519310547E+01 -0.62096890179E+00  0.67827795851E+01  0.17770000000E+01 0. -1.
</event>
<event>
 6    1  0.1045352E-002  0.1828050E+03  0.7546771E-02  0.1068212E+00
        -11   -1    0    0    0    0  0.00000000000E+00  0.00000000000E+00  0.18250000000E+03  0.18250000000E+03  0.00000000000E+00 0. -1.
         11   -1    0    0    0    0 -0.00000000000E+00 -0.00000000000E+00 -0.18250000000E+03  0.18250000000E+03  0.00000000000E+00 0.  1.
        -11    1    1    2    0    0  0.17426426900E+01 -0.28369305005E+01  0.18216458005E+03  0.18219500323E+03  0.00000000000E+00 0. -1.
         11    1    1    2    0    0 -0.22942835648E+01  0.16019985967E+01 -0.14816341632E+03  0.14818983795E+03  0.00000000000E+00 0.  1.
        -15    1    1    2    0    0  0.10440129633E+01 -0.88112882483E+00 -0.26686736350E+02  0.26780701580E+02  0.17770000000E+01 0.  1.
         15    1    1    2    0    0 -0.49237208850E+00  0.21160607287E+01 -0.73144273767E+01  0.78344572326E+01  0.17770000000E+01 0. -1.
</event>
<event>
 6    1  0.1045352E-002  0.1848273E+03  0.7546771E-02  0.1066617E+00
        -11   -1    0    0    0    0  0.00000000000E+00  0.00000000000E+00  0.18250000000E+03  0.18250000000E+03  0.00000000000E+00 0.  1.
         11   -1    0    0    0    0 -0.00000000000E+00 -0.00000000000E+00 -0.18250000000E+03  0.18250000000E+03  0.00000000000E+00 0.  1.
        -11    1    1    2    0    0  0.22562760271E+01 -0.32028078122E+01  0.17051178306E+03  0.17055678504E+03  0.00000000000E+00 0.  1.
         11    1    1    2    0    0 -0.25994650487E+01 -0.11855877386E+01 -0.18015000651E+03  0.18017266076E+03  0.00000000000E+00 0.  1.
        -15    1    1    2    0    0  0.17345671340E+01  0.58748564353E+01  0.96509061940E+01  0.11568075927E+02  0.17770000000E+01 0. -1.
         15    1    1    2    0    0 -0.13913781124E+01 -0.14864608845E+01 -0.12682739425E-01  0.27024782820E+01  0.17770000000E+01 0. -1.
</event>
<event>
 6    1  0.1045352E-002  0.1839795E+03  0.7546771E-02  0.1067283E+00
        -11   -1    0    0    0    0  0.00000000000E+00  0.00000000000E+00  0.18250000000E+03  0.18250000000E+03  0.00000000000E+00 0. -1.
         11   -1    0    0    0    0 -0.00000000000E+00 -0.00000000000E+00 -0.18250000000E+03  0.18250000000E+03  0.00000000000E+00 0.  1.
        -11    1    1    2    0    0  0.29407549445E+01  0.37315166236E+01  0.18095809705E+03  0.18102045504E+03  0.00000000000E+00 0. -1.
         11    1    1    2    0    0  0.23649324629E+00  0.22806787189E+01 -0.66377056551E+02  0.66416647468E+02  0.00000000000E+00 0.  1.
        -15    1    1    2    0    0 -0.11528684564E+02 -0.52302707825E+01 -0.30847274573E+02  0.33391291946E+02  0.17770000000E+01 0.  1.
         15    1    1    2    0    0  0.83514363728E+01 -0.78192456001E+00 -0.83733765923E+02  0.84171605546E+02  0.17770000000E+01 0.  1.
</event>
<event>
 6    1  0.1045352E-002  0.1856494E+03  0.7546771E-02  0.1065975E+00
        -11   -1    0    0    0    0  0.00000000000E+00  0.00000000000E+00  0.18250000000E+03  0.18250000000E+03  0.00000000000E+00 0.  1.
         11   -1    0    0    0    0 -0.00000000000E+00 -0.00000000000E+00 -0.18250000000E+03  0.18250000000E+03  0.00000000000E+00 0. -1.
        -11    1    1    2    0    0  0.15281880743E+02  0.12209598854E+02  0.17828080437E+03  0.17935064926E+03  0.00000000000E+00 0.  1.
         11    1    1    2    0    0 -0.19235990827E+01 -0.43370377344E+01 -0.12800771218E+03  0.12809560691E+03  0.00000000000E+00 0. -1.
        -15    1    1    2    0    0 -0.11717778509E+02 -0.12856618157E+01 -0.72298220056E+01  0.13942285133E+02  0.17770000000E+01 0.  1.
         15    1    1    2    0    0 -0.16405031512E+01 -0.65868993040E+01 -0.43043270181E+02  0.43611458699E+02  0.17770000000E+01 0. -1.
</event>
<event>
 6    1  0.1045352E-002  0.1866922E+03  0.7546771E-02  0.1065166E+00
        -11   -1    0    0    0    0  0.00000000000E+00  0.00000000000E+00  0.18250000000E+03  0.18250000000E+03  0.00000000000E+00 0.  1.
         11   -1    0    0    0    0 -0.00000000000E+00 -0.00000000000E+00 -0.18250000000E+03  0.18250000000E+03  0.00000000000E+00 0. -1.
        -11    1    1    2    0    0 -0.10990976444E+01  0.21003107699E+01  0.16286586808E+03  0.16288311855E+03  0.00000000000E+00 0.  1.
         11    1    1    2    0    0 -0.35810407848E+01 -0.52928613800E+01 -0.17819322809E+03  0.17830778102E+03  0.00000000000E+00 0. -1.
        -15    1    1    2    0    0  0.71049111198E-01  0.22126248549E+01 -0.33925867278E+01  0.44235879589E+01  0.17770000000E+01 0.  1.
         15    1    1    2    0    0  0.46090893180E+01  0.97992575520E+00  0.18719946740E+02  0.19385512471E+02  0.17770000000E+01 0.  1.
</event>
<event>
 6    1  0.1045352E-002  0.1840548E+03  0.7546771E-02  0.1067224E+00
        -11   -1    0    0    0    0  0.00000000000E+00  0.00000000000E+00  0.18250000000E+03  0.18250000000E+03  0.00000000000E+00 0. -1.
         11   -1    0    0    0    0 -0.00000000000E+00 -0.00000000000E+00 -0.18250000000E+03  0.18250000000E+03  0.00000000000E+00 0. -1.
        -11    1    1    2    0    0  0.46545846992E+01  0.10487248142E+01  0.16025276050E+03  0.16032377313E+03  0.00000000000E+00 0. -1.
         11    1    1    2    0    0  0.21014843243E+01 -0.26905988534E+01 -0.18091299473E+03  0.18094520502E+03  0.00000000000E+00 0. -1.
        -15    1    1    2    0    0 -0.53923743927E+01  0.43971072192E+01  0.88417678889E+01  0.11390647123E+02  0.17770000000E+01 0. -1.
         15    1    1    2    0    0 -0.13636946308E+01 -0.27552331800E+01  0.11818466339E+02  0.12340374732E+02  0.17770000000E+01 0.  1.
</event>
<event>
 6    1  0.1045352E-002  0.1917532E+03  0.7546771E-02  0.1061319E+00
        -11   -1    0    0    0    0  0.00000000000E+00  0.00000000000E+00  0.18250000000E+03  0.18250000000E+03  0.00000000000E+00 0. -1.
         11   -1    0    0    0    0 -0.00000000000E+00 -0.00000000000E+00 -0.18250000000E+03  0.18250000000E+03  0.00000000000E+00 0.  1.
        -11    1    1    2    0    0 -0.39196428825E-01 -0.32793735182E+01  0.14803131012E+03  0.14806763523E+03  0.00000000000E+00 0. -1.
         11    1    1    2    0    0 -0.20518114559E+01 -0.25880058095E+01 -0.17321529595E+03  0.17324677906E+03  0.00000000000E+00 0.  1.
        -15    1    1    2    0    0  0.25588552769E+01  0.47369912222E+01  0.34071483932E+02  0.34539985125E+02  0.17770000000E+01 0.  1.
         15    1    1    2    0    0 -0.46784739221E+00  0.11303881056E+01 -0.88874981053E+01  0.91456005830E+01  0.17770000000E+01 0.  1.
</event>
<event>
 6    1  0.1045352E-002  0.1826923E+03  0.7546771E-02  0.1068302E+00
        -11   -1    0    0    0    0  0.00000000000E+00  0.00000000000E+00  0.18250000000E+03  0.18250000000E+03  0.00000000000E+00 0.  1.
         11   -1    0    0    0    0 -0.00000000000E+00 -0.00000000000E+00 -0.18250000000E+03  0.18250000000E+03  0.00000000000E+00 0.  1.
        -11    1    1    2    0    0  0.22348645013E+01 -0.87115163834E-01  0.13864793977E+03  0.13866597784E+03  0.00000000000E+00 0.  1.
         11    1    1    2    0    0 -0.15031568927E+01 -0.36225321307E+01 -0.18226550968E+03  0.18230770208E+03  0.00000000000E+00 0.  1.
        -15    1    1    2    0    0  0.30375502225E+00  0.26999406856E+01  0.33275792637E+02  0.33433786077E+02  0.17770000000E+01 0. -1.
         15    1    1    2    0    0 -0.10354626308E+01  0.10097066089E+01  0.10341777276E+02  0.10592533999E+02  0.17770000000E+01 0.  1.
</event>
<event>
 6    1  0.1045352E-002  0.1867692E+03  0.7546771E-02  0.1065106E+00
        -11   -1    0    0    0    0  0.00000000000E+00  0.00000000000E+00  0.18250000000E+03  0.18250000000E+03  0.00000000000E+00 0. -1.
         11   -1    0    0    0    0 -0.00000000000E+00 -0.00000000000E+00 -0.18250000000E+03  0.18250000000E+03  0.00000000000E+00 0.  1.
        -11    1    1    2    0    0  0.19959459139E+01  0.19050516684E+01  0.15984959885E+03  0.15987341015E+03  0.00000000000E+00 0. -1.
         11    1    1    2    0    0 -0.62469886584E+01 -0.55866621862E+01 -0.17803366251E+03  0.17823080724E+03  0.00000000000E+00 0.  1.
        -15    1    1    2    0    0 -0.18818790039E+01 -0.27260693368E+00  0.19147732401E+02  0.19323797977E+02  0.17770000000E+01 0.  1.
         15    1    1    2    0    0  0.61329217483E+01  0.39542174514E+01 -0.96366873948E+00  0.75719846318E+01  0.17770000000E+01 0. -1.
</event>
<event>
 6    1  0.1045352E-002  0.1839556E+03  0.7546771E-02  0.1067302E+00
        -11   -1    0    0    0    0  0.00000000000E+00  0.00000000000E+00  0.18250000000E+03  0.18250000000E+03  0.00000000000E+00 0.  1.
         11   -1    0    0    0    0 -0.00000000000E+00 -0.00000000000E+00 -0.18250000000E+03  0.18250000000E+03  0.00000000000E+00 0.  1.
        -11    1    1    2    0    0  0.98136453919E+01 -0.29579037627E+01  0.18075404449E+03  0.18104441839E+03  0.00000000000E+00 0.  1.
         11    1    1    2    0    0  0.21818909119E+01 -0.24346516630E+01 -0.98229527559E+02  0.98283916594E+02  0.00000000000E+00 0.  1.
        -15    1    1    2    0    0 -0.50669562432E+01  0.18862592534E+01 -0.73144165056E+02  0.73365241295E+02  0.17770000000E+01 0. -1.
         15    1    1    2    0    0 -0.69285800606E+01  0.35062961723E+01 -0.93803518746E+01  0.12306423721E+02  0.17770000000E+01 0.  1.
</event>
<event>
 6    1  0.1045352E-002  0.1836673E+03  0.7546771E-02  0.1067529E+00
        -11   -1    0    0    0    0  0.00000000000E+00  0.00000000000E+00  0.18250000000E+03  0.18250000000E+03  0.00000000000E+00 0. -1.
         11   -1    0    0    0    0 -0.00000000000E+00 -0.00000000000E+00 -0.18250000000E+03  0.18250000000E+03  0.00000000000E+00 0. -1.
        -11    1    1    2    0    0  0.47614735107E+00 -0.21651744866E+01  0.14760614831E+03  0.14762279538E+03  0.00000000000E+00 0. -1.
         11    1    1    2    0    0 -0.56693542147E+01 -0.27027452458E+01 -0.18122388487E+03  0.18133268557E+03  0.00000000000E+00 0. -1.
        -15    1    1    2    0    0 -0.30694587897E+00  0.80534088643E+00  0.24153507683E+02  0.24234117523E+02  0.17770000000E+01 0.  1.
         15    1    1    2    0    0  0.55001527426E+01  0.40625788459E+01  0.94642288771E+01  0.11810401530E+02  0.17770000000E+01 0.  1.
</event>
<event>
 6    1  0.1045352E-002  0.1761871E+03  0.7546771E-02  0.1073594E+00
        -11   -1    0    0    0    0  0.00000000000E+00  0.00000000000E+00  0.18250000000E+03  0.18250000000E+03  0.00000000000E+00 0. -1.
         11   -1    0    0    0    0 -0.00000000000E+00 -0.00000000000E+00 -0.18250000000E+03  0.18250000000E+03  0.00000000000E+00 0. -1.
        -11    1    1    2    0    0  0.34693693473E+01  0.13887697493E+01  0.17628610714E+03  0.17632571218E+03  0.00000000000E+00 0. -1.
         11    1    1    2    0    0 -0.14168044354E+01 -0.29521578130E+01 -0.17602752682E+03  0.17605798127E+03  0.00000000000E+00 0. -1.
        -15    1    1    2    0    0 -0.32300107515E+01 -0.46247515215E+01  0.85965012984E+00  0.59764557587E+01  0.17770000000E+01 0.  1.
         15    1    1    2    0    0  0.11774458395E+01  0.61881395852E+01 -0.11182304535E+01  0.66398507948E+01  0.17770000000E+01 0.  1.
</event>
<event>
 6    1  0.1045352E-002  0.1840778E+03  0.7546771E-02  0.1067206E+00
        -11   -1    0    0    0    0  0.00000000000E+00  0.00000000000E+00  0.18250000000E+03  0.18250000000E+03  0.00000000000E+00 0.  1.
         11   -1    0    0    0    0 -0.00000000000E+00 -0.00000000000E+00 -0.18250000000E+03  0.18250000000E+03  0.00000000000E+00 0. -1.
        -11    1    1    2    0    0 -0.26509315919E+00  0.20965299362E+01  0.14832852776E+03  0.14834358044E+03  0.00000000000E+00 0.  1.
         11    1    1    2    0    0  0.98861131948E+00 -0.10103466590E+02 -0.18063717737E+03  0.18092221322E+03  0.00000000000E+00 0. -1.
        -15    1    1    2    0    0 -0.33554173168E+01 -0.16712315237E+01  0.15804776410E+02  0.16340150751E+02  0.17770000000E+01 0. -1.
         15    1    1    2    0    0  0.26318991565E+01  0.96781681775E+01  0.16503873199E+02  0.19394055584E+02  0.17770000000E+01 0.  1.
</event>
<event>
 6    1  0.1045352E-002  0.1942088E+03  0.7546771E-02  0.1059499E+00
        -11   -1    0    0    0    0  0.00000000000E+00  0.00000000000E+00  0.18250000000E+03  0.18250000000E+03  0.00000000000E+00 0. -1.
         11   -1    0    0    0    0 -0.00000000000E+00 -0.00000000000E+00 -0.18250000000E+03  0.18250000000E+03  0.00000000000E+00 0.  1.
        -11    1    1    2    0    0  0.19189836813E+01  0.12658613857E+02  0.14859761354E+03  0.14914816041E+03  0.00000000000E+00 0. -1.
         11    1    1    2    0    0  0.72043448560E+01  0.51215235877E+01 -0.17056229140E+03  0.17079118196E+03  0.00000000000E+00 0.  1.
        -15    1    1    2    0    0  0.39249788075E+01 -0.24241668537E+02  0.12607911561E+02  0.27661907292E+02  0.17770000000E+01 0. -1.
         15    1    1    2    0    0 -0.13048307345E+02  0.64615310926E+01  0.93567662976E+01  0.17398750334E+02  0.17770000000E+01 0.  1.
</event>
<event>
 6    1  0.1045352E-002  0.1851224E+03  0.7546771E-02  0.1066386E+00
        -11   -1    0    0    0    0  0.00000000000E+00  0.00000000000E+00  0.18250000000E+03  0.18250000000E+03  0.00000000000E+00 0.  1.
         11   -1    0    0    0    0 -0.00000000000E+00 -0.00000000000E+00 -0.18250000000E+03  0.18250000000E+03  0.00000000000E+00 0.  1.
        -11    1    1    2    0    0 -0.77416345145E+00  0.56806183235E+01  0.17978621940E+03  0.17987760683E+03  0.00000000000E+00 0.  1.
         11    1    1    2    0    0 -0.11574133138E+02  0.29243765861E+01 -0.44432310425E+02  0.46008072618E+02  0.00000000000E+00 0.  1.
        -15    1    1    2    0    0  0.15639676777E+02 -0.62065286402E+01 -0.13302669909E+03  0.13409840002E+03  0.17770000000E+01 0.  1.
         15    1    1    2    0    0 -0.32913801880E+01 -0.23984662694E+01 -0.23272098837E+01  0.50159205367E+01  0.17770000000E+01 0. -1.
</event>
<event>
 6    1  0.1045352E-002  0.1913828E+03  0.7546771E-02  0.1061596E+00
        -11   -1    0    0    0    0  0.00000000000E+00  0.00000000000E+00  0.18250000000E+03  0.18250000000E+03  0.00000000000E+00 0. -1.
         11   -1    0    0    0    0 -0.00000000000E+00 -0.00000000000E+00 -0.18250000000E+03  0.18250000000E+03  0.00000000000E+00 0.  1.
        -11    1    1    2    0    0  0.52086142332E+00 -0.38868816017E+01  0.14194230709E+03  0.14199647069E+03  0.00000000000E+00 0. -1.
         11    1    1    2    0    0  0.37505828627E+01 -0.31013361526E+01 -0.17354898421E+03  0.17361720848E+03  0.00000000000E+00 0.  1.
        -15    1    1    2    0    0 -0.24776039323E+01  0.17281689147E+02  0.34231491449E+02  0.38467493249E+02  0.17770000000E+01 0.  1.
         15    1    1    2    0    0 -0.17938403536E+01 -0.10293471393E+02 -0.26248143310E+01  0.10918827584E+02  0.17770000000E+01 0. -1.
</event>
<event>
 6    1  0.1045352E-002  0.1671244E+03  0.7546771E-02  0.1081398E+00
        -11   -1    0    0    0    0  0.00000000000E+00  0.00000000000E+00  0.18250000000E+03  0.18250000000E+03  0.00000000000E+00 0.  1.
         11   -1    0    0    0    0 -0.00000000000E+00 -0.00000000000E+00 -0.18250000000E+03  0.18250000000E+03  0.00000000000E+00 0. -1.
        -11    1    1    2    0    0 -0.28461080338E+01  0.78376870332E+00  0.16720063514E+03  0.16722669349E+03  0.00000000000E+00 0.  1.
         11    1    1    2    0    0 -0.38683750897E+01 -0.89681523084E+01 -0.16690429781E+03  0.16718982239E+03  0.00000000000E+00 0. -1.
        -15    1    1    2    0    0  0.69579227297E+01  0.16065440815E+02 -0.80787463388E+01  0.19363237041E+02  0.17770000000E+01 0. -1.
         15    1    1    2    0    0 -0.24343960614E+00 -0.78810572096E+01  0.77824090146E+01  0.11220247085E+02  0.17770000000E+01 0.  1.
</event>
<event>
 6    1  0.1045352E-002  0.1939077E+03  0.7546771E-02  0.1059720E+00
        -11   -1    0    0    0    0  0.00000000000E+00  0.00000000000E+00  0.18250000000E+03  0.18250000000E+03  0.00000000000E+00 0.  1.
         11   -1    0    0    0    0 -0.00000000000E+00 -0.00000000000E+00 -0.18250000000E+03  0.18250000000E+03  0.00000000000E+00 0. -1.
        -11    1    1    2    0    0  0.17368071534E+01 -0.13766198170E+02  0.15190058020E+03  0.15253298324E+03  0.00000000000E+00 0.  1.
         11    1    1    2    0    0  0.10080122214E+01  0.11684847334E+02 -0.17068985448E+03  0.17109230891E+03  0.00000000000E+00 0. -1.
        -15    1    1    2    0    0 -0.99301649629E+01  0.14074069313E+02  0.20881623394E+02  0.27127246963E+02  0.17770000000E+01 0. -1.
         15    1    1    2    0    0  0.71853455881E+01 -0.11992718477E+02 -0.20923491127E+01  0.14247460879E+02  0.17770000000E+01 0.  1.
</event>
<event>
 6    1  0.1045352E-002  0.1830808E+03  0.7546771E-02  0.1067993E+00
        -11   -1    0    0    0    0  0.00000000000E+00  0.00000000000E+00  0.18250000000E+03  0.18250000000E+03  0.00000000000E+00 0. -1.
         11   -1    0    0    0    0 -0.00000000000E+00 -0.00000000000E+00 -0.18250000000E+03  0.18250000000E+03  0.00000000000E+00 0. -1.
        -11    1    1    2    0    0  0.46545452688E+00 -0.21891059118E+00  0.20672705608E+02  0.20679103629E+02  0.00000000000E+00 0. -1.
         11    1    1    2    0    0  0.18479134527E+01 -0.17974252660E+01 -0.18190097102E+03  0.18191923697E+03  0.00000000000E+00 0. -1.
        -15    1    1    2    0    0 -0.34478471339E+01  0.88161975276E+00  0.62727782882E+01  0.74276766017E+01  0.17770000000E+01 0.  1.
         15    1    1    2    0    0  0.11344791543E+01  0.11347161044E+01  0.15495548713E+03  0.15497398280E+03  0.17770000000E+01 0. -1.
</event>
<event>
 6    1  0.1045352E-002  0.1832451E+03  0.7546771E-02  0.1067863E+00
        -11   -1    0    0    0    0  0.00000000000E+00  0.00000000000E+00  0.18250000000E+03  0.18250000000E+03  0.00000000000E+00 0.  1.
         11   -1    0    0    0    0 -0.00000000000E+00 -0.00000000000E+00 -0.18250000000E+03  0.18250000000E+03  0.00000000000E+00 0. -1.
        -11    1    1    2    0    0 -0.12798710203E+00  0.72338671104E+01  0.82617176223E+02  0.82933364945E+02  0.00000000000E+00 0.  1.
         11    1    1    2    0    0 -0.47539151321E+01 -0.16137118749E+01 -0.18168553300E+03  0.18175488075E+03  0.00000000000E+00 0. -1.
        -15    1    1    2    0    0  0.50711399444E+01  0.11056170971E+01  0.15281760185E+02  0.16236649065E+02  0.17770000000E+01 0.  1.
         15    1    1    2    0    0 -0.18923771029E+00 -0.67257723325E+01  0.83786596590E+02  0.84075105242E+02  0.17770000000E+01 0.  1.
</event>
<event>
 6    1  0.1045352E-002  0.1841447E+03  0.7546771E-02  0.1067153E+00
        -11   -1    0    0    0    0  0.00000000000E+00  0.00000000000E+00  0.18250000000E+03  0.18250000000E+03  0.00000000000E+00 0. -1.
         11   -1    0    0    0    0 -0.00000000000E+00 -0.00000000000E+00 -0.18250000000E+03  0.18250000000E+03  0.00000000000E+00 0.  1.
        -11    1    1    2    0    0 -0.21282515950E+01 -0.11947273269E+01  0.14288625290E+03  0.14290709603E+03  0.00000000000E+00 0. -1.
         11    1    1    2    0    0 -0.65373201122E+00 -0.33146803793E+01 -0.18082373221E+03  0.18085529188E+03  0.00000000000E+00 0.  1.
        -15    1    1    2    0    0  0.27392772974E+01  0.13986283495E+01  0.45137481842E+00  0.35806800470E+01  0.17770000000E+01 0. -1.
         15    1    1    2    0    0  0.42706308866E-01  0.31107793567E+01  0.37486104491E+02  0.37656932044E+02  0.17770000000E+01 0.  1.
</event>
<event>
 6    1  0.1045352E-002  0.1841391E+03  0.7546771E-02  0.1067158E+00
        -11   -1    0    0    0    0  0.00000000000E+00  0.00000000000E+00  0.18250000000E+03  0.18250000000E+03  0.00000000000E+00 0.  1.
         11   -1    0    0    0    0 -0.00000000000E+00 -0.00000000000E+00 -0.18250000000E+03  0.18250000000E+03  0.00000000000E+00 0. -1.
        -11    1    1    2    0    0  0.21755020214E+01 -0.13876795660E+01  0.18084252093E+03  0.18086092955E+03  0.00000000000E+00 0.  1.
         11    1    1    2    0    0 -0.31600746114E+00  0.23783982544E+01 -0.17797711786E+03  0.17799328954E+03  0.00000000000E+00 0. -1.
        -15    1    1    2    0    0 -0.18721656270E+01  0.91093963682E+00 -0.20450271847E+01  0.34168231360E+01  0.17770000000E+01 0.  1.
         15    1    1    2    0    0  0.12671066726E-01 -0.19016583251E+01 -0.82037588358E+00  0.27289577739E+01  0.17770000000E+01 0. -1.
</event>
<event>
 6    1  0.1045352E-002  0.1832367E+03  0.7546771E-02  0.1067870E+00
        -11   -1    0    0    0    0  0.00000000000E+00  0.00000000000E+00  0.18250000000E+03  0.18250000000E+03  0.00000000000E+00 0. -1.
         11   -1    0    0    0    0 -0.00000000000E+00 -0.00000000000E+00 -0.18250000000E+03  0.18250000000E+03  0.00000000000E+00 0. -1.
        -11    1    1    2    0    0 -0.24477546732E+01 -0.36630030924E+00  0.16019234770E+03  0.16021146632E+03  0.00000000000E+00 0. -1.
         11    1    1    2    0    0 -0.13987070873E+01  0.50631612928E+01 -0.18168740714E+03  0.18176332385E+03  0.00000000000E+00 0. -1.
        -15    1    1    2    0    0  0.31711565633E+01 -0.50669667935E+01  0.17663886460E+02  0.18732351703E+02  0.17770000000E+01 0.  1.
         15    1    1    2    0    0  0.67530519718E+00  0.37010580995E+00  0.38311729807E+01  0.42928581188E+01  0.17770000000E+01 0.  1.
</event>
<event>
 6    1  0.1045352E-002  0.1852619E+03  0.7546771E-02  0.1066277E+00
        -11   -1    0    0    0    0  0.00000000000E+00  0.00000000000E+00  0.18250000000E+03  0.18250000000E+03  0.00000000000E+00 0. -1.
         11   -1    0    0    0    0 -0.00000000000E+00 -0.00000000000E+00 -0.18250000000E+03  0.18250000000E+03  0.00000000000E+00 0. -1.
        -11    1    1    2    0    0  0.18849065198E+01  0.41367558546E+01  0.17968061265E+03  0.17973810999E+03  0.00000000000E+00 0. -1.
         11    1    1    2    0    0  0.27473074173E+01  0.80566429617E-01 -0.17575332492E+03  0.17577481449E+03  0.00000000000E+00 0. -1.
        -15    1    1    2    0    0 -0.52625793986E+01 -0.35575079107E+01 -0.26070300081E+01  0.70925974738E+01  0.17770000000E+01 0. -1.
         15    1    1    2    0    0  0.63036546148E+00 -0.65981437350E+00 -0.13202577210E+01  0.23944780376E+01  0.17770000000E+01 0.  1.
</event>
<event>
 6    1  0.1045352E-002  0.1691772E+03  0.7546771E-02  0.1079584E+00
        -11   -1    0    0    0    0  0.00000000000E+00  0.00000000000E+00  0.18250000000E+03  0.18250000000E+03  0.00000000000E+00 0.  1.
         11   -1    0    0    0    0 -0.00000000000E+00 -0.00000000000E+00 -0.18250000000E+03  0.18250000000E+03  0.00000000000E+00 0.  1.
        -11    1    1    2    0    0  0.60580391372E+01 -0.70995910023E+01  0.16756592431E+03  0.16782563278E+03  0.00000000000E+00 0.  1.
         11    1    1    2    0    0  0.39593154726E+01  0.72831939815E+00 -0.17070415111E+03  0.17075161444E+03  0.00000000000E+00 0.  1.
        -15    1    1    2    0    0 -0.12363036147E+02  0.24051973164E+01 -0.74490547574E+01  0.14740277565E+02  0.17770000000E+01 0.  1.
         15    1    1    2    0    0  0.23456815375E+01  0.39660742878E+01  0.10587281564E+02  0.11682475210E+02  0.17770000000E+01 0. -1.
</event>
<event>
 6    1  0.1045352E-002  0.1733707E+03  0.7546771E-02  0.1075963E+00
        -11   -1    0    0    0    0  0.00000000000E+00  0.00000000000E+00  0.18250000000E+03  0.18250000000E+03  0.00000000000E+00 0. -1.
         11   -1    0    0    0    0 -0.00000000000E+00 -0.00000000000E+00 -0.18250000000E+03  0.18250000000E+03  0.00000000000E+00 0. -1.
        -11    1    1    2    0    0  0.15115902728E+01 -0.24478688771E+01  0.17487739621E+03  0.17490105966E+03  0.00000000000E+00 0. -1.
         11    1    1    2    0    0  0.40341363384E+01 -0.30509109569E+01 -0.17186689162E+03  0.17194130030E+03  0.00000000000E+00 0. -1.
        -15    1    1    2    0    0 -0.14901847806E+01  0.43513615244E+01 -0.92138740375E+01  0.10450272799E+02  0.17770000000E+01 0. -1.
         15    1    1    2    0    0 -0.40555418306E+01  0.11474183096E+01  0.62033694467E+01  0.77073672424E+01  0.17770000000E+01 0. -1.
</event>
<event>
 6    1  0.1045352E-002  0.1842882E+03  0.7546771E-02  0.1067040E+00
        -11   -1    0    0    0    0  0.00000000000E+00  0.00000000000E+00  0.18250000000E+03  0.18250000000E+03  0.00000000000E+00 0. -1.
         11   -1    0    0    0    0 -0.00000000000E+00 -0.00000000000E+00 -0.18250000000E+03  0.18250000000E+03  0.00000000000E+00 0. -1.
        -11    1    1    2    0    0  0.36144184415E+01 -0.97290620700E+00  0.13880939830E+03  0.13885985606E+03  0.00000000000E+00 0. -1.
         11    1    1    2    0    0  0.12504068185E+01 -0.56806415472E+01 -0.18061814638E+03  0.18071178160E+03  0.00000000000E+00 0. -1.
        -15    1    1    2    0    0  0.44550309652E+00  0.49979291461E+01  0.38188699862E+02  0.38557908332E+02  0.17770000000E+01 0. -1.
         15    1    1    2    0    0 -0.53103283565E+01  0.16556186081E+01  0.36200482181E+01  0.68704540120E+01  0.17770000000E+01 0.  1.
</event>
<event>
 6    1  0.1045352E-002  0.1830233E+03  0.7546771E-02  0.1068039E+00
        -11   -1    0    0    0    0  0.00000000000E+00  0.00000000000E+00  0.18250000000E+03  0.18250000000E+03  0.00000000000E+00 0. -1.
         11   -1    0    0    0    0 -0.00000000000E+00 -0.00000000000E+00 -0.18250000000E+03  0.18250000000E+03  0.00000000000E+00 0.  1.
        -11    1    1    2    0    0 -0.13223564191E+00 -0.10989324373E+01  0.81626111501E+02  0.81633615732E+02  0.00000000000E+00 0. -1.
         11    1    1    2    0    0 -0.29598505490E+01  0.26471682358E+01 -0.18193332098E+03  0.18197665097E+03  0.00000000000E+00 0.  1.
        -15    1    1    2    0    0  0.35917977784E+01 -0.19786409895E+01  0.88646028903E+01  0.99274843163E+01  0.17770000000E+01 0. -1.
         15    1    1    2    0    0 -0.49971158746E+00  0.43040519109E+00  0.91442606589E+02  0.91462248983E+02  0.17770000000E+01 0. -1.
</event>
<event>
 6    1  0.1045352E-002  0.1871715E+03  0.7546771E-02  0.1064796E+00
        -11   -1    0    0    0    0  0.00000000000E+00  0.00000000000E+00  0.18250000000E+03  0.18250000000E+03  0.00000000000E+00 0.  1.
         11   -1    0    0    0    0 -0.00000000000E+00 -0.00000000000E+00 -0.18250000000E+03  0.18250000000E+03  0.00000000000E+00 0.  1.
        -11    1    1    2    0    0  0.26258896583E+01 -0.25894998703E+01  0.17779024244E+03  0.17782848791E+03  0.00000000000E+00 0.  1.
         11    1    1    2    0    0 -0.62266978486E+01  0.79942516434E+01 -0.16557857615E+03  0.16588835011E+03  0.00000000000E+00 0.  1.
        -15    1    1    2    0    0  0.41848174769E+01 -0.81588235778E+01 -0.14496823670E+02  0.17245136271E+02  0.17770000000E+01 0.  1.
         15    1    1    2    0    0 -0.58400928665E+00  0.27540718046E+01  0.22851573788E+01  0.40380257055E+01  0.17770000000E+01 0.  1.
</event>
<event>
 6    1  0.1045352E-002  0.1827858E+03  0.7546771E-02  0.1068228E+00
        -11   -1    0    0    0    0  0.00000000000E+00  0.00000000000E+00  0.18250000000E+03  0.18250000000E+03  0.00000000000E+00 0.  1.
         11   -1    0    0    0    0 -0.00000000000E+00 -0.00000000000E+00 -0.18250000000E+03  0.18250000000E+03  0.00000000000E+00 0. -1.
        -11    1    1    2    0    0  0.35737682992E+01 -0.12070533410E+01  0.18217514716E+03  0.18221419550E+03  0.00000000000E+00 0.  1.
         11    1    1    2    0    0  0.24093185453E+01  0.21206744065E+00 -0.11635958484E+03  0.11638471881E+03  0.00000000000E+00 0. -1.
        -15    1    1    2    0    0 -0.46604222060E+00 -0.21962562227E+00 -0.56600092339E+01  0.59547346115E+01  0.17770000000E+01 0. -1.
         15    1    1    2    0    0 -0.55170446240E+01  0.12146115226E+01 -0.60155553089E+02  0.60446351080E+02  0.17770000000E+01 0.  1.
</event>
<event>
 6    1  0.1045352E-002  0.1829840E+03  0.7546771E-02  0.1068070E+00
        -11   -1    0    0    0    0  0.00000000000E+00  0.00000000000E+00  0.18250000000E+03  0.18250000000E+03  0.00000000000E+00 0.  1.
         11   -1    0    0    0    0 -0.00000000000E+00 -0.00000000000E+00 -0.18250000000E+03  0.18250000000E+03  0.00000000000E+00 0. -1.
        -11    1    1    2    0    0  0.23220781471E+01  0.85421313505E+00  0.83837944526E+02  0.83874445866E+02  0.00000000000E+00 0.  1.
         11    1    1    2    0    0 -0.90572089386E+00 -0.50290168880E+01 -0.18194427266E+03  0.18201601494E+03  0.00000000000E+00 0. -1.
        -15    1    1    2    0    0  0.38243342543E+01 -0.28091880500E+01  0.30401604371E+02  0.30820972524E+02  0.17770000000E+01 0.  1.
         15    1    1    2    0    0 -0.52406915075E+01  0.69839918030E+01  0.67704723763E+02  0.68288566670E+02  0.17770000000E+01 0.  1.
</event>
<event>
 6    1  0.1045352E-002  0.1849234E+03  0.7546771E-02  0.1066542E+00
        -11   -1    0    0    0    0  0.00000000000E+00  0.00000000000E+00  0.18250000000E+03  0.18250000000E+03  0.00000000000E+00 0.  1.
         11   -1    0    0    0    0 -0.00000000000E+00 -0.00000000000E+00 -0.18250000000E+03  0.18250000000E+03  0.00000000000E+00 0. -1.
        -11    1    1    2    0    0  0.74589987380E+01  0.21007061235E+00  0.16491581961E+03  0.16508454909E+03  0.00000000000E+00 0.  1.
         11    1    1    2    0    0  0.16034701224E+01  0.50290295903E+01 -0.17999917482E+03  0.18007655370E+03  0.00000000000E+00 0. -1.
        -15    1    1    2    0    0  0.29168769465E+00 -0.14238063567E+01  0.12389879323E+01  0.26086637094E+01  0.17770000000E+01 0. -1.
         15    1    1    2    0    0 -0.93541565551E+01 -0.38152938460E+01  0.13844367281E+02  0.17230233498E+02  0.17770000000E+01 0.  1.
</event>
<event>
 6    1  0.1045352E-002  0.1861155E+03  0.7546771E-02  0.1065613E+00
        -11   -1    0    0    0    0  0.00000000000E+00  0.00000000000E+00  0.18250000000E+03  0.18250000000E+03  0.00000000000E+00 0.  1.
         11   -1    0    0    0    0 -0.00000000000E+00 -0.00000000000E+00 -0.18250000000E+03  0.18250000000E+03  0.00000000000E+00 0. -1.
        -11    1    1    2    0    0 -0.26365788825E+01 -0.55177684944E+00  0.16982192498E+03  0.16984328721E+03  0.00000000000E+00 0.  1.
         11    1    1    2    0    0  0.80222253384E+00 -0.33706942637E+01 -0.17885098367E+03  0.17888454238E+03  0.00000000000E+00 0. -1.
        -15    1    1    2    0    0  0.11500660781E-01  0.13839922895E+01  0.11622856094E+02  0.11839091169E+02  0.17770000000E+01 0. -1.
         15    1    1    2    0    0  0.18228556879E+01  0.25384788237E+01 -0.25937974056E+01  0.44330792434E+01  0.17770000000E+01 0.  1.
</event>
<event>
 6    1  0.1045352E-002  0.1831410E+03  0.7546771E-02  0.1067946E+00
        -11   -1    0    0    0    0  0.00000000000E+00  0.00000000000E+00  0.18250000000E+03  0.18250000000E+03  0.00000000000E+00 0.  1.
         11   -1    0    0    0    0 -0.00000000000E+00 -0.00000000000E+00 -0.18250000000E+03  0.18250000000E+03  0.00000000000E+00 0. -1.
        -11    1    1    2    0    0  0.19272451044E+01  0.34468300016E+01  0.18181616081E+03  0.18185904224E+03  0.00000000000E+00 0.  1.
         11    1    1    2    0    0 -0.33189633719E+01  0.24406571112E+01 -0.16185681029E+03  0.16190923187E+03  0.00000000000E+00 0. -1.
        -15    1    1    2    0    0  0.21335132885E+00 -0.38397083305E+01 -0.10545737956E+02  0.11364822783E+02  0.17770000000E+01 0. -1.
         15    1    1    2    0    0  0.11783669386E+01 -0.20477787823E+01 -0.94136125631E+01  0.98669031145E+01  0.17770000000E+01 0.  1.
</event>
<event>
 6    1  0.1045352E-002  0.1835131E+03  0.7546771E-02  0.1067651E+00
        -11   -1    0    0    0    0  0.00000000000E+00  0.00000000000E+00  0.18250000000E+03  0.18250000000E+03  0.00000000000E+00 0.  1.
         11   -1    0    0    0    0 -0.00000000000E+00 -0.00000000000E+00 -0.18250000000E+03  0.18250000000E+03  0.00000000000E+00 0. -1.
        -11    1    1    2    0    0 -0.12943957385E+01 -0.39527533213E+01  0.18143927234E+03  0.18148693965E+03  0.00000000000E+00 0.  1.
         11    1    1    2    0    0  0.24114752466E+01  0.32759528126E+00 -0.16558461015E+03  0.16560249289E+03  0.00000000000E+00 0. -1.
        -15    1    1    2    0    0 -0.14438097860E+01 -0.14331498440E+01 -0.33660349774E+01  0.43158342927E+01  0.17770000000E+01 0. -1.
         15    1    1    2    0    0  0.32673027788E+00  0.50583078841E+01 -0.12488627205E+02  0.13594733163E+02  0.17770000000E+01 0. -1.
</event>
<event>
 6    1  0.1045352E-002  0.1849204E+03  0.7546771E-02  0.1066544E+00
        -11   -1    0    0    0    0  0.00000000000E+00  0.00000000000E+00  0.18250000000E+03  0.18250000000E+03  0.00000000000E+00 0. -1.
         11   -1    0    0    0    0 -0.00000000000E+00 -0.00000000000E+00 -0.18250000000E+03  0.18250000000E+03  0.00000000000E+00 0. -1.
        -11    1    1    2    0    0  0.58501635448E+01  0.32590973769E+00  0.13979500523E+03  0.13991774054E+03  0.00000000000E+00 0. -1.
         11    1    1    2    0    0 -0.21172900730E+01  0.21417269066E+01 -0.18005442075E+03  0.18007960557E+03  0.00000000000E+00 0. -1.
        -15    1    1    2    0    0  0.48758758545E+01 -0.59943637477E+01  0.30041802051E+02  0.31070470893E+02  0.17770000000E+01 0.  1.
         15    1    1    2    0    0 -0.86087493264E+01  0.35267271035E+01  0.10217613469E+02  0.13932182995E+02  0.17770000000E+01 0. -1.
</event>
<event>
 6    1  0.1045352E-002  0.1843029E+03  0.7546771E-02  0.1067029E+00
        -11   -1    0    0    0    0  0.00000000000E+00  0.00000000000E+00  0.18250000000E+03  0.18250000000E+03  0.00000000000E+00 0. -1.
         11   -1    0    0    0    0 -0.00000000000E+00 -0.00000000000E+00 -0.18250000000E+03  0.18250000000E+03  0.00000000000E+00 0. -1.
        -11    1    1    2    0    0 -0.25206750138E+00 -0.37667064015E+01  0.18065761385E+03  0.18069705326E+03  0.00000000000E+00 0. -1.
         11    1    1    2    0    0 -0.73029261868E+00  0.29210509433E+01 -0.13426961285E+03  0.13430336854E+03  0.00000000000E+00 0. -1.
        -15    1    1    2    0    0 -0.41239747325E+01 -0.50048714549E+00 -0.14907370460E+01  0.47579071993E+01  0.17770000000E+01 0. -1.
         15    1    1    2    0    0  0.51063348526E+01  0.13461426036E+01 -0.44897263950E+02  0.45241670999E+02  0.17770000000E+01 0.  1.
</event>
<event>
 6    1  0.1045352E-002  0.1832330E+03  0.7546771E-02  0.1067873E+00
        -11   -1    0    0    0    0  0.00000000000E+00  0.00000000000E+00  0.18250000000E+03  0.18250000000E+03  0.00000000000E+00 0. -1.
         11   -1    0    0    0    0 -0.00000000000E+00 -0.00000000000E+00 -0.18250000000E+03  0.18250000000E+03  0.00000000000E+00 0. -1.
        -11    1    1    2    0    0 -0.15316332371E+01 -0.19557807343E+01  0.18175004946E+03  0.18176702523E+03  0.00000000000E+00 0. -1.
         11    1    1    2    0    0  0.25225311184E+01  0.67343966839E+00 -0.16771206570E+03  0.16773238705E+03  0.00000000000E+00 0. -1.
        -15    1    1    2    0    0  0.12554687057E+01 -0.11415217164E+01 -0.32200063825E+01  0.40503633915E+01  0.17770000000E+01 0.  1.
         15    1    1    2    0    0 -0.22463665870E+01  0.24238627824E+01 -0.10817977382E+02  0.11450224332E+02  0.17770000000E+01 0. -1.
</event>
<event>
 6    1  0.1045352E-002  0.1829278E+03  0.7546771E-02  0.1068115E+00
        -11   -1    0    0    0    0  0.00000000000E+00  0.00000000000E+00  0.18250000000E+03  0.18250000000E+03  0.00000000000E+00 0.  1.
         11   -1    0    0    0    0 -0.00000000000E+00 -0.00000000000E+00 -0.18250000000E+03  0.18250000000E+03  0.00000000000E+00 0. -1.
        -11    1    1    2    0    0 -0.24509551163E+00 -0.23902630594E+01  0.12415804681E+03  0.12418129496E+03  0.00000000000E+00 0.  1.
         11    1    1    2    0    0 -0.81134407665E+00 -0.56540708192E+01 -0.18198254414E+03  0.18207216472E+03  0.00000000000E+00 0. -1.
        -15    1    1    2    0    0  0.25004023398E+01  0.70228208102E+01  0.38079399718E+02  0.38842894278E+02  0.17770000000E+01 0.  1.
         15    1    1    2    0    0 -0.14439627516E+01  0.10215130683E+01  0.19745097604E+02  0.19903646042E+02  0.17770000000E+01 0. -1.
</event>
<event>
 6    1  0.1045352E-002  0.1848543E+03  0.7546771E-02  0.1066596E+00
        -11   -1    0    0    0    0  0.00000000000E+00  0.00000000000E+00  0.18250000000E+03  0.18250000000E+03  0.00000000000E+00 0.  1.
         11   -1    0    0    0    0 -0.00000000000E+00 -0.00000000000E+00 -0.18250000000E+03  0.18250000000E+03  0.00000000000E+00 0.  1.
        -11    1    1    2    0    0  0.56559597142E+00  0.41642994703E+01  0.18009670701E+03  0.18014573313E+03  0.00000000000E+00 0.  1.
         11    1    1    2    0    0 -0.73002724266E+01 -0.21885187341E+01 -0.17134659836E+03  0.17151600614E+03  0.00000000000E+00 0.  1.
        -15    1    1    2    0    0  0.23549990612E+00  0.49100818812E+00  0.19756943836E+00  0.18690403767E+01  0.17770000000E+01 0.  1.
         15    1    1    2    0    0  0.64991765491E+01 -0.24667889244E+01 -0.89476780838E+01  0.11469220353E+02  0.17770000000E+01 0.  1.
</event>
<event>
 6    1  0.1045352E-002  0.1828308E+03  0.7546771E-02  0.1068192E+00
        -11   -1    0    0    0    0  0.00000000000E+00  0.00000000000E+00  0.18250000000E+03  0.18250000000E+03  0.00000000000E+00 0.  1.
         11   -1    0    0    0    0 -0.00000000000E+00 -0.00000000000E+00 -0.18250000000E+03  0.18250000000E+03  0.00000000000E+00 0.  1.
        -11    1    1    2    0    0 -0.16080087011E+01 -0.33213608622E+01  0.38087629144E+02  0.38265972139E+02  0.00000000000E+00 0.  1.
         11    1    1    2    0    0 -0.25519928902E+01  0.20230733831E+01 -0.18214013024E+03  0.18216924147E+03  0.00000000000E+00 0.  1.
        -15    1    1    2    0    0  0.29433909966E+01  0.16900008165E+01  0.14615429053E+02  0.15109207415E+02  0.17770000000E+01 0.  1.
         15    1    1    2    0    0  0.12166105947E+01 -0.39171333740E+00  0.12943707204E+03  0.12945557898E+03  0.17770000000E+01 0. -1.
</event>
<event>
 6    1  0.1045352E-002  0.1827046E+03  0.7546771E-02  0.1068292E+00
        -11   -1    0    0    0    0  0.00000000000E+00  0.00000000000E+00  0.18250000000E+03  0.18250000000E+03  0.00000000000E+00 0. -1.
         11   -1    0    0    0    0 -0.00000000000E+00 -0.00000000000E+00 -0.18250000000E+03  0.18250000000E+03  0.00000000000E+00 0. -1.
        -11    1    1    2    0    0  0.68088183724E+01 -0.36600854208E+01  0.18213142986E+03  0.18229540306E+03  0.00000000000E+00 0. -1.
         11    1    1    2    0    0 -0.70620882600E+00 -0.20168913972E+01 -0.39452131922E+02  0.39509964503E+02  0.00000000000E+00 0. -1.
        -15    1    1    2    0    0  0.83108837754E+00  0.73622743098E+00 -0.64322045612E+02  0.64356165357E+02  0.17770000000E+01 0. -1.
         15    1    1    2    0    0 -0.69336979239E+01  0.49407493869E+01 -0.78357252324E+02  0.78838467084E+02  0.17770000000E+01 0. -1.
</event>
<event>
 6    1  0.1045352E-002  0.1848652E+03  0.7546771E-02  0.1066588E+00
        -11   -1    0    0    0    0  0.00000000000E+00  0.00000000000E+00  0.18250000000E+03  0.18250000000E+03  0.00000000000E+00 0.  1.
         11   -1    0    0    0    0 -0.00000000000E+00 -0.00000000000E+00 -0.18250000000E+03  0.18250000000E+03  0.00000000000E+00 0. -1.
        -11    1    1    2    0    0 -0.33200202735E+01 -0.41362076870E+01  0.18005667506E+03  0.18013477449E+03  0.00000000000E+00 0.  1.
         11    1    1    2    0    0 -0.25201835462E+01  0.11600563152E+01 -0.13178985251E+03  0.13181905128E+03  0.00000000000E+00 0. -1.
        -15    1    1    2    0    0  0.64791892817E+01  0.83398900427E+01 -0.45460572006E+02  0.46704978276E+02  0.17770000000E+01 0. -1.
         15    1    1    2    0    0 -0.63898546190E+00 -0.53637386709E+01 -0.28062505407E+01  0.63411959477E+01  0.17770000000E+01 0.  1.
</event>
<event>
 6    1  0.1045352E-002  0.1827134E+03  0.7546771E-02  0.1068285E+00
        -11   -1    0    0    0    0  0.00000000000E+00  0.00000000000E+00  0.18250000000E+03  0.18250000000E+03  0.00000000000E+00 0.  1.
         11   -1    0    0    0    0 -0.00000000000E+00 -0.00000000000E+00 -0.18250000000E+03  0.18250000000E+03  0.00000000000E+00 0.  1.
        -11    1    1    2    0    0 -0.46845842219E+00  0.37598727895E+01  0.18224721852E+03  0.18228660060E+03  0.00000000000E+00 0.  1.
         11    1    1    2    0    0 -0.12435221119E+01 -0.82757458925E+00 -0.10788881979E+03  0.10789915969E+03  0.00000000000E+00 0.  1.
        -15    1    1    2    0    0 -0.22529919323E+01 -0.21102661878E+01 -0.24116785365E+02  0.24378397432E+02  0.17770000000E+01 0. -1.
         15    1    1    2    0    0  0.39649724664E+01 -0.82203201240E+00 -0.50241613369E+02  0.50435842278E+02  0.17770000000E+01 0.  1.
</event>
<event>
 6    1  0.1045352E-002  0.1832664E+03  0.7546771E-02  0.1067846E+00
        -11   -1    0    0    0    0  0.00000000000E+00  0.00000000000E+00  0.18250000000E+03  0.18250000000E+03  0.00000000000E+00 0.  1.
         11   -1    0    0    0    0 -0.00000000000E+00 -0.00000000000E+00 -0.18250000000E+03  0.18250000000E+03  0.00000000000E+00 0.  1.
        -11    1    1    2    0    0 -0.35922696918E+01 -0.99248854767E+00  0.18169541989E+03  0.18173363762E+03  0.00000000000E+00 0.  1.
         11    1    1    2    0    0 -0.20081858800E+01 -0.14757857490E+01 -0.13245300754E+03  0.13247645059E+03  0.00000000000E+00 0.  1.
        -15    1    1    2    0    0  0.22384046401E+01  0.27038604431E+01 -0.44648941898E+02  0.44821948399E+02  0.17770000000E+01 0. -1.
         15    1    1    2    0    0  0.33620509316E+01 -0.23558614645E+00 -0.45934704480E+01  0.59679633926E+01  0.17770000000E+01 0.  1.
</event>
<event>
 6    1  0.1045352E-002  0.1852716E+03  0.7546771E-02  0.1066270E+00
        -11   -1    0    0    0    0  0.00000000000E+00  0.00000000000E+00  0.18250000000E+03  0.18250000000E+03  0.00000000000E+00 0. -1.
         11   -1    0    0    0    0 -0.00000000000E+00 -0.00000000000E+00 -0.18250000000E+03  0.18250000000E+03  0.00000000000E+00 0. -1.
        -11    1    1    2    0    0 -0.20666787009E+01  0.28141268985E+01  0.17969444393E+03  0.17972836073E+03  0.00000000000E+00 0. -1.
         11    1    1    2    0    0  0.76462331123E+01  0.30520364550E+01 -0.12892569156E+03  0.12918828799E+03  0.00000000000E+00 0. -1.
        -15    1    1    2    0    0  0.17956923014E+01 -0.87230034599E+00  0.14772675350E+01  0.30537627781E+01  0.17770000000E+01 0. -1.
         15    1    1    2    0    0 -0.73752467128E+01 -0.49938630074E+01 -0.52246019905E+02  0.53029588502E+02  0.17770000000E+01 0.  1.
</event>
<event>
 6    1  0.1045352E-002  0.1858651E+03  0.7546771E-02  0.1065807E+00
        -11   -1    0    0    0    0  0.00000000000E+00  0.00000000000E+00  0.18250000000E+03  0.18250000000E+03  0.00000000000E+00 0.  1.
         11   -1    0    0    0    0 -0.00000000000E+00 -0.00000000000E+00 -0.18250000000E+03  0.18250000000E+03  0.00000000000E+00 0. -1.
        -11    1    1    2    0    0  0.37488653617E+01 -0.13033384279E+01  0.17909093820E+03  0.17913491237E+03  0.00000000000E+00 0.  1.
         11    1    1    2    0    0 -0.44021662939E+01  0.10730493604E+01 -0.17585439172E+03  0.17591275562E+03  0.00000000000E+00 0. -1.
        -15    1    1    2    0    0  0.11059913205E+01 -0.12559186667E+01 -0.59050644981E+01  0.63896842039E+01  0.17770000000E+01 0. -1.
         15    1    1    2    0    0 -0.45269038824E+00  0.14862077342E+01  0.26685180147E+01  0.35626478091E+01  0.17770000000E+01 0.  1.
</event>
<event>
 6    1  0.5822353E-002  0.1395105E+03  0.7546771E-02  0.1108987E+00
        -11   -1    0    0    0    0  0.00000000000E+00  0.00000000000E+00  0.18250000000E+03  0.18250000000E+03  0.00000000000E+00 0.  1.
         11   -1    0    0    0    0 -0.00000000000E+00 -0.00000000000E+00 -0.18250000000E+03  0.18250000000E+03  0.00000000000E+00 0. -1.
        -11    1    1    2    0    0 -0.23383189666E+01  0.27368881521E+01  0.14691234209E+03  0.14695643760E+03  0.00000000000E+00 0.  1.
         11    1    1    2    0    0  0.21461839700E+02  0.68857440543E+01 -0.13139525972E+03  0.13331443400E+03  0.00000000000E+00 0. -1.
        -15    1    1    2    0    0 -0.22281746871E+01 -0.81705043385E+00  0.32710286052E+02  0.32844373589E+02  0.17770000000E+01 0.  1.
         15    1    1    2    0    0 -0.16895346047E+02 -0.88055817725E+01 -0.48227368423E+02  0.51884754817E+02  0.17770000000E+01 0. -1.
</event>
<event>
 6    1  0.1045352E-002  0.1828391E+03  0.7546771E-02  0.1068185E+00
        -11   -1    0    0    0    0  0.00000000000E+00  0.00000000000E+00  0.18250000000E+03  0.18250000000E+03  0.00000000000E+00 0.  1.
         11   -1    0    0    0    0 -0.00000000000E+00 -0.00000000000E+00 -0.18250000000E+03  0.18250000000E+03  0.00000000000E+00 0. -1.
        -11    1    1    2    0    0 -0.17994524654E+01  0.32967482913E+01  0.13756260558E+03  0.13761386934E+03  0.00000000000E+00 0.  1.
         11    1    1    2    0    0  0.34348153666E+01 -0.13404995973E+01 -0.18212362163E+03  0.18216094106E+03  0.00000000000E+00 0. -1.
        -15    1    1    2    0    0 -0.24786340220E+01  0.77268035263E-01  0.37420122418E+02  0.37544279028E+02  0.17770000000E+01 0.  1.
         15    1    1    2    0    0  0.84327112081E+00 -0.20335167293E+01  0.71408936228E+01  0.76809105712E+01  0.17770000000E+01 0. -1.
</event>
<event>
 6    1  0.1045352E-002  0.1838820E+03  0.7546771E-02  0.1067360E+00
        -11   -1    0    0    0    0  0.00000000000E+00  0.00000000000E+00  0.18250000000E+03  0.18250000000E+03  0.00000000000E+00 0. -1.
         11   -1    0    0    0    0 -0.00000000000E+00 -0.00000000000E+00 -0.18250000000E+03  0.18250000000E+03  0.00000000000E+00 0.  1.
        -11    1    1    2    0    0  0.14771335297E+00  0.52060444082E+01  0.14784245874E+03  0.14793416551E+03  0.00000000000E+00 0. -1.
         11    1    1    2    0    0 -0.36560654397E+01  0.26480868695E+01 -0.18106177996E+03  0.18111804808E+03  0.00000000000E+00 0.  1.
        -15    1    1    2    0    0  0.10765208155E+01 -0.98779642547E+01  0.25153058192E+02  0.27102899112E+02  0.17770000000E+01 0.  1.
         15    1    1    2    0    0  0.24318312712E+01  0.20238329770E+01  0.80662630248E+01  0.88448873049E+01  0.17770000000E+01 0. -1.
</event>
<event>
 6    1  0.1045352E-002  0.1989511E+03  0.7546771E-02  0.1056065E+00
        -11   -1    0    0    0    0  0.00000000000E+00  0.00000000000E+00  0.18250000000E+03  0.18250000000E+03  0.00000000000E+00 0.  1.
         11   -1    0    0    0    0 -0.00000000000E+00 -0.00000000000E+00 -0.18250000000E+03  0.18250000000E+03  0.00000000000E+00 0. -1.
        -11    1    1    2    0    0 -0.24255459589E+02  0.31993961441E+02  0.44259869391E+02  0.59756814901E+02  0.00000000000E+00 0.  1.
         11    1    1    2    0    0  0.25139240322E+02 -0.59628916989E+01 -0.16402655535E+03  0.16604893357E+03  0.00000000000E+00 0. -1.
        -15    1    1    2    0    0 -0.18520432908E+02 -0.21225394177E+02  0.11731831952E+03  0.12066594224E+03  0.17770000000E+01 0.  1.
         15    1    1    2    0    0  0.17636652175E+02 -0.48056755645E+01  0.24483664360E+01  0.18528309280E+02  0.17770000000E+01 0. -1.
</event>
<event>
 6    1  0.1045352E-002  0.1841832E+03  0.7546771E-02  0.1067123E+00
        -11   -1    0    0    0    0  0.00000000000E+00  0.00000000000E+00  0.18250000000E+03  0.18250000000E+03  0.00000000000E+00 0. -1.
         11   -1    0    0    0    0 -0.00000000000E+00 -0.00000000000E+00 -0.18250000000E+03  0.18250000000E+03  0.00000000000E+00 0. -1.
        -11    1    1    2    0    0  0.29162401105E+01  0.58334604238E+01  0.18069918753E+03  0.18081684128E+03  0.00000000000E+00 0. -1.
         11    1    1    2    0    0  0.26805151598E+01 -0.32597820578E+01 -0.14885598828E+03  0.14891580368E+03  0.00000000000E+00 0. -1.
        -15    1    1    2    0    0 -0.22351262777E+01 -0.17942698801E+01 -0.31140772188E+02  0.31322844943E+02  0.17770000000E+01 0.  1.
         15    1    1    2    0    0 -0.33616289925E+01 -0.77940848594E+00 -0.70242706691E+00  0.39445100907E+01  0.17770000000E+01 0. -1.
</event>
<event>
 6    1  0.1045352E-002  0.1861722E+03  0.7546771E-02  0.1065569E+00
        -11   -1    0    0    0    0  0.00000000000E+00  0.00000000000E+00  0.18250000000E+03  0.18250000000E+03  0.00000000000E+00 0. -1.
         11   -1    0    0    0    0 -0.00000000000E+00 -0.00000000000E+00 -0.18250000000E+03  0.18250000000E+03  0.00000000000E+00 0. -1.
        -11    1    1    2    0    0 -0.31135513628E+01  0.11396683448E+01  0.17879710740E+03  0.17882784643E+03  0.00000000000E+00 0. -1.
         11    1    1    2    0    0  0.14493859655E+01  0.53763249627E+01 -0.17056859304E+03  0.17065945775E+03  0.00000000000E+00 0. -1.
        -15    1    1    2    0    0 -0.66625708230E+00 -0.10860235399E+01  0.23851651657E+01  0.32357514578E+01  0.17770000000E+01 0. -1.
         15    1    1    2    0    0  0.23304224796E+01 -0.54299697675E+01 -0.10613679528E+02  0.12276944357E+02  0.17770000000E+01 0.  1.
</event>
<event>
 6    1  0.1045352E-002  0.1888115E+03  0.7546771E-02  0.1063539E+00
        -11   -1    0    0    0    0  0.00000000000E+00  0.00000000000E+00  0.18250000000E+03  0.18250000000E+03  0.00000000000E+00 0. -1.
         11   -1    0    0    0    0 -0.00000000000E+00 -0.00000000000E+00 -0.18250000000E+03  0.18250000000E+03  0.00000000000E+00 0.  1.
        -11    1    1    2    0    0 -0.14057677739E+02 -0.32625069075E+01  0.17559652773E+03  0.17618854334E+03  0.00000000000E+00 0. -1.
         11    1    1    2    0    0 -0.11852812984E+01  0.18881790873E+01 -0.13712531900E+03  0.13714344032E+03  0.00000000000E+00 0.  1.
        -15    1    1    2    0    0  0.10399412406E+02  0.68533315068E+01 -0.11575790683E+00  0.12581218543E+02  0.17770000000E+01 0. -1.
         15    1    1    2    0    0  0.48435466319E+01 -0.54790036866E+01 -0.38355450816E+02  0.39086797793E+02  0.17770000000E+01 0. -1.
</event>
<event>
 6    1  0.1045352E-002  0.2068395E+03  0.7546771E-02  0.1050579E+00
        -11   -1    0    0    0    0  0.00000000000E+00  0.00000000000E+00  0.18250000000E+03  0.18250000000E+03  0.00000000000E+00 0.  1.
         11   -1    0    0    0    0 -0.00000000000E+00 -0.00000000000E+00 -0.18250000000E+03  0.18250000000E+03  0.00000000000E+00 0. -1.
        -11    1    1    2    0    0 -0.10948234882E+02 -0.77029947294E+01  0.15759299954E+03  0.15816053072E+03  0.00000000000E+00 0.  1.
         11    1    1    2    0    0  0.23182037443E+01  0.27362146074E+01 -0.14484330419E+03  0.14488769343E+03  0.00000000000E+00 0. -1.
        -15    1    1    2    0    0  0.10601471176E+02 -0.25209066385E+02 -0.15585422298E+02  0.31526993772E+02  0.17770000000E+01 0.  1.
         15    1    1    2    0    0 -0.19714400382E+01  0.30175846507E+02  0.28357269477E+01  0.30424782080E+02  0.17770000000E+01 0. -1.
</event>
<event>
 6    1  0.1045352E-002  0.1875239E+03  0.7546771E-02  0.1064525E+00
        -11   -1    0    0    0    0  0.00000000000E+00  0.00000000000E+00  0.18250000000E+03  0.18250000000E+03  0.00000000000E+00 0. -1.
         11   -1    0    0    0    0 -0.00000000000E+00 -0.00000000000E+00 -0.18250000000E+03  0.18250000000E+03  0.00000000000E+00 0.  1.
        -11    1    1    2    0    0  0.20631424680E+00 -0.49943301928E+01  0.17740566438E+03  0.17747607065E+03  0.00000000000E+00 0. -1.
         11    1    1    2    0    0  0.13691507697E+01 -0.91382382719E+01 -0.12548272638E+03  0.12582248047E+03  0.00000000000E+00 0.  1.
        -15    1    1    2    0    0  0.19407721893E+01  0.34298218882E+00  0.35344272084E+01  0.44197441288E+01  0.17770000000E+01 0. -1.
         15    1    1    2    0    0 -0.35162372058E+01  0.13789586276E+02 -0.55457365211E+02  0.57281704749E+02  0.17770000000E+01 0.  1.
</event>
<event>
 6    1  0.1045352E-002  0.1828391E+03  0.7546771E-02  0.1068185E+00
        -11   -1    0    0    0    0  0.00000000000E+00  0.00000000000E+00  0.18250000000E+03  0.18250000000E+03  0.00000000000E+00 0. -1.
         11   -1    0    0    0    0 -0.00000000000E+00 -0.00000000000E+00 -0.18250000000E+03  0.18250000000E+03  0.00000000000E+00 0.  1.
        -11    1    1    2    0    0 -0.13008251440E+01 -0.12683438182E+01  0.81801636661E+02  0.81821810066E+02  0.00000000000E+00 0. -1.
         11    1    1    2    0    0  0.10198684036E+01  0.59518200037E+01 -0.18206081760E+03  0.18216093323E+03  0.00000000000E+00 0.  1.
        -15    1    1    2    0    0  0.26365800083E+01  0.11825677973E+01  0.68623579056E+02  0.68707374802E+02  0.17770000000E+01 0. -1.
         15    1    1    2    0    0 -0.23556232680E+01 -0.58660439828E+01  0.31635601879E+02  0.32309881898E+02  0.17770000000E+01 0.  1.
</event>
<event>
 6    1  0.1045352E-002  0.1846251E+03  0.7546771E-02  0.1066776E+00
        -11   -1    0    0    0    0  0.00000000000E+00  0.00000000000E+00  0.18250000000E+03  0.18250000000E+03  0.00000000000E+00 0.  1.
         11   -1    0    0    0    0 -0.00000000000E+00 -0.00000000000E+00 -0.18250000000E+03  0.18250000000E+03  0.00000000000E+00 0. -1.
        -11    1    1    2    0    0 -0.39143130567E+01 -0.65361366167E+01  0.18021397857E+03  0.18037494560E+03  0.00000000000E+00 0.  1.
         11    1    1    2    0    0 -0.15988498772E+01 -0.13691335414E+01 -0.13702394712E+03  0.13704011432E+03  0.00000000000E+00 0. -1.
        -15    1    1    2    0    0  0.29106646311E+01  0.89344761722E+01 -0.86767361510E+01  0.12912796455E+02  0.17770000000E+01 0. -1.
         15    1    1    2    0    0  0.26024983028E+01 -0.10292060141E+01 -0.34513295298E+02  0.34672143628E+02  0.17770000000E+01 0. -1.
</event>
<event>
 6    1  0.1045352E-002  0.1841699E+03  0.7546771E-02  0.1067133E+00
        -11   -1    0    0    0    0  0.00000000000E+00  0.00000000000E+00  0.18250000000E+03  0.18250000000E+03  0.00000000000E+00 0. -1.
         11   -1    0    0    0    0 -0.00000000000E+00 -0.00000000000E+00 -0.18250000000E+03  0.18250000000E+03  0.00000000000E+00 0. -1.
        -11    1    1    2    0    0 -0.19764631341E+01  0.71809767540E+01  0.16359573315E+03  0.16376518781E+03  0.00000000000E+00 0. -1.
         11    1    1    2    0    0 -0.23137890277E+01 -0.19208166056E+01 -0.18080504447E+03  0.18083005077E+03  0.00000000000E+00 0. -1.
        -15    1    1    2    0    0 -0.94896619417E+00 -0.49971882823E+01  0.93209974067E+01  0.10766204030E+02  0.17770000000E+01 0. -1.
         15    1    1    2    0    0  0.52392183560E+01 -0.26297186614E+00  0.78883139069E+01  0.96385573857E+01  0.17770000000E+01 0.  1.
</event>
<event>
 6    1  0.1045352E-002  0.1874426E+03  0.7546771E-02  0.1064587E+00
        -11   -1    0    0    0    0  0.00000000000E+00  0.00000000000E+00  0.18250000000E+03  0.18250000000E+03  0.00000000000E+00 0. -1.
         11   -1    0    0    0    0 -0.00000000000E+00 -0.00000000000E+00 -0.18250000000E+03  0.18250000000E+03  0.00000000000E+00 0.  1.
        -11    1    1    2    0    0  0.36628153597E+01 -0.12962035400E+01  0.17751488492E+03  0.17755740122E+03  0.00000000000E+00 0. -1.
         11    1    1    2    0    0 -0.13637728682E+01  0.27567693060E+01 -0.17242583670E+03  0.17245326560E+03  0.00000000000E+00 0.  1.
        -15    1    1    2    0    0 -0.22801344318E+01 -0.38050427092E+01 -0.89437317949E+01  0.10140287494E+02  0.17770000000E+01 0. -1.
         15    1    1    2    0    0 -0.18908059673E-01  0.23444769432E+01  0.38546835760E+01  0.48490456920E+01  0.17770000000E+01 0.  1.
</event>
<event>
 6    1  0.1045352E-002  0.1711441E+03  0.7546771E-02  0.1077871E+00
        -11   -1    0    0    0    0  0.00000000000E+00  0.00000000000E+00  0.18250000000E+03  0.18250000000E+03  0.00000000000E+00 0. -1.
         11   -1    0    0    0    0 -0.00000000000E+00 -0.00000000000E+00 -0.18250000000E+03  0.18250000000E+03  0.00000000000E+00 0.  1.
        -11    1    1    2    0    0 -0.36587982504E+01  0.11699221460E+01  0.17241114613E+03  0.17245393249E+03  0.00000000000E+00 0. -1.
         11    1    1    2    0    0  0.16298367129E+01 -0.10496051300E+02 -0.16964636589E+03  0.16997856606E+03  0.00000000000E+00 0.  1.
        -15    1    1    2    0    0  0.28431398785E+01  0.91498136053E+01 -0.10653656905E+02  0.14438167052E+02  0.17770000000E+01 0.  1.
         15    1    1    2    0    0 -0.81417834100E+00  0.17631554862E+00  0.78888766720E+01  0.81293343940E+01  0.17770000000E+01 0. -1.
</event>
<event>
 6    1  0.1045352E-002  0.1840800E+03  0.7546771E-02  0.1067204E+00
        -11   -1    0    0    0    0  0.00000000000E+00  0.00000000000E+00  0.18250000000E+03  0.18250000000E+03  0.00000000000E+00 0. -1.
         11   -1    0    0    0    0 -0.00000000000E+00 -0.00000000000E+00 -0.18250000000E+03  0.18250000000E+03  0.00000000000E+00 0. -1.
        -11    1    1    2    0    0 -0.15903626071E+01  0.25852936520E+01  0.18089453268E+03  0.18091999600E+03  0.00000000000E+00 0. -1.
         11    1    1    2    0    0  0.10502267929E+01  0.19427295037E+01 -0.14619243744E+03  0.14620911715E+03  0.00000000000E+00 0. -1.
        -15    1    1    2    0    0 -0.26275305600E+01 -0.57578854523E+01 -0.59576148136E+01  0.88717565900E+01  0.17770000000E+01 0.  1.
         15    1    1    2    0    0  0.31676663742E+01  0.12298622966E+01 -0.28744480432E+02  0.28999130260E+02  0.17770000000E+01 0. -1.
</event>
<event>
 6    1  0.1045352E-002  0.1831079E+03  0.7546771E-02  0.1067972E+00
        -11   -1    0    0    0    0  0.00000000000E+00  0.00000000000E+00  0.18250000000E+03  0.18250000000E+03  0.00000000000E+00 0.  1.
         11   -1    0    0    0    0 -0.00000000000E+00 -0.00000000000E+00 -0.18250000000E+03  0.18250000000E+03  0.00000000000E+00 0.  1.
        -11    1    1    2    0    0 -0.15494701199E+01 -0.35225301956E-01  0.11326090775E+03  0.11327151152E+03  0.00000000000E+00 0.  1.
         11    1    1    2    0    0  0.68274453350E+01 -0.59072137865E+01 -0.18166793807E+03  0.18189213536E+03  0.00000000000E+00 0.  1.
        -15    1    1    2    0    0 -0.22522242847E+01  0.47370230283E+01  0.63202759531E+02  0.63444924484E+02  0.17770000000E+01 0.  1.
         15    1    1    2    0    0 -0.30257509304E+01  0.12054160601E+01  0.52042707872E+01  0.63914286351E+01  0.17770000000E+01 0. -1.
</event>
<event>
 6    1  0.1045352E-002  0.1826128E+03  0.7546771E-02  0.1068365E+00
        -11   -1    0    0    0    0  0.00000000000E+00  0.00000000000E+00  0.18250000000E+03  0.18250000000E+03  0.00000000000E+00 0.  1.
         11   -1    0    0    0    0 -0.00000000000E+00 -0.00000000000E+00 -0.18250000000E+03  0.18250000000E+03  0.00000000000E+00 0. -1.
        -11    1    1    2    0    0 -0.32957398859E+01  0.18437352789E+01  0.18234805454E+03  0.18238715485E+03  0.00000000000E+00 0.  1.
         11    1    1    2    0    0  0.32381016651E+01 -0.30001015226E+01 -0.99941463836E+02  0.10003890296E+03  0.00000000000E+00 0. -1.
        -15    1    1    2    0    0  0.15366450121E+00 -0.12263794436E+01 -0.26473062191E+02  0.26561407532E+02  0.17770000000E+01 0.  1.
         15    1    1    2    0    0 -0.96026280460E-01  0.23827456872E+01 -0.55933528511E+02  0.56012534658E+02  0.17770000000E+01 0. -1.
</event>
<event>
 6    1  0.1045352E-002  0.1886686E+03  0.7546771E-02  0.1063648E+00
        -11   -1    0    0    0    0  0.00000000000E+00  0.00000000000E+00  0.18250000000E+03  0.18250000000E+03  0.00000000000E+00 0. -1.
         11   -1    0    0    0    0 -0.00000000000E+00 -0.00000000000E+00 -0.18250000000E+03  0.18250000000E+03  0.00000000000E+00 0.  1.
        -11    1    1    2    0    0 -0.40017618550E+01  0.14773719797E+01  0.13120981829E+03  0.13127914206E+03  0.00000000000E+00 0. -1.
         11    1    1    2    0    0 -0.44783199310E+01 -0.24609280229E+01 -0.17625733301E+03  0.17633138959E+03  0.00000000000E+00 0.  1.
        -15    1    1    2    0    0 -0.14952926430E+01 -0.44016323211E+01 -0.43909219879E+01  0.66368812014E+01  0.17770000000E+01 0.  1.
         15    1    1    2    0    0  0.99753744290E+01  0.53851883643E+01  0.49438436707E+02  0.50752587143E+02  0.17770000000E+01 0. -1.
</event>
<event>
 6    1  0.1045352E-002  0.1895413E+03  0.7546771E-02  0.1062984E+00
        -11   -1    0    0    0    0  0.00000000000E+00  0.00000000000E+00  0.18250000000E+03  0.18250000000E+03  0.00000000000E+00 0.  1.
         11   -1    0    0    0    0 -0.00000000000E+00 -0.00000000000E+00 -0.18250000000E+03  0.18250000000E+03  0.00000000000E+00 0. -1.
        -11    1    1    2    0    0  0.73813771069E+01  0.26609150881E+01  0.17528318156E+03  0.17545871006E+03  0.00000000000E+00 0.  1.
         11    1    1    2    0    0 -0.13111381940E+01 -0.17548219434E+01 -0.15556004344E+03  0.15557546593E+03  0.00000000000E+00 0. -1.
        -15    1    1    2    0    0  0.29956996833E+01  0.40515478988E+01  0.48710327552E+01  0.72300723420E+01  0.17770000000E+01 0.  1.
         15    1    1    2    0    0 -0.90659385962E+01 -0.49576410435E+01 -0.24594170874E+02  0.26735751669E+02  0.17770000000E+01 0. -1.
</event>
<event>
 6    1  0.1045352E-002  0.1827698E+03  0.7546771E-02  0.1068240E+00
        -11   -1    0    0    0    0  0.00000000000E+00  0.00000000000E+00  0.18250000000E+03  0.18250000000E+03  0.00000000000E+00 0.  1.
         11   -1    0    0    0    0 -0.00000000000E+00 -0.00000000000E+00 -0.18250000000E+03  0.18250000000E+03  0.00000000000E+00 0.  1.
        -11    1    1    2    0    0 -0.30341786167E+01  0.35967600088E+00  0.18220455498E+03  0.18223017165E+03  0.00000000000E+00 0.  1.
         11    1    1    2    0    0 -0.29384315419E+01  0.24732352895E+01 -0.48429376467E+02  0.48581434496E+02  0.00000000000E+00 0.  1.
        -15    1    1    2    0    0  0.37156587855E+01 -0.30255534948E+01 -0.34987781631E+02  0.35359053814E+02  0.17770000000E+01 0. -1.
         15    1    1    2    0    0  0.22569513730E+01  0.19264220447E+00 -0.98787396879E+02  0.98829340035E+02  0.17770000000E+01 0.  1.
</event>
<event>
 6    1  0.1045352E-002  0.1833957E+03  0.7546771E-02  0.1067744E+00
        -11   -1    0    0    0    0  0.00000000000E+00  0.00000000000E+00  0.18250000000E+03  0.18250000000E+03  0.00000000000E+00 0. -1.
         11   -1    0    0    0    0 -0.00000000000E+00 -0.00000000000E+00 -0.18250000000E+03  0.18250000000E+03  0.00000000000E+00 0.  1.
        -11    1    1    2    0    0  0.33366511675E+01 -0.27384430995E+01  0.18155296206E+03  0.18160426852E+03  0.00000000000E+00 0. -1.
         11    1    1    2    0    0 -0.27903155625E+01  0.22717750736E+01 -0.10722354563E+03  0.10728390168E+03  0.00000000000E+00 0.  1.
        -15    1    1    2    0    0  0.44828616121E+01 -0.22133611168E+01 -0.63702812672E+02  0.63923400152E+02  0.17770000000E+01 0. -1.
         15    1    1    2    0    0 -0.50291972171E+01  0.26800291426E+01 -0.10626603757E+02  0.12188429648E+02  0.17770000000E+01 0.  1.
</event>
<event>
 6    1  0.1045352E-002  0.1834114E+03  0.7546771E-02  0.1067732E+00
        -11   -1    0    0    0    0  0.00000000000E+00  0.00000000000E+00  0.18250000000E+03  0.18250000000E+03  0.00000000000E+00 0.  1.
         11   -1    0    0    0    0 -0.00000000000E+00 -0.00000000000E+00 -0.18250000000E+03  0.18250000000E+03  0.00000000000E+00 0.  1.
        -11    1    1    2    0    0  0.14082786258E+01  0.48419266892E+01  0.18151857926E+03  0.18158860680E+03  0.00000000000E+00 0.  1.
         11    1    1    2    0    0  0.25272557686E+01  0.77175128266E-01 -0.10399694827E+03  0.10402768010E+03  0.00000000000E+00 0.  1.
        -15    1    1    2    0    0 -0.36163880444E+01 -0.62653024119E+00 -0.39912385798E+01  0.57060071005E+01  0.17770000000E+01 0. -1.
         15    1    1    2    0    0 -0.31914634994E+00 -0.42925715762E+01 -0.73530392408E+02  0.73677706003E+02  0.17770000000E+01 0.  1.
</event>
<event>
 6    1  0.1045352E-002  0.1840283E+03  0.7546771E-02  0.1067245E+00
        -11   -1    0    0    0    0  0.00000000000E+00  0.00000000000E+00  0.18250000000E+03  0.18250000000E+03  0.00000000000E+00 0. -1.
         11   -1    0    0    0    0 -0.00000000000E+00 -0.00000000000E+00 -0.18250000000E+03  0.18250000000E+03  0.00000000000E+00 0.  1.
        -11    1    1    2    0    0 -0.20808873381E+01  0.31970404897E+01  0.15965796510E+03  0.15970352839E+03  0.00000000000E+00 0. -1.
         11    1    1    2    0    0  0.29333597835E+01 -0.10220278723E+02 -0.18065906044E+03  0.18097169618E+03  0.00000000000E+00 0.  1.
        -15    1    1    2    0    0 -0.44879090043E+01  0.53076097431E+01  0.16697383563E+02  0.18173398011E+02  0.17770000000E+01 0. -1.
         15    1    1    2    0    0  0.36354365588E+01  0.17156284906E+01  0.43037117792E+01  0.61513774205E+01  0.17770000000E+01 0.  1.
</event>
<event>
 6    1  0.1045352E-002  0.2054271E+03  0.7546771E-02  0.1051541E+00
        -11   -1    0    0    0    0  0.00000000000E+00  0.00000000000E+00  0.18250000000E+03  0.18250000000E+03  0.00000000000E+00 0.  1.
         11   -1    0    0    0    0 -0.00000000000E+00 -0.00000000000E+00 -0.18250000000E+03  0.18250000000E+03  0.00000000000E+00 0.  1.
        -11    1    1    2    0    0  0.93504196186E+01  0.50223710367E+00  0.14824850846E+03  0.14854394249E+03  0.00000000000E+00 0.  1.
         11    1    1    2    0    0 -0.36747890707E+01  0.46894048593E+01 -0.15946166510E+03  0.15957292136E+03  0.00000000000E+00 0.  1.
        -15    1    1    2    0    0 -0.15076768571E+02 -0.54898378670E+01 -0.19150197842E+02  0.25046657995E+02  0.17770000000E+01 0.  1.
         15    1    1    2    0    0  0.94011380228E+01  0.29819590400E+00  0.30363354483E+02  0.31836478156E+02  0.17770000000E+01 0. -1.
</event>
<event>
 6    1  0.1045352E-002  0.1853592E+03  0.7546771E-02  0.1066201E+00
        -11   -1    0    0    0    0  0.00000000000E+00  0.00000000000E+00  0.18250000000E+03  0.18250000000E+03  0.00000000000E+00 0.  1.
         11   -1    0    0    0    0 -0.00000000000E+00 -0.00000000000E+00 -0.18250000000E+03  0.18250000000E+03  0.00000000000E+00 0. -1.
        -11    1    1    2    0    0 -0.72083655644E+01  0.12518857862E-01  0.11370996983E+03  0.11393821979E+03  0.00000000000E+00 0.  1.
         11    1    1    2    0    0 -0.31034435554E+01  0.11536170464E+01 -0.17961030264E+03  0.17964081666E+03  0.00000000000E+00 0. -1.
        -15    1    1    2    0    0  0.11503208848E+02 -0.65354696997E+01  0.63938656337E+02  0.65317269394E+02  0.17770000000E+01 0. -1.
         15    1    1    2    0    0 -0.11913997282E+01  0.53693337955E+01  0.19616764773E+01  0.61036941536E+01  0.17770000000E+01 0.  1.
</event>
<event>
 6    1  0.1045352E-002  0.1877608E+03  0.7546771E-02  0.1064343E+00
        -11   -1    0    0    0    0  0.00000000000E+00  0.00000000000E+00  0.18250000000E+03  0.18250000000E+03  0.00000000000E+00 0.  1.
         11   -1    0    0    0    0 -0.00000000000E+00 -0.00000000000E+00 -0.18250000000E+03  0.18250000000E+03  0.00000000000E+00 0.  1.
        -11    1    1    2    0    0 -0.10691209609E+00  0.40633755695E+01  0.17625618950E+03  0.17630305382E+03  0.00000000000E+00 0.  1.
         11    1    1    2    0    0 -0.37011300255E-01 -0.55779010962E+01 -0.17715145299E+03  0.17723924974E+03  0.00000000000E+00 0.  1.
        -15    1    1    2    0    0 -0.71535985579E+00 -0.21735894007E+01 -0.40505755473E+01  0.49800724764E+01  0.17770000000E+01 0.  1.
         15    1    1    2    0    0  0.85928325214E+00  0.36881149275E+01  0.49458390380E+01  0.64776239637E+01  0.17770000000E+01 0. -1.
</event>
<event>
 6    1  0.1045352E-002  0.1784979E+03  0.7546771E-02  0.1071686E+00
        -11   -1    0    0    0    0  0.00000000000E+00  0.00000000000E+00  0.18250000000E+03  0.18250000000E+03  0.00000000000E+00 0.  1.
         11   -1    0    0    0    0 -0.00000000000E+00 -0.00000000000E+00 -0.18250000000E+03  0.18250000000E+03  0.00000000000E+00 0.  1.
        -11    1    1    2    0    0  0.34786178200E-01  0.29076525668E+01  0.17818009975E+03  0.17820382600E+03  0.00000000000E+00 0.  1.
         11    1    1    2    0    0  0.45527152151E+01 -0.38007322137E+01 -0.17872452274E+03  0.17882289509E+03  0.00000000000E+00 0.  1.
        -15    1    1    2    0    0 -0.32603123051E+01 -0.15871580301E+01  0.17945347026E+01  0.44189128457E+01  0.17770000000E+01 0. -1.
         15    1    1    2    0    0 -0.13271890883E+01  0.24802376771E+01 -0.12501117171E+01  0.35543660639E+01  0.17770000000E+01 0.  1.
</event>
<event>
 6    1  0.1045352E-002  0.1835019E+03  0.7546771E-02  0.1067660E+00
        -11   -1    0    0    0    0  0.00000000000E+00  0.00000000000E+00  0.18250000000E+03  0.18250000000E+03  0.00000000000E+00 0.  1.
         11   -1    0    0    0    0 -0.00000000000E+00 -0.00000000000E+00 -0.18250000000E+03  0.18250000000E+03  0.00000000000E+00 0.  1.
        -11    1    1    2    0    0 -0.17553701232E+01 -0.22457824854E+01  0.18147567847E+03  0.18149806263E+03  0.00000000000E+00 0.  1.
         11    1    1    2    0    0 -0.12363659595E+01 -0.24966923150E+01 -0.14566139839E+03  0.14568804019E+03  0.00000000000E+00 0.  1.
        -15    1    1    2    0    0  0.62713678623E+00  0.55293591947E+01 -0.84132031761E+01  0.10242403543E+02  0.17770000000E+01 0. -1.
         15    1    1    2    0    0  0.23645992965E+01 -0.78688439435E+00 -0.27401076898E+02  0.27571493631E+02  0.17770000000E+01 0.  1.
</event>
<event>
 6    1  0.1045352E-002  0.1854771E+03  0.7546771E-02  0.1066109E+00
        -11   -1    0    0    0    0  0.00000000000E+00  0.00000000000E+00  0.18250000000E+03  0.18250000000E+03  0.00000000000E+00 0.  1.
         11   -1    0    0    0    0 -0.00000000000E+00 -0.00000000000E+00 -0.18250000000E+03  0.18250000000E+03  0.00000000000E+00 0. -1.
        -11    1    1    2    0    0  0.27617061529E-01 -0.29405786300E+01  0.13845918311E+03  0.13849040816E+03  0.00000000000E+00 0.  1.
         11    1    1    2    0    0  0.41169410930E+01  0.89929716110E+00 -0.17947340107E+03  0.17952286659E+03  0.00000000000E+00 0. -1.
        -15    1    1    2    0    0  0.26828642074E+01  0.28129258496E+01  0.39499307027E+02  0.39729879144E+02  0.17770000000E+01 0.  1.
         15    1    1    2    0    0 -0.68274223619E+01 -0.77164438064E+00  0.15149109301E+01  0.72568460976E+01  0.17770000000E+01 0. -1.
</event>
<event>
 6    1  0.1045352E-002  0.1716609E+03  0.7546771E-02  0.1077426E+00
        -11   -1    0    0    0    0  0.00000000000E+00  0.00000000000E+00  0.18250000000E+03  0.18250000000E+03  0.00000000000E+00 0. -1.
         11   -1    0    0    0    0 -0.00000000000E+00 -0.00000000000E+00 -0.18250000000E+03  0.18250000000E+03  0.00000000000E+00 0.  1.
        -11    1    1    2    0    0  0.89571598821E+00  0.80271107192E+01  0.16813675926E+03  0.16833064673E+03  0.00000000000E+00 0. -1.
         11    1    1    2    0    0 -0.25608400949E+01  0.43435359387E+01 -0.17521839867E+03  0.17529093370E+03  0.00000000000E+00 0.  1.
        -15    1    1    2    0    0 -0.16663059898E+01 -0.49654695735E+01  0.10906265735E+02  0.12228525055E+02  0.17770000000E+01 0. -1.
         15    1    1    2    0    0  0.33314300965E+01 -0.74051770844E+01 -0.38246263287E+01  0.91498945182E+01  0.17770000000E+01 0.  1.
</event>
<event>
 6    1  0.1045352E-002  0.1846791E+03  0.7546771E-02  0.1066733E+00
        -11   -1    0    0    0    0  0.00000000000E+00  0.00000000000E+00  0.18250000000E+03  0.18250000000E+03  0.00000000000E+00 0.  1.
         11   -1    0    0    0    0 -0.00000000000E+00 -0.00000000000E+00 -0.18250000000E+03  0.18250000000E+03  0.00000000000E+00 0.  1.
        -11    1    1    2    0    0  0.54241385721E+01  0.39004493909E+01  0.18019707998E+03  0.18032088736E+03  0.00000000000E+00 0.  1.
         11    1    1    2    0    0 -0.14297307440E+00  0.43235307464E+01 -0.16015411526E+03  0.16021252758E+03  0.00000000000E+00 0.  1.
        -15    1    1    2    0    0  0.21187034167E+01 -0.56861200486E+00 -0.69248090185E+01  0.74781637267E+01  0.17770000000E+01 0.  1.
         15    1    1    2    0    0 -0.73998689144E+01 -0.76553681324E+01 -0.13118155705E+02  0.16988421330E+02  0.17770000000E+01 0. -1.
</event>
<event>
 6    1  0.1045352E-002  0.1826874E+03  0.7546771E-02  0.1068306E+00
        -11   -1    0    0    0    0  0.00000000000E+00  0.00000000000E+00  0.18250000000E+03  0.18250000000E+03  0.00000000000E+00 0.  1.
         11   -1    0    0    0    0 -0.00000000000E+00 -0.00000000000E+00 -0.18250000000E+03  0.18250000000E+03  0.00000000000E+00 0.  1.
        -11    1    1    2    0    0  0.47142394266E+00  0.52744926272E+01  0.18223570423E+03  0.18231262822E+03  0.00000000000E+00 0.  1.
         11    1    1    2    0    0  0.12440258450E+01 -0.12390886994E+01 -0.36625771626E+02  0.36667834519E+02  0.00000000000E+00 0.  1.
        -15    1    1    2    0    0 -0.83817976995E+00 -0.65516219923E+01 -0.12223080795E+03  0.12242203412E+03  0.17770000000E+01 0.  1.
         15    1    1    2    0    0 -0.87727001769E+00  0.25162180645E+01 -0.23379124654E+02  0.23597503143E+02  0.17770000000E+01 0.  1.
</event>
<event>
 6    1  0.1045352E-002  0.1835192E+03  0.7546771E-02  0.1067646E+00
        -11   -1    0    0    0    0  0.00000000000E+00  0.00000000000E+00  0.18250000000E+03  0.18250000000E+03  0.00000000000E+00 0.  1.
         11   -1    0    0    0    0 -0.00000000000E+00 -0.00000000000E+00 -0.18250000000E+03  0.18250000000E+03  0.00000000000E+00 0. -1.
        -11    1    1    2    0    0  0.55449223657E+01  0.21309752962E+01  0.18138353132E+03  0.18148077764E+03  0.00000000000E+00 0.  1.
         11    1    1    2    0    0 -0.27522579990E+01 -0.35841375074E+01 -0.15791852929E+03  0.15798317271E+03  0.00000000000E+00 0. -1.
        -15    1    1    2    0    0  0.27201348340E+01 -0.47047610619E+00 -0.13123341169E+02  0.13527760115E+02  0.17770000000E+01 0.  1.
         15    1    1    2    0    0 -0.55127992007E+01  0.19236383174E+01 -0.10341660857E+02  0.12008289540E+02  0.17770000000E+01 0.  1.
</event>
<event>
 6    1  0.1045352E-002  0.1829935E+03  0.7546771E-02  0.1068063E+00
        -11   -1    0    0    0    0  0.00000000000E+00  0.00000000000E+00  0.18250000000E+03  0.18250000000E+03  0.00000000000E+00 0.  1.
         11   -1    0    0    0    0 -0.00000000000E+00 -0.00000000000E+00 -0.18250000000E+03  0.18250000000E+03  0.00000000000E+00 0.  1.
        -11    1    1    2    0    0 -0.58344461544E+01  0.55284564998E+01  0.87705796840E+02  0.88073329633E+02  0.00000000000E+00 0.  1.
         11    1    1    2    0    0 -0.14183197443E+01 -0.21022600901E+01 -0.18198880438E+03  0.18200647254E+03  0.00000000000E+00 0.  1.
        -15    1    1    2    0    0 -0.39903793770E-01 -0.12591017591E+01  0.42025800998E+02  0.42082212491E+02  0.17770000000E+01 0. -1.
         15    1    1    2    0    0  0.72926696925E+01 -0.21670946506E+01  0.52257206537E+02  0.52837985337E+02  0.17770000000E+01 0.  1.
</event>
<event>
 6    1  0.1045352E-002  0.1907270E+03  0.7546771E-02  0.1062088E+00
        -11   -1    0    0    0    0  0.00000000000E+00  0.00000000000E+00  0.18250000000E+03  0.18250000000E+03  0.00000000000E+00 0.  1.
         11   -1    0    0    0    0 -0.00000000000E+00 -0.00000000000E+00 -0.18250000000E+03  0.18250000000E+03  0.00000000000E+00 0.  1.
        -11    1    1    2    0    0  0.18180562634E+01  0.16872762591E+01  0.17425537743E+03  0.17427302945E+03  0.00000000000E+00 0.  1.
         11    1    1    2    0    0  0.30966243385E+01 -0.15526006690E+01 -0.16698401208E+03  0.16701993875E+03  0.00000000000E+00 0.  1.
        -15    1    1    2    0    0  0.55779615172E+01 -0.65157163035E+01 -0.71354031386E+01  0.11297783879E+02  0.17770000000E+01 0. -1.
         15    1    1    2    0    0 -0.10492642119E+02  0.63810407134E+01 -0.13596221130E+00  0.12409247920E+02  0.17770000000E+01 0.  1.
</event>
<event>
 6    1  0.1045352E-002  0.1851842E+03  0.7546771E-02  0.1066338E+00
        -11   -1    0    0    0    0  0.00000000000E+00  0.00000000000E+00  0.18250000000E+03  0.18250000000E+03  0.00000000000E+00 0.  1.
         11   -1    0    0    0    0 -0.00000000000E+00 -0.00000000000E+00 -0.18250000000E+03  0.18250000000E+03  0.00000000000E+00 0.  1.
        -11    1    1    2    0    0 -0.21251939723E+01 -0.71977928645E+00  0.12772816140E+03  0.12774786787E+03  0.00000000000E+00 0.  1.
         11    1    1    2    0    0 -0.30360081245E+01 -0.50604755967E+00 -0.17978944081E+03  0.17981578478E+03  0.00000000000E+00 0.  1.
        -15    1    1    2    0    0 -0.43267654151E+01  0.10284598619E+01  0.45526728910E+02  0.45777935765E+02  0.17770000000E+01 0.  1.
         15    1    1    2    0    0  0.94879675119E+01  0.19736698417E+00  0.65345505018E+01  0.11658411577E+02  0.17770000000E+01 0. -1.
</event>
<event>
 6    1  0.1045352E-002  0.1834302E+03  0.7546771E-02  0.1067717E+00
        -11   -1    0    0    0    0  0.00000000000E+00  0.00000000000E+00  0.18250000000E+03  0.18250000000E+03  0.00000000000E+00 0.  1.
         11   -1    0    0    0    0 -0.00000000000E+00 -0.00000000000E+00 -0.18250000000E+03  0.18250000000E+03  0.00000000000E+00 0.  1.
        -11    1    1    2    0    0  0.22411578729E+01  0.41783136047E+01  0.52573711590E+02  0.52787084060E+02  0.00000000000E+00 0.  1.
         11    1    1    2    0    0 -0.34798716535E+01  0.88271172860E+01 -0.18132167567E+03  0.18156975953E+03  0.00000000000E+00 0.  1.
        -15    1    1    2    0    0  0.86211277594E+01 -0.57711523979E+01  0.85318072041E+02  0.85964883468E+02  0.17770000000E+01 0.  1.
         15    1    1    2    0    0 -0.73824139788E+01 -0.72342784928E+01  0.43429892042E+02  0.44678272944E+02  0.17770000000E+01 0. -1.
</event>
<event>
 6    1  0.1045352E-002  0.1830581E+03  0.7546771E-02  0.1068011E+00
        -11   -1    0    0    0    0  0.00000000000E+00  0.00000000000E+00  0.18250000000E+03  0.18250000000E+03  0.00000000000E+00 0.  1.
         11   -1    0    0    0    0 -0.00000000000E+00 -0.00000000000E+00 -0.18250000000E+03  0.18250000000E+03  0.00000000000E+00 0.  1.
        -11    1    1    2    0    0  0.35595169468E+01 -0.57680168140E+00  0.18190614563E+03  0.18194188269E+03  0.00000000000E+00 0.  1.
         11    1    1    2    0    0 -0.57527852257E+00  0.23735584537E+01 -0.14061496526E+03  0.14063617308E+03  0.00000000000E+00 0.  1.
        -15    1    1    2    0    0 -0.15108035614E+01  0.48288381093E+00 -0.36824063146E+02  0.36901017056E+02  0.17770000000E+01 0.  1.
         15    1    1    2    0    0 -0.14734348629E+01 -0.22796405832E+01 -0.44671172230E+01  0.55209271656E+01  0.17770000000E+01 0. -1.
</event>
<event>
 6    1  0.1045352E-002  0.1826725E+03  0.7546771E-02  0.1068318E+00
        -11   -1    0    0    0    0  0.00000000000E+00  0.00000000000E+00  0.18250000000E+03  0.18250000000E+03  0.00000000000E+00 0.  1.
         11   -1    0    0    0    0 -0.00000000000E+00 -0.00000000000E+00 -0.18250000000E+03  0.18250000000E+03  0.00000000000E+00 0. -1.
        -11    1    1    2    0    0 -0.65306362237E+00  0.12215467934E+01  0.72210549526E+02  0.72223833542E+02  0.00000000000E+00 0.  1.
         11    1    1    2    0    0  0.17325664276E+00  0.26382899692E+01 -0.18230830279E+03  0.18232747422E+03  0.00000000000E+00 0. -1.
        -15    1    1    2    0    0  0.11307281174E+01 -0.28047835868E+01  0.10216986623E+03  0.10223005747E+03  0.17770000000E+01 0.  1.
         15    1    1    2    0    0 -0.65092113775E+00 -0.10550531758E+01  0.79278870337E+01  0.82186347619E+01  0.17770000000E+01 0. -1.
</event>
<event>
 6    1  0.1045352E-002  0.1836647E+03  0.7546771E-02  0.1067531E+00
        -11   -1    0    0    0    0  0.00000000000E+00  0.00000000000E+00  0.18250000000E+03  0.18250000000E+03  0.00000000000E+00 0.  1.
         11   -1    0    0    0    0 -0.00000000000E+00 -0.00000000000E+00 -0.18250000000E+03  0.18250000000E+03  0.00000000000E+00 0.  1.
        -11    1    1    2    0    0 -0.22377016975E+01 -0.54441066448E+01  0.18123977740E+03  0.18133533168E+03  0.00000000000E+00 0.  1.
         11    1    1    2    0    0 -0.24855709706E+01  0.16700246601E+01 -0.91186277687E+02  0.91235433270E+02  0.00000000000E+00 0.  1.
        -15    1    1    2    0    0  0.56835962033E+01  0.38514309854E+01 -0.95240904973E+01  0.11874460629E+02  0.17770000000E+01 0. -1.
         15    1    1    2    0    0 -0.96032353530E+00 -0.77349000638E-01 -0.80529409213E+02  0.80554774416E+02  0.17770000000E+01 0.  1.
</event>
<event>
 6    1  0.1045352E-002  0.1887895E+03  0.7546771E-02  0.1063556E+00
        -11   -1    0    0    0    0  0.00000000000E+00  0.00000000000E+00  0.18250000000E+03  0.18250000000E+03  0.00000000000E+00 0.  1.
         11   -1    0    0    0    0 -0.00000000000E+00 -0.00000000000E+00 -0.18250000000E+03  0.18250000000E+03  0.00000000000E+00 0.  1.
        -11    1    1    2    0    0 -0.32956629114E+01 -0.39475502765E+01  0.17613543137E+03  0.17621048417E+03  0.00000000000E+00 0.  1.
         11    1    1    2    0    0  0.45516293903E+01  0.16267365957E+01 -0.17430287363E+03  0.17436988088E+03  0.00000000000E+00 0.  1.
        -15    1    1    2    0    0 -0.10861269928E+01  0.43162786774E+01 -0.70678432034E+01  0.85394420200E+01  0.17770000000E+01 0. -1.
         15    1    1    2    0    0 -0.16983948605E+00 -0.19954649966E+01  0.52352854648E+01  0.58801929307E+01  0.17770000000E+01 0.  1.
</event>
<event>
 6    1  0.1045352E-002  0.1843559E+03  0.7546771E-02  0.1066987E+00
        -11   -1    0    0    0    0  0.00000000000E+00  0.00000000000E+00  0.18250000000E+03  0.18250000000E+03  0.00000000000E+00 0.  1.
         11   -1    0    0    0    0 -0.00000000000E+00 -0.00000000000E+00 -0.18250000000E+03  0.18250000000E+03  0.00000000000E+00 0.  1.
        -11    1    1    2    0    0 -0.12812810813E+01 -0.23835162803E+01  0.17882114142E+03  0.17884161554E+03  0.00000000000E+00 0.  1.
         11    1    1    2    0    0  0.11688196817E+01  0.27654207799E+01 -0.18061913702E+03  0.18064408750E+03  0.00000000000E+00 0.  1.
        -15    1    1    2    0    0 -0.10029195864E+01  0.12590451159E+01  0.19498844567E+00  0.24055751484E+01  0.17770000000E+01 0. -1.
         15    1    1    2    0    0  0.11153809860E+01 -0.16409496156E+01  0.16030071518E+01  0.31087218135E+01  0.17770000000E+01 0.  1.
</event>
<event>
 6    1  0.1045352E-002  0.1840412E+03  0.7546771E-02  0.1067235E+00
        -11   -1    0    0    0    0  0.00000000000E+00  0.00000000000E+00  0.18250000000E+03  0.18250000000E+03  0.00000000000E+00 0.  1.
         11   -1    0    0    0    0 -0.00000000000E+00 -0.00000000000E+00 -0.18250000000E+03  0.18250000000E+03  0.00000000000E+00 0.  1.
        -11    1    1    2    0    0  0.65807511480E+01  0.29688737035E+01  0.13002627698E+03  0.13022654569E+03  0.00000000000E+00 0.  1.
         11    1    1    2    0    0  0.92270468092E+01  0.12841446571E+01 -0.18071888943E+03  0.18095884730E+03  0.00000000000E+00 0.  1.
        -15    1    1    2    0    0 -0.16002104424E+01  0.14424138407E+00  0.13644713219E+02  0.13853425817E+02  0.17770000000E+01 0.  1.
         15    1    1    2    0    0 -0.14207587515E+02 -0.43972597446E+01  0.37047899228E+02  0.39961181195E+02  0.17770000000E+01 0. -1.
</event>
<event>
 6    1  0.1045352E-002  0.1826532E+03  0.7546771E-02  0.1068333E+00
        -11   -1    0    0    0    0  0.00000000000E+00  0.00000000000E+00  0.18250000000E+03  0.18250000000E+03  0.00000000000E+00 0.  1.
         11   -1    0    0    0    0 -0.00000000000E+00 -0.00000000000E+00 -0.18250000000E+03  0.18250000000E+03  0.00000000000E+00 0.  1.
        -11    1    1    2    0    0 -0.21752877737E+01 -0.61969235582E+01  0.18222850475E+03  0.18234681703E+03  0.00000000000E+00 0.  1.
         11    1    1    2    0    0  0.44584094109E+00 -0.12084783469E+01 -0.58680271077E+02  0.58694406955E+02  0.00000000000E+00 0.  1.
        -15    1    1    2    0    0  0.16327336054E+01  0.54011705808E+01 -0.10934147808E+03  0.10950139278E+03  0.17770000000E+01 0.  1.
         15    1    1    2    0    0  0.96713227272E-01  0.20042313243E+01 -0.14206755588E+02  0.14457383234E+02  0.17770000000E+01 0. -1.
</event>
<event>
 6    1  0.1045352E-002  0.1829839E+03  0.7546771E-02  0.1068070E+00
        -11   -1    0    0    0    0  0.00000000000E+00  0.00000000000E+00  0.18250000000E+03  0.18250000000E+03  0.00000000000E+00 0. -1.
         11   -1    0    0    0    0 -0.00000000000E+00 -0.00000000000E+00 -0.18250000000E+03  0.18250000000E+03  0.00000000000E+00 0.  1.
        -11    1    1    2    0    0  0.72037239849E+00  0.26557123412E+01  0.18199530009E+03  0.18201610093E+03  0.00000000000E+00 0. -1.
         11    1    1    2    0    0  0.19254373437E+01  0.20974366248E+01 -0.14290212356E+03  0.14293048473E+03  0.00000000000E+00 0.  1.
        -15    1    1    2    0    0 -0.82502287023E+00 -0.41324029879E+01 -0.34191610151E+02  0.34496106315E+02  0.17770000000E+01 0.  1.
         15    1    1    2    0    0 -0.18207868720E+01 -0.62074597808E+00 -0.49015663835E+01  0.55573080187E+01  0.17770000000E+01 0.  1.
</event>
<event>
 6    1  0.1045352E-002  0.1839984E+03  0.7546771E-02  0.1067268E+00
        -11   -1    0    0    0    0  0.00000000000E+00  0.00000000000E+00  0.18250000000E+03  0.18250000000E+03  0.00000000000E+00 0.  1.
         11   -1    0    0    0    0 -0.00000000000E+00 -0.00000000000E+00 -0.18250000000E+03  0.18250000000E+03  0.00000000000E+00 0. -1.
        -11    1    1    2    0    0 -0.18017821764E+01  0.13278855004E+01  0.15292177137E+03  0.15293815044E+03  0.00000000000E+00 0.  1.
         11    1    1    2    0    0  0.32204324576E+00  0.24226166876E+01 -0.18098510949E+03  0.18100160950E+03  0.00000000000E+00 0. -1.
        -15    1    1    2    0    0 -0.34076955417E+01 -0.58818805795E-01  0.21747487345E+02  0.22084537201E+02  0.17770000000E+01 0. -1.
         15    1    1    2    0    0  0.48874344723E+01 -0.36916833822E+01  0.63158507716E+01  0.89757028630E+01  0.17770000000E+01 0.  1.
</event>
<event>
 6    1  0.1045352E-002  0.1844101E+03  0.7546771E-02  0.1066944E+00
        -11   -1    0    0    0    0  0.00000000000E+00  0.00000000000E+00  0.18250000000E+03  0.18250000000E+03  0.00000000000E+00 0. -1.
         11   -1    0    0    0    0 -0.00000000000E+00 -0.00000000000E+00 -0.18250000000E+03  0.18250000000E+03  0.00000000000E+00 0. -1.
        -11    1    1    2    0    0  0.65052673432E+01  0.48581350788E+00  0.18047201992E+03  0.18058987926E+03  0.00000000000E+00 0. -1.
         11    1    1    2    0    0 -0.46527048702E+01  0.23299404765E+01 -0.14897338322E+03  0.14906423177E+03  0.00000000000E+00 0. -1.
        -15    1    1    2    0    0 -0.28576023983E+01 -0.17279777294E+01 -0.20479223182E-01  0.37828490452E+01  0.17770000000E+01 0.  1.
         15    1    1    2    0    0  0.10050399253E+01 -0.10877762550E+01 -0.31478157476E+02  0.31563039928E+02  0.17770000000E+01 0. -1.
</event>
<event>
 6    1  0.1045352E-002  0.1848362E+03  0.7546771E-02  0.1066610E+00
        -11   -1    0    0    0    0  0.00000000000E+00  0.00000000000E+00  0.18250000000E+03  0.18250000000E+03  0.00000000000E+00 0.  1.
         11   -1    0    0    0    0 -0.00000000000E+00 -0.00000000000E+00 -0.18250000000E+03  0.18250000000E+03  0.00000000000E+00 0.  1.
        -11    1    1    2    0    0 -0.40890998729E+01 -0.11845135524E+01  0.18011353828E+03  0.18016384344E+03  0.00000000000E+00 0.  1.
         11    1    1    2    0    0 -0.34391760612E+01 -0.14707880168E+01 -0.17089707514E+03  0.17093800467E+03  0.00000000000E+00 0.  1.
        -15    1    1    2    0    0  0.67928023254E-01  0.15510248302E+01 -0.36940252227E+01  0.43833598513E+01  0.17770000000E+01 0.  1.
         15    1    1    2    0    0  0.74603479108E+01  0.11042767389E+01 -0.55224379203E+01  0.95147920445E+01  0.17770000000E+01 0.  1.
</event>
<event>
 6    1  0.1045352E-002  0.1497128E+03  0.7546771E-02  0.1098036E+00
        -11   -1    0    0    0    0  0.00000000000E+00  0.00000000000E+00  0.18250000000E+03  0.18250000000E+03  0.00000000000E+00 0.  1.
         11   -1    0    0    0    0 -0.00000000000E+00 -0.00000000000E+00 -0.18250000000E+03  0.18250000000E+03  0.00000000000E+00 0. -1.
        -11    1    1    2    0    0 -0.81466055949E+00 -0.31820692535E+01  0.17003601202E+03  0.17006773539E+03  0.00000000000E+00 0.  1.
         11    1    1    2    0    0  0.70987447593E+00 -0.44118335384E+00 -0.21236901464E+02  0.21253342050E+02  0.00000000000E+00 0. -1.
        -15    1    1    2    0    0  0.30798138946E+02 -0.15096773110E+02 -0.19568182538E+02  0.39528589878E+02  0.17770000000E+01 0.  1.
         15    1    1    2    0    0 -0.30693352863E+02  0.18720025717E+02 -0.12923092802E+03  0.13415033268E+03  0.17770000000E+01 0. -1.
</event>
<event>
 6    1  0.1045352E-002  0.1841527E+03  0.7546771E-02  0.1067147E+00
        -11   -1    0    0    0    0  0.00000000000E+00  0.00000000000E+00  0.18250000000E+03  0.18250000000E+03  0.00000000000E+00 0. -1.
         11   -1    0    0    0    0 -0.00000000000E+00 -0.00000000000E+00 -0.18250000000E+03  0.18250000000E+03  0.00000000000E+00 0.  1.
        -11    1    1    2    0    0  0.10123155910E+01  0.24174464297E+01  0.13533094023E+03  0.13535631575E+03  0.00000000000E+00 0. -1.
         11    1    1    2    0    0  0.24953362496E+01 -0.29936985811E+01 -0.18080532058E+03  0.18084731927E+03  0.00000000000E+00 0.  1.
        -15    1    1    2    0    0 -0.32073452312E+01  0.56678866795E+01  0.41612709316E+02  0.42156699450E+02  0.17770000000E+01 0.  1.
         15    1    1    2    0    0 -0.30030660945E+00 -0.50916345281E+01  0.38616710408E+01  0.66396655379E+01  0.17770000000E+01 0. -1.
</event>
<event>
 6    1  0.1045352E-002  0.1862474E+03  0.7546771E-02  0.1065510E+00
        -11   -1    0    0    0    0  0.00000000000E+00  0.00000000000E+00  0.18250000000E+03  0.18250000000E+03  0.00000000000E+00 0. -1.
         11   -1    0    0    0    0 -0.00000000000E+00 -0.00000000000E+00 -0.18250000000E+03  0.18250000000E+03  0.00000000000E+00 0. -1.
        -11    1    1    2    0    0  0.33896212717E+01  0.30099191549E+01  0.17869515304E+03  0.17875264156E+03  0.00000000000E+00 0. -1.
         11    1    1    2    0    0  0.21768907487E+01 -0.30994045102E+01 -0.16857386949E+03  0.16861641272E+03  0.00000000000E+00 0. -1.
        -15    1    1    2    0    0 -0.10800153615E+01 -0.45428388247E+01  0.56056863781E+00  0.50275027564E+01  0.17770000000E+01 0.  1.
         15    1    1    2    0    0 -0.44864966589E+01  0.46323241800E+01 -0.10681852184E+02  0.12603442968E+02  0.17770000000E+01 0. -1.
</event>
<event>
 6    1  0.1045352E-002  0.1660874E+03  0.7546771E-02  0.1082326E+00
        -11   -1    0    0    0    0  0.00000000000E+00  0.00000000000E+00  0.18250000000E+03  0.18250000000E+03  0.00000000000E+00 0.  1.
         11   -1    0    0    0    0 -0.00000000000E+00 -0.00000000000E+00 -0.18250000000E+03  0.18250000000E+03  0.00000000000E+00 0. -1.
        -11    1    1    2    0    0  0.93262620029E+01 -0.21085921626E+02  0.16347547793E+03  0.16509338914E+03  0.00000000000E+00 0.  1.
         11    1    1    2    0    0  0.53257886543E+01  0.18407636379E+01 -0.16789559201E+03  0.16799012546E+03  0.00000000000E+00 0. -1.
        -15    1    1    2    0    0 -0.12494018442E+02  0.16215603542E+02  0.11630534096E+02  0.23610873499E+02  0.17770000000E+01 0. -1.
         15    1    1    2    0    0 -0.21580322155E+01  0.30295544459E+01 -0.72104200208E+01  0.83056119016E+01  0.17770000000E+01 0.  1.
</event>
<event>
 6    1  0.1045352E-002  0.1832583E+03  0.7546771E-02  0.1067853E+00
        -11   -1    0    0    0    0  0.00000000000E+00  0.00000000000E+00  0.18250000000E+03  0.18250000000E+03  0.00000000000E+00 0. -1.
         11   -1    0    0    0    0 -0.00000000000E+00 -0.00000000000E+00 -0.18250000000E+03  0.18250000000E+03  0.00000000000E+00 0.  1.
        -11    1    1    2    0    0  0.47695439719E+00 -0.38945022328E+01  0.13055560320E+03  0.13061454804E+03  0.00000000000E+00 0. -1.
         11    1    1    2    0    0  0.29832983630E+01 -0.39861010381E+01 -0.18167351931E+03  0.18174173074E+03  0.00000000000E+00 0.  1.
        -15    1    1    2    0    0 -0.50692610769E+01  0.63254749754E+01  0.24382340638E+02  0.25755879047E+02  0.17770000000E+01 0. -1.
         15    1    1    2    0    0  0.16090083167E+01  0.15551282955E+01  0.26735575474E+02  0.26887842172E+02  0.17770000000E+01 0.  1.
</event>
<event>
 6    1  0.1045352E-002  0.2015665E+03  0.7546771E-02  0.1054216E+00
        -11   -1    0    0    0    0  0.00000000000E+00  0.00000000000E+00  0.18250000000E+03  0.18250000000E+03  0.00000000000E+00 0.  1.
         11   -1    0    0    0    0 -0.00000000000E+00 -0.00000000000E+00 -0.18250000000E+03  0.18250000000E+03  0.00000000000E+00 0. -1.
        -11    1    1    2    0    0 -0.19672335903E+01 -0.32398559754E+01  0.15649265588E+03  0.15653855122E+03  0.00000000000E+00 0.  1.
         11    1    1    2    0    0  0.43153151959E-01  0.35074735468E+01 -0.16339581042E+03  0.16343345770E+03  0.00000000000E+00 0. -1.
        -15    1    1    2    0    0 -0.13441233410E+02  0.14886334977E+02 -0.43868478025E+01  0.20607568689E+02  0.17770000000E+01 0. -1.
         15    1    1    2    0    0  0.15365313848E+02 -0.15153952548E+02  0.11290002350E+02  0.24420422387E+02  0.17770000000E+01 0.  1.
</event>
<event>
 6    1  0.1045352E-002  0.1922820E+03  0.7546771E-02  0.1060924E+00
        -11   -1    0    0    0    0  0.00000000000E+00  0.00000000000E+00  0.18250000000E+03  0.18250000000E+03  0.00000000000E+00 0.  1.
         11   -1    0    0    0    0 -0.00000000000E+00 -0.00000000000E+00 -0.18250000000E+03  0.18250000000E+03  0.00000000000E+00 0. -1.
        -11    1    1    2    0    0 -0.30963060390E+01  0.61216195338E+01  0.15432830103E+03  0.15448069730E+03  0.00000000000E+00 0.  1.
         11    1    1    2    0    0 -0.52976745318E+01 -0.14564730243E+01 -0.17263056846E+03  0.17271797774E+03  0.00000000000E+00 0. -1.
        -15    1    1    2    0    0  0.93750104977E+01 -0.17271187875E+02  0.14474546004E+02  0.24471513306E+02  0.17770000000E+01 0.  1.
         15    1    1    2    0    0 -0.98102992691E+00  0.12606041366E+02  0.38277214165E+01  0.13329811659E+02  0.17770000000E+01 0. -1.
</event>
<event>
 6    1  0.1045352E-002  0.1834655E+03  0.7546771E-02  0.1067689E+00
        -11   -1    0    0    0    0  0.00000000000E+00  0.00000000000E+00  0.18250000000E+03  0.18250000000E+03  0.00000000000E+00 0.  1.
         11   -1    0    0    0    0 -0.00000000000E+00 -0.00000000000E+00 -0.18250000000E+03  0.18250000000E+03  0.00000000000E+00 0. -1.
        -11    1    1    2    0    0  0.67609038361E+01 -0.79702002891E+00  0.51607838203E+02  0.52054913559E+02  0.00000000000E+00 0.  1.
         11    1    1    2    0    0 -0.24767754976E+01  0.33341697645E+01 -0.18148700723E+03  0.18153452812E+03  0.00000000000E+00 0. -1.
        -15    1    1    2    0    0  0.60797573538E+00 -0.61334835609E+01  0.14469452573E+02  0.15827572203E+02  0.17770000000E+01 0. -1.
         15    1    1    2    0    0 -0.48921040738E+01  0.35963338253E+01  0.11540971646E+03  0.11558298612E+03  0.17770000000E+01 0.  1.
</event>
<event>
 6    1  0.1045352E-002  0.1836908E+03  0.7546771E-02  0.1067511E+00
        -11   -1    0    0    0    0  0.00000000000E+00  0.00000000000E+00  0.18250000000E+03  0.18250000000E+03  0.00000000000E+00 0.  1.
         11   -1    0    0    0    0 -0.00000000000E+00 -0.00000000000E+00 -0.18250000000E+03  0.18250000000E+03  0.00000000000E+00 0. -1.
        -11    1    1    2    0    0 -0.36919957700E+01  0.15342974754E+01  0.16045292206E+03  0.16050272614E+03  0.00000000000E+00 0.  1.
         11    1    1    2    0    0  0.34486294760E+01 -0.66400612641E+00 -0.18127517826E+03  0.18130919503E+03  0.00000000000E+00 0. -1.
        -15    1    1    2    0    0 -0.45451825558E+01 -0.32743017490E+00  0.80195435344E+01  0.93934393320E+01  0.17770000000E+01 0.  1.
         15    1    1    2    0    0  0.47885488498E+01 -0.54286117413E+00  0.12802712668E+02  0.13794639502E+02  0.17770000000E+01 0. -1.
</event>
<event>
 6    1  0.1045352E-002  0.1834400E+03  0.7546771E-02  0.1067709E+00
        -11   -1    0    0    0    0  0.00000000000E+00  0.00000000000E+00  0.18250000000E+03  0.18250000000E+03  0.00000000000E+00 0.  1.
         11   -1    0    0    0    0 -0.00000000000E+00 -0.00000000000E+00 -0.18250000000E+03  0.18250000000E+03  0.00000000000E+00 0.  1.
        -11    1    1    2    0    0  0.61175130171E+00  0.17275473324E+01  0.10439348047E+03  0.10440956577E+03  0.00000000000E+00 0.  1.
         11    1    1    2    0    0  0.48465414828E+01  0.79205071934E+01 -0.18132235119E+03  0.18155995825E+03  0.00000000000E+00 0.  1.
        -15    1    1    2    0    0  0.25778428394E+01 -0.84568811395E+01  0.28496154406E+02  0.29889005625E+02  0.17770000000E+01 0.  1.
         15    1    1    2    0    0 -0.80361356238E+01 -0.11911733863E+01  0.48432716320E+02  0.49141470358E+02  0.17770000000E+01 0. -1.
</event>
<event>
 6    1  0.1045352E-002  0.1908299E+03  0.7546771E-02  0.1062011E+00
        -11   -1    0    0    0    0  0.00000000000E+00  0.00000000000E+00  0.18250000000E+03  0.18250000000E+03  0.00000000000E+00 0.  1.
         11   -1    0    0    0    0 -0.00000000000E+00 -0.00000000000E+00 -0.18250000000E+03  0.18250000000E+03  0.00000000000E+00 0.  1.
        -11    1    1    2    0    0  0.57206160667E+01  0.40169906436E+01  0.11023744338E+03  0.11045884113E+03  0.00000000000E+00 0.  1.
         11    1    1    2    0    0 -0.93963779763E+00 -0.24129724838E+01 -0.17415082275E+03  0.17417007326E+03  0.00000000000E+00 0.  1.
        -15    1    1    2    0    0 -0.58014593384E+01 -0.95612368333E+01  0.69511913767E+02  0.70428247634E+02  0.17770000000E+01 0.  1.
         15    1    1    2    0    0  0.10204810694E+01  0.79572186735E+01 -0.55985343987E+01  0.99428379773E+01  0.17770000000E+01 0.  1.
</event>
<event>
 6    1  0.1045352E-002  0.1831789E+03  0.7546771E-02  0.1067916E+00
        -11   -1    0    0    0    0  0.00000000000E+00  0.00000000000E+00  0.18250000000E+03  0.18250000000E+03  0.00000000000E+00 0. -1.
         11   -1    0    0    0    0 -0.00000000000E+00 -0.00000000000E+00 -0.18250000000E+03  0.18250000000E+03  0.00000000000E+00 0. -1.
        -11    1    1    2    0    0 -0.35315192414E+01  0.32719644783E+01  0.18175734796E+03  0.18182109591E+03  0.00000000000E+00 0. -1.
         11    1    1    2    0    0 -0.13021029245E+01  0.24910496733E+01 -0.13989521251E+03  0.13992344794E+03  0.00000000000E+00 0. -1.
        -15    1    1    2    0    0 -0.13451661591E+01 -0.33175286033E+01 -0.16490290565E+02  0.16967701080E+02  0.17770000000E+01 0.  1.
         15    1    1    2    0    0  0.61787883250E+01 -0.24454855483E+01 -0.25371844883E+02  0.26287755068E+02  0.17770000000E+01 0. -1.
</event>
<event>
 6    1  0.1045352E-002  0.1849470E+03  0.7546771E-02  0.1066523E+00
        -11   -1    0    0    0    0  0.00000000000E+00  0.00000000000E+00  0.18250000000E+03  0.18250000000E+03  0.00000000000E+00 0.  1.
         11   -1    0    0    0    0 -0.00000000000E+00 -0.00000000000E+00 -0.18250000000E+03  0.18250000000E+03  0.00000000000E+00 0. -1.
        -11    1    1    2    0    0 -0.85279147472E+01 -0.12608983300E+01  0.17984647282E+03  0.18005296160E+03  0.00000000000E+00 0.  1.
         11    1    1    2    0    0  0.80689052502E-01 -0.18949109091E+01 -0.11261070468E+03  0.11262667537E+03  0.00000000000E+00 0. -1.
        -15    1    1    2    0    0 -0.80662259375E+00  0.17485369328E+01  0.14379599640E+01  0.29888926498E+01  0.17770000000E+01 0.  1.
         15    1    1    2    0    0  0.92538482884E+01  0.14072723063E+01 -0.68673728108E+02  0.69331470378E+02  0.17770000000E+01 0. -1.
</event>
<event>
 6    1  0.1045352E-002  0.1856491E+03  0.7546771E-02  0.1065975E+00
        -11   -1    0    0    0    0  0.00000000000E+00  0.00000000000E+00  0.18250000000E+03  0.18250000000E+03  0.00000000000E+00 0.  1.
         11   -1    0    0    0    0 -0.00000000000E+00 -0.00000000000E+00 -0.18250000000E+03  0.18250000000E+03  0.00000000000E+00 0. -1.
        -11    1    1    2    0    0 -0.32424857421E+01 -0.22933162428E+01  0.17008919266E+03  0.17013555323E+03  0.00000000000E+00 0.  1.
         11    1    1    2    0    0  0.24663528987E+01 -0.35401039665E+01 -0.17929899954E+03  0.17935090317E+03  0.00000000000E+00 0. -1.
        -15    1    1    2    0    0  0.27858720893E+01 -0.14845139799E+01  0.61554526899E+01  0.71422819793E+01  0.17770000000E+01 0.  1.
         15    1    1    2    0    0 -0.20097392460E+01  0.73179341892E+01  0.30543541835E+01  0.83712616201E+01  0.17770000000E+01 0. -1.
</event>
<event>
 6    1  0.1045352E-002  0.1648268E+03  0.7546771E-02  0.1083463E+00
        -11   -1    0    0    0    0  0.00000000000E+00  0.00000000000E+00  0.18250000000E+03  0.18250000000E+03  0.00000000000E+00 0. -1.
         11   -1    0    0    0    0 -0.00000000000E+00 -0.00000000000E+00 -0.18250000000E+03  0.18250000000E+03  0.00000000000E+00 0.  1.
        -11    1    1    2    0    0  0.10421006164E+02 -0.12276293233E+02  0.16110343916E+03  0.16190621623E+03  0.00000000000E+00 0. -1.
         11    1    1    2    0    0  0.17098330778E+01 -0.40295120792E+01 -0.16839692167E+03  0.16845380294E+03  0.00000000000E+00 0.  1.
        -15    1    1    2    0    0 -0.11829285625E+01  0.85760584028E+00 -0.91897726782E+01  0.94733551943E+01  0.17770000000E+01 0. -1.
         15    1    1    2    0    0 -0.10947910679E+02  0.15448199472E+02  0.16483255194E+02  0.25166625637E+02  0.17770000000E+01 0.  1.
</event>
<event>
 6    1  0.1045352E-002  0.2190982E+03  0.7546771E-02  0.1042560E+00
        -11   -1    0    0    0    0  0.00000000000E+00  0.00000000000E+00  0.18250000000E+03  0.18250000000E+03  0.00000000000E+00 0. -1.
         11   -1    0    0    0    0 -0.00000000000E+00 -0.00000000000E+00 -0.18250000000E+03  0.18250000000E+03  0.00000000000E+00 0. -1.
        -11    1    1    2    0    0 -0.48520933765E+01 -0.13112395910E+01  0.13178172436E+03  0.13187753802E+03  0.00000000000E+00 0. -1.
         11    1    1    2    0    0 -0.53956754832E+00  0.20213223569E+01 -0.14588681876E+03  0.14590181892E+03  0.00000000000E+00 0. -1.
        -15    1    1    2    0    0  0.32566140922E+01  0.12906845281E+02 -0.34313070800E+02  0.36847479523E+02  0.17770000000E+01 0.  1.
         15    1    1    2    0    0  0.21350468326E+01 -0.13616928047E+02  0.48418165202E+02  0.50373163539E+02  0.17770000000E+01 0. -1.
</event>
<event>
 6    1  0.1045352E-002  0.1841987E+03  0.7546771E-02  0.1067111E+00
        -11   -1    0    0    0    0  0.00000000000E+00  0.00000000000E+00  0.18250000000E+03  0.18250000000E+03  0.00000000000E+00 0.  1.
         11   -1    0    0    0    0 -0.00000000000E+00 -0.00000000000E+00 -0.18250000000E+03  0.18250000000E+03  0.00000000000E+00 0.  1.
        -11    1    1    2    0    0 -0.76844501323E+00  0.51334130972E+01  0.17144856862E+03  0.17152712357E+03  0.00000000000E+00 0.  1.
         11    1    1    2    0    0  0.22953817050E+01  0.11432699801E+01 -0.18078315017E+03  0.18080133635E+03  0.00000000000E+00 0.  1.
        -15    1    1    2    0    0  0.13438993275E+01 -0.20553090370E+01  0.23271431379E+01  0.38214767858E+01  0.17770000000E+01 0.  1.
         15    1    1    2    0    0 -0.28708360192E+01 -0.42213740403E+01  0.70074384032E+01  0.88500632885E+01  0.17770000000E+01 0. -1.
</event>
<event>
 6    1  0.1045352E-002  0.1848708E+03  0.7546771E-02  0.1066583E+00
        -11   -1    0    0    0    0  0.00000000000E+00  0.00000000000E+00  0.18250000000E+03  0.18250000000E+03  0.00000000000E+00 0.  1.
         11   -1    0    0    0    0 -0.00000000000E+00 -0.00000000000E+00 -0.18250000000E+03  0.18250000000E+03  0.00000000000E+00 0. -1.
        -11    1    1    2    0    0 -0.28856500472E+00  0.51810678988E+01  0.83785075896E+02  0.83945611423E+02  0.00000000000E+00 0.  1.
         11    1    1    2    0    0 -0.44987678255E+01  0.23836721235E+01 -0.18005723630E+03  0.18012920127E+03  0.00000000000E+00 0. -1.
        -15    1    1    2    0    0  0.20968040571E+01 -0.84867577626E+01  0.97069119982E+02  0.97478168980E+02  0.17770000000E+01 0. -1.
         15    1    1    2    0    0  0.26905287731E+01  0.92201774038E+00 -0.79695957509E+00  0.34470183285E+01  0.17770000000E+01 0.  1.
</event>
<event>
 6    1  0.1045352E-002  0.1832614E+03  0.7546771E-02  0.1067850E+00
        -11   -1    0    0    0    0  0.00000000000E+00  0.00000000000E+00  0.18250000000E+03  0.18250000000E+03  0.00000000000E+00 0.  1.
         11   -1    0    0    0    0 -0.00000000000E+00 -0.00000000000E+00 -0.18250000000E+03  0.18250000000E+03  0.00000000000E+00 0. -1.
        -11    1    1    2    0    0  0.28681800244E+01  0.21085092008E+01  0.18170369138E+03  0.18173855873E+03  0.00000000000E+00 0.  1.
         11    1    1    2    0    0 -0.57457502343E-01 -0.47759280652E+01 -0.41589870929E+02  0.41863231530E+02  0.00000000000E+00 0. -1.
        -15    1    1    2    0    0  0.16825683719E+00 -0.16919820094E+01 -0.19943442670E+01  0.31664256724E+01  0.17770000000E+01 0.  1.
         15    1    1    2    0    0 -0.29789793593E+01  0.43594008739E+01 -0.13811947619E+03  0.13823178406E+03  0.17770000000E+01 0. -1.
</event>
<event>
 6    1  0.1045352E-002  0.1867749E+03  0.7546771E-02  0.1065102E+00
        -11   -1    0    0    0    0  0.00000000000E+00  0.00000000000E+00  0.18250000000E+03  0.18250000000E+03  0.00000000000E+00 0. -1.
         11   -1    0    0    0    0 -0.00000000000E+00 -0.00000000000E+00 -0.18250000000E+03  0.18250000000E+03  0.00000000000E+00 0.  1.
        -11    1    1    2    0    0  0.17697375493E+01  0.38323471305E+01  0.15461896510E+03  0.15467657620E+03  0.00000000000E+00 0. -1.
         11    1    1    2    0    0  0.25770651416E+01  0.12465493768E+01 -0.17820208452E+03  0.17822507702E+03  0.00000000000E+00 0.  1.
        -15    1    1    2    0    0  0.76757668866E+01 -0.30126534334E+01  0.50235310532E+01  0.98176917476E+01  0.17770000000E+01 0.  1.
         15    1    1    2    0    0 -0.12022569578E+02 -0.20662430739E+01  0.18559588368E+02  0.22280655042E+02  0.17770000000E+01 0. -1.
</event>
<event>
 6    1  0.1225682E-002  0.1862047E+03  0.7546771E-02  0.1065544E+00
        -11   -1    0    0    0    0  0.00000000000E+00  0.00000000000E+00  0.18250000000E+03  0.18250000000E+03  0.00000000000E+00 0.  1.
         11   -1    0    0    0    0 -0.00000000000E+00 -0.00000000000E+00 -0.18250000000E+03  0.18250000000E+03  0.00000000000E+00 0. -1.
        -11    1    1    2    0    0 -0.18676365581E+01  0.18505578125E+01  0.17877598120E+03  0.17879531337E+03  0.00000000000E+00 0.  1.
         11    1    1    2    0    0  0.48395929237E+00 -0.18284840880E+01 -0.67380487927E+02  0.67407030227E+02  0.00000000000E+00 0. -1.
        -15    1    1    2    0    0 -0.88105081873E+00  0.31563878218E+01 -0.11381357054E+03  0.11387460473E+03  0.17770000000E+01 0. -1.
         15    1    1    2    0    0  0.22647280845E+01 -0.31784615463E+01  0.24180772694E+01  0.49230516734E+01  0.17770000000E+01 0. -1.
</event>
<event>
 6    1  0.1045352E-002  0.1852496E+03  0.7546771E-02  0.1066287E+00
        -11   -1    0    0    0    0  0.00000000000E+00  0.00000000000E+00  0.18250000000E+03  0.18250000000E+03  0.00000000000E+00 0. -1.
         11   -1    0    0    0    0 -0.00000000000E+00 -0.00000000000E+00 -0.18250000000E+03  0.18250000000E+03  0.00000000000E+00 0.  1.
        -11    1    1    2    0    0 -0.31951131573E+01 -0.13551960534E+01  0.17849779297E+03  0.17853153055E+03  0.00000000000E+00 0. -1.
         11    1    1    2    0    0  0.46167051999E+01  0.22011961872E+01 -0.17967763874E+03  0.17975041890E+03  0.00000000000E+00 0.  1.
        -15    1    1    2    0    0 -0.20730454729E+01 -0.17391137818E+01 -0.12864474495E+01  0.34834911108E+01  0.17770000000E+01 0. -1.
         15    1    1    2    0    0  0.65145343034E+00  0.89311364803E+00  0.24662932143E+01  0.32345594413E+01  0.17770000000E+01 0. -1.
</event>
<event>
 6    1  0.1045352E-002  0.1847028E+03  0.7546771E-02  0.1066715E+00
        -11   -1    0    0    0    0  0.00000000000E+00  0.00000000000E+00  0.18250000000E+03  0.18250000000E+03  0.00000000000E+00 0. -1.
         11   -1    0    0    0    0 -0.00000000000E+00 -0.00000000000E+00 -0.18250000000E+03  0.18250000000E+03  0.00000000000E+00 0.  1.
        -11    1    1    2    0    0 -0.23974140650E+01  0.17059731503E+01  0.18027319865E+03  0.18029721044E+03  0.00000000000E+00 0. -1.
         11    1    1    2    0    0  0.68267643861E+01 -0.24468009757E+01 -0.15737768129E+03  0.15754467975E+03  0.00000000000E+00 0.  1.
        -15    1    1    2    0    0 -0.47270429862E+01 -0.29382141467E+01 -0.22258252688E+02  0.23012291922E+02  0.17770000000E+01 0.  1.
         15    1    1    2    0    0  0.29769266510E+00  0.36790419722E+01 -0.63726467014E+00  0.41458178947E+01  0.17770000000E+01 0. -1.
</event>
<event>
 6    1  0.1045352E-002  0.1829027E+03  0.7546771E-02  0.1068135E+00
        -11   -1    0    0    0    0  0.00000000000E+00  0.00000000000E+00  0.18250000000E+03  0.18250000000E+03  0.00000000000E+00 0.  1.
         11   -1    0    0    0    0 -0.00000000000E+00 -0.00000000000E+00 -0.18250000000E+03  0.18250000000E+03  0.00000000000E+00 0. -1.
        -11    1    1    2    0    0  0.14180332500E+01  0.31514807828E+01  0.11713571261E+03  0.11718667936E+03  0.00000000000E+00 0.  1.
         11    1    1    2    0    0 -0.11586520487E+01 -0.25751337552E+01 -0.18207541895E+03  0.18209731457E+03  0.00000000000E+00 0. -1.
        -15    1    1    2    0    0 -0.35301778375E+00 -0.23401276437E+01  0.60835750975E+02  0.60907693641E+02  0.17770000000E+01 0. -1.
         15    1    1    2    0    0  0.93636582403E-01  0.17637806161E+01  0.41039553577E+01  0.48083124325E+01  0.17770000000E+01 0.  1.
</event>
<event>
 6    1  0.1045352E-002  0.1882450E+03  0.7546771E-02  0.1063972E+00
        -11   -1    0    0    0    0  0.00000000000E+00  0.00000000000E+00  0.18250000000E+03  0.18250000000E+03  0.00000000000E+00 0.  1.
         11   -1    0    0    0    0 -0.00000000000E+00 -0.00000000000E+00 -0.18250000000E+03  0.18250000000E+03  0.00000000000E+00 0. -1.
        -11    1    1    2    0    0 -0.79759367142E+00  0.11160896432E+01  0.73038483012E+02  0.73051364207E+02  0.00000000000E+00 0.  1.
         11    1    1    2    0    0  0.10597443089E+02  0.45126020160E+01 -0.17637927490E+03  0.17675496596E+03  0.00000000000E+00 0. -1.
        -15    1    1    2    0    0 -0.16816250453E+02  0.14693154177E+02  0.23404098923E+02  0.32397293627E+02  0.17770000000E+01 0. -1.
         15    1    1    2    0    0  0.70164010348E+01 -0.20321845836E+02  0.79936692965E+02  0.82796376206E+02  0.17770000000E+01 0.  1.
</event>
<event>
 6    1  0.1045352E-002  0.1838560E+03  0.7546771E-02  0.1067381E+00
        -11   -1    0    0    0    0  0.00000000000E+00  0.00000000000E+00  0.18250000000E+03  0.18250000000E+03  0.00000000000E+00 0. -1.
         11   -1    0    0    0    0 -0.00000000000E+00 -0.00000000000E+00 -0.18250000000E+03  0.18250000000E+03  0.00000000000E+00 0.  1.
        -11    1    1    2    0    0 -0.26858256613E+01  0.26446638100E+01  0.96856441830E+02  0.96929759260E+02  0.00000000000E+00 0. -1.
         11    1    1    2    0    0  0.30861760200E+01 -0.39591287434E+01 -0.18107441673E+03  0.18114398576E+03  0.00000000000E+00 0.  1.
        -15    1    1    2    0    0 -0.13242667783E+01  0.55627135661E+01  0.56973463359E+01  0.82652857779E+01  0.17770000000E+01 0.  1.
         15    1    1    2    0    0  0.92391641951E+00 -0.42482486327E+01  0.78520628560E+02  0.78660969207E+02  0.17770000000E+01 0. -1.
</event>
<event>
 6    1  0.1045352E-002  0.1845733E+03  0.7546771E-02  0.1066816E+00
        -11   -1    0    0    0    0  0.00000000000E+00  0.00000000000E+00  0.18250000000E+03  0.18250000000E+03  0.00000000000E+00 0. -1.
         11   -1    0    0    0    0 -0.00000000000E+00 -0.00000000000E+00 -0.18250000000E+03  0.18250000000E+03  0.00000000000E+00 0. -1.
        -11    1    1    2    0    0 -0.39271342898E+01 -0.31213856805E+01  0.14355481280E+03  0.14364243701E+03  0.00000000000E+00 0. -1.
         11    1    1    2    0    0  0.36347016213E+01  0.22055753575E+01 -0.18037658977E+03  0.18042668804E+03  0.00000000000E+00 0. -1.
        -15    1    1    2    0    0 -0.11970700790E+01 -0.10532381005E+01  0.37691493113E+02  0.37767031514E+02  0.17770000000E+01 0. -1.
         15    1    1    2    0    0  0.14895027476E+01  0.19690484235E+01 -0.86971614103E+00  0.31638434372E+01  0.17770000000E+01 0. -1.
</event>
<event>
 6    1  0.1121881E-002  0.1917759E+03  0.7546771E-02  0.1061302E+00
        -11   -1    0    0    0    0  0.00000000000E+00  0.00000000000E+00  0.18250000000E+03  0.18250000000E+03  0.00000000000E+00 0. -1.
         11   -1    0    0    0    0 -0.00000000000E+00 -0.00000000000E+00 -0.18250000000E+03  0.18250000000E+03  0.00000000000E+00 0. -1.
        -11    1    1    2    0    0 -0.43534130977E+01  0.47558409755E+01  0.17035993705E+03  0.17048190044E+03  0.00000000000E+00 0. -1.
         11    1    1    2    0    0  0.48125904266E+01 -0.46998387896E+01 -0.17309340928E+03  0.17322406833E+03  0.00000000000E+00 0. -1.
        -15    1    1    2    0    0 -0.44578471291E+01  0.40347072734E+01 -0.72911353900E+01  0.96161139804E+01  0.17770000000E+01 0.  1.
         15    1    1    2    0    0  0.39986698002E+01 -0.40907094594E+01  0.10024607630E+02  0.11677917245E+02  0.17770000000E+01 0.  1.
</event>
<event>
 6    1  0.1045352E-002  0.1857701E+03  0.7546771E-02  0.1065881E+00
        -11   -1    0    0    0    0  0.00000000000E+00  0.00000000000E+00  0.18250000000E+03  0.18250000000E+03  0.00000000000E+00 0.  1.
         11   -1    0    0    0    0 -0.00000000000E+00 -0.00000000000E+00 -0.18250000000E+03  0.18250000000E+03  0.00000000000E+00 0.  1.
        -11    1    1    2    0    0  0.81237445126E+01  0.23690243619E+01  0.17903006057E+03  0.17922993636E+03  0.00000000000E+00 0.  1.
         11    1    1    2    0    0  0.20823755288E+01 -0.45364905523E+01 -0.16768881064E+03  0.16776308667E+03  0.00000000000E+00 0.  1.
        -15    1    1    2    0    0 -0.35906971878E+01 -0.32518892412E+01 -0.52288525924E+01  0.73461907384E+01  0.17770000000E+01 0. -1.
         15    1    1    2    0    0 -0.66154228537E+01  0.54193554315E+01 -0.61123973400E+01  0.10660786231E+02  0.17770000000E+01 0.  1.
</event>
<event>
 6    1  0.1045352E-002  0.1827349E+03  0.7546771E-02  0.1068268E+00
        -11   -1    0    0    0    0  0.00000000000E+00  0.00000000000E+00  0.18250000000E+03  0.18250000000E+03  0.00000000000E+00 0.  1.
         11   -1    0    0    0    0 -0.00000000000E+00 -0.00000000000E+00 -0.18250000000E+03  0.18250000000E+03  0.00000000000E+00 0.  1.
        -11    1    1    2    0    0 -0.19640640335E+01 -0.13181998321E+01  0.31123117030E+02  0.31212875741E+02  0.00000000000E+00 0.  1.
         11    1    1    2    0    0 -0.92444426044E+00 -0.31892982248E+01 -0.18223482279E+03  0.18226507306E+03  0.00000000000E+00 0.  1.
        -15    1    1    2    0    0 -0.10497752624E+01  0.22915330970E+00  0.10385616753E+03  0.10387692623E+03  0.17770000000E+01 0.  1.
         15    1    1    2    0    0  0.39382835563E+01  0.42783447472E+01  0.47255538230E+02  0.47645124971E+02  0.17770000000E+01 0. -1.
</event>
<event>
 6    1  0.1045352E-002  0.1844087E+03  0.7546771E-02  0.1066946E+00
        -11   -1    0    0    0    0  0.00000000000E+00  0.00000000000E+00  0.18250000000E+03  0.18250000000E+03  0.00000000000E+00 0. -1.
         11   -1    0    0    0    0 -0.00000000000E+00 -0.00000000000E+00 -0.18250000000E+03  0.18250000000E+03  0.00000000000E+00 0. -1.
        -11    1    1    2    0    0  0.16068054891E+01 -0.19599237279E+01  0.18057355752E+03  0.18059134198E+03  0.00000000000E+00 0. -1.
         11    1    1    2    0    0  0.13966690705E+01  0.46058406664E+01 -0.15304336768E+03  0.15311902836E+03  0.00000000000E+00 0. -1.
        -15    1    1    2    0    0 -0.21471852101E+01 -0.83581240591E+00 -0.28342833048E+02  0.28491804100E+02  0.17770000000E+01 0.  1.
         15    1    1    2    0    0 -0.85628934945E+00 -0.18101045327E+01  0.81264321263E+00  0.27978255593E+01  0.17770000000E+01 0. -1.
</event>
<event>
 6    1  0.1045352E-002  0.1826968E+03  0.7546771E-02  0.1068298E+00
        -11   -1    0    0    0    0  0.00000000000E+00  0.00000000000E+00  0.18250000000E+03  0.18250000000E+03  0.00000000000E+00 0.  1.
         11   -1    0    0    0    0 -0.00000000000E+00 -0.00000000000E+00 -0.18250000000E+03  0.18250000000E+03  0.00000000000E+00 0.  1.
        -11    1    1    2    0    0  0.19970633128E+01 -0.16942925143E+01  0.18228436018E+03  0.18230317292E+03  0.00000000000E+00 0.  1.
         11    1    1    2    0    0  0.83208788558E+00  0.31481303986E+00 -0.27750138060E+02  0.27764395182E+02  0.00000000000E+00 0.  1.
        -15    1    1    2    0    0  0.18259750705E+01 -0.33648992987E+01 -0.58423510006E+02  0.58575771294E+02  0.17770000000E+01 0. -1.
         15    1    1    2    0    0 -0.46551262689E+01  0.47443787732E+01 -0.96110712116E+02  0.96356660606E+02  0.17770000000E+01 0.  1.
</event>
<event>
 6    1  0.1045352E-002  0.1836078E+03  0.7546771E-02  0.1067576E+00
        -11   -1    0    0    0    0  0.00000000000E+00  0.00000000000E+00  0.18250000000E+03  0.18250000000E+03  0.00000000000E+00 0. -1.
         11   -1    0    0    0    0 -0.00000000000E+00 -0.00000000000E+00 -0.18250000000E+03  0.18250000000E+03  0.00000000000E+00 0. -1.
        -11    1    1    2    0    0  0.24199285126E+01 -0.16681098103E+01  0.18136834070E+03  0.18139215433E+03  0.00000000000E+00 0. -1.
         11    1    1    2    0    0 -0.23024123457E+01 -0.28795098892E+01 -0.16653299345E+03  0.16657379922E+03  0.00000000000E+00 0. -1.
        -15    1    1    2    0    0  0.83403566827E+00 -0.12410971065E+00 -0.83319272189E+00  0.21361081031E+01  0.17770000000E+01 0.  1.
         15    1    1    2    0    0 -0.95155183519E+00  0.46717294101E+01 -0.14002154526E+02  0.14897938346E+02  0.17770000000E+01 0.  1.
</event>
<event>
 6    1  0.1045352E-002  0.1832325E+03  0.7546771E-02  0.1067873E+00
        -11   -1    0    0    0    0  0.00000000000E+00  0.00000000000E+00  0.18250000000E+03  0.18250000000E+03  0.00000000000E+00 0. -1.
         11   -1    0    0    0    0 -0.00000000000E+00 -0.00000000000E+00 -0.18250000000E+03  0.18250000000E+03  0.00000000000E+00 0. -1.
        -11    1    1    2    0    0 -0.52616767324E+00  0.55287504535E+01  0.18168261934E+03  0.18176748363E+03  0.00000000000E+00 0. -1.
         11    1    1    2    0    0 -0.41247242530E+00  0.11053072684E+01 -0.28067143845E+02  0.28091927689E+02  0.00000000000E+00 0. -1.
        -15    1    1    2    0    0  0.75959130723E+00 -0.71493651025E+01 -0.17376203820E+02  0.18888636491E+02  0.17770000000E+01 0. -1.
         15    1    1    2    0    0  0.17904879132E+00  0.51530738056E+00 -0.13623927168E+03  0.13625195219E+03  0.17770000000E+01 0. -1.
</event>
<event>
 6    1  0.1045352E-002  0.1845534E+03  0.7546771E-02  0.1066832E+00
        -11   -1    0    0    0    0  0.00000000000E+00  0.00000000000E+00  0.18250000000E+03  0.18250000000E+03  0.00000000000E+00 0. -1.
         11   -1    0    0    0    0 -0.00000000000E+00 -0.00000000000E+00 -0.18250000000E+03  0.18250000000E+03  0.00000000000E+00 0.  1.
        -11    1    1    2    0    0  0.49327414290E+01  0.56593599038E+01  0.12615197701E+03  0.12637516211E+03  0.00000000000E+00 0. -1.
         11    1    1    2    0    0 -0.42597910988E+01  0.73045927782E+00 -0.18039485995E+03  0.18044662615E+03  0.00000000000E+00 0.  1.
        -15    1    1    2    0    0 -0.41765427383E+01 -0.50272321042E+01  0.53533261142E+02  0.53960025476E+02  0.17770000000E+01 0.  1.
         15    1    1    2    0    0  0.35035924080E+01 -0.13625870775E+01  0.70962179666E+00  0.42181862690E+01  0.17770000000E+01 0. -1.
</event>
<event>
 6    1  0.1045352E-002  0.1843185E+03  0.7546771E-02  0.1067016E+00
        -11   -1    0    0    0    0  0.00000000000E+00  0.00000000000E+00  0.18250000000E+03  0.18250000000E+03  0.00000000000E+00 0. -1.
         11   -1    0    0    0    0 -0.00000000000E+00 -0.00000000000E+00 -0.18250000000E+03  0.18250000000E+03  0.00000000000E+00 0. -1.
        -11    1    1    2    0    0 -0.16241585080E+01  0.10711427773E+01  0.12312269010E+03  0.12313806096E+03  0.00000000000E+00 0. -1.
         11    1    1    2    0    0  0.64165091756E-02  0.49662129919E+01 -0.18061321614E+03  0.18068147984E+03  0.00000000000E+00 0. -1.
        -15    1    1    2    0    0 -0.15694372348E+01 -0.31092963128E+01  0.43585274776E+00  0.39342792748E+01  0.17770000000E+01 0.  1.
         15    1    1    2    0    0  0.31871792336E+01 -0.29280594565E+01  0.57054673287E+02  0.57246179929E+02  0.17770000000E+01 0. -1.
</event>
<event>
 6    1  0.1045352E-002  0.1831520E+03  0.7546771E-02  0.1067937E+00
        -11   -1    0    0    0    0  0.00000000000E+00  0.00000000000E+00  0.18250000000E+03  0.18250000000E+03  0.00000000000E+00 0.  1.
         11   -1    0    0    0    0 -0.00000000000E+00 -0.00000000000E+00 -0.18250000000E+03  0.18250000000E+03  0.00000000000E+00 0. -1.
        -11    1    1    2    0    0 -0.64864380108E+00 -0.29566607432E+01  0.13861892564E+03  0.13865197124E+03  0.00000000000E+00 0.  1.
         11    1    1    2    0    0  0.33167695633E+01 -0.48280168573E+01 -0.18175361613E+03  0.18184797960E+03  0.00000000000E+00 0. -1.
        -15    1    1    2    0    0 -0.67417200954E+00 -0.68915766099E+00  0.67483076199E+01  0.70446313540E+01  0.17770000000E+01 0. -1.
         15    1    1    2    0    0 -0.19939537527E+01  0.84738352614E+01  0.36386382873E+02  0.37455417808E+02  0.17770000000E+01 0.  1.
</event>
<event>
 6    1  0.1045352E-002  0.1826060E+03  0.7546771E-02  0.1068370E+00
        -11   -1    0    0    0    0  0.00000000000E+00  0.00000000000E+00  0.18250000000E+03  0.18250000000E+03  0.00000000000E+00 0. -1.
         11   -1    0    0    0    0 -0.00000000000E+00 -0.00000000000E+00 -0.18250000000E+03  0.18250000000E+03  0.00000000000E+00 0. -1.
        -11    1    1    2    0    0  0.31116451350E+00 -0.17827859872E+01  0.87907167805E+02  0.87925794285E+02  0.00000000000E+00 0. -1.
         11    1    1    2    0    0  0.15041929273E+00 -0.26218559523E+01 -0.18237510751E+03  0.18239401468E+03  0.00000000000E+00 0. -1.
        -15    1    1    2    0    0  0.91804509861E+00  0.17057768538E+01  0.29332187344E+02  0.29449744054E+02  0.17770000000E+01 0.  1.
         15    1    1    2    0    0 -0.13796289048E+01  0.26988650857E+01  0.65135752357E+02  0.65230446977E+02  0.17770000000E+01 0. -1.
</event>
<event>
 6    1  0.1045352E-002  0.1831846E+03  0.7546771E-02  0.1067911E+00
        -11   -1    0    0    0    0  0.00000000000E+00  0.00000000000E+00  0.18250000000E+03  0.18250000000E+03  0.00000000000E+00 0.  1.
         11   -1    0    0    0    0 -0.00000000000E+00 -0.00000000000E+00 -0.18250000000E+03  0.18250000000E+03  0.00000000000E+00 0. -1.
        -11    1    1    2    0    0  0.25489183650E+01  0.78626779326E+01  0.18162744252E+03  0.18181541894E+03  0.00000000000E+00 0.  1.
         11    1    1    2    0    0  0.61748077098E+01 -0.89080075900E+00 -0.11690978487E+03  0.11707612726E+03  0.00000000000E+00 0. -1.
        -15    1    1    2    0    0 -0.21960312594E+01 -0.49266150073E+01 -0.39967260023E+02  0.40368721697E+02  0.17770000000E+01 0. -1.
         15    1    1    2    0    0 -0.65276948155E+01 -0.20452621664E+01 -0.24750397626E+02  0.25739732100E+02  0.17770000000E+01 0.  1.
</event>
<event>
 6    1  0.1045352E-002  0.1874880E+03  0.7546771E-02  0.1064552E+00
        -11   -1    0    0    0    0  0.00000000000E+00  0.00000000000E+00  0.18250000000E+03  0.18250000000E+03  0.00000000000E+00 0.  1.
         11   -1    0    0    0    0 -0.00000000000E+00 -0.00000000000E+00 -0.18250000000E+03  0.18250000000E+03  0.00000000000E+00 0. -1.
        -11    1    1    2    0    0  0.71787697596E+01  0.38577130333E+01  0.16982113909E+03  0.17001657557E+03  0.00000000000E+00 0.  1.
         11    1    1    2    0    0 -0.12392498874E+00 -0.24760172279E+01 -0.17749472005E+03  0.17751203245E+03  0.00000000000E+00 0. -1.
        -15    1    1    2    0    0 -0.26999319639E+01 -0.68264027364E+01  0.69083251446E+01  0.10235823965E+02  0.17770000000E+01 0. -1.
         15    1    1    2    0    0 -0.43549128069E+01  0.54447069310E+01  0.76525580947E+00  0.72355680201E+01  0.17770000000E+01 0.  1.
</event>
<event>
 6    1  0.1045352E-002  0.1840826E+03  0.7546771E-02  0.1067202E+00
        -11   -1    0    0    0    0  0.00000000000E+00  0.00000000000E+00  0.18250000000E+03  0.18250000000E+03  0.00000000000E+00 0.  1.
         11   -1    0    0    0    0 -0.00000000000E+00 -0.00000000000E+00 -0.18250000000E+03  0.18250000000E+03  0.00000000000E+00 0. -1.
        -11    1    1    2    0    0  0.35084599942E+01  0.56501464853E+01  0.18079513177E+03  0.18091742072E+03  0.00000000000E+00 0.  1.
         11    1    1    2    0    0  0.39205803137E+01 -0.43394448837E-01 -0.11824955948E+03  0.11831454328E+03  0.00000000000E+00 0. -1.
        -15    1    1    2    0    0  0.69705519421E+00 -0.48925710416E+01 -0.39262055829E+01  0.65571302122E+01  0.17770000000E+01 0.  1.
         15    1    1    2    0    0 -0.81260955021E+01 -0.71418099479E+00 -0.58619366707E+02  0.59210905793E+02  0.17770000000E+01 0. -1.
</event>
<event>
 6    1  0.1045352E-002  0.1831911E+03  0.7546771E-02  0.1067906E+00
        -11   -1    0    0    0    0  0.00000000000E+00  0.00000000000E+00  0.18250000000E+03  0.18250000000E+03  0.00000000000E+00 0.  1.
         11   -1    0    0    0    0 -0.00000000000E+00 -0.00000000000E+00 -0.18250000000E+03  0.18250000000E+03  0.00000000000E+00 0. -1.
        -11    1    1    2    0    0 -0.35235347029E+00  0.11420609702E+01  0.76125293563E+02  0.76134675256E+02  0.00000000000E+00 0.  1.
         11    1    1    2    0    0 -0.12108959863E+01 -0.28255472609E+01 -0.18178291532E+03  0.18180890597E+03  0.00000000000E+00 0. -1.
        -15    1    1    2    0    0  0.77822557295E+00 -0.61628880389E+01  0.77290913094E+02  0.77560491231E+02  0.17770000000E+01 0.  1.
         15    1    1    2    0    0  0.78502388362E+00  0.78463743296E+01  0.28366708661E+02  0.29495927548E+02  0.17770000000E+01 0.  1.
</event>
<event>
 6    1  0.1045352E-002  0.1827907E+03  0.7546771E-02  0.1068224E+00
        -11   -1    0    0    0    0  0.00000000000E+00  0.00000000000E+00  0.18250000000E+03  0.18250000000E+03  0.00000000000E+00 0.  1.
         11   -1    0    0    0    0 -0.00000000000E+00 -0.00000000000E+00 -0.18250000000E+03  0.18250000000E+03  0.00000000000E+00 0.  1.
        -11    1    1    2    0    0 -0.11147558421E+01  0.25862654023E+01  0.18218753389E+03  0.18220929986E+03  0.00000000000E+00 0.  1.
         11    1    1    2    0    0 -0.19665271203E+01 -0.35512825592E+00 -0.10998694002E+03  0.11000509225E+03  0.00000000000E+00 0.  1.
        -15    1    1    2    0    0 -0.24194440100E+01 -0.58955549303E+00 -0.30729641097E+02  0.30881545556E+02  0.17770000000E+01 0. -1.
         15    1    1    2    0    0  0.55007269724E+01 -0.16415816534E+01 -0.41470952772E+02  0.41904062337E+02  0.17770000000E+01 0.  1.
</event>
<event>
 6    1  0.1045352E-002  0.1914264E+03  0.7546771E-02  0.1061563E+00
        -11   -1    0    0    0    0  0.00000000000E+00  0.00000000000E+00  0.18250000000E+03  0.18250000000E+03  0.00000000000E+00 0. -1.
         11   -1    0    0    0    0 -0.00000000000E+00 -0.00000000000E+00 -0.18250000000E+03  0.18250000000E+03  0.00000000000E+00 0. -1.
        -11    1    1    2    0    0 -0.36385307726E+01  0.57586641338E+01  0.15318259373E+03  0.15333397582E+03  0.00000000000E+00 0. -1.
         11    1    1    2    0    0  0.25733811343E+01  0.48543485988E+00 -0.17355383134E+03  0.17357358759E+03  0.00000000000E+00 0. -1.
        -15    1    1    2    0    0  0.45350893514E+01  0.32367542582E+01  0.25826370538E+02  0.26480233340E+02  0.17770000000E+01 0. -1.
         15    1    1    2    0    0 -0.34699397131E+01 -0.94808532519E+01 -0.54551329327E+01  0.11612203250E+02  0.17770000000E+01 0.  1.
</event>
<event>
 6    1  0.1045352E-002  0.1799513E+03  0.7546771E-02  0.1070502E+00
        -11   -1    0    0    0    0  0.00000000000E+00  0.00000000000E+00  0.18250000000E+03  0.18250000000E+03  0.00000000000E+00 0. -1.
         11   -1    0    0    0    0 -0.00000000000E+00 -0.00000000000E+00 -0.18250000000E+03  0.18250000000E+03  0.00000000000E+00 0. -1.
        -11    1    1    2    0    0 -0.22754503459E+01  0.13263554200E+01  0.17985051638E+03  0.17986980051E+03  0.00000000000E+00 0. -1.
         11    1    1    2    0    0  0.29442243449E+01 -0.29929943593E+01 -0.17998825489E+03  0.18003721385E+03  0.00000000000E+00 0. -1.
        -15    1    1    2    0    0  0.12149963566E+01  0.11787422718E+01  0.13120091098E+00  0.24577616176E+01  0.17770000000E+01 0.  1.
         15    1    1    2    0    0 -0.18837703556E+01  0.48789666755E+00  0.65375968631E-02  0.26352240229E+01  0.17770000000E+01 0. -1.
</event>
<event>
 6    1  0.1045352E-002  0.1908711E+03  0.7546771E-02  0.1061980E+00
        -11   -1    0    0    0    0  0.00000000000E+00  0.00000000000E+00  0.18250000000E+03  0.18250000000E+03  0.00000000000E+00 0. -1.
         11   -1    0    0    0    0 -0.00000000000E+00 -0.00000000000E+00 -0.18250000000E+03  0.18250000000E+03  0.00000000000E+00 0.  1.
        -11    1    1    2    0    0  0.57537648758E+01  0.43915064070E+01  0.17397835799E+03  0.17412886087E+03  0.00000000000E+00 0. -1.
         11    1    1    2    0    0  0.75941133287E+01 -0.21018089687E+01 -0.14157874062E+03  0.14179784185E+03  0.00000000000E+00 0.  1.
        -15    1    1    2    0    0 -0.12436979313E+02 -0.13195548599E+01  0.34974745171E+01  0.13107621312E+02  0.17770000000E+01 0. -1.
         15    1    1    2    0    0 -0.91089889166E+00 -0.97014257839E+00 -0.35897091884E+02  0.35965675972E+02  0.17770000000E+01 0.  1.
</event>
<event>
 6    1  0.1045352E-002  0.1883868E+03  0.7546771E-02  0.1063863E+00
        -11   -1    0    0    0    0  0.00000000000E+00  0.00000000000E+00  0.18250000000E+03  0.18250000000E+03  0.00000000000E+00 0. -1.
         11   -1    0    0    0    0 -0.00000000000E+00 -0.00000000000E+00 -0.18250000000E+03  0.18250000000E+03  0.00000000000E+00 0. -1.
        -11    1    1    2    0    0  0.34287848004E+01  0.16312678426E+01  0.17657235478E+03  0.17661317638E+03  0.00000000000E+00 0. -1.
         11    1    1    2    0    0  0.47112238000E+01 -0.25846997462E+01 -0.16855370378E+03  0.16863934108E+03  0.00000000000E+00 0. -1.
        -15    1    1    2    0    0 -0.41579120238E+01  0.18551920353E+01  0.43865505813E+01  0.65673072783E+01  0.17770000000E+01 0.  1.
         15    1    1    2    0    0 -0.39820965766E+01 -0.90176013172E+00 -0.12405201583E+02  0.13180175256E+02  0.17770000000E+01 0. -1.
</event>
<event>
 6    1  0.1045352E-002  0.1827402E+03  0.7546771E-02  0.1068264E+00
        -11   -1    0    0    0    0  0.00000000000E+00  0.00000000000E+00  0.18250000000E+03  0.18250000000E+03  0.00000000000E+00 0.  1.
         11   -1    0    0    0    0 -0.00000000000E+00 -0.00000000000E+00 -0.18250000000E+03  0.18250000000E+03  0.00000000000E+00 0. -1.
        -11    1    1    2    0    0 -0.18453640665E+01  0.75276481381E+01  0.18209490638E+03  0.18225977555E+03  0.00000000000E+00 0.  1.
         11    1    1    2    0    0 -0.44606446993E+00  0.30682815835E+00 -0.23051933485E+02  0.23058290362E+02  0.00000000000E+00 0. -1.
        -15    1    1    2    0    0  0.35143893049E+01 -0.10118141175E+02 -0.10865410699E+03  0.10919523986E+03  0.17770000000E+01 0. -1.
         15    1    1    2    0    0 -0.12229607685E+01  0.22836648789E+01 -0.50388865898E+02  0.50486694226E+02  0.17770000000E+01 0. -1.
</event>
<event>
 6    1  0.1045352E-002  0.1833828E+03  0.7546771E-02  0.1067754E+00
        -11   -1    0    0    0    0  0.00000000000E+00  0.00000000000E+00  0.18250000000E+03  0.18250000000E+03  0.00000000000E+00 0. -1.
         11   -1    0    0    0    0 -0.00000000000E+00 -0.00000000000E+00 -0.18250000000E+03  0.18250000000E+03  0.00000000000E+00 0. -1.
        -11    1    1    2    0    0  0.53299011454E+01 -0.20818802706E+01  0.18152706834E+03  0.18161723104E+03  0.00000000000E+00 0. -1.
         11    1    1    2    0    0  0.59256824520E+00  0.10974531070E+01 -0.38074506715E+02  0.38094928823E+02  0.00000000000E+00 0. -1.
        -15    1    1    2    0    0 -0.11144885471E+02 -0.70204190427E+01 -0.81033413120E+02  0.82116177009E+02  0.17770000000E+01 0. -1.
         15    1    1    2    0    0  0.52224160805E+01  0.80048462063E+01 -0.62419148507E+02  0.63171663124E+02  0.17770000000E+01 0.  1.
</event>
<event>
 6    1  0.1045352E-002  0.1842089E+03  0.7546771E-02  0.1067103E+00
        -11   -1    0    0    0    0  0.00000000000E+00  0.00000000000E+00  0.18250000000E+03  0.18250000000E+03  0.00000000000E+00 0.  1.
         11   -1    0    0    0    0 -0.00000000000E+00 -0.00000000000E+00 -0.18250000000E+03  0.18250000000E+03  0.00000000000E+00 0.  1.
        -11    1    1    2    0    0 -0.43190200751E+01  0.66134039065E+00  0.18073830284E+03  0.18079110990E+03  0.00000000000E+00 0.  1.
         11    1    1    2    0    0  0.12681848594E+00 -0.35855882010E+01 -0.15850380718E+03  0.15854440834E+03  0.00000000000E+00 0.  1.
        -15    1    1    2    0    0  0.17313155674E+01  0.26663049650E+01 -0.22321720990E+02  0.22616887335E+02  0.17770000000E+01 0.  1.
         15    1    1    2    0    0  0.24608860218E+01  0.25794284543E+00  0.87225323379E-01  0.30475944252E+01  0.17770000000E+01 0. -1.
</event>
<event>
 6    1  0.1045352E-002  0.1731779E+03  0.7546771E-02  0.1076127E+00
        -11   -1    0    0    0    0  0.00000000000E+00  0.00000000000E+00  0.18250000000E+03  0.18250000000E+03  0.00000000000E+00 0. -1.
         11   -1    0    0    0    0 -0.00000000000E+00 -0.00000000000E+00 -0.18250000000E+03  0.18250000000E+03  0.00000000000E+00 0.  1.
        -11    1    1    2    0    0 -0.23709960656E+01  0.67566087919E+01  0.16971637209E+03  0.16986736102E+03  0.00000000000E+00 0. -1.
         11    1    1    2    0    0  0.96627233988E+01  0.31979617273E+01 -0.17648088757E+03  0.17677414647E+03  0.00000000000E+00 0.  1.
        -15    1    1    2    0    0 -0.60424522875E+01  0.34686433973E+00  0.10989654246E+01  0.64028898570E+01  0.17770000000E+01 0.  1.
         15    1    1    2    0    0 -0.12492750457E+01 -0.10301434859E+02  0.56655500638E+01  0.11955602654E+02  0.17770000000E+01 0. -1.
</event>
<event>
 6    1  0.1045352E-002  0.1905828E+03  0.7546771E-02  0.1062197E+00
        -11   -1    0    0    0    0  0.00000000000E+00  0.00000000000E+00  0.18250000000E+03  0.18250000000E+03  0.00000000000E+00 0. -1.
         11   -1    0    0    0    0 -0.00000000000E+00 -0.00000000000E+00 -0.18250000000E+03  0.18250000000E+03  0.00000000000E+00 0.  1.
        -11    1    1    2    0    0  0.34129855080E+01  0.20601077849E+01  0.16246082963E+03  0.16250973411E+03  0.00000000000E+00 0. -1.
         11    1    1    2    0    0 -0.25470824356E+01 -0.27445501165E+01 -0.17437697279E+03  0.17441716895E+03  0.00000000000E+00 0.  1.
        -15    1    1    2    0    0 -0.16455423317E+01 -0.22708799603E+01  0.19460369118E+02  0.19741539975E+02  0.17770000000E+01 0.  1.
         15    1    1    2    0    0  0.77963925928E+00  0.29553222920E+01 -0.75442259584E+01  0.83315569695E+01  0.17770000000E+01 0.  1.
</event>
<event>
 6    1  0.1045352E-002  0.1854445E+03  0.7546771E-02  0.1066135E+00
        -11   -1    0    0    0    0  0.00000000000E+00  0.00000000000E+00  0.18250000000E+03  0.18250000000E+03  0.00000000000E+00 0.  1.
         11   -1    0    0    0    0 -0.00000000000E+00 -0.00000000000E+00 -0.18250000000E+03  0.18250000000E+03  0.00000000000E+00 0.  1.
        -11    1    1    2    0    0 -0.16336112859E+01 -0.15938105143E+02  0.17883927693E+03  0.17955550355E+03  0.00000000000E+00 0.  1.
         11    1    1    2    0    0  0.18144611130E+01  0.41889868678E+01 -0.14852155470E+03  0.14859169590E+03  0.00000000000E+00 0.  1.
        -15    1    1    2    0    0  0.50969069694E+01  0.73106205813E+01 -0.27883504242E+02  0.29326970041E+02  0.17770000000E+01 0.  1.
         15    1    1    2    0    0 -0.52777567965E+01  0.44384976940E+01 -0.24342179857E+01  0.75258305046E+01  0.17770000000E+01 0. -1.
</event>
<event>
 6    1  0.1045352E-002  0.1830771E+03  0.7546771E-02  0.1067996E+00
        -11   -1    0    0    0    0  0.00000000000E+00  0.00000000000E+00  0.18250000000E+03  0.18250000000E+03  0.00000000000E+00 0. -1.
         11   -1    0    0    0    0 -0.00000000000E+00 -0.00000000000E+00 -0.18250000000E+03  0.18250000000E+03  0.00000000000E+00 0. -1.
        -11    1    1    2    0    0 -0.40889286061E+00  0.25482587700E+01  0.14014576856E+03  0.14016953043E+03  0.00000000000E+00 0. -1.
         11    1    1    2    0    0 -0.29676485209E+01 -0.20477348214E+01 -0.18188711938E+03  0.18192285275E+03  0.00000000000E+00 0. -1.
        -15    1    1    2    0    0  0.15758317028E+01  0.54572094342E+00  0.38847969589E+02  0.38924330785E+02  0.17770000000E+01 0.  1.
         15    1    1    2    0    0  0.18007096786E+01 -0.10462448921E+01  0.28933812264E+01  0.39832860357E+01  0.17770000000E+01 0. -1.
</event>
<event>
 6    1  0.1045352E-002  0.1982254E+03  0.7546771E-02  0.1056584E+00
        -11   -1    0    0    0    0  0.00000000000E+00  0.00000000000E+00  0.18250000000E+03  0.18250000000E+03  0.00000000000E+00 0. -1.
         11   -1    0    0    0    0 -0.00000000000E+00 -0.00000000000E+00 -0.18250000000E+03  0.18250000000E+03  0.00000000000E+00 0.  1.
        -11    1    1    2    0    0  0.21671744434E+01 -0.77309655109E+00  0.52192247719E+02  0.52242942541E+02  0.00000000000E+00 0. -1.
         11    1    1    2    0    0  0.40339808138E+01  0.14532238697E+01 -0.16671943073E+03  0.16677455874E+03  0.00000000000E+00 0.  1.
        -15    1    1    2    0    0 -0.64359288070E+01  0.12606726582E+02  0.12692348238E+03  0.12772266378E+03  0.17770000000E+01 0. -1.
         15    1    1    2    0    0  0.23477354976E+00 -0.13286853900E+02 -0.12396299367E+02  0.18259834944E+02  0.17770000000E+01 0.  1.
</event>
<event>
 6    1  0.1045352E-002  0.1831399E+03  0.7546771E-02  0.1067947E+00
        -11   -1    0    0    0    0  0.00000000000E+00  0.00000000000E+00  0.18250000000E+03  0.18250000000E+03  0.00000000000E+00 0.  1.
         11   -1    0    0    0    0 -0.00000000000E+00 -0.00000000000E+00 -0.18250000000E+03  0.18250000000E+03  0.00000000000E+00 0.  1.
        -11    1    1    2    0    0  0.20056950747E+01  0.21785425316E+01  0.14538444444E+03  0.14541459881E+03  0.00000000000E+00 0.  1.
         11    1    1    2    0    0 -0.66370081559E+01  0.39678248797E+01 -0.18169563597E+03  0.18186010460E+03  0.00000000000E+00 0.  1.
        -15    1    1    2    0    0  0.18292261513E+01 -0.47149940144E+01  0.11945849327E+02  0.13093444238E+02  0.17770000000E+01 0. -1.
         15    1    1    2    0    0  0.28020869299E+01 -0.14313733969E+01  0.24365342204E+02  0.24631852360E+02  0.17770000000E+01 0.  1.
</event>
<event>
 6    1  0.1045352E-002  0.1873375E+03  0.7546771E-02  0.1064668E+00
        -11   -1    0    0    0    0  0.00000000000E+00  0.00000000000E+00  0.18250000000E+03  0.18250000000E+03  0.00000000000E+00 0.  1.
         11   -1    0    0    0    0 -0.00000000000E+00 -0.00000000000E+00 -0.18250000000E+03  0.18250000000E+03  0.00000000000E+00 0. -1.
        -11    1    1    2    0    0  0.23266042816E+01 -0.45151253356E+01  0.16394049080E+03  0.16401915732E+03  0.00000000000E+00 0.  1.
         11    1    1    2    0    0 -0.41431891922E+01 -0.70646909088E+01 -0.17747365836E+03  0.17766253203E+03  0.00000000000E+00 0. -1.
        -15    1    1    2    0    0 -0.49373501922E+01  0.10720239182E+02  0.89913325597E+01  0.14943317745E+02  0.17770000000E+01 0.  1.
         15    1    1    2    0    0  0.67539351028E+01  0.85957706237E+00  0.45418350029E+01  0.83749929130E+01  0.17770000000E+01 0. -1.
</event>
<event>
 6    1  0.1045352E-002  0.1751989E+03  0.7546771E-02  0.1074420E+00
        -11   -1    0    0    0    0  0.00000000000E+00  0.00000000000E+00  0.18250000000E+03  0.18250000000E+03  0.00000000000E+00 0.  1.
         11   -1    0    0    0    0 -0.00000000000E+00 -0.00000000000E+00 -0.18250000000E+03  0.18250000000E+03  0.00000000000E+00 0.  1.
        -11    1    1    2    0    0 -0.40962131503E+01 -0.15641138521E+01  0.17663009310E+03  0.17668450754E+03  0.00000000000E+00 0.  1.
         11    1    1    2    0    0 -0.20521920225E+01  0.32048153853E+01 -0.17374121060E+03  0.17378288350E+03  0.00000000000E+00 0.  1.
        -15    1    1    2    0    0 -0.59324822232E+00 -0.22539406477E+01  0.38353520461E+01  0.48269914247E+01  0.17770000000E+01 0. -1.
         15    1    1    2    0    0  0.67416533951E+01  0.61323911441E+00 -0.67242345432E+01  0.97056175436E+01  0.17770000000E+01 0.  1.
</event>
<event>
 6    1  0.1045352E-002  0.1849265E+03  0.7546771E-02  0.1066540E+00
        -11   -1    0    0    0    0  0.00000000000E+00  0.00000000000E+00  0.18250000000E+03  0.18250000000E+03  0.00000000000E+00 0.  1.
         11   -1    0    0    0    0 -0.00000000000E+00 -0.00000000000E+00 -0.18250000000E+03  0.18250000000E+03  0.00000000000E+00 0.  1.
        -11    1    1    2    0    0 -0.49793653796E+01  0.10783245527E+01  0.14079858742E+03  0.14089073456E+03  0.00000000000E+00 0.  1.
         11    1    1    2    0    0  0.16709561427E+01  0.37711631035E+01 -0.18002626177E+03  0.18007350913E+03  0.00000000000E+00 0.  1.
        -15    1    1    2    0    0  0.26540220473E+01  0.12894155022E+01  0.37112758114E+02  0.37272254684E+02  0.17770000000E+01 0.  1.
         15    1    1    2    0    0  0.65438718962E+00 -0.61389031584E+01  0.21149162301E+01  0.67635016258E+01  0.17770000000E+01 0. -1.
</event>
<event>
 6    1  0.1045352E-002  0.1917816E+03  0.7546771E-02  0.1061298E+00
        -11   -1    0    0    0    0  0.00000000000E+00  0.00000000000E+00  0.18250000000E+03  0.18250000000E+03  0.00000000000E+00 0.  1.
         11   -1    0    0    0    0 -0.00000000000E+00 -0.00000000000E+00 -0.18250000000E+03  0.18250000000E+03  0.00000000000E+00 0. -1.
        -11    1    1    2    0    0  0.28473058341E+01  0.15186648365E+01  0.17318835062E+03  0.17321841208E+03  0.00000000000E+00 0.  1.
         11    1    1    2    0    0  0.23319790390E+00 -0.33132945660E+01 -0.15361648781E+03  0.15365239220E+03  0.00000000000E+00 0. -1.
        -15    1    1    2    0    0 -0.37568536808E+01  0.18443096736E+01 -0.28571371932E+02  0.28930890944E+02  0.17770000000E+01 0. -1.
         15    1    1    2    0    0  0.67634994284E+00 -0.49679944146E-01  0.89995091163E+01  0.91983047718E+01  0.17770000000E+01 0. -1.
</event>
<event>
 6    1  0.1045352E-002  0.1856987E+03  0.7546771E-02  0.1065937E+00
        -11   -1    0    0    0    0  0.00000000000E+00  0.00000000000E+00  0.18250000000E+03  0.18250000000E+03  0.00000000000E+00 0.  1.
         11   -1    0    0    0    0 -0.00000000000E+00 -0.00000000000E+00 -0.18250000000E+03  0.18250000000E+03  0.00000000000E+00 0. -1.
        -11    1    1    2    0    0 -0.27319863501E+01  0.10428992960E+00  0.17928042894E+03  0.17930127391E+03  0.00000000000E+00 0.  1.
         11    1    1    2    0    0 -0.45154202763E+00 -0.24676140851E+01 -0.16297681818E+03  0.16299612349E+03  0.00000000000E+00 0. -1.
        -15    1    1    2    0    0 -0.52457238748E+01  0.30481475048E+01 -0.10620405353E+02  0.12359593887E+02  0.17770000000E+01 0.  1.
         15    1    1    2    0    0  0.84292522526E+01 -0.68482334936E+00 -0.56832054066E+01  0.10343008714E+02  0.17770000000E+01 0. -1.
</event>
<event>
 6    1  0.1045352E-002  0.1850728E+03  0.7546771E-02  0.1066425E+00
        -11   -1    0    0    0    0  0.00000000000E+00  0.00000000000E+00  0.18250000000E+03  0.18250000000E+03  0.00000000000E+00 0. -1.
         11   -1    0    0    0    0 -0.00000000000E+00 -0.00000000000E+00 -0.18250000000E+03  0.18250000000E+03  0.00000000000E+00 0.  1.
        -11    1    1    2    0    0  0.14358306060E+01  0.22990710730E+01  0.17990676747E+03  0.17992718616E+03  0.00000000000E+00 0. -1.
         11    1    1    2    0    0 -0.32532563260E+01  0.49686191897E+01 -0.17332417999E+03  0.17342589837E+03  0.00000000000E+00 0.  1.
        -15    1    1    2    0    0  0.13711713979E+01 -0.34349477640E+01 -0.36883746125E+00  0.41197994146E+01  0.17770000000E+01 0.  1.
         15    1    1    2    0    0  0.44625432216E+00 -0.38327424987E+01 -0.62137500128E+01  0.75271160615E+01  0.17770000000E+01 0. -1.
</event>
<event>
 6    1  0.1045352E-002  0.1856823E+03  0.7546771E-02  0.1065950E+00
        -11   -1    0    0    0    0  0.00000000000E+00  0.00000000000E+00  0.18250000000E+03  0.18250000000E+03  0.00000000000E+00 0. -1.
         11   -1    0    0    0    0 -0.00000000000E+00 -0.00000000000E+00 -0.18250000000E+03  0.18250000000E+03  0.00000000000E+00 0.  1.
        -11    1    1    2    0    0 -0.27753641848E+01  0.52222997642E+01  0.16752052997E+03  0.16762488784E+03  0.00000000000E+00 0. -1.
         11    1    1    2    0    0 -0.42770573199E+01 -0.18262676806E+01 -0.17925742792E+03  0.17931774574E+03  0.00000000000E+00 0.  1.
        -15    1    1    2    0    0 -0.29005378589E+00 -0.40361342090E+01  0.89466158032E+01  0.99786859797E+01  0.17770000000E+01 0. -1.
         15    1    1    2    0    0  0.73424752906E+01  0.64010212540E+00  0.27902821506E+01  0.80786804371E+01  0.17770000000E+01 0.  1.
</event>
<event>
 6    1  0.1045352E-002  0.1961432E+03  0.7546771E-02  0.1058085E+00
        -11   -1    0    0    0    0  0.00000000000E+00  0.00000000000E+00  0.18250000000E+03  0.18250000000E+03  0.00000000000E+00 0. -1.
         11   -1    0    0    0    0 -0.00000000000E+00 -0.00000000000E+00 -0.18250000000E+03  0.18250000000E+03  0.00000000000E+00 0.  1.
        -11    1    1    2    0    0 -0.91414250458E+01  0.31870518120E+01  0.16857908784E+03  0.16885683821E+03  0.00000000000E+00 0. -1.
         11    1    1    2    0    0 -0.35129777195E+01 -0.38951662393E+01 -0.15249624379E+03  0.15258642699E+03  0.00000000000E+00 0.  1.
        -15    1    1    2    0    0  0.81750026054E+01 -0.37418622173E+01  0.11784041788E+02  0.14928280889E+02  0.17770000000E+01 0.  1.
         15    1    1    2    0    0  0.44794001599E+01  0.44499766445E+01 -0.27866885839E+02  0.28628453910E+02  0.17770000000E+01 0. -1.
</event>
<event>
 6    1  0.1045352E-002  0.1853638E+03  0.7546771E-02  0.1066198E+00
        -11   -1    0    0    0    0  0.00000000000E+00  0.00000000000E+00  0.18250000000E+03  0.18250000000E+03  0.00000000000E+00 0. -1.
         11   -1    0    0    0    0 -0.00000000000E+00 -0.00000000000E+00 -0.18250000000E+03  0.18250000000E+03  0.00000000000E+00 0.  1.
        -11    1    1    2    0    0  0.21067567186E+01  0.15098471398E+01  0.17961745176E+03  0.17963615181E+03  0.00000000000E+00 0. -1.
         11    1    1    2    0    0 -0.18305139286E+01  0.18450704100E+01 -0.17655416471E+03  0.17657329397E+03  0.00000000000E+00 0.  1.
        -15    1    1    2    0    0  0.18510147127E+01  0.44201008572E+00 -0.31524587246E+01  0.40886860227E+01  0.17770000000E+01 0. -1.
         15    1    1    2    0    0 -0.21272575027E+01 -0.37969276355E+01  0.89171677532E-01  0.47018681968E+01  0.17770000000E+01 0. -1.
</event>
<event>
 6    1  0.1045352E-002  0.1826558E+03  0.7546771E-02  0.1068331E+00
        -11   -1    0    0    0    0  0.00000000000E+00  0.00000000000E+00  0.18250000000E+03  0.18250000000E+03  0.00000000000E+00 0. -1.
         11   -1    0    0    0    0 -0.00000000000E+00 -0.00000000000E+00 -0.18250000000E+03  0.18250000000E+03  0.00000000000E+00 0.  1.
        -11    1    1    2    0    0  0.15583002866E+01 -0.18731350026E+01  0.51900061584E+02  0.51957225936E+02  0.00000000000E+00 0. -1.
         11    1    1    2    0    0 -0.23187762681E+01 -0.11058950186E+01 -0.18232606109E+03  0.18234415889E+03  0.00000000000E+00 0.  1.
        -15    1    1    2    0    0 -0.15520332931E+01  0.23727602798E+01  0.11055169251E+03  0.11060232025E+03  0.17770000000E+01 0.  1.
         15    1    1    2    0    0  0.23125092746E+01  0.60626974141E+00  0.19874306998E+02  0.20096294927E+02  0.17770000000E+01 0. -1.
</event>
<event>
 6    1  0.1045352E-002  0.1827681E+03  0.7546771E-02  0.1068242E+00
        -11   -1    0    0    0    0  0.00000000000E+00  0.00000000000E+00  0.18250000000E+03  0.18250000000E+03  0.00000000000E+00 0.  1.
         11   -1    0    0    0    0 -0.00000000000E+00 -0.00000000000E+00 -0.18250000000E+03  0.18250000000E+03  0.00000000000E+00 0.  1.
        -11    1    1    2    0    0 -0.25679380380E+01 -0.30584351097E+00  0.18221359353E+03  0.18223194427E+03  0.00000000000E+00 0.  1.
         11    1    1    2    0    0  0.36303895996E+00  0.17118703297E+01 -0.51988644831E+02  0.52018088091E+02  0.00000000000E+00 0.  1.
        -15    1    1    2    0    0 -0.29092776882E+01  0.93425412087E+00 -0.92428585256E+02  0.92496150347E+02  0.17770000000E+01 0.  1.
         15    1    1    2    0    0  0.51141767662E+01 -0.23402809396E+01 -0.37796363442E+02  0.38253817291E+02  0.17770000000E+01 0. -1.
</event>
<event>
 6    1  0.1045352E-002  0.1652451E+03  0.7546771E-02  0.1083085E+00
        -11   -1    0    0    0    0  0.00000000000E+00  0.00000000000E+00  0.18250000000E+03  0.18250000000E+03  0.00000000000E+00 0.  1.
         11   -1    0    0    0    0 -0.00000000000E+00 -0.00000000000E+00 -0.18250000000E+03  0.18250000000E+03  0.00000000000E+00 0.  1.
        -11    1    1    2    0    0 -0.40372243694E+01  0.29520527505E+01  0.15972933624E+03  0.15980761762E+03  0.00000000000E+00 0.  1.
         11    1    1    2    0    0  0.78097502067E+01  0.15792404853E+02 -0.17050268733E+03  0.17141049745E+03  0.00000000000E+00 0.  1.
        -15    1    1    2    0    0  0.78858224866E+01 -0.18093315129E+02  0.92621797687E+01  0.21874641751E+02  0.17770000000E+01 0. -1.
         15    1    1    2    0    0 -0.11658348324E+02 -0.65114247435E+00  0.15111713299E+01  0.11907243172E+02  0.17770000000E+01 0.  1.
</event>
<event>
 6    1  0.1045352E-002  0.1850608E+03  0.7546771E-02  0.1066435E+00
        -11   -1    0    0    0    0  0.00000000000E+00  0.00000000000E+00  0.18250000000E+03  0.18250000000E+03  0.00000000000E+00 0. -1.
         11   -1    0    0    0    0 -0.00000000000E+00 -0.00000000000E+00 -0.18250000000E+03  0.18250000000E+03  0.00000000000E+00 0. -1.
        -11    1    1    2    0    0  0.19375556534E+01  0.35550006427E+01  0.11118618193E+03  0.11125987239E+03  0.00000000000E+00 0. -1.
         11    1    1    2    0    0 -0.25662296824E+01  0.33181771304E+01 -0.17989034452E+03  0.17993924498E+03  0.00000000000E+00 0. -1.
        -15    1    1    2    0    0 -0.31732680808E+01 -0.10123327172E+02  0.67508053668E+02  0.68359684189E+02  0.17770000000E+01 0.  1.
         15    1    1    2    0    0  0.38019421098E+01  0.32501493984E+01  0.11961089139E+01  0.54411984390E+01  0.17770000000E+01 0. -1.
</event>
<event>
 6    1  0.1045352E-002  0.1855064E+03  0.7546771E-02  0.1066087E+00
        -11   -1    0    0    0    0  0.00000000000E+00  0.00000000000E+00  0.18250000000E+03  0.18250000000E+03  0.00000000000E+00 0.  1.
         11   -1    0    0    0    0 -0.00000000000E+00 -0.00000000000E+00 -0.18250000000E+03  0.18250000000E+03  0.00000000000E+00 0. -1.
        -11    1    1    2    0    0  0.98544041220E-01  0.26138878260E+01  0.55741189636E+02  0.55802529893E+02  0.00000000000E+00 0.  1.
         11    1    1    2    0    0  0.55487893608E+01  0.17418969174E+01 -0.17939933073E+03  0.17949357408E+03  0.00000000000E+00 0. -1.
        -15    1    1    2    0    0 -0.12981961598E+01  0.90882892770E+01  0.58326908273E+01  0.11020904071E+02  0.17770000000E+01 0. -1.
         15    1    1    2    0    0 -0.43491372421E+01 -0.13444074020E+02  0.11782545027E+03  0.11868299196E+03  0.17770000000E+01 0.  1.
</event>
<event>
 6    1  0.1045352E-002  0.2119284E+03  0.7546771E-02  0.1047179E+00
        -11   -1    0    0    0    0  0.00000000000E+00  0.00000000000E+00  0.18250000000E+03  0.18250000000E+03  0.00000000000E+00 0. -1.
         11   -1    0    0    0    0 -0.00000000000E+00 -0.00000000000E+00 -0.18250000000E+03  0.18250000000E+03  0.00000000000E+00 0. -1.
        -11    1    1    2    0    0 -0.64685292797E+01 -0.81732236483E+00  0.13612043664E+03  0.13627649525E+03  0.00000000000E+00 0. -1.
         11    1    1    2    0    0 -0.32122851736E+01 -0.74054086636E+01 -0.15285862621E+03  0.15307161219E+03  0.00000000000E+00 0. -1.
        -15    1    1    2    0    0  0.42265261051E+01  0.91450022329E+01 -0.28376720286E+02  0.30164392451E+02  0.17770000000E+01 0. -1.
         15    1    1    2    0    0  0.54542883482E+01 -0.92227120448E+00  0.45114909854E+02  0.45487500104E+02  0.17770000000E+01 0. -1.
</event>
<event>
 6    1  0.1045352E-002  0.1890683E+03  0.7546771E-02  0.1063343E+00
        -11   -1    0    0    0    0  0.00000000000E+00  0.00000000000E+00  0.18250000000E+03  0.18250000000E+03  0.00000000000E+00 0. -1.
         11   -1    0    0    0    0 -0.00000000000E+00 -0.00000000000E+00 -0.18250000000E+03  0.18250000000E+03  0.00000000000E+00 0. -1.
        -11    1    1    2    0    0 -0.42929184732E+01  0.32312096428E+01  0.15508717421E+03  0.15518022254E+03  0.00000000000E+00 0. -1.
         11    1    1    2    0    0 -0.97994961034E+01 -0.49764766017E+01 -0.17558801665E+03  0.17593165445E+03  0.00000000000E+00 0. -1.
        -15    1    1    2    0    0  0.18192765417E+02  0.60110511755E+01  0.99525534666E+01  0.21663806204E+02  0.17770000000E+01 0. -1.
         15    1    1    2    0    0 -0.41003508403E+01 -0.42657842166E+01  0.10548288979E+02  0.12224316806E+02  0.17770000000E+01 0.  1.
</event>
<event>
 6    1  0.1045352E-002  0.1832084E+03  0.7546771E-02  0.1067892E+00
        -11   -1    0    0    0    0  0.00000000000E+00  0.00000000000E+00  0.18250000000E+03  0.18250000000E+03  0.00000000000E+00 0. -1.
         11   -1    0    0    0    0 -0.00000000000E+00 -0.00000000000E+00 -0.18250000000E+03  0.18250000000E+03  0.00000000000E+00 0.  1.
        -11    1    1    2    0    0  0.17464098856E+01 -0.25207480035E+01  0.17159551235E+03  0.17162291216E+03  0.00000000000E+00 0. -1.
         11    1    1    2    0    0  0.62159094857E+00  0.25334717184E+01 -0.18177287920E+03  0.18179159625E+03  0.00000000000E+00 0.  1.
        -15    1    1    2    0    0 -0.48836257701E+00  0.11448042936E+01  0.69976032655E+01  0.73262033372E+01  0.17770000000E+01 0.  1.
         15    1    1    2    0    0 -0.18796382572E+01 -0.11575280084E+01  0.31797635775E+01  0.42592882595E+01  0.17770000000E+01 0. -1.
</event>
<event>
 6    1  0.1045352E-002  0.2056341E+03  0.7546771E-02  0.1051400E+00
        -11   -1    0    0    0    0  0.00000000000E+00  0.00000000000E+00  0.18250000000E+03  0.18250000000E+03  0.00000000000E+00 0. -1.
         11   -1    0    0    0    0 -0.00000000000E+00 -0.00000000000E+00 -0.18250000000E+03  0.18250000000E+03  0.00000000000E+00 0. -1.
        -11    1    1    2    0    0 -0.82338416801E+00 -0.16738264916E+01  0.11341480980E+03  0.11343014916E+03  0.00000000000E+00 0. -1.
         11    1    1    2    0    0  0.18267833208E+02 -0.22823455933E+01 -0.15829895076E+03  0.15936587039E+03  0.00000000000E+00 0. -1.
        -15    1    1    2    0    0 -0.80820308166E+01  0.13871441325E+02 -0.20097089384E+02  0.25783460537E+02  0.17770000000E+01 0.  1.
         15    1    1    2    0    0 -0.93624182237E+01 -0.99152692396E+01  0.64981230344E+02  0.66420519910E+02  0.17770000000E+01 0. -1.
</event>
<event>
 6    1  0.1045352E-002  0.1885150E+03  0.7546771E-02  0.1063765E+00
        -11   -1    0    0    0    0  0.00000000000E+00  0.00000000000E+00  0.18250000000E+03  0.18250000000E+03  0.00000000000E+00 0. -1.
         11   -1    0    0    0    0 -0.00000000000E+00 -0.00000000000E+00 -0.18250000000E+03  0.18250000000E+03  0.00000000000E+00 0.  1.
        -11    1    1    2    0    0  0.31319558062E+01 -0.84401246689E+00  0.17645523412E+03  0.17648504512E+03  0.00000000000E+00 0. -1.
         11    1    1    2    0    0  0.13771927426E+01 -0.21567542531E+01 -0.14024727399E+03  0.14027061742E+03  0.00000000000E+00 0.  1.
        -15    1    1    2    0    0 -0.22318285162E+01 -0.90546425837E+00  0.54960990361E+01  0.62582551613E+01  0.17770000000E+01 0.  1.
         15    1    1    2    0    0 -0.22773200325E+01  0.39062309784E+01 -0.41704059160E+02  0.41986082294E+02  0.17770000000E+01 0.  1.
</event>
<event>
 6    1  0.1045352E-002  0.1845983E+03  0.7546771E-02  0.1066797E+00
        -11   -1    0    0    0    0  0.00000000000E+00  0.00000000000E+00  0.18250000000E+03  0.18250000000E+03  0.00000000000E+00 0.  1.
         11   -1    0    0    0    0 -0.00000000000E+00 -0.00000000000E+00 -0.18250000000E+03  0.18250000000E+03  0.00000000000E+00 0.  1.
        -11    1    1    2    0    0  0.73113404747E+01  0.18827002203E+01  0.14760823272E+03  0.14780118615E+03  0.00000000000E+00 0.  1.
         11    1    1    2    0    0  0.14487828395E+01  0.56868023306E+01 -0.18030626689E+03  0.18040174215E+03  0.00000000000E+00 0.  1.
        -15    1    1    2    0    0 -0.10788137426E+02 -0.32548548251E+01  0.25942513630E+02  0.28339896462E+02  0.17770000000E+01 0.  1.
         15    1    1    2    0    0  0.20280141118E+01 -0.43146477259E+01  0.67555205349E+01  0.84571752337E+01  0.17770000000E+01 0. -1.
</event>
<event>
 6    1  0.1045352E-002  0.1830837E+03  0.7546771E-02  0.1067991E+00
        -11   -1    0    0    0    0  0.00000000000E+00  0.00000000000E+00  0.18250000000E+03  0.18250000000E+03  0.00000000000E+00 0. -1.
         11   -1    0    0    0    0 -0.00000000000E+00 -0.00000000000E+00 -0.18250000000E+03  0.18250000000E+03  0.00000000000E+00 0. -1.
        -11    1    1    2    0    0 -0.10152258652E+01 -0.31867424257E+01  0.18188553699E+03  0.18191628453E+03  0.00000000000E+00 0. -1.
         11    1    1    2    0    0 -0.11560855744E+01  0.15185778149E+01 -0.10359147689E+03  0.10360905702E+03  0.00000000000E+00 0. -1.
        -15    1    1    2    0    0  0.69761670469E+01  0.16983435585E+00 -0.59603191803E+02  0.60036605105E+02  0.17770000000E+01 0. -1.
         15    1    1    2    0    0 -0.48048556073E+01  0.14983302550E+01 -0.18690868295E+02  0.19438053338E+02  0.17770000000E+01 0.  1.
</event>
<event>
 6    1  0.1045352E-002  0.1831657E+03  0.7546771E-02  0.1067926E+00
        -11   -1    0    0    0    0  0.00000000000E+00  0.00000000000E+00  0.18250000000E+03  0.18250000000E+03  0.00000000000E+00 0. -1.
         11   -1    0    0    0    0 -0.00000000000E+00 -0.00000000000E+00 -0.18250000000E+03  0.18250000000E+03  0.00000000000E+00 0. -1.
        -11    1    1    2    0    0  0.15380150119E+01 -0.20394046800E+01  0.17179977911E+03  0.17181876721E+03  0.00000000000E+00 0. -1.
         11    1    1    2    0    0  0.12188930425E+01  0.23085836124E+01 -0.18181559542E+03  0.18183433668E+03  0.00000000000E+00 0. -1.
        -15    1    1    2    0    0 -0.12800468855E+01 -0.15515766772E+01  0.47793985055E+01  0.54814495609E+01  0.17770000000E+01 0. -1.
         15    1    1    2    0    0 -0.14768611689E+01  0.12823977449E+01  0.52364178006E+01  0.58654465534E+01  0.17770000000E+01 0. -1.
</event>
<event>
 6    1  0.1045352E-002  0.1908795E+03  0.7546771E-02  0.1061974E+00
        -11   -1    0    0    0    0  0.00000000000E+00  0.00000000000E+00  0.18250000000E+03  0.18250000000E+03  0.00000000000E+00 0. -1.
         11   -1    0    0    0    0 -0.00000000000E+00 -0.00000000000E+00 -0.18250000000E+03  0.18250000000E+03  0.00000000000E+00 0. -1.
        -11    1    1    2    0    0 -0.11847605635E+01  0.63173708760E+01  0.17400181462E+03  0.17412048795E+03  0.00000000000E+00 0. -1.
         11    1    1    2    0    0 -0.52413801918E+01  0.17714030695E+01 -0.16452618310E+03  0.16461918133E+03  0.00000000000E+00 0. -1.
        -15    1    1    2    0    0 -0.29002560085E+01 -0.77171735086E+00  0.58457817294E+01  0.68071966045E+01  0.17770000000E+01 0. -1.
         15    1    1    2    0    0  0.93263967637E+01 -0.73170565946E+01 -0.15321413250E+02  0.19453134112E+02  0.17770000000E+01 0.  1.
</event>
<event>
 6    1  0.1045352E-002  0.1874071E+03  0.7546771E-02  0.1064614E+00
        -11   -1    0    0    0    0  0.00000000000E+00  0.00000000000E+00  0.18250000000E+03  0.18250000000E+03  0.00000000000E+00 0.  1.
         11   -1    0    0    0    0 -0.00000000000E+00 -0.00000000000E+00 -0.18250000000E+03  0.18250000000E+03  0.00000000000E+00 0.  1.
        -11    1    1    2    0    0 -0.13296083165E+01 -0.34168013231E+01  0.17755501571E+03  0.17759286583E+03  0.00000000000E+00 0.  1.
         11    1    1    2    0    0 -0.99451732942E+00 -0.14518620063E+01 -0.95698187976E+02  0.95714367520E+02  0.00000000000E+00 0.  1.
        -15    1    1    2    0    0  0.14301559159E+01  0.22331981485E+01  0.43650080139E+01  0.54077300113E+01  0.17770000000E+01 0.  1.
         15    1    1    2    0    0  0.89396973003E+00  0.26354651809E+01 -0.86221835750E+02  0.86285036638E+02  0.17770000000E+01 0.  1.
</event>
<event>
 6    1  0.1045352E-002  0.1827178E+03  0.7546771E-02  0.1068282E+00
        -11   -1    0    0    0    0  0.00000000000E+00  0.00000000000E+00  0.18250000000E+03  0.18250000000E+03  0.00000000000E+00 0. -1.
         11   -1    0    0    0    0 -0.00000000000E+00 -0.00000000000E+00 -0.18250000000E+03  0.18250000000E+03  0.00000000000E+00 0. -1.
        -11    1    1    2    0    0 -0.15630859907E+01  0.49595840211E+00  0.90453457246E+02  0.90468321197E+02  0.00000000000E+00 0. -1.
         11    1    1    2    0    0 -0.30653576747E+00 -0.25998253625E+01 -0.18226344352E+03  0.18228224242E+03  0.00000000000E+00 0. -1.
        -15    1    1    2    0    0 -0.39768918772E+00  0.93468917324E+00  0.80325859595E+02  0.80351933700E+02  0.17770000000E+01 0.  1.
         15    1    1    2    0    0  0.22673109459E+01  0.11691777872E+01  0.11484126679E+02  0.11897502688E+02  0.17770000000E+01 0. -1.
</event>
<event>
 6    1  0.1045352E-002  0.1828234E+03  0.7546771E-02  0.1068198E+00
        -11   -1    0    0    0    0  0.00000000000E+00  0.00000000000E+00  0.18250000000E+03  0.18250000000E+03  0.00000000000E+00 0.  1.
         11   -1    0    0    0    0 -0.00000000000E+00 -0.00000000000E+00 -0.18250000000E+03  0.18250000000E+03  0.00000000000E+00 0. -1.
        -11    1    1    2    0    0 -0.14629554887E+01 -0.24942748197E+01  0.18215359960E+03  0.18217655033E+03  0.00000000000E+00 0.  1.
         11    1    1    2    0    0  0.57020827824E+00 -0.25943028644E+01 -0.77501238010E+02  0.77546743567E+02  0.00000000000E+00 0. -1.
        -15    1    1    2    0    0 -0.64622787622E+00  0.27379832901E+01 -0.95176075977E+02  0.95234223525E+02  0.17770000000E+01 0. -1.
         15    1    1    2    0    0  0.15389750867E+01  0.23505943941E+01 -0.94762856089E+01  0.10042482575E+02  0.17770000000E+01 0.  1.
</event>
<event>
 6    1  0.1045352E-002  0.1839514E+03  0.7546771E-02  0.1067305E+00
        -11   -1    0    0    0    0  0.00000000000E+00  0.00000000000E+00  0.18250000000E+03  0.18250000000E+03  0.00000000000E+00 0.  1.
         11   -1    0    0    0    0 -0.00000000000E+00 -0.00000000000E+00 -0.18250000000E+03  0.18250000000E+03  0.00000000000E+00 0.  1.
        -11    1    1    2    0    0  0.25961654483E+01 -0.15190891583E+01  0.15752195126E+03  0.15755066752E+03  0.00000000000E+00 0.  1.
         11    1    1    2    0    0  0.50544038159E+01  0.56304992998E+01 -0.18089040670E+03  0.18104858120E+03  0.00000000000E+00 0.  1.
        -15    1    1    2    0    0 -0.99524251220E+00  0.20971833303E+01  0.70365236629E+01  0.76196509000E+01  0.17770000000E+01 0.  1.
         15    1    1    2    0    0 -0.66553267520E+01 -0.62085934718E+01  0.16331931770E+02  0.18781100378E+02  0.17770000000E+01 0.  1.
</event>
<event>
 6    1  0.1045352E-002  0.1849040E+03  0.7546771E-02  0.1066557E+00
        -11   -1    0    0    0    0  0.00000000000E+00  0.00000000000E+00  0.18250000000E+03  0.18250000000E+03  0.00000000000E+00 0.  1.
         11   -1    0    0    0    0 -0.00000000000E+00 -0.00000000000E+00 -0.18250000000E+03  0.18250000000E+03  0.00000000000E+00 0. -1.
        -11    1    1    2    0    0  0.11471005928E+02 -0.51182736645E+01  0.61028037570E+02  0.62307319569E+02  0.00000000000E+00 0.  1.
         11    1    1    2    0    0  0.20812773925E+01 -0.48863887564E+01 -0.18001764922E+03  0.18009598147E+03  0.00000000000E+00 0. -1.
        -15    1    1    2    0    0 -0.18489990326E+02  0.98346958872E+01  0.11141576224E+03  0.11338091017E+03  0.17770000000E+01 0.  1.
         15    1    1    2    0    0  0.49377070057E+01  0.16996653373E+00  0.75738494107E+01  0.92157887884E+01  0.17770000000E+01 0. -1.
</event>
<event>
 6    1  0.1045352E-002  0.1787082E+03  0.7546771E-02  0.1071514E+00
        -11   -1    0    0    0    0  0.00000000000E+00  0.00000000000E+00  0.18250000000E+03  0.18250000000E+03  0.00000000000E+00 0. -1.
         11   -1    0    0    0    0 -0.00000000000E+00 -0.00000000000E+00 -0.18250000000E+03  0.18250000000E+03  0.00000000000E+00 0. -1.
        -11    1    1    2    0    0 -0.37303325624E+01  0.54370341934E+01  0.17761120300E+03  0.17773355382E+03  0.00000000000E+00 0. -1.
         11    1    1    2    0    0  0.26571870814E+01 -0.95720446074E+00 -0.17969642386E+03  0.17971861793E+03  0.00000000000E+00 0. -1.
        -15    1    1    2    0    0  0.16854073488E+01 -0.30159160414E+01  0.30881801241E+01  0.49629560726E+01  0.17770000000E+01 0. -1.
         15    1    1    2    0    0 -0.61226186777E+00 -0.14639136912E+01 -0.10029592613E+01  0.25848721767E+01  0.17770000000E+01 0.  1.
</event>
<event>
 6    1  0.1045352E-002  0.1844923E+03  0.7546771E-02  0.1066880E+00
        -11   -1    0    0    0    0  0.00000000000E+00  0.00000000000E+00  0.18250000000E+03  0.18250000000E+03  0.00000000000E+00 0. -1.
         11   -1    0    0    0    0 -0.00000000000E+00 -0.00000000000E+00 -0.18250000000E+03  0.18250000000E+03  0.00000000000E+00 0.  1.
        -11    1    1    2    0    0 -0.79883371613E+01  0.64630467576E+01  0.15022241397E+03  0.15057343113E+03  0.00000000000E+00 0. -1.
         11    1    1    2    0    0  0.30347819679E+01 -0.16130656222E+01 -0.18047498557E+03  0.18050770704E+03  0.00000000000E+00 0.  1.
        -15    1    1    2    0    0 -0.33617384274E+01  0.92947219887E+00  0.34712406455E+01  0.52318681599E+01  0.17770000000E+01 0.  1.
         15    1    1    2    0    0  0.83152936208E+01 -0.57794533343E+01  0.26781330959E+02  0.28686993670E+02  0.17770000000E+01 0. -1.
</event>
<event>
 6    1  0.1045352E-002  0.1868159E+03  0.7546771E-02  0.1065070E+00
        -11   -1    0    0    0    0  0.00000000000E+00  0.00000000000E+00  0.18250000000E+03  0.18250000000E+03  0.00000000000E+00 0.  1.
         11   -1    0    0    0    0 -0.00000000000E+00 -0.00000000000E+00 -0.18250000000E+03  0.18250000000E+03  0.00000000000E+00 0. -1.
        -11    1    1    2    0    0 -0.28929870918E+01 -0.37553992445E+01  0.17812101976E+03  0.17818409042E+03  0.00000000000E+00 0.  1.
         11    1    1    2    0    0  0.52164382206E+01  0.25027670412E+01 -0.16102566208E+03  0.16112957183E+03  0.00000000000E+00 0. -1.
        -15    1    1    2    0    0  0.70649085674E+01 -0.78843806724E+00 -0.18145051529E+01  0.75488227958E+01  0.17770000000E+01 0.  1.
         15    1    1    2    0    0 -0.93883596962E+01  0.20410702706E+01 -0.15280852526E+02  0.18137514950E+02  0.17770000000E+01 0. -1.
</event>
<event>
 6    1  0.1045352E-002  0.1832444E+03  0.7546771E-02  0.1067864E+00
        -11   -1    0    0    0    0  0.00000000000E+00  0.00000000000E+00  0.18250000000E+03  0.18250000000E+03  0.00000000000E+00 0. -1.
         11   -1    0    0    0    0 -0.00000000000E+00 -0.00000000000E+00 -0.18250000000E+03  0.18250000000E+03  0.00000000000E+00 0.  1.
        -11    1    1    2    0    0 -0.24089921822E+01 -0.42323367562E+01  0.18169033701E+03  0.18175558996E+03  0.00000000000E+00 0. -1.
         11    1    1    2    0    0  0.25463911791E+01  0.13993666129E+01 -0.16891284332E+03  0.16893783168E+03  0.00000000000E+00 0.  1.
        -15    1    1    2    0    0 -0.12550942066E+01  0.67457711490E+00 -0.17414432517E+01  0.28671709663E+01  0.17770000000E+01 0. -1.
         15    1    1    2    0    0  0.11176952097E+01  0.21583930285E+01 -0.11036050443E+02  0.11439407389E+02  0.17770000000E+01 0. -1.
</event>
<event>
 6    1  0.1045352E-002  0.2057408E+03  0.7546771E-02  0.1051327E+00
        -11   -1    0    0    0    0  0.00000000000E+00  0.00000000000E+00  0.18250000000E+03  0.18250000000E+03  0.00000000000E+00 0.  1.
         11   -1    0    0    0    0 -0.00000000000E+00 -0.00000000000E+00 -0.18250000000E+03  0.18250000000E+03  0.00000000000E+00 0. -1.
        -11    1    1    2    0    0  0.10365890697E+01 -0.28363708738E+01  0.11643025926E+03  0.11646941567E+03  0.00000000000E+00 0.  1.
         11    1    1    2    0    0  0.32093615187E+02 -0.62110288934E+01 -0.15586831302E+03  0.15925924783E+03  0.00000000000E+00 0. -1.
        -15    1    1    2    0    0 -0.33998764050E+02  0.15267814656E+02 -0.10616558155E+02  0.38792926641E+02  0.17770000000E+01 0. -1.
         15    1    1    2    0    0  0.86855979392E+00 -0.62204148884E+01  0.50054611923E+02  0.50478409853E+02  0.17770000000E+01 0.  1.
</event>
<event>
 6    1  0.1045352E-002  0.1849826E+03  0.7546771E-02  0.1066496E+00
        -11   -1    0    0    0    0  0.00000000000E+00  0.00000000000E+00  0.18250000000E+03  0.18250000000E+03  0.00000000000E+00 0. -1.
         11   -1    0    0    0    0 -0.00000000000E+00 -0.00000000000E+00 -0.18250000000E+03  0.18250000000E+03  0.00000000000E+00 0. -1.
        -11    1    1    2    0    0  0.74205512752E+01  0.69130580370E+00  0.96456192680E+02  0.96743679852E+02  0.00000000000E+00 0. -1.
         11    1    1    2    0    0 -0.65737092474E+01 -0.91922315627E+00 -0.17989502234E+03  0.18001743718E+03  0.00000000000E+00 0. -1.
        -15    1    1    2    0    0 -0.92763444520E+01 -0.67553022052E+01  0.69318522719E+02  0.70284422138E+02  0.17770000000E+01 0.  1.
         15    1    1    2    0    0  0.84295024242E+01  0.69832195578E+01  0.14120306945E+02  0.17954460831E+02  0.17770000000E+01 0. -1.
</event>
<event>
 6    1  0.1045352E-002  0.1789603E+03  0.7546771E-02  0.1071308E+00
        -11   -1    0    0    0    0  0.00000000000E+00  0.00000000000E+00  0.18250000000E+03  0.18250000000E+03  0.00000000000E+00 0.  1.
         11   -1    0    0    0    0 -0.00000000000E+00 -0.00000000000E+00 -0.18250000000E+03  0.18250000000E+03  0.00000000000E+00 0. -1.
        -11    1    1    2    0    0  0.30285976871E+01 -0.28142610954E+01  0.17877206118E+03  0.17881986000E+03  0.00000000000E+00 0.  1.
         11    1    1    2    0    0  0.22810865843E+01  0.93618593391E+00 -0.17912833350E+03  0.17914530321E+03  0.00000000000E+00 0. -1.
        -15    1    1    2    0    0 -0.17338815471E+01 -0.21125679285E+00 -0.17052854127E+00  0.24975555320E+01  0.17770000000E+01 0. -1.
         15    1    1    2    0    0 -0.35758027243E+01  0.20893319543E+01  0.52680085251E+00  0.45372812649E+01  0.17770000000E+01 0.  1.
</event>
<event>
 6    1  0.1045352E-002  0.1875631E+03  0.7546771E-02  0.1064495E+00
        -11   -1    0    0    0    0  0.00000000000E+00  0.00000000000E+00  0.18250000000E+03  0.18250000000E+03  0.00000000000E+00 0. -1.
         11   -1    0    0    0    0 -0.00000000000E+00 -0.00000000000E+00 -0.18250000000E+03  0.18250000000E+03  0.00000000000E+00 0. -1.
        -11    1    1    2    0    0  0.13983782665E+01 -0.11364152481E+02  0.17706707549E+03  0.17743688638E+03  0.00000000000E+00 0. -1.
         11    1    1    2    0    0 -0.46983362563E+01 -0.17258662525E+01 -0.16681537404E+03  0.16689044908E+03  0.00000000000E+00 0. -1.
        -15    1    1    2    0    0  0.28940308577E+01  0.66148168261E+01 -0.11632119389E+02  0.13805620114E+02  0.17770000000E+01 0.  1.
         15    1    1    2    0    0  0.40592713218E+00  0.64752019070E+01  0.13804179302E+01  0.68670444323E+01  0.17770000000E+01 0. -1.
</event>
<event>
 6    1  0.1045352E-002  0.1848299E+03  0.7546771E-02  0.1066615E+00
        -11   -1    0    0    0    0  0.00000000000E+00  0.00000000000E+00  0.18250000000E+03  0.18250000000E+03  0.00000000000E+00 0. -1.
         11   -1    0    0    0    0 -0.00000000000E+00 -0.00000000000E+00 -0.18250000000E+03  0.18250000000E+03  0.00000000000E+00 0.  1.
        -11    1    1    2    0    0 -0.39718734452E+00  0.11728324676E+01  0.54031582886E+02  0.54045769889E+02  0.00000000000E+00 0. -1.
         11    1    1    2    0    0  0.16050325443E+02 -0.21275030777E+02 -0.17818813736E+03  0.18017006460E+03  0.00000000000E+00 0.  1.
        -15    1    1    2    0    0 -0.14236991307E+02  0.17795352360E+02  0.36495152615E+02  0.43062981556E+02  0.17770000000E+01 0.  1.
         15    1    1    2    0    0 -0.14161467914E+01  0.23068459496E+01  0.87661401859E+02  0.87721183957E+02  0.17770000000E+01 0. -1.
</event>
<event>
 6    1  0.1045352E-002  0.1938633E+03  0.7546771E-02  0.1059753E+00
        -11   -1    0    0    0    0  0.00000000000E+00  0.00000000000E+00  0.18250000000E+03  0.18250000000E+03  0.00000000000E+00 0. -1.
         11   -1    0    0    0    0 -0.00000000000E+00 -0.00000000000E+00 -0.18250000000E+03  0.18250000000E+03  0.00000000000E+00 0.  1.
        -11    1    1    2    0    0  0.42607556563E+01  0.19059315486E+00  0.17108350688E+03  0.17113666086E+03  0.00000000000E+00 0. -1.
         11    1    1    2    0    0  0.29122727499E+01  0.37041614313E+00 -0.16671508007E+03  0.16674092618E+03  0.00000000000E+00 0.  1.
        -15    1    1    2    0    0 -0.39128663365E+01 -0.21051965869E+01 -0.15005771232E+02  0.15750342057E+02  0.17770000000E+01 0. -1.
         15    1    1    2    0    0 -0.32601620697E+01  0.15441872889E+01  0.10637344426E+02  0.11372070899E+02  0.17770000000E+01 0.  1.
</event>
<event>
 6    1  0.1045352E-002  0.1853617E+03  0.7546771E-02  0.1066199E+00
        -11   -1    0    0    0    0  0.00000000000E+00  0.00000000000E+00  0.18250000000E+03  0.18250000000E+03  0.00000000000E+00 0.  1.
         11   -1    0    0    0    0 -0.00000000000E+00 -0.00000000000E+00 -0.18250000000E+03  0.18250000000E+03  0.00000000000E+00 0. -1.
        -11    1    1    2    0    0 -0.42152696284E+00  0.31094084331E+01  0.17961090779E+03  0.17963831524E+03  0.00000000000E+00 0.  1.
         11    1    1    2    0    0 -0.10497067228E+01 -0.17955119373E+01 -0.14473808722E+03  0.14475302981E+03  0.00000000000E+00 0. -1.
        -15    1    1    2    0    0  0.46782495454E+01 -0.62675575944E+01 -0.37003594524E+01  0.88328186942E+01  0.17770000000E+01 0. -1.
         15    1    1    2    0    0 -0.32070158598E+01  0.49536610986E+01 -0.31172461113E+02  0.31775836257E+02  0.17770000000E+01 0.  1.
</event>
<event>
 6    1  0.1045352E-002  0.1850977E+03  0.7546771E-02  0.1066406E+00
        -11   -1    0    0    0    0  0.00000000000E+00  0.00000000000E+00  0.18250000000E+03  0.18250000000E+03  0.00000000000E+00 0. -1.
         11   -1    0    0    0    0 -0.00000000000E+00 -0.00000000000E+00 -0.18250000000E+03  0.18250000000E+03  0.00000000000E+00 0. -1.
        -11    1    1    2    0    0  0.12805630423E+01  0.20605823676E+01  0.16066686141E+03  0.16068517728E+03  0.00000000000E+00 0. -1.
         11    1    1    2    0    0 -0.84677727242E+01  0.45441945152E+01 -0.17964543326E+03  0.17990229173E+03  0.00000000000E+00 0. -1.
        -15    1    1    2    0    0  0.38137722351E+01  0.10471812665E+01  0.91978364580E+00  0.44322881474E+01  0.17770000000E+01 0.  1.
         15    1    1    2    0    0  0.33734374468E+01 -0.76519581493E+01  0.18058788204E+02  0.19980242844E+02  0.17770000000E+01 0. -1.
</event>
<event>
 6    1  0.1045352E-002  0.1660462E+03  0.7546771E-02  0.1082363E+00
        -11   -1    0    0    0    0  0.00000000000E+00  0.00000000000E+00  0.18250000000E+03  0.18250000000E+03  0.00000000000E+00 0. -1.
         11   -1    0    0    0    0 -0.00000000000E+00 -0.00000000000E+00 -0.18250000000E+03  0.18250000000E+03  0.00000000000E+00 0.  1.
        -11    1    1    2    0    0  0.13762396516E+02  0.51203288387E+01  0.16551602208E+03  0.16616610632E+03  0.00000000000E+00 0. -1.
         11    1    1    2    0    0 -0.13993531955E+01  0.32878385126E+01 -0.16622496283E+03  0.16626336439E+03  0.00000000000E+00 0.  1.
        -15    1    1    2    0    0 -0.53339768078E+01  0.93602491413E+01  0.62690149955E+01  0.12590625504E+02  0.17770000000E+01 0.  1.
         15    1    1    2    0    0 -0.70290665129E+01 -0.17768416493E+02 -0.55600742435E+01  0.19979903786E+02  0.17770000000E+01 0. -1.
</event>
<event>
 6    1  0.1045352E-002  0.1711754E+03  0.7546771E-02  0.1077844E+00
        -11   -1    0    0    0    0  0.00000000000E+00  0.00000000000E+00  0.18250000000E+03  0.18250000000E+03  0.00000000000E+00 0. -1.
         11   -1    0    0    0    0 -0.00000000000E+00 -0.00000000000E+00 -0.18250000000E+03  0.18250000000E+03  0.00000000000E+00 0. -1.
        -11    1    1    2    0    0 -0.24970375402E+01 -0.49721829056E+01  0.16817383176E+03  0.16826584766E+03  0.00000000000E+00 0. -1.
         11    1    1    2    0    0  0.24047168380E+01 -0.86570453198E+01 -0.17417721878E+03  0.17440880322E+03  0.00000000000E+00 0. -1.
        -15    1    1    2    0    0 -0.23612218108E+01  0.50758202480E+01 -0.52441300699E+01  0.78738776229E+01  0.17770000000E+01 0.  1.
         15    1    1    2    0    0  0.24535425131E+01  0.85534079774E+01  0.11247517089E+02  0.14451471501E+02  0.17770000000E+01 0. -1.
</event>
<event>
 6    1  0.1045352E-002  0.1842469E+03  0.7546771E-02  0.1067073E+00
        -11   -1    0    0    0    0  0.00000000000E+00  0.00000000000E+00  0.18250000000E+03  0.18250000000E+03  0.00000000000E+00 0. -1.
         11   -1    0    0    0    0 -0.00000000000E+00 -0.00000000000E+00 -0.18250000000E+03  0.18250000000E+03  0.00000000000E+00 0. -1.
        -11    1    1    2    0    0 -0.12429350468E+01  0.23736032319E+01  0.18073326489E+03  0.18075312423E+03  0.00000000000E+00 0. -1.
         11    1    1    2    0    0  0.13798812429E+01  0.45653535585E+01 -0.10130730984E+03  0.10141951268E+03  0.00000000000E+00 0. -1.
        -15    1    1    2    0    0  0.81594440900E+00 -0.49711769728E+01 -0.79805855438E+02  0.79984440093E+02  0.17770000000E+01 0.  1.
         15    1    1    2    0    0 -0.95289060515E+00 -0.19677798176E+01  0.37990038448E+00  0.28429230060E+01  0.17770000000E+01 0. -1.
</event>
<event>
 6    1  0.1045352E-002  0.1826222E+03  0.7546771E-02  0.1068358E+00
        -11   -1    0    0    0    0  0.00000000000E+00  0.00000000000E+00  0.18250000000E+03  0.18250000000E+03  0.00000000000E+00 0.  1.
         11   -1    0    0    0    0 -0.00000000000E+00 -0.00000000000E+00 -0.18250000000E+03  0.18250000000E+03  0.00000000000E+00 0. -1.
        -11    1    1    2    0    0 -0.81480517431E-01 -0.84419280342E+00  0.61561682044E+02  0.61567523880E+02  0.00000000000E+00 0.  1.
         11    1    1    2    0    0  0.40171554385E+01 -0.10656727174E+01 -0.18233040930E+03  0.18237777099E+03  0.00000000000E+00 0. -1.
        -15    1    1    2    0    0  0.19436561387E+00 -0.11659421793E+01  0.61258442929E+02  0.61295609616E+02  0.17770000000E+01 0. -1.
         15    1    1    2    0    0 -0.41300405349E+01  0.30758077002E+01  0.59510284323E+02  0.59759095517E+02  0.17770000000E+01 0.  1.
</event>
<event>
 6    1  0.1045352E-002  0.1863496E+03  0.7546771E-02  0.1065431E+00
        -11   -1    0    0    0    0  0.00000000000E+00  0.00000000000E+00  0.18250000000E+03  0.18250000000E+03  0.00000000000E+00 0. -1.
         11   -1    0    0    0    0 -0.00000000000E+00 -0.00000000000E+00 -0.18250000000E+03  0.18250000000E+03  0.00000000000E+00 0. -1.
        -11    1    1    2    0    0 -0.76290710532E+00  0.31562651098E+01  0.17862091810E+03  0.17865043078E+03  0.00000000000E+00 0. -1.
         11    1    1    2    0    0  0.43098718669E+01 -0.61098691782E+01 -0.16466275663E+03  0.16483242678E+03  0.00000000000E+00 0. -1.
        -15    1    1    2    0    0 -0.19342107266E+00  0.51133875414E+01  0.13631397480E+01  0.55856980614E+01  0.17770000000E+01 0.  1.
         15    1    1    2    0    0 -0.33535436890E+01 -0.21597834730E+01 -0.15321301220E+02  0.15931444379E+02  0.17770000000E+01 0. -1.
</event>
<event>
 6    1  0.1045352E-002  0.1127401E+03  0.7546771E-02  0.1143442E+00
        -11   -1    0    0    0    0  0.00000000000E+00  0.00000000000E+00  0.18250000000E+03  0.18250000000E+03  0.00000000000E+00 0.  1.
         11   -1    0    0    0    0 -0.00000000000E+00 -0.00000000000E+00 -0.18250000000E+03  0.18250000000E+03  0.00000000000E+00 0. -1.
        -11    1    1    2    0    0 -0.15247464209E+01 -0.12386634647E+01  0.85843832432E+02  0.85866307161E+02  0.00000000000E+00 0.  1.
         11    1    1    2    0    0 -0.71902171543E+01 -0.55042305429E+01 -0.14012388510E+03  0.14041616343E+03  0.00000000000E+00 0. -1.
        -15    1    1    2    0    0  0.13034304090E+02 -0.23395025908E+02  0.88734174606E+02  0.92704540301E+02  0.17770000000E+01 0.  1.
         15    1    1    2    0    0 -0.43193405144E+01  0.30137919915E+02 -0.34454121942E+02  0.46012989113E+02  0.17770000000E+01 0. -1.
</event>
<event>
 6    1  0.1045352E-002  0.1844811E+03  0.7546771E-02  0.1066889E+00
        -11   -1    0    0    0    0  0.00000000000E+00  0.00000000000E+00  0.18250000000E+03  0.18250000000E+03  0.00000000000E+00 0. -1.
         11   -1    0    0    0    0 -0.00000000000E+00 -0.00000000000E+00 -0.18250000000E+03  0.18250000000E+03  0.00000000000E+00 0. -1.
        -11    1    1    2    0    0  0.29374130415E+01  0.26587039533E+01  0.18047539412E+03  0.18051887709E+03  0.00000000000E+00 0. -1.
         11    1    1    2    0    0  0.26272827721E+00 -0.50579105335E+00 -0.13902463857E+02  0.13914142159E+02  0.00000000000E+00 0. -1.
        -15    1    1    2    0    0 -0.71843174246E+00 -0.18598874028E+01  0.10837330689E+01  0.28822789047E+01  0.17770000000E+01 0.  1.
         15    1    1    2    0    0 -0.24817095762E+01 -0.29302549717E+00 -0.16765666333E+03  0.16768470185E+03  0.17770000000E+01 0. -1.
</event>
<event>
 6    1  0.1045352E-002  0.2318014E+03  0.7546771E-02  0.1034832E+00
        -11   -1    0    0    0    0  0.00000000000E+00  0.00000000000E+00  0.18250000000E+03  0.18250000000E+03  0.00000000000E+00 0.  1.
         11   -1    0    0    0    0 -0.00000000000E+00 -0.00000000000E+00 -0.18250000000E+03  0.18250000000E+03  0.00000000000E+00 0. -1.
        -11    1    1    2    0    0 -0.27637274611E+00  0.30753075347E+01  0.13316278636E+03  0.13319857946E+03  0.00000000000E+00 0.  1.
         11    1    1    2    0    0  0.30251117477E+01 -0.18019215090E+01 -0.10390386348E+03  0.10396350834E+03  0.00000000000E+00 0. -1.
        -15    1    1    2    0    0  0.17047764615E+01 -0.41710148268E+01  0.49070203505E+02  0.49308683094E+02  0.17770000000E+01 0.  1.
         15    1    1    2    0    0 -0.44535154631E+01  0.28976288011E+01 -0.78329126393E+02  0.78529229100E+02  0.17770000000E+01 0. -1.
</event>
<event>
 6    1  0.1045352E-002  0.1825642E+03  0.7546771E-02  0.1068404E+00
        -11   -1    0    0    0    0  0.00000000000E+00  0.00000000000E+00  0.18250000000E+03  0.18250000000E+03  0.00000000000E+00 0. -1.
         11   -1    0    0    0    0 -0.00000000000E+00 -0.00000000000E+00 -0.18250000000E+03  0.18250000000E+03  0.00000000000E+00 0.  1.
        -11    1    1    2    0    0 -0.22947048071E+01 -0.10492296303E+01  0.18241837041E+03  0.18243582000E+03  0.00000000000E+00 0. -1.
         11    1    1    2    0    0 -0.81078076784E+00  0.10234956787E+01 -0.79935012192E+02  0.79945675824E+02  0.00000000000E+00 0.  1.
        -15    1    1    2    0    0  0.22542151427E+01  0.24848552758E+00 -0.39970396871E+02  0.40074101188E+02  0.17770000000E+01 0.  1.
         15    1    1    2    0    0  0.85127043221E+00 -0.22275157596E+00 -0.62512961352E+02  0.62544402992E+02  0.17770000000E+01 0.  1.
</event>
<event>
 6    1  0.1045352E-002  0.1843234E+03  0.7546771E-02  0.1067013E+00
        -11   -1    0    0    0    0  0.00000000000E+00  0.00000000000E+00  0.18250000000E+03  0.18250000000E+03  0.00000000000E+00 0.  1.
         11   -1    0    0    0    0 -0.00000000000E+00 -0.00000000000E+00 -0.18250000000E+03  0.18250000000E+03  0.00000000000E+00 0. -1.
        -11    1    1    2    0    0  0.39070135268E+01 -0.70039943289E+00  0.18063302634E+03  0.18067663246E+03  0.00000000000E+00 0.  1.
         11    1    1    2    0    0  0.33010296085E+01  0.53352550743E+01 -0.11005072652E+03  0.11022941599E+03  0.00000000000E+00 0. -1.
        -15    1    1    2    0    0 -0.45581457928E+01 -0.38405670964E+01 -0.70531918977E+02  0.70805621050E+02  0.17770000000E+01 0. -1.
         15    1    1    2    0    0 -0.26498973425E+01 -0.79428854502E+00 -0.50380839523E-01  0.32883304955E+01  0.17770000000E+01 0. -1.
</event>
<event>
 6    1  0.1045352E-002  0.1838123E+03  0.7546771E-02  0.1067415E+00
        -11   -1    0    0    0    0  0.00000000000E+00  0.00000000000E+00  0.18250000000E+03  0.18250000000E+03  0.00000000000E+00 0. -1.
         11   -1    0    0    0    0 -0.00000000000E+00 -0.00000000000E+00 -0.18250000000E+03  0.18250000000E+03  0.00000000000E+00 0.  1.
        -11    1    1    2    0    0  0.55300084489E+01  0.12022605404E+01  0.18109927587E+03  0.18118767658E+03  0.00000000000E+00 0. -1.
         11    1    1    2    0    0  0.10309860522E+00  0.33683539777E+01 -0.15490098065E+03  0.15493763340E+03  0.00000000000E+00 0.  1.
        -15    1    1    2    0    0 -0.53802478660E+01 -0.10435205617E+01 -0.23213465064E+02  0.23917748463E+02  0.17770000000E+01 0.  1.
         15    1    1    2    0    0 -0.25285918811E+00 -0.35270939564E+01 -0.29848301555E+01  0.49569415574E+01  0.17770000000E+01 0. -1.
</event>
<event>
 6    1  0.1045352E-002  0.1829058E+03  0.7546771E-02  0.1068132E+00
        -11   -1    0    0    0    0  0.00000000000E+00  0.00000000000E+00  0.18250000000E+03  0.18250000000E+03  0.00000000000E+00 0.  1.
         11   -1    0    0    0    0 -0.00000000000E+00 -0.00000000000E+00 -0.18250000000E+03  0.18250000000E+03  0.00000000000E+00 0. -1.
        -11    1    1    2    0    0 -0.20483256285E+01 -0.10074035845E+00  0.49050450301E+02  0.49093303629E+02  0.00000000000E+00 0.  1.
         11    1    1    2    0    0  0.22208091118E+01 -0.20802981138E+01 -0.18206874201E+03  0.18209416919E+03  0.00000000000E+00 0. -1.
        -15    1    1    2    0    0 -0.80496835176E+00 -0.23112521066E+01  0.61771691700E+01  0.68778636438E+01  0.17770000000E+01 0. -1.
         15    1    1    2    0    0  0.63248486844E+00  0.44922905789E+01  0.12684112254E+03  0.12693466354E+03  0.17770000000E+01 0.  1.
</event>
<event>
 6    1  0.1045352E-002  0.1829289E+03  0.7546771E-02  0.1068114E+00
        -11   -1    0    0    0    0  0.00000000000E+00  0.00000000000E+00  0.18250000000E+03  0.18250000000E+03  0.00000000000E+00 0.  1.
         11   -1    0    0    0    0 -0.00000000000E+00 -0.00000000000E+00 -0.18250000000E+03  0.18250000000E+03  0.00000000000E+00 0.  1.
        -11    1    1    2    0    0 -0.13454726074E+01 -0.10555194481E+01  0.83975812187E+02  0.83993222645E+02  0.00000000000E+00 0.  1.
         11    1    1    2    0    0  0.25730198225E+01  0.18549666090E+01 -0.18204349561E+03  0.18207112793E+03  0.00000000000E+00 0.  1.
        -15    1    1    2    0    0  0.13429277948E+01 -0.17516162879E+01  0.92006996176E+02  0.92050620253E+02  0.17770000000E+01 0. -1.
         15    1    1    2    0    0 -0.25704750098E+01  0.95216912703E+00  0.60606872456E+01  0.68850291729E+01  0.17770000000E+01 0.  1.
</event>
<event>
 6    1  0.1045352E-002  0.1843444E+03  0.7546771E-02  0.1066996E+00
        -11   -1    0    0    0    0  0.00000000000E+00  0.00000000000E+00  0.18250000000E+03  0.18250000000E+03  0.00000000000E+00 0. -1.
         11   -1    0    0    0    0 -0.00000000000E+00 -0.00000000000E+00 -0.18250000000E+03  0.18250000000E+03  0.00000000000E+00 0. -1.
        -11    1    1    2    0    0  0.21535095626E+01 -0.56779718683E+01  0.18055353059E+03  0.18065562370E+03  0.00000000000E+00 0. -1.
         11    1    1    2    0    0  0.27962193600E+01  0.89761392383E-01 -0.33829595413E+02  0.33945079549E+02  0.00000000000E+00 0. -1.
        -15    1    1    2    0    0  0.56873653641E+01  0.10785947935E+02 -0.12490870815E+03  0.12551504252E+03  0.17770000000E+01 0. -1.
         15    1    1    2    0    0 -0.10637094287E+02 -0.51977374590E+01 -0.21815227022E+02  0.24884254230E+02  0.17770000000E+01 0.  1.
</event>
<event>
 6    1  0.1045352E-002  0.1851368E+03  0.7546771E-02  0.1066375E+00
        -11   -1    0    0    0    0  0.00000000000E+00  0.00000000000E+00  0.18250000000E+03  0.18250000000E+03  0.00000000000E+00 0.  1.
         11   -1    0    0    0    0 -0.00000000000E+00 -0.00000000000E+00 -0.18250000000E+03  0.18250000000E+03  0.00000000000E+00 0. -1.
        -11    1    1    2    0    0 -0.18186415887E+01 -0.61187124195E+01  0.15822224316E+03  0.15835095305E+03  0.00000000000E+00 0.  1.
         11    1    1    2    0    0  0.18269743569E+01 -0.18332542833E+01 -0.17984453309E+03  0.17986315559E+03  0.00000000000E+00 0. -1.
        -15    1    1    2    0    0  0.36378629789E+01  0.13280464955E+00  0.15595089903E+02  0.16112611279E+02  0.17770000000E+01 0.  1.
         15    1    1    2    0    0 -0.36461957471E+01  0.78191620532E+01  0.60272000244E+01  0.10673280085E+02  0.17770000000E+01 0. -1.
</event>
<event>
 6    1  0.1045352E-002  0.1723447E+03  0.7546771E-02  0.1076839E+00
        -11   -1    0    0    0    0  0.00000000000E+00  0.00000000000E+00  0.18250000000E+03  0.18250000000E+03  0.00000000000E+00 0. -1.
         11   -1    0    0    0    0 -0.00000000000E+00 -0.00000000000E+00 -0.18250000000E+03  0.18250000000E+03  0.00000000000E+00 0. -1.
        -11    1    1    2    0    0  0.67097807548E+01 -0.18058515581E+01  0.17066403311E+03  0.17080542865E+03  0.00000000000E+00 0. -1.
         11    1    1    2    0    0  0.39660444187E+01 -0.97669748766E+00 -0.17402906174E+03  0.17407698808E+03  0.00000000000E+00 0. -1.
        -15    1    1    2    0    0 -0.42774194700E+01 -0.19941027169E+01 -0.58978273820E+01  0.77598234384E+01  0.17770000000E+01 0. -1.
         15    1    1    2    0    0 -0.63984057036E+01  0.47766517627E+01  0.92628560125E+01  0.12357759834E+02  0.17770000000E+01 0.  1.
</event>
<event>
 6    1  0.1045352E-002  0.1836400E+03  0.7546771E-02  0.1067551E+00
        -11   -1    0    0    0    0  0.00000000000E+00  0.00000000000E+00  0.18250000000E+03  0.18250000000E+03  0.00000000000E+00 0.  1.
         11   -1    0    0    0    0 -0.00000000000E+00 -0.00000000000E+00 -0.18250000000E+03  0.18250000000E+03  0.00000000000E+00 0.  1.
        -11    1    1    2    0    0  0.96575334005E+00  0.24011306379E+01  0.14413002884E+03  0.14415326331E+03  0.00000000000E+00 0.  1.
         11    1    1    2    0    0  0.91956331758E+01  0.22291285249E+01 -0.18111302079E+03  0.18136001484E+03  0.00000000000E+00 0.  1.
        -15    1    1    2    0    0 -0.87360093900E+01 -0.61132405924E+01  0.25696955064E+02  0.27877962608E+02  0.17770000000E+01 0.  1.
         15    1    1    2    0    0 -0.14253771258E+01  0.14829814296E+01  0.11286036880E+02  0.11608759250E+02  0.17770000000E+01 0. -1.
</event>
<event>
 6    1  0.1045352E-002  0.1842995E+03  0.7546771E-02  0.1067031E+00
        -11   -1    0    0    0    0  0.00000000000E+00  0.00000000000E+00  0.18250000000E+03  0.18250000000E+03  0.00000000000E+00 0.  1.
         11   -1    0    0    0    0 -0.00000000000E+00 -0.00000000000E+00 -0.18250000000E+03  0.18250000000E+03  0.00000000000E+00 0. -1.
        -11    1    1    2    0    0 -0.20718241277E+01  0.27035296158E+01  0.16082419518E+03  0.16086026011E+03  0.00000000000E+00 0.  1.
         11    1    1    2    0    0 -0.91980486063E+00 -0.34020604485E+01 -0.18066612561E+03  0.18070049530E+03  0.00000000000E+00 0. -1.
        -15    1    1    2    0    0 -0.27533041757E+01 -0.30688778387E+01  0.12252353455E+02  0.13049007214E+02  0.17770000000E+01 0. -1.
         15    1    1    2    0    0  0.57449331641E+01  0.37674086713E+01  0.75895769804E+01  0.10390237384E+02  0.17770000000E+01 0.  1.
</event>
<event>
 6    1  0.1045352E-002  0.1565847E+03  0.7546771E-02  0.1091187E+00
        -11   -1    0    0    0    0  0.00000000000E+00  0.00000000000E+00  0.18250000000E+03  0.18250000000E+03  0.00000000000E+00 0. -1.
         11   -1    0    0    0    0 -0.00000000000E+00 -0.00000000000E+00 -0.18250000000E+03  0.18250000000E+03  0.00000000000E+00 0.  1.
        -11    1    1    2    0    0  0.31698849186E+00 -0.14758427431E+01  0.16294662563E+02  0.16364431599E+02  0.00000000000E+00 0. -1.
         11    1    1    2    0    0  0.20145813956E+01  0.13204305712E+01 -0.14771529651E+03  0.14773493459E+03  0.00000000000E+00 0.  1.
        -15    1    1    2    0    0  0.21460900549E+01  0.14859927402E+01  0.16596579014E+03  0.16599582857E+03  0.17770000000E+01 0. -1.
         15    1    1    2    0    0 -0.44776599424E+01 -0.13305805683E+01 -0.34545156195E+02  0.34904805239E+02  0.17770000000E+01 0. -1.
</event>
<event>
 6    1  0.1045352E-002  0.1516184E+03  0.7546771E-02  0.1096097E+00
        -11   -1    0    0    0    0  0.00000000000E+00  0.00000000000E+00  0.18250000000E+03  0.18250000000E+03  0.00000000000E+00 0.  1.
         11   -1    0    0    0    0 -0.00000000000E+00 -0.00000000000E+00 -0.18250000000E+03  0.18250000000E+03  0.00000000000E+00 0. -1.
        -11    1    1    2    0    0 -0.17724866929E+01 -0.12107923957E+01  0.15430200265E+03  0.15431693280E+03  0.00000000000E+00 0.  1.
         11    1    1    2    0    0  0.72536987425E+01 -0.10608747349E+02 -0.14869707443E+03  0.14925140405E+03  0.00000000000E+00 0. -1.
        -15    1    1    2    0    0 -0.94154422968E+01  0.31005539470E+02 -0.19030125256E+02  0.37620438962E+02  0.17770000000E+01 0.  1.
         15    1    1    2    0    0  0.39342302472E+01 -0.19185999726E+02  0.13425197036E+02  0.23811224193E+02  0.17770000000E+01 0. -1.
</event>
<event>
 6    1  0.1045352E-002  0.1829226E+03  0.7546771E-02  0.1068119E+00
        -11   -1    0    0    0    0  0.00000000000E+00  0.00000000000E+00  0.18250000000E+03  0.18250000000E+03  0.00000000000E+00 0.  1.
         11   -1    0    0    0    0 -0.00000000000E+00 -0.00000000000E+00 -0.18250000000E+03  0.18250000000E+03  0.00000000000E+00 0.  1.
        -11    1    1    2    0    0 -0.64721980401E+00 -0.31396726067E+01  0.18204916448E+03  0.18207738664E+03  0.00000000000E+00 0.  1.
         11    1    1    2    0    0 -0.73003759533E+00  0.23702044533E+01 -0.14434868197E+03  0.14436998584E+03  0.00000000000E+00 0.  1.
        -15    1    1    2    0    0  0.16763496016E+01 -0.30014186026E+01 -0.17091405427E+02  0.17524055754E+02  0.17770000000E+01 0. -1.
         15    1    1    2    0    0 -0.29909220229E+00  0.37708867561E+01 -0.20609077087E+02  0.21028571764E+02  0.17770000000E+01 0.  1.
</event>
<event>
 6    1  0.1045352E-002  0.1827584E+03  0.7546771E-02  0.1068249E+00
        -11   -1    0    0    0    0  0.00000000000E+00  0.00000000000E+00  0.18250000000E+03  0.18250000000E+03  0.00000000000E+00 0. -1.
         11   -1    0    0    0    0 -0.00000000000E+00 -0.00000000000E+00 -0.18250000000E+03  0.18250000000E+03  0.00000000000E+00 0. -1.
        -11    1    1    2    0    0 -0.20404748316E+01  0.38713457515E+00  0.89467977683E+02  0.89492080328E+02  0.00000000000E+00 0. -1.
         11    1    1    2    0    0 -0.15536937244E+01 -0.29838536144E+01 -0.18221058307E+03  0.18224163611E+03  0.00000000000E+00 0. -1.
        -15    1    1    2    0    0  0.19199291913E+01  0.23460804249E+01  0.86307946111E+02  0.86379450753E+02  0.17770000000E+01 0.  1.
         15    1    1    2    0    0  0.16742393647E+01  0.25063861441E+00  0.64346592790E+01  0.68868328136E+01  0.17770000000E+01 0. -1.
</event>
<event>
 6    1  0.1045352E-002  0.1840881E+03  0.7546771E-02  0.1067198E+00
        -11   -1    0    0    0    0  0.00000000000E+00  0.00000000000E+00  0.18250000000E+03  0.18250000000E+03  0.00000000000E+00 0. -1.
         11   -1    0    0    0    0 -0.00000000000E+00 -0.00000000000E+00 -0.18250000000E+03  0.18250000000E+03  0.00000000000E+00 0.  1.
        -11    1    1    2    0    0  0.25337977207E+01  0.15736412145E+01  0.18088727638E+03  0.18091186592E+03  0.00000000000E+00 0. -1.
         11    1    1    2    0    0 -0.27877180723E+01  0.36010249660E+01 -0.15993721588E+03  0.16000203679E+03  0.00000000000E+00 0.  1.
        -15    1    1    2    0    0 -0.22948649788E+00 -0.57940160425E+01 -0.21269346739E+02  0.22117100299E+02  0.17770000000E+01 0. -1.
         15    1    1    2    0    0  0.48340684946E+00  0.61934986204E+00  0.31928624414E+00  0.19689969882E+01  0.17770000000E+01 0.  1.
</event>
<event>
 6    1  0.1045352E-002  0.1877985E+03  0.7546771E-02  0.1064314E+00
        -11   -1    0    0    0    0  0.00000000000E+00  0.00000000000E+00  0.18250000000E+03  0.18250000000E+03  0.00000000000E+00 0. -1.
         11   -1    0    0    0    0 -0.00000000000E+00 -0.00000000000E+00 -0.18250000000E+03  0.18250000000E+03  0.00000000000E+00 0. -1.
        -11    1    1    2    0    0 -0.54590820155E+01 -0.28403476883E+01  0.12398909884E+03  0.12414171653E+03  0.00000000000E+00 0. -1.
         11    1    1    2    0    0 -0.14150576950E+02 -0.12957019249E+02 -0.17615969659E+03  0.17720147256E+03  0.00000000000E+00 0. -1.
        -15    1    1    2    0    0  0.79620382570E+01  0.11522394540E+02  0.48622005238E+02  0.50630196045E+02  0.17770000000E+01 0. -1.
         15    1    1    2    0    0  0.11647620708E+02  0.42749723980E+01  0.35485925105E+01  0.13026614870E+02  0.17770000000E+01 0.  1.
</event>
<event>
 6    1  0.1045352E-002  0.1935144E+03  0.7546771E-02  0.1060010E+00
        -11   -1    0    0    0    0  0.00000000000E+00  0.00000000000E+00  0.18250000000E+03  0.18250000000E+03  0.00000000000E+00 0.  1.
         11   -1    0    0    0    0 -0.00000000000E+00 -0.00000000000E+00 -0.18250000000E+03  0.18250000000E+03  0.00000000000E+00 0. -1.
        -11    1    1    2    0    0 -0.54452985083E+00 -0.63347511526E+01  0.17136768213E+03  0.17148559142E+03  0.00000000000E+00 0.  1.
         11    1    1    2    0    0 -0.37405162926E+01 -0.32789386995E+01 -0.14617952497E+03  0.14626413239E+03  0.00000000000E+00 0. -1.
        -15    1    1    2    0    0  0.26983373763E+01  0.63328303749E+01  0.97560565936E+01  0.12071625177E+02  0.17770000000E+01 0.  1.
         15    1    1    2    0    0  0.15867087671E+01  0.32808594772E+01 -0.34944213752E+02  0.35178651017E+02  0.17770000000E+01 0. -1.
</event>
<event>
 6    1  0.1045352E-002  0.1878591E+03  0.7546771E-02  0.1064267E+00
        -11   -1    0    0    0    0  0.00000000000E+00  0.00000000000E+00  0.18250000000E+03  0.18250000000E+03  0.00000000000E+00 0.  1.
         11   -1    0    0    0    0 -0.00000000000E+00 -0.00000000000E+00 -0.18250000000E+03  0.18250000000E+03  0.00000000000E+00 0.  1.
        -11    1    1    2    0    0  0.10056391730E+02  0.63876663015E+00  0.17685402867E+03  0.17714086624E+03  0.00000000000E+00 0.  1.
         11    1    1    2    0    0 -0.14267615185E+01  0.16668388519E+01 -0.79618816293E+02  0.79649042104E+02  0.00000000000E+00 0.  1.
        -15    1    1    2    0    0 -0.10847953220E+02 -0.33263807272E+01 -0.57128614391E+00  0.11498999725E+02  0.17770000000E+01 0.  1.
         15    1    1    2    0    0  0.22183230086E+01  0.10207752451E+01 -0.96663926229E+02  0.96711091929E+02  0.17770000000E+01 0.  1.
</event>
<event>
 6    1  0.1045352E-002  0.1877011E+03  0.7546771E-02  0.1064389E+00
        -11   -1    0    0    0    0  0.00000000000E+00  0.00000000000E+00  0.18250000000E+03  0.18250000000E+03  0.00000000000E+00 0.  1.
         11   -1    0    0    0    0 -0.00000000000E+00 -0.00000000000E+00 -0.18250000000E+03  0.18250000000E+03  0.00000000000E+00 0.  1.
        -11    1    1    2    0    0 -0.93426867260E-01 -0.24750693886E+01  0.17165505738E+03  0.17167292571E+03  0.00000000000E+00 0.  1.
         11    1    1    2    0    0  0.14905031414E+01  0.45266632246E+01 -0.17723488543E+03  0.17729894780E+03  0.00000000000E+00 0.  1.
        -15    1    1    2    0    0 -0.13119761769E+01  0.25454211232E+01  0.92745446500E+01  0.98678952998E+01  0.17770000000E+01 0.  1.
         15    1    1    2    0    0 -0.85100097164E-01 -0.45970149592E+01 -0.36947165984E+01  0.61602311892E+01  0.17770000000E+01 0.  1.
</event>
<event>
 6    1  0.1045352E-002  0.1882886E+03  0.7546771E-02  0.1063938E+00
        -11   -1    0    0    0    0  0.00000000000E+00  0.00000000000E+00  0.18250000000E+03  0.18250000000E+03  0.00000000000E+00 0.  1.
         11   -1    0    0    0    0 -0.00000000000E+00 -0.00000000000E+00 -0.18250000000E+03  0.18250000000E+03  0.00000000000E+00 0. -1.
        -11    1    1    2    0    0  0.43772635874E+00 -0.65703122217E+00  0.54481656856E+02  0.54487376778E+02  0.00000000000E+00 0.  1.
         11    1    1    2    0    0 -0.17141480261E+02 -0.97674864690E+01 -0.17560665909E+03  0.17671143951E+03  0.00000000000E+00 0. -1.
        -15    1    1    2    0    0  0.96965597563E+00  0.26012335902E+02  0.28890724752E+02  0.38928313057E+02  0.17770000000E+01 0. -1.
         15    1    1    2    0    0  0.15734097927E+02 -0.15587818211E+02  0.92234277483E+02  0.94872870653E+02  0.17770000000E+01 0.  1.
</event>
<event>
 6    1  0.1045352E-002  0.1831090E+03  0.7546771E-02  0.1067971E+00
        -11   -1    0    0    0    0  0.00000000000E+00  0.00000000000E+00  0.18250000000E+03  0.18250000000E+03  0.00000000000E+00 0. -1.
         11   -1    0    0    0    0 -0.00000000000E+00 -0.00000000000E+00 -0.18250000000E+03  0.18250000000E+03  0.00000000000E+00 0. -1.
        -11    1    1    2    0    0 -0.37205586908E+01 -0.10730919747E+01  0.18184974919E+03  0.18189097109E+03  0.00000000000E+00 0. -1.
         11    1    1    2    0    0  0.35547975093E+01  0.36425401215E+01 -0.98923830770E+02  0.99054676710E+02  0.00000000000E+00 0. -1.
        -15    1    1    2    0    0  0.21859148377E+00 -0.66824280171E+01 -0.24532979532E+02  0.25489751670E+02  0.17770000000E+01 0.  1.
         15    1    1    2    0    0 -0.52830302258E-01  0.41129798704E+01 -0.58392938888E+02  0.58564600531E+02  0.17770000000E+01 0. -1.
</event>
<event>
 6    1  0.1045352E-002  0.1826022E+03  0.7546771E-02  0.1068373E+00
        -11   -1    0    0    0    0  0.00000000000E+00  0.00000000000E+00  0.18250000000E+03  0.18250000000E+03  0.00000000000E+00 0. -1.
         11   -1    0    0    0    0 -0.00000000000E+00 -0.00000000000E+00 -0.18250000000E+03  0.18250000000E+03  0.00000000000E+00 0.  1.
        -11    1    1    2    0    0  0.45906116061E+01 -0.19291871209E+01  0.18232976724E+03  0.18239775081E+03  0.00000000000E+00 0. -1.
         11    1    1    2    0    0 -0.20033898880E+00  0.71296495251E+00 -0.18565623648E+02  0.18580388482E+02  0.00000000000E+00 0.  1.
        -15    1    1    2    0    0 -0.52735240611E+01  0.18980061804E+01 -0.74006352487E+02  0.74239547553E+02  0.17770000000E+01 0. -1.
         15    1    1    2    0    0  0.88325144385E+00 -0.68178401201E+00 -0.89757791106E+02  0.89782313156E+02  0.17770000000E+01 0.  1.
</event>
<event>
 6    1  0.1045352E-002  0.1838950E+03  0.7546771E-02  0.1067350E+00
        -11   -1    0    0    0    0  0.00000000000E+00  0.00000000000E+00  0.18250000000E+03  0.18250000000E+03  0.00000000000E+00 0. -1.
         11   -1    0    0    0    0 -0.00000000000E+00 -0.00000000000E+00 -0.18250000000E+03  0.18250000000E+03  0.00000000000E+00 0.  1.
        -11    1    1    2    0    0 -0.27461105629E+01 -0.11926424189E+01  0.15862648975E+03  0.15865474077E+03  0.00000000000E+00 0. -1.
         11    1    1    2    0    0 -0.10598212430E+01  0.49089422165E+01 -0.18103538602E+03  0.18110503009E+03  0.00000000000E+00 0.  1.
        -15    1    1    2    0    0  0.47682098053E+01 -0.43177267310E+01  0.22128904810E+02  0.23113302359E+02  0.17770000000E+01 0.  1.
         15    1    1    2    0    0 -0.96227799942E+00  0.60142693336E+00  0.27999146062E+00  0.21269267788E+01  0.17770000000E+01 0.  1.
</event>
<event>
 6    1  0.1045352E-002  0.1844838E+03  0.7546771E-02  0.1066887E+00
        -11   -1    0    0    0    0  0.00000000000E+00  0.00000000000E+00  0.18250000000E+03  0.18250000000E+03  0.00000000000E+00 0. -1.
         11   -1    0    0    0    0 -0.00000000000E+00 -0.00000000000E+00 -0.18250000000E+03  0.18250000000E+03  0.00000000000E+00 0.  1.
        -11    1    1    2    0    0 -0.29224502972E+01 -0.66731368299E+00  0.13281294003E+03  0.13284676535E+03  0.00000000000E+00 0. -1.
         11    1    1    2    0    0 -0.64826403463E+01  0.41747179706E+01 -0.18035142993E+03  0.18051617981E+03  0.00000000000E+00 0.  1.
        -15    1    1    2    0    0  0.81211244830E+01 -0.14107294078E+01  0.69273607129E+01  0.10912784969E+02  0.17770000000E+01 0. -1.
         15    1    1    2    0    0  0.12839661605E+01 -0.20966748798E+01  0.40611129181E+02  0.40724269877E+02  0.17770000000E+01 0.  1.
</event>
<event>
 6    1  0.1045352E-002  0.1830282E+03  0.7546771E-02  0.1068035E+00
        -11   -1    0    0    0    0  0.00000000000E+00  0.00000000000E+00  0.18250000000E+03  0.18250000000E+03  0.00000000000E+00 0.  1.
         11   -1    0    0    0    0 -0.00000000000E+00 -0.00000000000E+00 -0.18250000000E+03  0.18250000000E+03  0.00000000000E+00 0. -1.
        -11    1    1    2    0    0 -0.98985892064E+00 -0.20071213409E+01  0.16032165712E+03  0.16033727607E+03  0.00000000000E+00 0.  1.
         11    1    1    2    0    0  0.35098489702E+01  0.29604161929E+01 -0.18191386852E+03  0.18197180733E+03  0.00000000000E+00 0. -1.
        -15    1    1    2    0    0 -0.25118479062E+01 -0.22132446492E+01  0.18643294077E+02  0.19024667535E+02  0.17770000000E+01 0. -1.
         15    1    1    2    0    0 -0.81421434031E-02  0.12599497972E+01  0.29489173234E+01  0.36662490595E+01  0.17770000000E+01 0. -1.
</event>
<event>
 6    1  0.1045352E-002  0.1476397E+03  0.7546771E-02  0.1100182E+00
        -11   -1    0    0    0    0  0.00000000000E+00  0.00000000000E+00  0.18250000000E+03  0.18250000000E+03  0.00000000000E+00 0.  1.
         11   -1    0    0    0    0 -0.00000000000E+00 -0.00000000000E+00 -0.18250000000E+03  0.18250000000E+03  0.00000000000E+00 0. -1.
        -11    1    1    2    0    0  0.40644346462E+01  0.16532937329E+01  0.14865893802E+03  0.14872367956E+03  0.00000000000E+00 0.  1.
         11    1    1    2    0    0  0.10024345794E+02  0.76057031609E+01 -0.14650502602E+03  0.14704440444E+03  0.00000000000E+00 0. -1.
        -15    1    1    2    0    0 -0.43403802130E+01  0.17009892737E+01  0.31807095312E+02  0.32195982763E+02  0.17770000000E+01 0.  1.
         15    1    1    2    0    0 -0.97484002275E+01 -0.10959986168E+02 -0.33961007314E+02  0.37035933235E+02  0.17770000000E+01 0. -1.
</event>
<event>
 6    1  0.1045352E-002  0.1909826E+03  0.7546771E-02  0.1061896E+00
        -11   -1    0    0    0    0  0.00000000000E+00  0.00000000000E+00  0.18250000000E+03  0.18250000000E+03  0.00000000000E+00 0. -1.
         11   -1    0    0    0    0 -0.00000000000E+00 -0.00000000000E+00 -0.18250000000E+03  0.18250000000E+03  0.00000000000E+00 0. -1.
        -11    1    1    2    0    0 -0.23233817841E+02  0.14883324398E+02  0.17181600230E+03  0.17401741948E+03  0.00000000000E+00 0. -1.
         11    1    1    2    0    0 -0.35036898798E+01 -0.25928370186E+01 -0.13392550412E+03  0.13399641525E+03  0.00000000000E+00 0. -1.
        -15    1    1    2    0    0  0.12476513438E+02 -0.64437693607E+01 -0.38942925992E+02  0.41435428862E+02  0.17770000000E+01 0. -1.
         15    1    1    2    0    0  0.14260994283E+02 -0.58467180190E+01  0.10524278040E+01  0.15550736407E+02  0.17770000000E+01 0. -1.
</event>
<event>
 6    1  0.1045352E-002  0.1965479E+03  0.7546771E-02  0.1057792E+00
        -11   -1    0    0    0    0  0.00000000000E+00  0.00000000000E+00  0.18250000000E+03  0.18250000000E+03  0.00000000000E+00 0. -1.
         11   -1    0    0    0    0 -0.00000000000E+00 -0.00000000000E+00 -0.18250000000E+03  0.18250000000E+03  0.00000000000E+00 0. -1.
        -11    1    1    2    0    0 -0.36441255213E+01  0.28564355625E+01  0.83968966982E+02  0.84096529601E+02  0.00000000000E+00 0. -1.
         11    1    1    2    0    0  0.20708985487E+01  0.47637287289E+01 -0.16837195810E+03  0.16845206442E+03  0.00000000000E+00 0. -1.
        -15    1    1    2    0    0  0.28815718058E+01 -0.22839904013E+01  0.97788362575E+02  0.97873600385E+02  0.17770000000E+01 0. -1.
         15    1    1    2    0    0 -0.13083448333E+01 -0.53361738901E+01 -0.13385371455E+02  0.14577805596E+02  0.17770000000E+01 0. -1.
</event>
<event>
 6    1  0.1045352E-002  0.1852934E+03  0.7546771E-02  0.1066253E+00
        -11   -1    0    0    0    0  0.00000000000E+00  0.00000000000E+00  0.18250000000E+03  0.18250000000E+03  0.00000000000E+00 0. -1.
         11   -1    0    0    0    0 -0.00000000000E+00 -0.00000000000E+00 -0.18250000000E+03  0.18250000000E+03  0.00000000000E+00 0. -1.
        -11    1    1    2    0    0 -0.43097629951E+01 -0.32624062548E+01  0.73339213995E+02  0.73538137460E+02  0.00000000000E+00 0. -1.
         11    1    1    2    0    0  0.10511030547E+02 -0.14766410839E+02 -0.17879015407E+03  0.17970656038E+03  0.00000000000E+00 0. -1.
        -15    1    1    2    0    0  0.83995799581E+01  0.20345723167E+02  0.65235065482E+02  0.68871422898E+02  0.17770000000E+01 0.  1.
         15    1    1    2    0    0 -0.14600847510E+02 -0.23169060724E+01  0.40215874595E+02  0.42883879257E+02  0.17770000000E+01 0. -1.
</event>
<event>
 6    1  0.1045352E-002  0.1319319E+03  0.7546771E-02  0.1117813E+00
        -11   -1    0    0    0    0  0.00000000000E+00  0.00000000000E+00  0.18250000000E+03  0.18250000000E+03  0.00000000000E+00 0. -1.
         11   -1    0    0    0    0 -0.00000000000E+00 -0.00000000000E+00 -0.18250000000E+03  0.18250000000E+03  0.00000000000E+00 0.  1.
        -11    1    1    2    0    0  0.22750011353E+00 -0.36130802588E+01  0.44781827730E+02  0.44927922277E+02  0.00000000000E+00 0. -1.
         11    1    1    2    0    0  0.11859622195E+01  0.10353333128E+02 -0.17156524321E+03  0.17188144371E+03  0.00000000000E+00 0.  1.
        -15    1    1    2    0    0  0.12588801019E+02 -0.35956345845E+02  0.96678024385E+02  0.10392850834E+03  0.17770000000E+01 0. -1.
         15    1    1    2    0    0 -0.14002263352E+02  0.29216092976E+02  0.30105391093E+02  0.44262125679E+02  0.17770000000E+01 0.  1.
</event>
<event>
 6    1  0.1045352E-002  0.1829610E+03  0.7546771E-02  0.1068088E+00
        -11   -1    0    0    0    0  0.00000000000E+00  0.00000000000E+00  0.18250000000E+03  0.18250000000E+03  0.00000000000E+00 0. -1.
         11   -1    0    0    0    0 -0.00000000000E+00 -0.00000000000E+00 -0.18250000000E+03  0.18250000000E+03  0.00000000000E+00 0. -1.
        -11    1    1    2    0    0 -0.38717973501E+01 -0.31993307137E+00  0.18199758690E+03  0.18203904749E+03  0.00000000000E+00 0. -1.
         11    1    1    2    0    0  0.21308249817E+01 -0.67731992305E+00 -0.98581225491E+02  0.98606577858E+02  0.00000000000E+00 0. -1.
        -15    1    1    2    0    0 -0.29147251764E+01 -0.26011041992E+01 -0.59712450724E+02  0.59866483664E+02  0.17770000000E+01 0. -1.
         15    1    1    2    0    0  0.46556975447E+01  0.35983571936E+01 -0.23703910689E+02  0.24487890989E+02  0.17770000000E+01 0.  1.
</event>
<event>
 6    1  0.1045352E-002  0.1862341E+03  0.7546771E-02  0.1065521E+00
        -11   -1    0    0    0    0  0.00000000000E+00  0.00000000000E+00  0.18250000000E+03  0.18250000000E+03  0.00000000000E+00 0. -1.
         11   -1    0    0    0    0 -0.00000000000E+00 -0.00000000000E+00 -0.18250000000E+03  0.18250000000E+03  0.00000000000E+00 0. -1.
        -11    1    1    2    0    0  0.81839429375E+00  0.40892201884E+01  0.17871725693E+03  0.17876590675E+03  0.00000000000E+00 0. -1.
         11    1    1    2    0    0  0.51859193248E+01  0.33504381897E+01 -0.16691684728E+03  0.16703099443E+03  0.00000000000E+00 0. -1.
        -15    1    1    2    0    0  0.18430648281E+01 -0.39097140657E+01 -0.87182865876E+01  0.98918654489E+01  0.17770000000E+01 0. -1.
         15    1    1    2    0    0 -0.78473784466E+01 -0.35299443123E+01 -0.30821230580E+01  0.93112333703E+01  0.17770000000E+01 0.  1.
</event>
<event>
 6    1  0.1045352E-002  0.1830508E+03  0.7546771E-02  0.1068017E+00
        -11   -1    0    0    0    0  0.00000000000E+00  0.00000000000E+00  0.18250000000E+03  0.18250000000E+03  0.00000000000E+00 0.  1.
         11   -1    0    0    0    0 -0.00000000000E+00 -0.00000000000E+00 -0.18250000000E+03  0.18250000000E+03  0.00000000000E+00 0.  1.
        -11    1    1    2    0    0  0.16202375496E+01 -0.22567085326E+01  0.48515324780E+02  0.48594800562E+02  0.00000000000E+00 0.  1.
         11    1    1    2    0    0  0.87575907139E+00  0.35518920286E+01 -0.18191245539E+03  0.18194923555E+03  0.00000000000E+00 0.  1.
        -15    1    1    2    0    0  0.98441679560E+00 -0.57969099355E+01  0.11395550242E+03  0.11412093367E+03  0.17770000000E+01 0.  1.
         15    1    1    2    0    0 -0.34804134166E+01  0.45017264396E+01  0.19441628191E+02  0.20335030224E+02  0.17770000000E+01 0.  1.
</event>
<event>
 6    1  0.1045352E-002  0.1827772E+03  0.7546771E-02  0.1068234E+00
        -11   -1    0    0    0    0  0.00000000000E+00  0.00000000000E+00  0.18250000000E+03  0.18250000000E+03  0.00000000000E+00 0. -1.
         11   -1    0    0    0    0 -0.00000000000E+00 -0.00000000000E+00 -0.18250000000E+03  0.18250000000E+03  0.00000000000E+00 0. -1.
        -11    1    1    2    0    0 -0.16315078847E+01 -0.73957782052E+00  0.86981575874E+02  0.87000019165E+02  0.00000000000E+00 0. -1.
         11    1    1    2    0    0  0.21631548021E+00  0.25051546497E+01 -0.18220549676E+03  0.18222284610E+03  0.00000000000E+00 0. -1.
        -15    1    1    2    0    0 -0.35785220278E+01 -0.26966060698E+01  0.39174112999E+02  0.39469562481E+02  0.17770000000E+01 0.  1.
         15    1    1    2    0    0  0.49937144323E+01  0.93102924063E+00  0.56049807889E+02  0.56307572250E+02  0.17770000000E+01 0. -1.
</event>
<event>
 6    1  0.1045352E-002  0.1979160E+03  0.7546771E-02  0.1056806E+00
        -11   -1    0    0    0    0  0.00000000000E+00  0.00000000000E+00  0.18250000000E+03  0.18250000000E+03  0.00000000000E+00 0.  1.
         11   -1    0    0    0    0 -0.00000000000E+00 -0.00000000000E+00 -0.18250000000E+03  0.18250000000E+03  0.00000000000E+00 0.  1.
        -11    1    1    2    0    0  0.21368987084E+01 -0.15142740709E+00  0.14491010979E+03  0.14492594379E+03  0.00000000000E+00 0.  1.
         11    1    1    2    0    0  0.99927627923E+01  0.13752205693E+02 -0.16621699206E+03  0.16708401156E+03  0.00000000000E+00 0.  1.
        -15    1    1    2    0    0 -0.72238369091E+01 -0.14700636799E+02 -0.11281653951E+02  0.19968124270E+02  0.17770000000E+01 0.  1.
         15    1    1    2    0    0 -0.49058245915E+01  0.10998585130E+01  0.32588536221E+02  0.33021920382E+02  0.17770000000E+01 0. -1.
</event>
<event>
 6    1  0.1045352E-002  0.1828777E+03  0.7546771E-02  0.1068155E+00
        -11   -1    0    0    0    0  0.00000000000E+00  0.00000000000E+00  0.18250000000E+03  0.18250000000E+03  0.00000000000E+00 0. -1.
         11   -1    0    0    0    0 -0.00000000000E+00 -0.00000000000E+00 -0.18250000000E+03  0.18250000000E+03  0.00000000000E+00 0.  1.
        -11    1    1    2    0    0  0.33289769788E+01  0.62532168984E+00  0.18209078869E+03  0.18212228980E+03  0.00000000000E+00 0. -1.
         11    1    1    2    0    0 -0.27279704526E+01 -0.26777825943E+01 -0.11369595093E+03  0.11376019339E+03  0.00000000000E+00 0.  1.
        -15    1    1    2    0    0  0.35440039349E+01  0.30979204550E+01 -0.44050494720E+02  0.44336902115E+02  0.17770000000E+01 0. -1.
         15    1    1    2    0    0 -0.41450104610E+01 -0.10454595506E+01 -0.24344343047E+02  0.24780614698E+02  0.17770000000E+01 0.  1.
</event>
<event>
 6    1  0.1045352E-002  0.1777878E+03  0.7546771E-02  0.1072269E+00
        -11   -1    0    0    0    0  0.00000000000E+00  0.00000000000E+00  0.18250000000E+03  0.18250000000E+03  0.00000000000E+00 0. -1.
         11   -1    0    0    0    0 -0.00000000000E+00 -0.00000000000E+00 -0.18250000000E+03  0.18250000000E+03  0.00000000000E+00 0.  1.
        -11    1    1    2    0    0 -0.30747814938E+01 -0.21940352690E+01  0.17877594415E+03  0.17881584460E+03  0.00000000000E+00 0. -1.
         11    1    1    2    0    0 -0.18209692688E+01 -0.15383149663E+01 -0.17680249663E+03  0.17681856565E+03  0.00000000000E+00 0.  1.
        -15    1    1    2    0    0  0.14964647462E+01  0.18201088410E+01 -0.37104339651E+01  0.47410180487E+01  0.17770000000E+01 0.  1.
         15    1    1    2    0    0  0.33992860164E+01  0.19122413943E+01  0.17369864429E+01  0.46245717071E+01  0.17770000000E+01 0.  1.
</event>
<event>
 6    1  0.1045352E-002  0.1832651E+03  0.7546771E-02  0.1067847E+00
        -11   -1    0    0    0    0  0.00000000000E+00  0.00000000000E+00  0.18250000000E+03  0.18250000000E+03  0.00000000000E+00 0. -1.
         11   -1    0    0    0    0 -0.00000000000E+00 -0.00000000000E+00 -0.18250000000E+03  0.18250000000E+03  0.00000000000E+00 0. -1.
        -11    1    1    2    0    0  0.15776519415E+01 -0.13525541550E+01  0.12069265685E+03  0.12071054555E+03  0.00000000000E+00 0. -1.
         11    1    1    2    0    0 -0.35320331216E+01 -0.16974154497E+01 -0.18169261770E+03  0.18173487228E+03  0.00000000000E+00 0. -1.
        -15    1    1    2    0    0 -0.23291816734E+01  0.16719908333E+00  0.26629929263E+01  0.39626131689E+01  0.17770000000E+01 0. -1.
         15    1    1    2    0    0  0.42835628535E+01  0.28827705213E+01  0.58336967917E+02  0.58591969000E+02  0.17770000000E+01 0.  1.
</event>
<event>
 6    1  0.1045352E-002  0.1894028E+03  0.7546771E-02  0.1063089E+00
        -11   -1    0    0    0    0  0.00000000000E+00  0.00000000000E+00  0.18250000000E+03  0.18250000000E+03  0.00000000000E+00 0. -1.
         11   -1    0    0    0    0 -0.00000000000E+00 -0.00000000000E+00 -0.18250000000E+03  0.18250000000E+03  0.00000000000E+00 0.  1.
        -11    1    1    2    0    0 -0.25147676777E+01  0.96993206829E+01  0.17531107804E+03  0.17559719520E+03  0.00000000000E+00 0. -1.
         11    1    1    2    0    0  0.67897325798E+01  0.70155837277E+01 -0.15204346678E+03  0.15235660365E+03  0.00000000000E+00 0.  1.
        -15    1    1    2    0    0 -0.54329915687E+01 -0.51076225254E+01  0.30143104794E+01  0.82370505592E+01  0.17770000000E+01 0.  1.
         15    1    1    2    0    0  0.11580266665E+01 -0.11607281885E+02 -0.26281921740E+02  0.28809150592E+02  0.17770000000E+01 0. -1.
</event>
<event>
 6    1  0.1045352E-002  0.1832080E+03  0.7546771E-02  0.1067893E+00
        -11   -1    0    0    0    0  0.00000000000E+00  0.00000000000E+00  0.18250000000E+03  0.18250000000E+03  0.00000000000E+00 0.  1.
         11   -1    0    0    0    0 -0.00000000000E+00 -0.00000000000E+00 -0.18250000000E+03  0.18250000000E+03  0.00000000000E+00 0. -1.
        -11    1    1    2    0    0  0.17229046876E+01 -0.27553165896E+01  0.18176294985E+03  0.18179199682E+03  0.00000000000E+00 0.  1.
         11    1    1    2    0    0 -0.22131193207E+01 -0.31431928004E+00 -0.15259004356E+03  0.15260641562E+03  0.00000000000E+00 0. -1.
        -15    1    1    2    0    0  0.17546435138E+01 -0.20951122257E+00 -0.23844258951E+02  0.23975593480E+02  0.17770000000E+01 0.  1.
         15    1    1    2    0    0 -0.12644288808E+01  0.32791470922E+01 -0.53286473389E+01  0.66259940771E+01  0.17770000000E+01 0.  1.
</event>
<event>
 6    1  0.1045352E-002  0.1867340E+03  0.7546771E-02  0.1065134E+00
        -11   -1    0    0    0    0  0.00000000000E+00  0.00000000000E+00  0.18250000000E+03  0.18250000000E+03  0.00000000000E+00 0.  1.
         11   -1    0    0    0    0 -0.00000000000E+00 -0.00000000000E+00 -0.18250000000E+03  0.18250000000E+03  0.00000000000E+00 0. -1.
        -11    1    1    2    0    0 -0.24220444456E+01  0.24133795378E+01  0.15056817100E+03  0.15060698795E+03  0.00000000000E+00 0.  1.
         11    1    1    2    0    0  0.77845564540E+01 -0.14218064728E+01 -0.17809023671E+03  0.17826596216E+03  0.00000000000E+00 0. -1.
        -15    1    1    2    0    0 -0.33688890987E+01 -0.50808967797E+01 -0.16403522480E+01  0.65584609736E+01  0.17770000000E+01 0. -1.
         15    1    1    2    0    0 -0.19936229098E+01  0.40893237147E+01  0.29162417955E+02  0.29568588921E+02  0.17770000000E+01 0.  1.
</event>
<event>
 6    1  0.1045352E-002  0.1840380E+03  0.7546771E-02  0.1067237E+00
        -11   -1    0    0    0    0  0.00000000000E+00  0.00000000000E+00  0.18250000000E+03  0.18250000000E+03  0.00000000000E+00 0.  1.
         11   -1    0    0    0    0 -0.00000000000E+00 -0.00000000000E+00 -0.18250000000E+03  0.18250000000E+03  0.00000000000E+00 0.  1.
        -11    1    1    2    0    0 -0.63553279236E+01 -0.47749586032E+01  0.99583378200E+02  0.99900148331E+02  0.00000000000E+00 0.  1.
         11    1    1    2    0    0 -0.24075007643E+01 -0.59643049016E+00 -0.18094502969E+03  0.18096202795E+03  0.00000000000E+00 0.  1.
        -15    1    1    2    0    0  0.88854932691E+01  0.10794356637E+02  0.40559319254E+02  0.42938167558E+02  0.17770000000E+01 0.  1.
         15    1    1    2    0    0 -0.12266458124E+00 -0.54229675436E+01  0.40802332233E+02  0.41199656166E+02  0.17770000000E+01 0. -1.
</event>
<event>
 6    1  0.1045352E-002  0.1828262E+03  0.7546771E-02  0.1068195E+00
        -11   -1    0    0    0    0  0.00000000000E+00  0.00000000000E+00  0.18250000000E+03  0.18250000000E+03  0.00000000000E+00 0. -1.
         11   -1    0    0    0    0 -0.00000000000E+00 -0.00000000000E+00 -0.18250000000E+03  0.18250000000E+03  0.00000000000E+00 0. -1.
        -11    1    1    2    0    0  0.30100027252E+01 -0.40477197029E+01  0.18210391884E+03  0.18217376707E+03  0.00000000000E+00 0. -1.
         11    1    1    2    0    0 -0.17201662605E+01  0.19261478298E-01 -0.10363133276E+02  0.10504945229E+02  0.00000000000E+00 0. -1.
        -15    1    1    2    0    0 -0.91143742886E+00  0.28276381112E+01 -0.10307152751E+02  0.10872965663E+02  0.17770000000E+01 0.  1.
         15    1    1    2    0    0 -0.37839903578E+00  0.12008201134E+01 -0.16143363282E+03  0.16144832204E+03  0.17770000000E+01 0. -1.
</event>
<event>
 6    1  0.1045352E-002  0.1881023E+03  0.7546771E-02  0.1064081E+00
        -11   -1    0    0    0    0  0.00000000000E+00  0.00000000000E+00  0.18250000000E+03  0.18250000000E+03  0.00000000000E+00 0. -1.
         11   -1    0    0    0    0 -0.00000000000E+00 -0.00000000000E+00 -0.18250000000E+03  0.18250000000E+03  0.00000000000E+00 0.  1.
        -11    1    1    2    0    0  0.37749275477E+01  0.56239069335E+00  0.17685657258E+03  0.17689774907E+03  0.00000000000E+00 0. -1.
         11    1    1    2    0    0  0.35000229164E+01  0.84457867478E+00 -0.16982770593E+03  0.16986586819E+03  0.00000000000E+00 0.  1.
        -15    1    1    2    0    0  0.82060706585E+00  0.55250783983E+01 -0.36938539839E+01  0.69283600887E+01  0.17770000000E+01 0. -1.
         15    1    1    2    0    0 -0.80955575299E+01 -0.69320477665E+01 -0.33350126603E+01  0.11308022657E+02  0.17770000000E+01 0.  1.
</event>
<event>
 6    1  0.1045352E-002  0.1860854E+03  0.7546771E-02  0.1065636E+00
        -11   -1    0    0    0    0  0.00000000000E+00  0.00000000000E+00  0.18250000000E+03  0.18250000000E+03  0.00000000000E+00 0.  1.
         11   -1    0    0    0    0 -0.00000000000E+00 -0.00000000000E+00 -0.18250000000E+03  0.18250000000E+03  0.00000000000E+00 0.  1.
        -11    1    1    2    0    0  0.24466212671E+01 -0.64377377720E+01  0.15653999541E+03  0.15669141835E+03  0.00000000000E+00 0.  1.
         11    1    1    2    0    0 -0.39084702740E+01  0.53342033887E+01 -0.17879233824E+03  0.17891458878E+03  0.00000000000E+00 0.  1.
        -15    1    1    2    0    0  0.53983385256E+00 -0.60388210688E+01  0.41537183810E+00  0.63315908943E+01  0.17770000000E+01 0.  1.
         15    1    1    2    0    0  0.92201515430E+00  0.71423554521E+01  0.21836970998E+02  0.23062401971E+02  0.17770000000E+01 0. -1.
</event>
<event>
 6    1  0.1045352E-002  0.1941517E+03  0.7546771E-02  0.1059541E+00
        -11   -1    0    0    0    0  0.00000000000E+00  0.00000000000E+00  0.18250000000E+03  0.18250000000E+03  0.00000000000E+00 0. -1.
         11   -1    0    0    0    0 -0.00000000000E+00 -0.00000000000E+00 -0.18250000000E+03  0.18250000000E+03  0.00000000000E+00 0.  1.
        -11    1    1    2    0    0  0.16644335172E+01 -0.17625476871E+01  0.17083108058E+03  0.17084828067E+03  0.00000000000E+00 0. -1.
         11    1    1    2    0    0 -0.13191538415E+01 -0.23600931532E+01 -0.16524124647E+03  0.16526336479E+03  0.00000000000E+00 0.  1.
        -15    1    1    2    0    0  0.58151347572E+01  0.60862072918E+00 -0.15449160771E+02  0.16613864962E+02  0.17770000000E+01 0. -1.
         15    1    1    2    0    0 -0.61604144328E+01  0.35140201111E+01  0.98593266575E+01  0.12274489581E+02  0.17770000000E+01 0.  1.
</event>
<event>
 6    1  0.1045352E-002  0.1833342E+03  0.7546771E-02  0.1067793E+00
        -11   -1    0    0    0    0  0.00000000000E+00  0.00000000000E+00  0.18250000000E+03  0.18250000000E+03  0.00000000000E+00 0.  1.
         11   -1    0    0    0    0 -0.00000000000E+00 -0.00000000000E+00 -0.18250000000E+03  0.18250000000E+03  0.00000000000E+00 0.  1.
        -11    1    1    2    0    0 -0.95059738524E+00  0.19453789957E+01  0.96156280841E+02  0.96180655436E+02  0.00000000000E+00 0.  1.
         11    1    1    2    0    0  0.18819638055E+01  0.21647997850E+01 -0.18164315833E+03  0.18166580612E+03  0.00000000000E+00 0.  1.
        -15    1    1    2    0    0  0.23765526682E+01  0.21270556243E+01  0.69399638426E+02  0.69495610731E+02  0.17770000000E+01 0.  1.
         15    1    1    2    0    0 -0.33079190885E+01 -0.62372344051E+01  0.16087239058E+02  0.17657927716E+02  0.17770000000E+01 0. -1.
</event>
<event>
 6    1  0.1045352E-002  0.1831671E+03  0.7546771E-02  0.1067925E+00
        -11   -1    0    0    0    0  0.00000000000E+00  0.00000000000E+00  0.18250000000E+03  0.18250000000E+03  0.00000000000E+00 0. -1.
         11   -1    0    0    0    0 -0.00000000000E+00 -0.00000000000E+00 -0.18250000000E+03  0.18250000000E+03  0.00000000000E+00 0. -1.
        -11    1    1    2    0    0  0.25385486071E+01  0.45927292702E+01  0.18175712574E+03  0.18183286322E+03  0.00000000000E+00 0. -1.
         11    1    1    2    0    0  0.19311549934E+01 -0.19082115191E+01 -0.10651532458E+03  0.10654991788E+03  0.00000000000E+00 0. -1.
        -15    1    1    2    0    0  0.90526918203E+00  0.38931430893E+01 -0.43202768969E+02  0.43423646219E+02  0.17770000000E+01 0. -1.
         15    1    1    2    0    0 -0.53749727826E+01 -0.65776608404E+01 -0.32039032192E+02  0.33193572681E+02  0.17770000000E+01 0.  1.
</event>
<event>
 6    1  0.1045352E-002  0.1828863E+03  0.7546771E-02  0.1068148E+00
        -11   -1    0    0    0    0  0.00000000000E+00  0.00000000000E+00  0.18250000000E+03  0.18250000000E+03  0.00000000000E+00 0. -1.
         11   -1    0    0    0    0 -0.00000000000E+00 -0.00000000000E+00 -0.18250000000E+03  0.18250000000E+03  0.00000000000E+00 0. -1.
        -11    1    1    2    0    0 -0.33408026942E+00  0.17861461453E+01  0.10280249332E+03  0.10281855163E+03  0.00000000000E+00 0. -1.
         11    1    1    2    0    0 -0.31769235000E+01  0.68297245493E+01 -0.18195783862E+03  0.18211368157E+03  0.00000000000E+00 0. -1.
        -15    1    1    2    0    0  0.44975547313E+01 -0.68928849690E+01  0.70772992094E+02  0.71272112363E+02  0.17770000000E+01 0. -1.
         15    1    1    2    0    0 -0.98655096186E+00 -0.17229857256E+01  0.83823532069E+01  0.87956544325E+01  0.17770000000E+01 0. -1.
</event>
<event>
 6    1  0.1045352E-002  0.1849632E+03  0.7546771E-02  0.1066511E+00
        -11   -1    0    0    0    0  0.00000000000E+00  0.00000000000E+00  0.18250000000E+03  0.18250000000E+03  0.00000000000E+00 0.  1.
         11   -1    0    0    0    0 -0.00000000000E+00 -0.00000000000E+00 -0.18250000000E+03  0.18250000000E+03  0.00000000000E+00 0.  1.
        -11    1    1    2    0    0  0.16669151421E+01  0.65513155387E+01  0.17990980640E+03  0.18003676508E+03  0.00000000000E+00 0.  1.
         11    1    1    2    0    0  0.28005005108E+01  0.40206173212E+00 -0.87958485796E+02  0.88003975366E+02  0.00000000000E+00 0.  1.
        -15    1    1    2    0    0  0.98160983324E+01 -0.56011543872E+00 -0.64839741155E+02  0.65605024791E+02  0.17770000000E+01 0. -1.
         15    1    1    2    0    0 -0.14283513985E+02 -0.63932618321E+01 -0.27111579446E+02  0.31354234765E+02  0.17770000000E+01 0.  1.
</event>
<event>
 6    1  0.1045352E-002  0.1892240E+03  0.7546771E-02  0.1063225E+00
        -11   -1    0    0    0    0  0.00000000000E+00  0.00000000000E+00  0.18250000000E+03  0.18250000000E+03  0.00000000000E+00 0.  1.
         11   -1    0    0    0    0 -0.00000000000E+00 -0.00000000000E+00 -0.18250000000E+03  0.18250000000E+03  0.00000000000E+00 0.  1.
        -11    1    1    2    0    0  0.45324514109E+00 -0.62375669071E+01  0.17566467048E+03  0.17577596288E+03  0.00000000000E+00 0.  1.
         11    1    1    2    0    0  0.62037180531E-01 -0.25976649063E+01 -0.16387776902E+03  0.16389836757E+03  0.00000000000E+00 0.  1.
        -15    1    1    2    0    0 -0.42683945298E+01  0.41807613987E+01  0.46292701576E+01  0.77643949492E+01  0.17770000000E+01 0.  1.
         15    1    1    2    0    0  0.37531122082E+01  0.46544704146E+01 -0.16416171618E+02  0.17561274603E+02  0.17770000000E+01 0.  1.
</event>
<event>
 6    1  0.1045352E-002  0.1904093E+03  0.7546771E-02  0.1062328E+00
        -11   -1    0    0    0    0  0.00000000000E+00  0.00000000000E+00  0.18250000000E+03  0.18250000000E+03  0.00000000000E+00 0. -1.
         11   -1    0    0    0    0 -0.00000000000E+00 -0.00000000000E+00 -0.18250000000E+03  0.18250000000E+03  0.00000000000E+00 0. -1.
        -11    1    1    2    0    0 -0.66193737151E+01  0.20046089746E+01  0.17102226234E+03  0.17116205415E+03  0.00000000000E+00 0. -1.
         11    1    1    2    0    0  0.14511022233E+01 -0.24099606549E+01 -0.17456801184E+03  0.17459067663E+03  0.00000000000E+00 0. -1.
        -15    1    1    2    0    0  0.58190916762E+01 -0.12641172470E+01  0.10304200251E+02  0.12033041683E+02  0.17770000000E+01 0.  1.
         15    1    1    2    0    0 -0.65082018431E+00  0.16694689273E+01 -0.67584507513E+01  0.72142275380E+01  0.17770000000E+01 0. -1.
</event>
<event>
 6    1  0.1045352E-002  0.1847135E+03  0.7546771E-02  0.1066706E+00
        -11   -1    0    0    0    0  0.00000000000E+00  0.00000000000E+00  0.18250000000E+03  0.18250000000E+03  0.00000000000E+00 0.  1.
         11   -1    0    0    0    0 -0.00000000000E+00 -0.00000000000E+00 -0.18250000000E+03  0.18250000000E+03  0.00000000000E+00 0.  1.
        -11    1    1    2    0    0  0.13020402428E+01  0.21169739943E+01  0.18026932437E+03  0.18028645594E+03  0.00000000000E+00 0.  1.
         11    1    1    2    0    0  0.19653806049E+01  0.39380970853E+01 -0.16805408266E+03  0.16811170700E+03  0.00000000000E+00 0.  1.
        -15    1    1    2    0    0  0.19814904967E+01 -0.38251039838E+01 -0.27547078938E+01  0.54133048737E+01  0.17770000000E+01 0.  1.
         15    1    1    2    0    0 -0.52489113444E+01 -0.22299670957E+01 -0.94605338100E+01  0.11188532188E+02  0.17770000000E+01 0. -1.
</event>
<event>
 6    1  0.1045352E-002  0.1825558E+03  0.7546771E-02  0.1068410E+00
        -11   -1    0    0    0    0  0.00000000000E+00  0.00000000000E+00  0.18250000000E+03  0.18250000000E+03  0.00000000000E+00 0.  1.
         11   -1    0    0    0    0 -0.00000000000E+00 -0.00000000000E+00 -0.18250000000E+03  0.18250000000E+03  0.00000000000E+00 0.  1.
        -11    1    1    2    0    0 -0.66705005180E+00  0.40197324081E+01  0.18239866312E+03  0.18244417095E+03  0.00000000000E+00 0.  1.
         11    1    1    2    0    0 -0.47849337097E+00 -0.65728394939E+00 -0.36728116482E+02  0.36737113637E+02  0.00000000000E+00 0.  1.
        -15    1    1    2    0    0 -0.16559639346E+00 -0.35278213591E+01 -0.66659173270E+02  0.66776313583E+02  0.17770000000E+01 0. -1.
         15    1    1    2    0    0  0.13111398162E+01  0.16537290030E+00 -0.79011373372E+02  0.79042401830E+02  0.17770000000E+01 0.  1.
</event>
<event>
 6    1  0.1045352E-002  0.1833825E+03  0.7546771E-02  0.1067755E+00
        -11   -1    0    0    0    0  0.00000000000E+00  0.00000000000E+00  0.18250000000E+03  0.18250000000E+03  0.00000000000E+00 0.  1.
         11   -1    0    0    0    0 -0.00000000000E+00 -0.00000000000E+00 -0.18250000000E+03  0.18250000000E+03  0.00000000000E+00 0. -1.
        -11    1    1    2    0    0 -0.23129568768E+01  0.17378897803E+01  0.18159449631E+03  0.18161754079E+03  0.00000000000E+00 0.  1.
         11    1    1    2    0    0 -0.68956693806E-02  0.34595685684E+01 -0.15328316222E+03  0.15332219827E+03  0.00000000000E+00 0. -1.
        -15    1    1    2    0    0  0.34794340331E+01 -0.91815940319E+00 -0.20616321864E+02  0.21003331500E+02  0.17770000000E+01 0. -1.
         15    1    1    2    0    0 -0.11595814870E+01 -0.42792989455E+01 -0.76950122273E+01  0.90569294393E+01  0.17770000000E+01 0.  1.
</event>
<event>
 6    1  0.1045352E-002  0.1828694E+03  0.7546771E-02  0.1068161E+00
        -11   -1    0    0    0    0  0.00000000000E+00  0.00000000000E+00  0.18250000000E+03  0.18250000000E+03  0.00000000000E+00 0. -1.
         11   -1    0    0    0    0 -0.00000000000E+00 -0.00000000000E+00 -0.18250000000E+03  0.18250000000E+03  0.00000000000E+00 0. -1.
        -11    1    1    2    0    0  0.47199551643E+01  0.16735881282E+01  0.49472742008E+02  0.49725557571E+02  0.00000000000E+00 0. -1.
         11    1    1    2    0    0 -0.11711425639E+01  0.25891549175E+01 -0.18210845491E+03  0.18213062523E+03  0.00000000000E+00 0. -1.
        -15    1    1    2    0    0  0.99693139310E+00  0.10374014735E+01  0.85918202164E+01  0.88908479714E+01  0.17770000000E+01 0.  1.
         15    1    1    2    0    0 -0.45457439936E+01 -0.53001445191E+01  0.12404389268E+03  0.12425296923E+03  0.17770000000E+01 0. -1.
</event>
<event>
 6    1  0.1045352E-002  0.1828116E+03  0.7546771E-02  0.1068207E+00
        -11   -1    0    0    0    0  0.00000000000E+00  0.00000000000E+00  0.18250000000E+03  0.18250000000E+03  0.00000000000E+00 0.  1.
         11   -1    0    0    0    0 -0.00000000000E+00 -0.00000000000E+00 -0.18250000000E+03  0.18250000000E+03  0.00000000000E+00 0.  1.
        -11    1    1    2    0    0  0.38868073412E+01 -0.90929249367E+00  0.64757252987E+02  0.64880165679E+02  0.00000000000E+00 0.  1.
         11    1    1    2    0    0  0.15688891318E+01 -0.21643847991E+01 -0.18216875718E+03  0.18218836974E+03  0.00000000000E+00 0.  1.
        -15    1    1    2    0    0 -0.40121964409E+01  0.25006281578E+01  0.11073493023E+03  0.11085004900E+03  0.17770000000E+01 0.  1.
         15    1    1    2    0    0 -0.14435000320E+01  0.57304913502E+00  0.66765739653E+01  0.70814155766E+01  0.17770000000E+01 0. -1.
</event>
<event>
 6    1  0.1045352E-002  0.1860809E+03  0.7546771E-02  0.1065640E+00
        -11   -1    0    0    0    0  0.00000000000E+00  0.00000000000E+00  0.18250000000E+03  0.18250000000E+03  0.00000000000E+00 0.  1.
         11   -1    0    0    0    0 -0.00000000000E+00 -0.00000000000E+00 -0.18250000000E+03  0.18250000000E+03  0.00000000000E+00 0. -1.
        -11    1    1    2    0    0 -0.44996512359E+01  0.27971065668E+01  0.17884068217E+03  0.17891914449E+03  0.00000000000E+00 0.  1.
         11    1    1    2    0    0 -0.25020044962E+01 -0.36162166223E+00 -0.17136727343E+03  0.17138591890E+03  0.00000000000E+00 0. -1.
        -15    1    1    2    0    0  0.21051569977E+01 -0.40480154183E+01  0.62040298616E+00  0.49356604094E+01  0.17770000000E+01 0.  1.
         15    1    1    2    0    0  0.48964987345E+01  0.16125305138E+01 -0.80938117321E+01  0.97592761960E+01  0.17770000000E+01 0. -1.
</event>
<event>
 6    1  0.1045352E-002  0.1843730E+03  0.7546771E-02  0.1066974E+00
        -11   -1    0    0    0    0  0.00000000000E+00  0.00000000000E+00  0.18250000000E+03  0.18250000000E+03  0.00000000000E+00 0. -1.
         11   -1    0    0    0    0 -0.00000000000E+00 -0.00000000000E+00 -0.18250000000E+03  0.18250000000E+03  0.00000000000E+00 0. -1.
        -11    1    1    2    0    0  0.35731148383E-01 -0.59042626425E+01  0.15265266982E+03  0.15276681314E+03  0.00000000000E+00 0. -1.
         11    1    1    2    0    0  0.56125681559E+01 -0.19750101685E+01 -0.18052893557E+03  0.18062695858E+03  0.00000000000E+00 0. -1.
        -15    1    1    2    0    0 -0.32898430410E+01  0.29742001064E+01  0.24495773713E+02  0.24957355475E+02  0.17770000000E+01 0.  1.
         15    1    1    2    0    0 -0.23584562634E+01  0.49050727046E+01  0.33804920395E+01  0.66488728077E+01  0.17770000000E+01 0. -1.
</event>
<event>
 6    1  0.1045352E-002  0.1990563E+03  0.7546771E-02  0.1055990E+00
        -11   -1    0    0    0    0  0.00000000000E+00  0.00000000000E+00  0.18250000000E+03  0.18250000000E+03  0.00000000000E+00 0.  1.
         11   -1    0    0    0    0 -0.00000000000E+00 -0.00000000000E+00 -0.18250000000E+03  0.18250000000E+03  0.00000000000E+00 0.  1.
        -11    1    1    2    0    0 -0.87951907129E+00  0.53326260040E+01  0.16585570454E+03  0.16594374101E+03  0.00000000000E+00 0.  1.
         11    1    1    2    0    0  0.10440019385E+02  0.10827292623E+02 -0.10191011411E+03  0.10301405549E+03  0.00000000000E+00 0.  1.
        -15    1    1    2    0    0  0.41591598318E+01 -0.10193825026E+02 -0.75958797793E+02  0.76773103169E+02  0.17770000000E+01 0.  1.
         15    1    1    2    0    0 -0.13719660145E+02 -0.59660936010E+01  0.12013207364E+02  0.19269100330E+02  0.17770000000E+01 0. -1.
</event>
<event>
 6    1  0.1045352E-002  0.1833171E+03  0.7546771E-02  0.1067806E+00
        -11   -1    0    0    0    0  0.00000000000E+00  0.00000000000E+00  0.18250000000E+03  0.18250000000E+03  0.00000000000E+00 0. -1.
         11   -1    0    0    0    0 -0.00000000000E+00 -0.00000000000E+00 -0.18250000000E+03  0.18250000000E+03  0.00000000000E+00 0.  1.
        -11    1    1    2    0    0 -0.61376790286E+00  0.23991170000E+01  0.17026742020E+03  0.17028542760E+03  0.00000000000E+00 0. -1.
         11    1    1    2    0    0 -0.28729352191E+01 -0.24476712052E+01 -0.18164365276E+03  0.18168285951E+03  0.00000000000E+00 0.  1.
        -15    1    1    2    0    0  0.23884088190E-01 -0.13002508435E+01  0.46365257400E+01  0.51328669029E+01  0.17770000000E+01 0. -1.
         15    1    1    2    0    0  0.34628190337E+01  0.13488050487E+01  0.67397068268E+01  0.78988459810E+01  0.17770000000E+01 0. -1.
</event>
<event>
 6    1  0.1045352E-002  0.2049011E+03  0.7546771E-02  0.1051902E+00
        -11   -1    0    0    0    0  0.00000000000E+00  0.00000000000E+00  0.18250000000E+03  0.18250000000E+03  0.00000000000E+00 0. -1.
         11   -1    0    0    0    0 -0.00000000000E+00 -0.00000000000E+00 -0.18250000000E+03  0.18250000000E+03  0.00000000000E+00 0. -1.
        -11    1    1    2    0    0  0.99013387241E+01 -0.10153313958E+02  0.14500908277E+03  0.14570092786E+03  0.00000000000E+00 0. -1.
         11    1    1    2    0    0 -0.27185763440E+01  0.51045475131E+01 -0.15999442814E+03  0.16009891973E+03  0.00000000000E+00 0. -1.
        -15    1    1    2    0    0  0.83864514985E+01  0.21978740275E+01  0.33574172075E+02  0.34720973179E+02  0.17770000000E+01 0. -1.
         15    1    1    2    0    0 -0.15569213879E+02  0.28508924174E+01 -0.18588826706E+02  0.24479179228E+02  0.17770000000E+01 0.  1.
</event>
<event>
 6    1  0.1045352E-002  0.1825976E+03  0.7546771E-02  0.1068377E+00
        -11   -1    0    0    0    0  0.00000000000E+00  0.00000000000E+00  0.18250000000E+03  0.18250000000E+03  0.00000000000E+00 0.  1.
         11   -1    0    0    0    0 -0.00000000000E+00 -0.00000000000E+00 -0.18250000000E+03  0.18250000000E+03  0.00000000000E+00 0. -1.
        -11    1    1    2    0    0  0.11532604686E+01  0.13950125073E+01  0.10660306301E+03  0.10661842764E+03  0.00000000000E+00 0.  1.
         11    1    1    2    0    0 -0.36083731366E+01  0.46418772536E+00 -0.18236608048E+03  0.18240236604E+03  0.00000000000E+00 0. -1.
        -15    1    1    2    0    0 -0.34130470929E+00 -0.15691986490E+01  0.29944616608E+02  0.30040250766E+02  0.17770000000E+01 0.  1.
         15    1    1    2    0    0  0.27964173773E+01 -0.29000158368E+00  0.45818400857E+02  0.45938955552E+02  0.17770000000E+01 0. -1.
</event>
<event>
 6    1  0.1045352E-002  0.1831462E+03  0.7546771E-02  0.1067942E+00
        -11   -1    0    0    0    0  0.00000000000E+00  0.00000000000E+00  0.18250000000E+03  0.18250000000E+03  0.00000000000E+00 0. -1.
         11   -1    0    0    0    0 -0.00000000000E+00 -0.00000000000E+00 -0.18250000000E+03  0.18250000000E+03  0.00000000000E+00 0. -1.
        -11    1    1    2    0    0 -0.76374326013E+01 -0.32995590560E+00  0.14623811723E+03  0.14643778945E+03  0.00000000000E+00 0. -1.
         11    1    1    2    0    0  0.45040648003E+01 -0.24193712266E+01 -0.18178187333E+03  0.18185375835E+03  0.00000000000E+00 0. -1.
        -15    1    1    2    0    0  0.52784475843E+01  0.50877610291E+00  0.22321341536E+02  0.23011320670E+02  0.17770000000E+01 0.  1.
         15    1    1    2    0    0 -0.21450797834E+01  0.22405510293E+01  0.13222414562E+02  0.13697131526E+02  0.17770000000E+01 0. -1.
</event>
<event>
 6    1  0.1045352E-002  0.1911595E+03  0.7546771E-02  0.1061763E+00
        -11   -1    0    0    0    0  0.00000000000E+00  0.00000000000E+00  0.18250000000E+03  0.18250000000E+03  0.00000000000E+00 0.  1.
         11   -1    0    0    0    0 -0.00000000000E+00 -0.00000000000E+00 -0.18250000000E+03  0.18250000000E+03  0.00000000000E+00 0. -1.
        -11    1    1    2    0    0 -0.29701829792E+00 -0.95313426268E+01  0.17357875224E+03  0.17384049569E+03  0.00000000000E+00 0.  1.
         11    1    1    2    0    0 -0.20346909887E+01  0.95001431164E+01 -0.16771183493E+03  0.16799301254E+03  0.00000000000E+00 0. -1.
        -15    1    1    2    0    0 -0.53073511697E+01  0.87984802531E+01 -0.11439803557E+01  0.10490359920E+02  0.17770000000E+01 0.  1.
         15    1    1    2    0    0  0.76390604563E+01 -0.87672807427E+01 -0.47229369465E+01  0.12676131850E+02  0.17770000000E+01 0. -1.
</event>
<event>
 6    1  0.1045352E-002  0.1952122E+03  0.7546771E-02  0.1058763E+00
        -11   -1    0    0    0    0  0.00000000000E+00  0.00000000000E+00  0.18250000000E+03  0.18250000000E+03  0.00000000000E+00 0.  1.
         11   -1    0    0    0    0 -0.00000000000E+00 -0.00000000000E+00 -0.18250000000E+03  0.18250000000E+03  0.00000000000E+00 0. -1.
        -11    1    1    2    0    0  0.27024565416E+01  0.64740876543E+01  0.15488189677E+03  0.15504070120E+03  0.00000000000E+00 0.  1.
         11    1    1    2    0    0  0.25909834613E+01 -0.75298536520E+01 -0.16960096949E+03  0.16978781094E+03  0.00000000000E+00 0. -1.
        -15    1    1    2    0    0 -0.23231515193E+01  0.61605672588E+01 -0.11427297160E+02  0.13307534382E+02  0.17770000000E+01 0.  1.
         15    1    1    2    0    0 -0.29702884836E+01 -0.51048012612E+01  0.26146369883E+02  0.26863953481E+02  0.17770000000E+01 0.  1.
</event>
<event>
 6    1  0.1045352E-002  0.1825872E+03  0.7546771E-02  0.1068385E+00
        -11   -1    0    0    0    0  0.00000000000E+00  0.00000000000E+00  0.18250000000E+03  0.18250000000E+03  0.00000000000E+00 0.  1.
         11   -1    0    0    0    0 -0.00000000000E+00 -0.00000000000E+00 -0.18250000000E+03  0.18250000000E+03  0.00000000000E+00 0.  1.
        -11    1    1    2    0    0  0.97893834592E+00 -0.67897167202E+00  0.13235403872E+02  0.13288914119E+02  0.00000000000E+00 0.  1.
         11    1    1    2    0    0  0.43823429764E+00 -0.65589737869E+01 -0.18229427480E+03  0.18241275945E+03  0.00000000000E+00 0.  1.
        -15    1    1    2    0    0 -0.44312013288E+00  0.17252574080E+01  0.83605234817E+02  0.83643086304E+02  0.17770000000E+01 0. -1.
         15    1    1    2    0    0 -0.97405251068E+00  0.55126880509E+01  0.85453636109E+02  0.85655240126E+02  0.17770000000E+01 0.  1.
</event>
<event>
 6    1  0.1045352E-002  0.1828219E+03  0.7546771E-02  0.1068199E+00
        -11   -1    0    0    0    0  0.00000000000E+00  0.00000000000E+00  0.18250000000E+03  0.18250000000E+03  0.00000000000E+00 0. -1.
         11   -1    0    0    0    0 -0.00000000000E+00 -0.00000000000E+00 -0.18250000000E+03  0.18250000000E+03  0.00000000000E+00 0.  1.
        -11    1    1    2    0    0  0.16183072193E+01 -0.37614431961E+01  0.18213211845E+03  0.18217814343E+03  0.00000000000E+00 0. -1.
         11    1    1    2    0    0 -0.19647278779E+01 -0.12862443022E+01 -0.10799688802E+03  0.10802241620E+03  0.00000000000E+00 0.  1.
        -15    1    1    2    0    0 -0.71156761470E+00  0.41803099194E+01 -0.16725766991E+02  0.17346190646E+02  0.17770000000E+01 0.  1.
         15    1    1    2    0    0  0.10579882733E+01  0.86737757885E+00 -0.57409463436E+02  0.57453249726E+02  0.17770000000E+01 0.  1.
</event>
<event>
 6    1  0.1045352E-002  0.1743590E+03  0.7546771E-02  0.1075126E+00
        -11   -1    0    0    0    0  0.00000000000E+00  0.00000000000E+00  0.18250000000E+03  0.18250000000E+03  0.00000000000E+00 0. -1.
         11   -1    0    0    0    0 -0.00000000000E+00 -0.00000000000E+00 -0.18250000000E+03  0.18250000000E+03  0.00000000000E+00 0.  1.
        -11    1    1    2    0    0  0.67411400947E+01  0.39707446213E+01  0.17305626460E+03  0.17323302369E+03  0.00000000000E+00 0. -1.
         11    1    1    2    0    0 -0.79788950893E+01  0.23601212081E+01 -0.17535491146E+03  0.17555220851E+03  0.00000000000E+00 0.  1.
        -15    1    1    2    0    0 -0.51051169868E+01 -0.20910218037E+01  0.52728494921E+01  0.78355128995E+01  0.17770000000E+01 0.  1.
         15    1    1    2    0    0  0.63428719814E+01 -0.42398440257E+01 -0.29742026242E+01  0.83792548943E+01  0.17770000000E+01 0. -1.
</event>
<event>
 6    1  0.1045352E-002  0.1909003E+03  0.7546771E-02  0.1061958E+00
        -11   -1    0    0    0    0  0.00000000000E+00  0.00000000000E+00  0.18250000000E+03  0.18250000000E+03  0.00000000000E+00 0.  1.
         11   -1    0    0    0    0 -0.00000000000E+00 -0.00000000000E+00 -0.18250000000E+03  0.18250000000E+03  0.00000000000E+00 0. -1.
        -11    1    1    2    0    0 -0.46539318904E+01  0.15733570315E+01  0.17403042161E+03  0.17409974779E+03  0.00000000000E+00 0.  1.
         11    1    1    2    0    0  0.23505144422E+01 -0.11602323642E+01 -0.16648714506E+03  0.16650777918E+03  0.00000000000E+00 0. -1.
        -15    1    1    2    0    0 -0.34237275027E+00 -0.74310374718E+01  0.53760199224E+01  0.93486285740E+01  0.17770000000E+01 0.  1.
         15    1    1    2    0    0  0.26457901984E+01  0.70179128046E+01 -0.12919296466E+02  0.15043844458E+02  0.17770000000E+01 0. -1.
</event>
<event>
 6    1  0.1045352E-002  0.1842834E+03  0.7546771E-02  0.1067044E+00
        -11   -1    0    0    0    0  0.00000000000E+00  0.00000000000E+00  0.18250000000E+03  0.18250000000E+03  0.00000000000E+00 0.  1.
         11   -1    0    0    0    0 -0.00000000000E+00 -0.00000000000E+00 -0.18250000000E+03  0.18250000000E+03  0.00000000000E+00 0. -1.
        -11    1    1    2    0    0  0.59739433224E+01  0.68310877766E+01  0.84046232262E+02  0.84534732013E+02  0.00000000000E+00 0.  1.
         11    1    1    2    0    0 -0.19176641957E+01  0.17088841436E+01 -0.18069831638E+03  0.18071657164E+03  0.00000000000E+00 0. -1.
        -15    1    1    2    0    0 -0.10790870516E+02  0.20115996889E+01  0.58763645566E+02  0.59806464441E+02  0.17770000000E+01 0.  1.
         15    1    1    2    0    0  0.67345913897E+01 -0.10551571609E+02  0.37888438556E+02  0.39942231908E+02  0.17770000000E+01 0. -1.
</event>
<event>
 6    1  0.1045352E-002  0.1831655E+03  0.7546771E-02  0.1067926E+00
        -11   -1    0    0    0    0  0.00000000000E+00  0.00000000000E+00  0.18250000000E+03  0.18250000000E+03  0.00000000000E+00 0. -1.
         11   -1    0    0    0    0 -0.00000000000E+00 -0.00000000000E+00 -0.18250000000E+03  0.18250000000E+03  0.00000000000E+00 0. -1.
        -11    1    1    2    0    0 -0.34714544241E+01 -0.65176725773E-01  0.18180131096E+03  0.18183446293E+03  0.00000000000E+00 0. -1.
         11    1    1    2    0    0  0.23448974331E+01  0.19903121045E+01 -0.16142342616E+03  0.16145272496E+03  0.00000000000E+00 0. -1.
        -15    1    1    2    0    0 -0.19066606629E+01 -0.40990474145E-01 -0.13607611237E+02  0.13855029689E+02  0.17770000000E+01 0.  1.
         15    1    1    2    0    0  0.30332176539E+01 -0.18841449045E+01 -0.67702735643E+01  0.78577824157E+01  0.17770000000E+01 0.  1.
</event>
<event>
 6    1  0.1045352E-002  0.1828888E+03  0.7546771E-02  0.1068146E+00
        -11   -1    0    0    0    0  0.00000000000E+00  0.00000000000E+00  0.18250000000E+03  0.18250000000E+03  0.00000000000E+00 0.  1.
         11   -1    0    0    0    0 -0.00000000000E+00 -0.00000000000E+00 -0.18250000000E+03  0.18250000000E+03  0.00000000000E+00 0. -1.
        -11    1    1    2    0    0 -0.19476320193E+01 -0.36491306712E+01  0.18206420889E+03  0.18211119017E+03  0.00000000000E+00 0.  1.
         11    1    1    2    0    0 -0.27980871642E+01 -0.21661739925E+01 -0.65861048804E+02  0.65956041051E+02  0.00000000000E+00 0. -1.
        -15    1    1    2    0    0  0.46016741391E+01  0.48139068049E+01 -0.11243061171E+03  0.11264168537E+03  0.17770000000E+01 0. -1.
         15    1    1    2    0    0  0.14404504442E+00  0.10013978588E+01 -0.37725483733E+01  0.42910834151E+01  0.17770000000E+01 0.  1.
</event>
<event>
 6    1  0.1045352E-002  0.1849230E+03  0.7546771E-02  0.1066542E+00
        -11   -1    0    0    0    0  0.00000000000E+00  0.00000000000E+00  0.18250000000E+03  0.18250000000E+03  0.00000000000E+00 0.  1.
         11   -1    0    0    0    0 -0.00000000000E+00 -0.00000000000E+00 -0.18250000000E+03  0.18250000000E+03  0.00000000000E+00 0.  1.
        -11    1    1    2    0    0  0.22331341735E+01  0.80482066021E+00  0.16070606434E+03  0.16072359422E+03  0.00000000000E+00 0.  1.
         11    1    1    2    0    0  0.44754177489E+01  0.15185340228E+01 -0.18001498991E+03  0.18007701659E+03  0.00000000000E+00 0.  1.
        -15    1    1    2    0    0 -0.95489895863E+01 -0.56367656188E+00  0.91400701776E+01  0.13349140243E+02  0.17770000000E+01 0.  1.
         15    1    1    2    0    0  0.28404376639E+01 -0.17596781211E+01  0.10168855392E+02  0.10850248947E+02  0.17770000000E+01 0. -1.
</event>
<event>
 6    1  0.1045352E-002  0.1832700E+03  0.7546771E-02  0.1067844E+00
        -11   -1    0    0    0    0  0.00000000000E+00  0.00000000000E+00  0.18250000000E+03  0.18250000000E+03  0.00000000000E+00 0. -1.
         11   -1    0    0    0    0 -0.00000000000E+00 -0.00000000000E+00 -0.18250000000E+03  0.18250000000E+03  0.00000000000E+00 0. -1.
        -11    1    1    2    0    0 -0.18303085913E+01  0.53649307868E+01  0.14224398310E+03  0.14235688687E+03  0.00000000000E+00 0. -1.
         11    1    1    2    0    0 -0.26605630830E+01  0.87970134956E-01 -0.18171051252E+03  0.18173001044E+03  0.00000000000E+00 0. -1.
        -15    1    1    2    0    0  0.13889186496E+00 -0.76822341135E+00  0.24057671123E+02  0.24135839058E+02  0.17770000000E+01 0. -1.
         15    1    1    2    0    0  0.43519798093E+01 -0.46846775104E+01  0.15408858303E+02  0.16777263627E+02  0.17770000000E+01 0.  1.
</event>
<event>
 6    1  0.1045352E-002  0.1869109E+03  0.7546771E-02  0.1064997E+00
        -11   -1    0    0    0    0  0.00000000000E+00  0.00000000000E+00  0.18250000000E+03  0.18250000000E+03  0.00000000000E+00 0. -1.
         11   -1    0    0    0    0 -0.00000000000E+00 -0.00000000000E+00 -0.18250000000E+03  0.18250000000E+03  0.00000000000E+00 0. -1.
        -11    1    1    2    0    0 -0.56843385753E+01 -0.24286958227E+00  0.17799823466E+03  0.17808914125E+03  0.00000000000E+00 0. -1.
         11    1    1    2    0    0 -0.17541533928E+01 -0.45014304398E+01 -0.15546322659E+03  0.15553827423E+03  0.00000000000E+00 0. -1.
        -15    1    1    2    0    0  0.13076162611E+02  0.43864296216E+01 -0.21114734044E+02  0.25282731582E+02  0.17770000000E+01 0. -1.
         15    1    1    2    0    0 -0.56376706431E+01  0.35787040054E+00 -0.14202740260E+01  0.60898529385E+01  0.17770000000E+01 0. -1.
</event>
<event>
 6    1  0.1045352E-002  0.1834463E+03  0.7546771E-02  0.1067704E+00
        -11   -1    0    0    0    0  0.00000000000E+00  0.00000000000E+00  0.18250000000E+03  0.18250000000E+03  0.00000000000E+00 0.  1.
         11   -1    0    0    0    0 -0.00000000000E+00 -0.00000000000E+00 -0.18250000000E+03  0.18250000000E+03  0.00000000000E+00 0.  1.
        -11    1    1    2    0    0  0.46938611357E+01  0.15387968141E+01  0.15745133454E+03  0.15752880047E+03  0.00000000000E+00 0.  1.
         11    1    1    2    0    0 -0.72867557365E+01  0.43744317244E+01 -0.18135462848E+03  0.18155366626E+03  0.00000000000E+00 0.  1.
        -15    1    1    2    0    0 -0.63419567108E-01 -0.48981604244E+01  0.20452442210E+02  0.21105831397E+02  0.17770000000E+01 0.  1.
         15    1    1    2    0    0  0.26563141680E+01 -0.10150681141E+01  0.34508517312E+01  0.48117018721E+01  0.17770000000E+01 0. -1.
</event>
<event>
 6    1  0.1045352E-002  0.1613089E+03  0.7546771E-02  0.1086698E+00
        -11   -1    0    0    0    0  0.00000000000E+00  0.00000000000E+00  0.18250000000E+03  0.18250000000E+03  0.00000000000E+00 0. -1.
         11   -1    0    0    0    0 -0.00000000000E+00 -0.00000000000E+00 -0.18250000000E+03  0.18250000000E+03  0.00000000000E+00 0. -1.
        -11    1    1    2    0    0 -0.23631840113E+02 -0.78656431537E+01  0.15360615909E+03  0.15561228846E+03  0.00000000000E+00 0. -1.
         11    1    1    2    0    0  0.43897302481E+01 -0.16565795764E+01 -0.16797254016E+03  0.16803805591E+03  0.00000000000E+00 0. -1.
        -15    1    1    2    0    0 -0.26839010468E+01 -0.16904812678E+01 -0.75214220122E+01  0.83540750435E+01  0.17770000000E+01 0. -1.
         15    1    1    2    0    0  0.21926010912E+02  0.11212703998E+02  0.21887803080E+02  0.32995580585E+02  0.17770000000E+01 0.  1.
</event>
<event>
 6    1  0.1045352E-002  0.1837443E+03  0.7546771E-02  0.1067469E+00
        -11   -1    0    0    0    0  0.00000000000E+00  0.00000000000E+00  0.18250000000E+03  0.18250000000E+03  0.00000000000E+00 0.  1.
         11   -1    0    0    0    0 -0.00000000000E+00 -0.00000000000E+00 -0.18250000000E+03  0.18250000000E+03  0.00000000000E+00 0. -1.
        -11    1    1    2    0    0 -0.13539705224E+01  0.65819424782E+01  0.18113106992E+03  0.18125567492E+03  0.00000000000E+00 0.  1.
         11    1    1    2    0    0  0.12916680551E+01  0.13275510490E+01 -0.13229361380E+03  0.13230657977E+03  0.00000000000E+00 0. -1.
        -15    1    1    2    0    0  0.33117927608E+01 -0.65934378115E+01 -0.10812550580E+02  0.13210237413E+02  0.17770000000E+01 0. -1.
         15    1    1    2    0    0 -0.32494902935E+01 -0.13160557158E+01 -0.38024905531E+02  0.38227507890E+02  0.17770000000E+01 0. -1.
</event>
<event>
 6    1  0.1045352E-002  0.1836050E+03  0.7546771E-02  0.1067579E+00
        -11   -1    0    0    0    0  0.00000000000E+00  0.00000000000E+00  0.18250000000E+03  0.18250000000E+03  0.00000000000E+00 0. -1.
         11   -1    0    0    0    0 -0.00000000000E+00 -0.00000000000E+00 -0.18250000000E+03  0.18250000000E+03  0.00000000000E+00 0. -1.
        -11    1    1    2    0    0  0.22087242591E+01 -0.19224696724E+01  0.18137132991E+03  0.18139496593E+03  0.00000000000E+00 0. -1.
         11    1    1    2    0    0  0.42544558688E+01 -0.88247507578E+00 -0.15421264554E+03  0.15427384484E+03  0.00000000000E+00 0. -1.
        -15    1    1    2    0    0 -0.12985260214E+01 -0.24985351792E+01 -0.10501361919E+02  0.11016586541E+02  0.17770000000E+01 0. -1.
         15    1    1    2    0    0 -0.51646541065E+01  0.53034799274E+01 -0.16657322454E+02  0.18314602691E+02  0.17770000000E+01 0. -1.
</event>
<event>
 6    1  0.1045352E-002  0.1841219E+03  0.7546771E-02  0.1067171E+00
        -11   -1    0    0    0    0  0.00000000000E+00  0.00000000000E+00  0.18250000000E+03  0.18250000000E+03  0.00000000000E+00 0.  1.
         11   -1    0    0    0    0 -0.00000000000E+00 -0.00000000000E+00 -0.18250000000E+03  0.18250000000E+03  0.00000000000E+00 0. -1.
        -11    1    1    2    0    0 -0.18994461609E+00 -0.33250398263E+01  0.17968723124E+03  0.17971809324E+03  0.00000000000E+00 0.  1.
         11    1    1    2    0    0  0.80033493780E+00  0.40683709187E+01 -0.18083055559E+03  0.18087808605E+03  0.00000000000E+00 0. -1.
        -15    1    1    2    0    0  0.58518775638E+00 -0.78830164683E+00  0.13086652045E+00  0.20343842417E+01  0.17770000000E+01 0. -1.
         15    1    1    2    0    0 -0.11955780781E+01  0.44970554438E-01  0.10124578308E+01  0.23694364627E+01  0.17770000000E+01 0.  1.
</event>
<event>
 6    1  0.1045352E-002  0.1831596E+03  0.7546771E-02  0.1067931E+00
        -11   -1    0    0    0    0  0.00000000000E+00  0.00000000000E+00  0.18250000000E+03  0.18250000000E+03  0.00000000000E+00 0. -1.
         11   -1    0    0    0    0 -0.00000000000E+00 -0.00000000000E+00 -0.18250000000E+03  0.18250000000E+03  0.00000000000E+00 0. -1.
        -11    1    1    2    0    0  0.55370138686E+00  0.50076860606E+01  0.18177063073E+03  0.18184044023E+03  0.00000000000E+00 0. -1.
         11    1    1    2    0    0 -0.79620851842E+00  0.26075087107E+01 -0.13023562633E+03  0.13026416013E+03  0.00000000000E+00 0. -1.
        -15    1    1    2    0    0 -0.33825992355E+00 -0.72221458038E+01 -0.20646593002E+02  0.21947968958E+02  0.17770000000E+01 0.  1.
         15    1    1    2    0    0  0.58076705511E+00 -0.39304896753E+00 -0.30888411401E+02  0.30947430681E+02  0.17770000000E+01 0.  1.
</event>
<event>
 6    1  0.1045352E-002  0.1846019E+03  0.7546771E-02  0.1066794E+00
        -11   -1    0    0    0    0  0.00000000000E+00  0.00000000000E+00  0.18250000000E+03  0.18250000000E+03  0.00000000000E+00 0. -1.
         11   -1    0    0    0    0 -0.00000000000E+00 -0.00000000000E+00 -0.18250000000E+03  0.18250000000E+03  0.00000000000E+00 0. -1.
        -11    1    1    2    0    0  0.51903138684E+01  0.40368715731E+01  0.14692136126E+03  0.14706842654E+03  0.00000000000E+00 0. -1.
         11    1    1    2    0    0 -0.11205095880E+01 -0.70369498782E+01 -0.18025728990E+03  0.18039807307E+03  0.00000000000E+00 0. -1.
        -15    1    1    2    0    0  0.13276456457E+01  0.80047177480E+00  0.30870293312E+02  0.30960234757E+02  0.17770000000E+01 0. -1.
         15    1    1    2    0    0 -0.53974499261E+01  0.21996065303E+01  0.24656353246E+01  0.65732656380E+01  0.17770000000E+01 0.  1.
</event>
<event>
 6    1  0.1045352E-002  0.1832125E+03  0.7546771E-02  0.1067889E+00
        -11   -1    0    0    0    0  0.00000000000E+00  0.00000000000E+00  0.18250000000E+03  0.18250000000E+03  0.00000000000E+00 0.  1.
         11   -1    0    0    0    0 -0.00000000000E+00 -0.00000000000E+00 -0.18250000000E+03  0.18250000000E+03  0.00000000000E+00 0. -1.
        -11    1    1    2    0    0 -0.28819576269E+01  0.92056920111E+00  0.16458655705E+03  0.16461436113E+03  0.00000000000E+00 0.  1.
         11    1    1    2    0    0 -0.22908853881E+01 -0.25140994329E+01 -0.18175562999E+03  0.18178745249E+03  0.00000000000E+00 0. -1.
        -15    1    1    2    0    0  0.44427154082E+01  0.19985715384E+01  0.12560076910E+02  0.13588424094E+02  0.17770000000E+01 0. -1.
         15    1    1    2    0    0  0.73012760679E+00 -0.40504130657E+00  0.46089960258E+01  0.50097622846E+01  0.17770000000E+01 0.  1.
</event>
<event>
 6    1  0.1045352E-002  0.1838993E+03  0.7546771E-02  0.1067346E+00
        -11   -1    0    0    0    0  0.00000000000E+00  0.00000000000E+00  0.18250000000E+03  0.18250000000E+03  0.00000000000E+00 0. -1.
         11   -1    0    0    0    0 -0.00000000000E+00 -0.00000000000E+00 -0.18250000000E+03  0.18250000000E+03  0.00000000000E+00 0. -1.
        -11    1    1    2    0    0  0.26424572825E+01  0.33777253026E+01  0.18104987272E+03  0.18110065715E+03  0.00000000000E+00 0. -1.
         11    1    1    2    0    0  0.20770183262E+01  0.22943117613E+01 -0.85595143580E+02  0.85651073993E+02  0.00000000000E+00 0. -1.
        -15    1    1    2    0    0 -0.47439707474E+01 -0.15255813577E+01 -0.92926277893E+02  0.93076761380E+02  0.17770000000E+01 0.  1.
         15    1    1    2    0    0  0.24495138680E-01 -0.41464557062E+01 -0.25284512418E+01  0.51715074802E+01  0.17770000000E+01 0. -1.
</event>
<event>
 6    1  0.1045352E-002  0.1840212E+03  0.7546771E-02  0.1067250E+00
        -11   -1    0    0    0    0  0.00000000000E+00  0.00000000000E+00  0.18250000000E+03  0.18250000000E+03  0.00000000000E+00 0. -1.
         11   -1    0    0    0    0 -0.00000000000E+00 -0.00000000000E+00 -0.18250000000E+03  0.18250000000E+03  0.00000000000E+00 0.  1.
        -11    1    1    2    0    0 -0.37397888047E+01  0.12608097894E+01  0.14818270157E+03  0.14823524786E+03  0.00000000000E+00 0. -1.
         11    1    1    2    0    0  0.83186530176E+00 -0.26972146408E+01 -0.18095673969E+03  0.18097875181E+03  0.00000000000E+00 0.  1.
        -15    1    1    2    0    0  0.32860685617E+01  0.64832120027E+00  0.33472138724E+02  0.33686204398E+02  0.17770000000E+01 0. -1.
         15    1    1    2    0    0 -0.37814505872E+00  0.78808365110E+00 -0.69810060692E+00  0.20997959386E+01  0.17770000000E+01 0. -1.
</event>
<event>
 6    1  0.1045352E-002  0.1854441E+03  0.7546771E-02  0.1066135E+00
        -11   -1    0    0    0    0  0.00000000000E+00  0.00000000000E+00  0.18250000000E+03  0.18250000000E+03  0.00000000000E+00 0.  1.
         11   -1    0    0    0    0 -0.00000000000E+00 -0.00000000000E+00 -0.18250000000E+03  0.18250000000E+03  0.00000000000E+00 0. -1.
        -11    1    1    2    0    0  0.24792485992E+01  0.45335749832E+01  0.15203431567E+03  0.15212209937E+03  0.00000000000E+00 0.  1.
         11    1    1    2    0    0 -0.31114414072E+01  0.10173237197E+01 -0.17952606716E+03  0.17955590997E+03  0.00000000000E+00 0. -1.
        -15    1    1    2    0    0  0.13437175480E+01 -0.16222731701E+01 -0.20651115483E+01  0.34438004870E+01  0.17770000000E+01 0.  1.
         15    1    1    2    0    0 -0.71152473991E+00 -0.39286255328E+01  0.29556863044E+02  0.29878190173E+02  0.17770000000E+01 0.  1.
</event>
<event>
 6    1  0.1045352E-002  0.1829644E+03  0.7546771E-02  0.1068086E+00
        -11   -1    0    0    0    0  0.00000000000E+00  0.00000000000E+00  0.18250000000E+03  0.18250000000E+03  0.00000000000E+00 0. -1.
         11   -1    0    0    0    0 -0.00000000000E+00 -0.00000000000E+00 -0.18250000000E+03  0.18250000000E+03  0.00000000000E+00 0. -1.
        -11    1    1    2    0    0  0.17558426974E+01  0.16834983141E+01  0.11989485357E+03  0.11991952745E+03  0.00000000000E+00 0. -1.
         11    1    1    2    0    0  0.31201563894E+01 -0.79892791115E+00 -0.18200713800E+03  0.18203563372E+03  0.00000000000E+00 0. -1.
        -15    1    1    2    0    0 -0.90836993201E+00  0.18230267918E+01  0.47204277229E+02  0.47281604037E+02  0.17770000000E+01 0. -1.
         15    1    1    2    0    0 -0.39676291548E+01 -0.27075971948E+01  0.14908007194E+02  0.15763234794E+02  0.17770000000E+01 0.  1.
</event>
<event>
 6    1  0.1045352E-002  0.1838852E+03  0.7546771E-02  0.1067357E+00
        -11   -1    0    0    0    0  0.00000000000E+00  0.00000000000E+00  0.18250000000E+03  0.18250000000E+03  0.00000000000E+00 0.  1.
         11   -1    0    0    0    0 -0.00000000000E+00 -0.00000000000E+00 -0.18250000000E+03  0.18250000000E+03  0.00000000000E+00 0. -1.
        -11    1    1    2    0    0  0.36495850911E+01  0.23465453395E+01  0.18106278979E+03  0.18111476912E+03  0.00000000000E+00 0.  1.
         11    1    1    2    0    0  0.47242166648E+01  0.51263550339E+01 -0.15273403636E+03  0.15289304628E+03  0.00000000000E+00 0. -1.
        -15    1    1    2    0    0 -0.58581701849E+01 -0.69992084798E+01 -0.23156843054E+02  0.24954041486E+02  0.17770000000E+01 0. -1.
         15    1    1    2    0    0 -0.25156315710E+01 -0.47369189362E+00 -0.51719103783E+01  0.60381431063E+01  0.17770000000E+01 0.  1.
</event>
<event>
 6    1  0.1045352E-002  0.1832228E+03  0.7546771E-02  0.1067881E+00
        -11   -1    0    0    0    0  0.00000000000E+00  0.00000000000E+00  0.18250000000E+03  0.18250000000E+03  0.00000000000E+00 0.  1.
         11   -1    0    0    0    0 -0.00000000000E+00 -0.00000000000E+00 -0.18250000000E+03  0.18250000000E+03  0.00000000000E+00 0.  1.
        -11    1    1    2    0    0  0.84987437934E+00  0.18461197903E+01  0.11002590950E+03  0.11004467822E+03  0.00000000000E+00 0.  1.
         11    1    1    2    0    0 -0.45864762673E+00 -0.24884597694E+01 -0.18175954458E+03  0.18177715707E+03  0.00000000000E+00 0.  1.
        -15    1    1    2    0    0 -0.22080473717E+01  0.18051689443E+01  0.33756470414E+01  0.47630693949E+01  0.17770000000E+01 0. -1.
         15    1    1    2    0    0  0.18168206191E+01 -0.11628289652E+01  0.68357988037E+02  0.68415095307E+02  0.17770000000E+01 0.  1.
</event>
<event>
 6    1  0.1045352E-002  0.1842713E+03  0.7546771E-02  0.1067054E+00
        -11   -1    0    0    0    0  0.00000000000E+00  0.00000000000E+00  0.18250000000E+03  0.18250000000E+03  0.00000000000E+00 0. -1.
         11   -1    0    0    0    0 -0.00000000000E+00 -0.00000000000E+00 -0.18250000000E+03  0.18250000000E+03  0.00000000000E+00 0.  1.
        -11    1    1    2    0    0  0.73758591405E+01  0.65318746858E+00  0.18057690193E+03  0.18072865700E+03  0.00000000000E+00 0. -1.
         11    1    1    2    0    0  0.36672880970E+01  0.22546507021E+01 -0.12585727945E+03  0.12593088280E+03  0.00000000000E+00 0.  1.
        -15    1    1    2    0    0 -0.16029307864E+01 -0.50859700392E+01 -0.41371271131E+02  0.41751362641E+02  0.17770000000E+01 0. -1.
         15    1    1    2    0    0 -0.94402164512E+01  0.21781318686E+01 -0.13348351351E+02  0.16589097561E+02  0.17770000000E+01 0.  1.
</event>
<event>
 6    1  0.1045352E-002  0.1837168E+03  0.7546771E-02  0.1067490E+00
        -11   -1    0    0    0    0  0.00000000000E+00  0.00000000000E+00  0.18250000000E+03  0.18250000000E+03  0.00000000000E+00 0.  1.
         11   -1    0    0    0    0 -0.00000000000E+00 -0.00000000000E+00 -0.18250000000E+03  0.18250000000E+03  0.00000000000E+00 0. -1.
        -11    1    1    2    0    0 -0.14449918504E+01 -0.27531998783E+01  0.18125648744E+03  0.18128315518E+03  0.00000000000E+00 0.  1.
         11    1    1    2    0    0 -0.21915748954E+01  0.95561954759E+00 -0.17339502050E+03  0.17341150292E+03  0.00000000000E+00 0. -1.
        -15    1    1    2    0    0  0.23669981389E+01  0.25500762727E+01 -0.30094836602E+01  0.49315606138E+01  0.17770000000E+01 0. -1.
         15    1    1    2    0    0  0.12695686069E+01 -0.75249594196E+00 -0.48519832837E+01  0.53737812921E+01  0.17770000000E+01 0. -1.
</event>
<event>
 6    1  0.1045352E-002  0.1834683E+03  0.7546771E-02  0.1067687E+00
        -11   -1    0    0    0    0  0.00000000000E+00  0.00000000000E+00  0.18250000000E+03  0.18250000000E+03  0.00000000000E+00 0.  1.
         11   -1    0    0    0    0 -0.00000000000E+00 -0.00000000000E+00 -0.18250000000E+03  0.18250000000E+03  0.00000000000E+00 0. -1.
        -11    1    1    2    0    0 -0.37191861728E+00 -0.48244935154E+01  0.18146724662E+03  0.18153174835E+03  0.00000000000E+00 0.  1.
         11    1    1    2    0    0  0.72445699891E+00  0.16137316571E+01 -0.10934879944E+03  0.10936310579E+03  0.00000000000E+00 0. -1.
        -15    1    1    2    0    0 -0.10433027248E+01 -0.12827746623E+01 -0.66957478431E+02  0.67001459971E+02  0.17770000000E+01 0.  1.
         15    1    1    2    0    0  0.69076434315E+00  0.44935365206E+01 -0.51609687481E+01  0.71036858924E+01  0.17770000000E+01 0.  1.
</event>
<event>
 6    1  0.1045352E-002  0.1923684E+03  0.7546771E-02  0.1060860E+00
        -11   -1    0    0    0    0  0.00000000000E+00  0.00000000000E+00  0.18250000000E+03  0.18250000000E+03  0.00000000000E+00 0.  1.
         11   -1    0    0    0    0 -0.00000000000E+00 -0.00000000000E+00 -0.18250000000E+03  0.18250000000E+03  0.00000000000E+00 0. -1.
        -11    1    1    2    0    0 -0.95019173915E+01 -0.28389855010E+01  0.16722202580E+03  0.16751582667E+03  0.00000000000E+00 0.  1.
         11    1    1    2    0    0  0.38014571963E+01 -0.15417536860E+01 -0.17258280820E+03  0.17263155496E+03  0.00000000000E+00 0. -1.
        -15    1    1    2    0    0  0.14565236764E+02  0.39549528177E+01  0.38407663327E+01  0.15674724520E+02  0.17770000000E+01 0. -1.
         15    1    1    2    0    0 -0.88647765683E+01  0.42578636931E+00  0.15200160764E+01  0.91778938494E+01  0.17770000000E+01 0.  1.
</event>
<event>
 6    1  0.1045352E-002  0.1833468E+03  0.7546771E-02  0.1067783E+00
        -11   -1    0    0    0    0  0.00000000000E+00  0.00000000000E+00  0.18250000000E+03  0.18250000000E+03  0.00000000000E+00 0. -1.
         11   -1    0    0    0    0 -0.00000000000E+00 -0.00000000000E+00 -0.18250000000E+03  0.18250000000E+03  0.00000000000E+00 0. -1.
        -11    1    1    2    0    0 -0.32559450073E+01 -0.32483327571E+01  0.10685957640E+03  0.10695850556E+03  0.00000000000E+00 0. -1.
         11    1    1    2    0    0  0.14549934682E+01 -0.29030491332E+01 -0.18162415763E+03  0.18165318421E+03  0.00000000000E+00 0. -1.
        -15    1    1    2    0    0  0.30740386214E+01  0.37389674163E+01  0.71801038592E+02  0.71985946286E+02  0.17770000000E+01 0. -1.
         15    1    1    2    0    0 -0.12730870823E+01  0.24124144740E+01  0.29635426401E+01  0.44023639438E+01  0.17770000000E+01 0.  1.
</event>
<event>
 6    1  0.1045352E-002  0.1908210E+03  0.7546771E-02  0.1062018E+00
        -11   -1    0    0    0    0  0.00000000000E+00  0.00000000000E+00  0.18250000000E+03  0.18250000000E+03  0.00000000000E+00 0. -1.
         11   -1    0    0    0    0 -0.00000000000E+00 -0.00000000000E+00 -0.18250000000E+03  0.18250000000E+03  0.00000000000E+00 0. -1.
        -11    1    1    2    0    0  0.13096602351E+01 -0.13201318699E+01  0.89407701824E+02  0.89427037877E+02  0.00000000000E+00 0. -1.
         11    1    1    2    0    0  0.93673047870E+01 -0.33305696126E+02 -0.17070823992E+03  0.17417898545E+03  0.00000000000E+00 0. -1.
        -15    1    1    2    0    0 -0.14741911462E+01 -0.55518704984E+01  0.47999350025E+02  0.48374495733E+02  0.17770000000E+01 0. -1.
         15    1    1    2    0    0 -0.92027738759E+01  0.40177698495E+02  0.33301188075E+02  0.53019480944E+02  0.17770000000E+01 0. -1.
</event>
<event>
 6    1  0.1045352E-002  0.2048836E+03  0.7546771E-02  0.1051914E+00
        -11   -1    0    0    0    0  0.00000000000E+00  0.00000000000E+00  0.18250000000E+03  0.18250000000E+03  0.00000000000E+00 0.  1.
         11   -1    0    0    0    0 -0.00000000000E+00 -0.00000000000E+00 -0.18250000000E+03  0.18250000000E+03  0.00000000000E+00 0.  1.
        -11    1    1    2    0    0 -0.16274755307E+01  0.20705288468E+01  0.11648508748E+03  0.11651485472E+03  0.00000000000E+00 0.  1.
         11    1    1    2    0    0  0.79303301180E+01  0.92391122921E+01 -0.15965273672E+03  0.16011635668E+03  0.00000000000E+00 0.  1.
        -15    1    1    2    0    0  0.24014864355E+01  0.56495514548E+01 -0.20715297923E+02  0.21678696128E+02  0.17770000000E+01 0.  1.
         15    1    1    2    0    0 -0.87043410229E+01 -0.16959192594E+02  0.63882947170E+02  0.66690092474E+02  0.17770000000E+01 0. -1.
</event>
<event>
 6    1  0.1045352E-002  0.1838885E+03  0.7546771E-02  0.1067355E+00
        -11   -1    0    0    0    0  0.00000000000E+00  0.00000000000E+00  0.18250000000E+03  0.18250000000E+03  0.00000000000E+00 0.  1.
         11   -1    0    0    0    0 -0.00000000000E+00 -0.00000000000E+00 -0.18250000000E+03  0.18250000000E+03  0.00000000000E+00 0. -1.
        -11    1    1    2    0    0 -0.11183350068E+01  0.33270614516E+01  0.16492951972E+03  0.16496686482E+03  0.00000000000E+00 0.  1.
         11    1    1    2    0    0 -0.14121619485E+01 -0.41122628271E+01 -0.18105926245E+03  0.18111146133E+03  0.00000000000E+00 0. -1.
        -15    1    1    2    0    0  0.58621189150E+00  0.22434504029E+01  0.45040350396E+00  0.29558935042E+01  0.17770000000E+01 0.  1.
         15    1    1    2    0    0  0.19442850638E+01 -0.14582490274E+01  0.15679339223E+02  0.15965780348E+02  0.17770000000E+01 0.  1.
</event>
<event>
 6    1  0.1045352E-002  0.1852572E+03  0.7546771E-02  0.1066281E+00
        -11   -1    0    0    0    0  0.00000000000E+00  0.00000000000E+00  0.18250000000E+03  0.18250000000E+03  0.00000000000E+00 0.  1.
         11   -1    0    0    0    0 -0.00000000000E+00 -0.00000000000E+00 -0.18250000000E+03  0.18250000000E+03  0.00000000000E+00 0. -1.
        -11    1    1    2    0    0 -0.32772163680E+01  0.11633124810E+01  0.17062696920E+03  0.17066240377E+03  0.00000000000E+00 0.  1.
         11    1    1    2    0    0  0.55633663252E+00  0.42404414995E+01 -0.17969192375E+03  0.17974281159E+03  0.00000000000E+00 0. -1.
        -15    1    1    2    0    0 -0.19549451922E+01 -0.46454360430E+00  0.66353737474E+01  0.71570612148E+01  0.17770000000E+01 0.  1.
         15    1    1    2    0    0  0.46758249276E+01 -0.49392103762E+01  0.24295808090E+01  0.74377234287E+01  0.17770000000E+01 0. -1.
</event>
<event>
 6    1  0.1045352E-002  0.1842812E+03  0.7546771E-02  0.1067046E+00
        -11   -1    0    0    0    0  0.00000000000E+00  0.00000000000E+00  0.18250000000E+03  0.18250000000E+03  0.00000000000E+00 0. -1.
         11   -1    0    0    0    0 -0.00000000000E+00 -0.00000000000E+00 -0.18250000000E+03  0.18250000000E+03  0.00000000000E+00 0.  1.
        -11    1    1    2    0    0 -0.14659063153E+01  0.20737216750E+01  0.18070092583E+03  0.18071876992E+03  0.00000000000E+00 0. -1.
         11    1    1    2    0    0  0.25834303369E+01 -0.49801109445E+00 -0.17238932371E+03  0.17240939956E+03  0.00000000000E+00 0.  1.
        -15    1    1    2    0    0 -0.13646060785E+01  0.14851609139E+01 -0.78457584666E+01  0.82934617383E+01  0.17770000000E+01 0. -1.
         15    1    1    2    0    0  0.24708205693E+00 -0.30608714944E+01 -0.46584365438E+00  0.35783687846E+01  0.17770000000E+01 0. -1.
</event>
<event>
 6    1  0.1045352E-002  0.1833079E+03  0.7546771E-02  0.1067814E+00
        -11   -1    0    0    0    0  0.00000000000E+00  0.00000000000E+00  0.18250000000E+03  0.18250000000E+03  0.00000000000E+00 0.  1.
         11   -1    0    0    0    0 -0.00000000000E+00 -0.00000000000E+00 -0.18250000000E+03  0.18250000000E+03  0.00000000000E+00 0.  1.
        -11    1    1    2    0    0  0.14397791790E+01  0.39981735751E+01  0.18164236319E+03  0.18169206493E+03  0.00000000000E+00 0.  1.
         11    1    1    2    0    0 -0.36634744176E+01  0.37517267671E+00 -0.71899404245E+02  0.71993653401E+02  0.00000000000E+00 0.  1.
        -15    1    1    2    0    0  0.39745705054E+01 -0.10852137177E+02 -0.69646939773E+02  0.70621668352E+02  0.17770000000E+01 0. -1.
         15    1    1    2    0    0 -0.17508752668E+01  0.64787909257E+01 -0.40096019168E+02  0.40692613312E+02  0.17770000000E+01 0.  1.
</event>
<event>
 6    1  0.1045352E-002  0.1891425E+03  0.7546771E-02  0.1063287E+00
        -11   -1    0    0    0    0  0.00000000000E+00  0.00000000000E+00  0.18250000000E+03  0.18250000000E+03  0.00000000000E+00 0.  1.
         11   -1    0    0    0    0 -0.00000000000E+00 -0.00000000000E+00 -0.18250000000E+03  0.18250000000E+03  0.00000000000E+00 0. -1.
        -11    1    1    2    0    0  0.32659900962E+01  0.23256636597E+01  0.17203699686E+03  0.17208371129E+03  0.00000000000E+00 0.  1.
         11    1    1    2    0    0  0.21869526437E+01 -0.11093765525E+01 -0.17584035855E+03  0.17585745698E+03  0.00000000000E+00 0. -1.
        -15    1    1    2    0    0  0.16070876714E+01  0.43988316291E+01 -0.28006022648E+01  0.57387762224E+01  0.17770000000E+01 0.  1.
         15    1    1    2    0    0 -0.70600304113E+01 -0.56151187364E+01  0.66039639615E+01  0.11320055514E+02  0.17770000000E+01 0. -1.
</event>
<event>
 6    1  0.1045352E-002  0.1833502E+03  0.7546771E-02  0.1067780E+00
        -11   -1    0    0    0    0  0.00000000000E+00  0.00000000000E+00  0.18250000000E+03  0.18250000000E+03  0.00000000000E+00 0. -1.
         11   -1    0    0    0    0 -0.00000000000E+00 -0.00000000000E+00 -0.18250000000E+03  0.18250000000E+03  0.00000000000E+00 0. -1.
        -11    1    1    2    0    0 -0.28973455599E+01 -0.48960470688E+00  0.18162599928E+03  0.18164976724E+03  0.00000000000E+00 0. -1.
         11    1    1    2    0    0 -0.27614176947E+01 -0.10533055074E+01 -0.11689914639E+03  0.11693650117E+03  0.00000000000E+00 0. -1.
        -15    1    1    2    0    0  0.62409193274E+00 -0.29332524890E+01 -0.50006339398E+02  0.50127688655E+02  0.17770000000E+01 0.  1.
         15    1    1    2    0    0  0.50346713219E+01  0.44761627033E+01 -0.14720513494E+02  0.16286042932E+02  0.17770000000E+01 0. -1.
</event>
<event>
 6    1  0.1045352E-002  0.1843340E+03  0.7546771E-02  0.1067004E+00
        -11   -1    0    0    0    0  0.00000000000E+00  0.00000000000E+00  0.18250000000E+03  0.18250000000E+03  0.00000000000E+00 0. -1.
         11   -1    0    0    0    0 -0.00000000000E+00 -0.00000000000E+00 -0.18250000000E+03  0.18250000000E+03  0.00000000000E+00 0. -1.
        -11    1    1    2    0    0 -0.16406197085E+01  0.28340099000E+01  0.15658301193E+03  0.15661724959E+03  0.00000000000E+00 0. -1.
         11    1    1    2    0    0  0.36864655824E+01  0.23324530800E+01 -0.18061329366E+03  0.18066596861E+03  0.00000000000E+00 0. -1.
        -15    1    1    2    0    0 -0.28899666302E+01 -0.58468930183E+01  0.46028470239E+01  0.81781412813E+01  0.17770000000E+01 0.  1.
         15    1    1    2    0    0  0.84412075628E+00  0.68043003825E+00  0.19427434708E+02  0.19538640516E+02  0.17770000000E+01 0. -1.
</event>
<event>
 6    1  0.1045352E-002  0.1841541E+03  0.7546771E-02  0.1067146E+00
        -11   -1    0    0    0    0  0.00000000000E+00  0.00000000000E+00  0.18250000000E+03  0.18250000000E+03  0.00000000000E+00 0.  1.
         11   -1    0    0    0    0 -0.00000000000E+00 -0.00000000000E+00 -0.18250000000E+03  0.18250000000E+03  0.00000000000E+00 0. -1.
        -11    1    1    2    0    0  0.31159923609E+01 -0.12596533441E+01  0.18081465433E+03  0.18084588841E+03  0.00000000000E+00 0.  1.
         11    1    1    2    0    0 -0.23529303719E+01 -0.22046044493E+01 -0.16463853057E+03  0.16467010145E+03  0.00000000000E+00 0. -1.
        -15    1    1    2    0    0 -0.32461033907E+00  0.52819398037E+01 -0.35917210935E+01  0.66379552104E+01  0.17770000000E+01 0.  1.
         15    1    1    2    0    0 -0.43845164995E+00 -0.18176820102E+01 -0.12584402668E+02  0.12846054929E+02  0.17770000000E+01 0.  1.
</event>
<event>
 6    1  0.1045352E-002  0.1846075E+03  0.7546771E-02  0.1066790E+00
        -11   -1    0    0    0    0  0.00000000000E+00  0.00000000000E+00  0.18250000000E+03  0.18250000000E+03  0.00000000000E+00 0. -1.
         11   -1    0    0    0    0 -0.00000000000E+00 -0.00000000000E+00 -0.18250000000E+03  0.18250000000E+03  0.00000000000E+00 0.  1.
        -11    1    1    2    0    0  0.52980711106E+01 -0.74457202190E-01  0.17053709258E+03  0.17061938649E+03  0.00000000000E+00 0. -1.
         11    1    1    2    0    0  0.10958648824E+01 -0.29465820165E+01 -0.18036511465E+03  0.18039251051E+03  0.00000000000E+00 0.  1.
        -15    1    1    2    0    0 -0.40214266076E+01  0.25852328671E+01  0.17824611641E+01  0.54027953634E+01  0.17770000000E+01 0.  1.
         15    1    1    2    0    0 -0.23725093854E+01  0.43580635150E+00  0.80455609078E+01  0.85853076404E+01  0.17770000000E+01 0. -1.
</event>
<event>
 6    1  0.1045352E-002  0.1854390E+03  0.7546771E-02  0.1066139E+00
        -11   -1    0    0    0    0  0.00000000000E+00  0.00000000000E+00  0.18250000000E+03  0.18250000000E+03  0.00000000000E+00 0.  1.
         11   -1    0    0    0    0 -0.00000000000E+00 -0.00000000000E+00 -0.18250000000E+03  0.18250000000E+03  0.00000000000E+00 0. -1.
        -11    1    1    2    0    0  0.34332909676E+01  0.27147828273E+00  0.17952799605E+03  0.17956102738E+03  0.00000000000E+00 0.  1.
         11    1    1    2    0    0  0.71484338459E-01  0.32139335757E+01 -0.17199115799E+03  0.17202119901E+03  0.00000000000E+00 0. -1.
        -15    1    1    2    0    0  0.75256351549E+00 -0.18446651185E+01 -0.80627422647E+01  0.84932139424E+01  0.17770000000E+01 0. -1.
         15    1    1    2    0    0 -0.42573388216E+01 -0.16407467399E+01  0.52590420463E+00  0.49245596695E+01  0.17770000000E+01 0. -1.
</event>
<event>
 6    1  0.1045352E-002  0.1845074E+03  0.7546771E-02  0.1066868E+00
        -11   -1    0    0    0    0  0.00000000000E+00  0.00000000000E+00  0.18250000000E+03  0.18250000000E+03  0.00000000000E+00 0. -1.
         11   -1    0    0    0    0 -0.00000000000E+00 -0.00000000000E+00 -0.18250000000E+03  0.18250000000E+03  0.00000000000E+00 0. -1.
        -11    1    1    2    0    0  0.85526598818E+01  0.32581844781E+01  0.18026044505E+03  0.18049263643E+03  0.00000000000E+00 0. -1.
         11    1    1    2    0    0  0.30880522450E+01  0.91975485156E+00 -0.14538341322E+03  0.14541911447E+03  0.00000000000E+00 0. -1.
        -15    1    1    2    0    0 -0.98242987394E+01 -0.25187501601E+01 -0.11185342592E+02  0.15202978853E+02  0.17770000000E+01 0.  1.
         15    1    1    2    0    0 -0.18164133875E+01 -0.16591891696E+01 -0.23691689240E+02  0.23885270238E+02  0.17770000000E+01 0. -1.
</event>
<event>
 6    1  0.1045352E-002  0.1826604E+03  0.7546771E-02  0.1068327E+00
        -11   -1    0    0    0    0  0.00000000000E+00  0.00000000000E+00  0.18250000000E+03  0.18250000000E+03  0.00000000000E+00 0. -1.
         11   -1    0    0    0    0 -0.00000000000E+00 -0.00000000000E+00 -0.18250000000E+03  0.18250000000E+03  0.00000000000E+00 0. -1.
        -11    1    1    2    0    0 -0.19088391401E+01 -0.44159499188E+01  0.18227609246E+03  0.18233956829E+03  0.00000000000E+00 0. -1.
         11    1    1    2    0    0  0.13660776173E+01 -0.85799744485E+00 -0.53919961784E+02  0.53944087780E+02  0.00000000000E+00 0. -1.
        -15    1    1    2    0    0  0.33238239348E+01  0.11775539192E+01 -0.37310529987E+02  0.37518899447E+02  0.17770000000E+01 0.  1.
         15    1    1    2    0    0 -0.27810624119E+01  0.40963934445E+01 -0.91045600688E+02  0.91197444487E+02  0.17770000000E+01 0. -1.
</event>
<event>
 6    1  0.1045352E-002  0.1831178E+03  0.7546771E-02  0.1067964E+00
        -11   -1    0    0    0    0  0.00000000000E+00  0.00000000000E+00  0.18250000000E+03  0.18250000000E+03  0.00000000000E+00 0. -1.
         11   -1    0    0    0    0 -0.00000000000E+00 -0.00000000000E+00 -0.18250000000E+03  0.18250000000E+03  0.00000000000E+00 0. -1.
        -11    1    1    2    0    0  0.51246232120E+00 -0.27732288745E+01  0.15228963104E+03  0.15231574159E+03  0.00000000000E+00 0. -1.
         11    1    1    2    0    0  0.17947709907E+01 -0.20558594449E+01 -0.18186172206E+03  0.18188219735E+03  0.00000000000E+00 0. -1.
        -15    1    1    2    0    0  0.25786471596E+00  0.77641541446E+00  0.21490912955E+01  0.29061379017E+01  0.17770000000E+01 0. -1.
         15    1    1    2    0    0 -0.25650980278E+01  0.40526729049E+01  0.27422999730E+02  0.27895923157E+02  0.17770000000E+01 0.  1.
</event>
<event>
 6    1  0.1045352E-002  0.1833272E+03  0.7546771E-02  0.1067798E+00
        -11   -1    0    0    0    0  0.00000000000E+00  0.00000000000E+00  0.18250000000E+03  0.18250000000E+03  0.00000000000E+00 0. -1.
         11   -1    0    0    0    0 -0.00000000000E+00 -0.00000000000E+00 -0.18250000000E+03  0.18250000000E+03  0.00000000000E+00 0.  1.
        -11    1    1    2    0    0 -0.37874864312E+01  0.10239437279E+01  0.18163045332E+03  0.18167282430E+03  0.00000000000E+00 0. -1.
         11    1    1    2    0    0 -0.16831382957E+01  0.42708797582E+00 -0.12078124947E+03  0.12079373155E+03  0.00000000000E+00 0.  1.
        -15    1    1    2    0    0 -0.12123385282E+01  0.46515727768E+01 -0.24717970291E+02  0.25243666103E+02  0.17770000000E+01 0.  1.
         15    1    1    2    0    0  0.66829632551E+01 -0.61026044805E+01 -0.36131233559E+02  0.37289778047E+02  0.17770000000E+01 0. -1.
</event>
<event>
 6    1  0.1045352E-002  0.1891680E+03  0.7546771E-02  0.1063268E+00
        -11   -1    0    0    0    0  0.00000000000E+00  0.00000000000E+00  0.18250000000E+03  0.18250000000E+03  0.00000000000E+00 0.  1.
         11   -1    0    0    0    0 -0.00000000000E+00 -0.00000000000E+00 -0.18250000000E+03  0.18250000000E+03  0.00000000000E+00 0. -1.
        -11    1    1    2    0    0  0.11477262051E+02 -0.77685169748E+01  0.58752589465E+02  0.60365090649E+02  0.00000000000E+00 0.  1.
         11    1    1    2    0    0  0.63995085939E+01  0.16810133892E+01 -0.17570743381E+03  0.17583197039E+03  0.00000000000E+00 0. -1.
        -15    1    1    2    0    0 -0.29141135172E+02  0.42797388842E+01  0.11269846783E+03  0.11649731458E+03  0.17770000000E+01 0. -1.
         15    1    1    2    0    0  0.11264364527E+02  0.18077647014E+01  0.42563765061E+01  0.12305624379E+02  0.17770000000E+01 0. -1.
</event>
<event>
 6    1  0.1045352E-002  0.1830758E+03  0.7546771E-02  0.1067997E+00
        -11   -1    0    0    0    0  0.00000000000E+00  0.00000000000E+00  0.18250000000E+03  0.18250000000E+03  0.00000000000E+00 0. -1.
         11   -1    0    0    0    0 -0.00000000000E+00 -0.00000000000E+00 -0.18250000000E+03  0.18250000000E+03  0.00000000000E+00 0.  1.
        -11    1    1    2    0    0  0.47465726084E+01  0.24550263976E+01  0.18184571517E+03  0.18192421837E+03  0.00000000000E+00 0. -1.
         11    1    1    2    0    0  0.13461042090E+01 -0.15157847372E+01 -0.14956196969E+03  0.14957570785E+03  0.00000000000E+00 0.  1.
        -15    1    1    2    0    0 -0.20990872078E+00 -0.74913584858E+00 -0.29620607879E+01  0.35407342886E+01  0.17770000000E+01 0. -1.
         15    1    1    2    0    0 -0.58827680966E+01 -0.19010581180E+00 -0.29321684688E+02  0.29959339489E+02  0.17770000000E+01 0. -1.
</event>
<event>
 6    1  0.1045352E-002  0.1475659E+03  0.7546771E-02  0.1100259E+00
        -11   -1    0    0    0    0  0.00000000000E+00  0.00000000000E+00  0.18250000000E+03  0.18250000000E+03  0.00000000000E+00 0.  1.
         11   -1    0    0    0    0 -0.00000000000E+00 -0.00000000000E+00 -0.18250000000E+03  0.18250000000E+03  0.00000000000E+00 0. -1.
        -11    1    1    2    0    0 -0.44771404299E+01  0.13334433222E+02  0.15013866301E+03  0.15079612073E+03  0.00000000000E+00 0.  1.
         11    1    1    2    0    0  0.32638946927E+02  0.94623456632E+01 -0.14265382002E+03  0.14664565867E+03  0.00000000000E+00 0. -1.
        -15    1    1    2    0    0 -0.51453226633E+01  0.18742478207E+00  0.22580786389E+02  0.23228411833E+02  0.17770000000E+01 0.  1.
         15    1    1    2    0    0 -0.23016483833E+02 -0.22984203667E+02 -0.30065629384E+02  0.44329808769E+02  0.17770000000E+01 0. -1.
</event>
<event>
 6    1  0.1045352E-002  0.1561837E+03  0.7546771E-02  0.1091576E+00
        -11   -1    0    0    0    0  0.00000000000E+00  0.00000000000E+00  0.18250000000E+03  0.18250000000E+03  0.00000000000E+00 0.  1.
         11   -1    0    0    0    0 -0.00000000000E+00 -0.00000000000E+00 -0.18250000000E+03  0.18250000000E+03  0.00000000000E+00 0. -1.
        -11    1    1    2    0    0  0.15227827326E+01  0.15386330045E+01  0.16041073947E+03  0.16042534587E+03  0.00000000000E+00 0.  1.
         11    1    1    2    0    0 -0.16501856283E+02 -0.15803380864E+02 -0.15104771007E+03  0.15276605914E+03  0.00000000000E+00 0. -1.
        -15    1    1    2    0    0  0.27089642675E+01  0.13183066928E+02 -0.27001246040E+02  0.30221792762E+02  0.17770000000E+01 0.  1.
         15    1    1    2    0    0  0.12270109282E+02  0.10816809313E+01  0.17638216638E+02  0.21586802232E+02  0.17770000000E+01 0. -1.
</event>
<event>
 6    1  0.1045352E-002  0.1833739E+03  0.7546771E-02  0.1067761E+00
        -11   -1    0    0    0    0  0.00000000000E+00  0.00000000000E+00  0.18250000000E+03  0.18250000000E+03  0.00000000000E+00 0. -1.
         11   -1    0    0    0    0 -0.00000000000E+00 -0.00000000000E+00 -0.18250000000E+03  0.18250000000E+03  0.00000000000E+00 0.  1.
        -11    1    1    2    0    0  0.19123255388E+01  0.28078334782E+01  0.18159430781E+03  0.18162608168E+03  0.00000000000E+00 0. -1.
         11    1    1    2    0    0 -0.27128250270E+01  0.14363173157E+01 -0.16776198978E+03  0.16779007016E+03  0.00000000000E+00 0.  1.
        -15    1    1    2    0    0 -0.12172953131E+01 -0.56400984095E+00 -0.23861361672E+01  0.32636313806E+01  0.17770000000E+01 0. -1.
         15    1    1    2    0    0  0.20177948013E+01 -0.36801409530E+01 -0.11446181861E+02  0.12320216779E+02  0.17770000000E+01 0.  1.
</event>
<event>
 6    1  0.1045352E-002  0.1840363E+03  0.7546771E-02  0.1067238E+00
        -11   -1    0    0    0    0  0.00000000000E+00  0.00000000000E+00  0.18250000000E+03  0.18250000000E+03  0.00000000000E+00 0.  1.
         11   -1    0    0    0    0 -0.00000000000E+00 -0.00000000000E+00 -0.18250000000E+03  0.18250000000E+03  0.00000000000E+00 0. -1.
        -11    1    1    2    0    0  0.74987596060E+00  0.76960149578E+01  0.18079840983E+03  0.18096368684E+03  0.00000000000E+00 0.  1.
         11    1    1    2    0    0 -0.21469256263E+01 -0.39287094286E+01 -0.17019256466E+03  0.17025144085E+03  0.00000000000E+00 0. -1.
        -15    1    1    2    0    0  0.31907098018E+01 -0.44518097579E+01 -0.90931136508E+01  0.10762977470E+02  0.17770000000E+01 0. -1.
         15    1    1    2    0    0 -0.17936601361E+01  0.68450422870E+00 -0.15127315171E+01  0.30218948304E+01  0.17770000000E+01 0. -1.
</event>
<event>
 6    1  0.1045352E-002  0.1826813E+03  0.7546771E-02  0.1068311E+00
        -11   -1    0    0    0    0  0.00000000000E+00  0.00000000000E+00  0.18250000000E+03  0.18250000000E+03  0.00000000000E+00 0. -1.
         11   -1    0    0    0    0 -0.00000000000E+00 -0.00000000000E+00 -0.18250000000E+03  0.18250000000E+03  0.00000000000E+00 0. -1.
        -11    1    1    2    0    0 -0.69581925638E-01 -0.14668396163E+01  0.76786082584E+02  0.76800123299E+02  0.00000000000E+00 0. -1.
         11    1    1    2    0    0  0.61562603611E+01  0.38348069698E+01 -0.18217436204E+03  0.18231868656E+03  0.00000000000E+00 0. -1.
        -15    1    1    2    0    0 -0.19972140938E+01 -0.36907316107E+01  0.75075440649E+02  0.75213628297E+02  0.17770000000E+01 0. -1.
         15    1    1    2    0    0 -0.40894643416E+01  0.13227642572E+01  0.30312838805E+02  0.30667561842E+02  0.17770000000E+01 0.  1.
</event>
<event>
 6    1  0.1045352E-002  0.1831119E+03  0.7546771E-02  0.1067969E+00
        -11   -1    0    0    0    0  0.00000000000E+00  0.00000000000E+00  0.18250000000E+03  0.18250000000E+03  0.00000000000E+00 0. -1.
         11   -1    0    0    0    0 -0.00000000000E+00 -0.00000000000E+00 -0.18250000000E+03  0.18250000000E+03  0.00000000000E+00 0.  1.
        -11    1    1    2    0    0  0.16030901058E+01  0.18402042459E+01  0.90159962730E+02  0.90192988248E+02  0.00000000000E+00 0. -1.
         11    1    1    2    0    0  0.22311253736E+01 -0.18290351628E+01 -0.18186520970E+03  0.18188809139E+03  0.00000000000E+00 0.  1.
        -15    1    1    2    0    0 -0.24932251246E+01  0.38503663352E+01  0.82937206702E+02  0.83082967430E+02  0.17770000000E+01 0. -1.
         15    1    1    2    0    0 -0.13409903549E+01 -0.38615354184E+01  0.87680402690E+01  0.98359529319E+01  0.17770000000E+01 0.  1.
</event>
<event>
 6    1  0.1045352E-002  0.1862250E+03  0.7546771E-02  0.1065528E+00
        -11   -1    0    0    0    0  0.00000000000E+00  0.00000000000E+00  0.18250000000E+03  0.18250000000E+03  0.00000000000E+00 0.  1.
         11   -1    0    0    0    0 -0.00000000000E+00 -0.00000000000E+00 -0.18250000000E+03  0.18250000000E+03  0.00000000000E+00 0. -1.
        -11    1    1    2    0    0 -0.10027706270E+01  0.50074299363E+01  0.16568325569E+03  0.16576194110E+03  0.00000000000E+00 0.  1.
         11    1    1    2    0    0 -0.27284668566E+00 -0.30966976873E+01 -0.17874796854E+03  0.17877499892E+03  0.00000000000E+00 0. -1.
        -15    1    1    2    0    0 -0.13081899836E+01  0.56668031691E+00 -0.30800349376E+01  0.38310353472E+01  0.17770000000E+01 0. -1.
         15    1    1    2    0    0  0.25838072963E+01 -0.24774125659E+01  0.16144747789E+02  0.16632024631E+02  0.17770000000E+01 0.  1.
</event>
<event>
 6    1  0.1045352E-002  0.1841415E+03  0.7546771E-02  0.1067156E+00
        -11   -1    0    0    0    0  0.00000000000E+00  0.00000000000E+00  0.18250000000E+03  0.18250000000E+03  0.00000000000E+00 0.  1.
         11   -1    0    0    0    0 -0.00000000000E+00 -0.00000000000E+00 -0.18250000000E+03  0.18250000000E+03  0.00000000000E+00 0.  1.
        -11    1    1    2    0    0 -0.24469795486E+01 -0.27530185890E+01  0.16616658661E+03  0.16620740455E+03  0.00000000000E+00 0.  1.
         11    1    1    2    0    0  0.24073075441E+01 -0.21085266743E+01 -0.18083018282E+03  0.18085849726E+03  0.00000000000E+00 0.  1.
        -15    1    1    2    0    0  0.12084664226E+00  0.31087576745E+01  0.57839397446E+00  0.36292212360E+01  0.17770000000E+01 0.  1.
         15    1    1    2    0    0 -0.81174637755E-01  0.17527875888E+01  0.14085202235E+02  0.14304876953E+02  0.17770000000E+01 0. -1.
</event>
<event>
 6    1  0.1045352E-002  0.1849408E+03  0.7546771E-02  0.1066528E+00
        -11   -1    0    0    0    0  0.00000000000E+00  0.00000000000E+00  0.18250000000E+03  0.18250000000E+03  0.00000000000E+00 0.  1.
         11   -1    0    0    0    0 -0.00000000000E+00 -0.00000000000E+00 -0.18250000000E+03  0.18250000000E+03  0.00000000000E+00 0. -1.
        -11    1    1    2    0    0  0.10384765746E+01 -0.75969334171E+01  0.17989584152E+03  0.18005917257E+03  0.00000000000E+00 0.  1.
         11    1    1    2    0    0 -0.16009328982E+01  0.19996642160E+01 -0.15885944200E+03  0.15888009301E+03  0.00000000000E+00 0. -1.
        -15    1    1    2    0    0  0.29496039698E+01  0.18202597009E+00 -0.19351106042E+02  0.19655949000E+02  0.17770000000E+01 0. -1.
         15    1    1    2    0    0 -0.23871476463E+01  0.54152432310E+01 -0.16852934794E+01  0.64047854178E+01  0.17770000000E+01 0.  1.
</event>
<event>
 6    1  0.1045352E-002  0.1580710E+03  0.7546771E-02  0.1089756E+00
        -11   -1    0    0    0    0  0.00000000000E+00  0.00000000000E+00  0.18250000000E+03  0.18250000000E+03  0.00000000000E+00 0. -1.
         11   -1    0    0    0    0 -0.00000000000E+00 -0.00000000000E+00 -0.18250000000E+03  0.18250000000E+03  0.00000000000E+00 0.  1.
        -11    1    1    2    0    0  0.36425798172E+01  0.82760863074E+01  0.15337367979E+03  0.15363999364E+03  0.00000000000E+00 0. -1.
         11    1    1    2    0    0 -0.10754806633E+01  0.81054262874E+01 -0.16287388048E+03  0.16307898558E+03  0.00000000000E+00 0.  1.
        -15    1    1    2    0    0 -0.43513101007E+01 -0.65938458538E+00 -0.16843406800E+02  0.17499336252E+02  0.17770000000E+01 0.  1.
         15    1    1    2    0    0  0.17842109467E+01 -0.15722128009E+02  0.26343607493E+02  0.30781684531E+02  0.17770000000E+01 0. -1.
</event>
<event>
 6    1  0.1045352E-002  0.1890902E+03  0.7546771E-02  0.1063327E+00
        -11   -1    0    0    0    0  0.00000000000E+00  0.00000000000E+00  0.18250000000E+03  0.18250000000E+03  0.00000000000E+00 0. -1.
         11   -1    0    0    0    0 -0.00000000000E+00 -0.00000000000E+00 -0.18250000000E+03  0.18250000000E+03  0.00000000000E+00 0. -1.
        -11    1    1    2    0    0  0.12754016128E+02  0.59680887749E+01  0.16031188991E+03  0.16092913055E+03  0.00000000000E+00 0. -1.
         11    1    1    2    0    0 -0.50801624282E+01  0.38761545842E+00 -0.17583596127E+03  0.17590975974E+03  0.00000000000E+00 0. -1.
        -15    1    1    2    0    0 -0.43207586834E+01 -0.43302596799E+01  0.20568109889E+02  0.21531952487E+02  0.17770000000E+01 0.  1.
         15    1    1    2    0    0 -0.33530950160E+01 -0.20254445534E+01 -0.50440385262E+01  0.66291572224E+01  0.17770000000E+01 0. -1.
</event>
<event>
 6    1  0.1045352E-002  0.1841111E+03  0.7546771E-02  0.1067180E+00
        -11   -1    0    0    0    0  0.00000000000E+00  0.00000000000E+00  0.18250000000E+03  0.18250000000E+03  0.00000000000E+00 0. -1.
         11   -1    0    0    0    0 -0.00000000000E+00 -0.00000000000E+00 -0.18250000000E+03  0.18250000000E+03  0.00000000000E+00 0. -1.
        -11    1    1    2    0    0 -0.45886561540E+00 -0.27721386954E+01  0.16216448836E+03  0.16218883006E+03  0.00000000000E+00 0. -1.
         11    1    1    2    0    0 -0.33545261276E+01  0.11538661538E+01 -0.18085407648E+03  0.18088886431E+03  0.00000000000E+00 0. -1.
        -15    1    1    2    0    0 -0.88595976723E+00  0.14136717259E+01 -0.13162463660E+00  0.24409929338E+01  0.17770000000E+01 0.  1.
         15    1    1    2    0    0  0.46993515102E+01  0.20460081578E+00  0.18821212751E+02  0.19481312701E+02  0.17770000000E+01 0. -1.
</event>
<event>
 6    1  0.1045352E-002  0.1836048E+03  0.7546771E-02  0.1067579E+00
        -11   -1    0    0    0    0  0.00000000000E+00  0.00000000000E+00  0.18250000000E+03  0.18250000000E+03  0.00000000000E+00 0.  1.
         11   -1    0    0    0    0 -0.00000000000E+00 -0.00000000000E+00 -0.18250000000E+03  0.18250000000E+03  0.00000000000E+00 0. -1.
        -11    1    1    2    0    0 -0.84270048126E+01 -0.78208974359E+01  0.18103046689E+03  0.18139517852E+03  0.00000000000E+00 0.  1.
         11    1    1    2    0    0  0.20757108725E+01  0.34703464564E+01 -0.90929458822E+02  0.91019329605E+02  0.00000000000E+00 0. -1.
        -15    1    1    2    0    0  0.20697836188E+01 -0.27732234578E+01 -0.76150735546E+02  0.76250029677E+02  0.17770000000E+01 0.  1.
         15    1    1    2    0    0  0.42815103213E+01  0.71237744373E+01 -0.13950272522E+02  0.16335462201E+02  0.17770000000E+01 0. -1.
</event>
<event>
 6    1  0.1045352E-002  0.1847169E+03  0.7546771E-02  0.1066704E+00
        -11   -1    0    0    0    0  0.00000000000E+00  0.00000000000E+00  0.18250000000E+03  0.18250000000E+03  0.00000000000E+00 0.  1.
         11   -1    0    0    0    0 -0.00000000000E+00 -0.00000000000E+00 -0.18250000000E+03  0.18250000000E+03  0.00000000000E+00 0. -1.
        -11    1    1    2    0    0 -0.16437217446E+01  0.16152354898E+00  0.10857246178E+03  0.10858502368E+03  0.00000000000E+00 0.  1.
         11    1    1    2    0    0 -0.98815791929E+00  0.25748830148E+01 -0.18026199188E+03  0.18028308905E+03  0.00000000000E+00 0. -1.
        -15    1    1    2    0    0  0.19253235695E+01 -0.24165834387E+01  0.73435973734E+02  0.73522423203E+02  0.17770000000E+01 0.  1.
         15    1    1    2    0    0  0.70655609436E+00 -0.31982312505E+00 -0.17464436318E+01  0.26094640647E+01  0.17770000000E+01 0.  1.
</event>
<event>
 6    1  0.1045352E-002  0.1657169E+03  0.7546771E-02  0.1082659E+00
        -11   -1    0    0    0    0  0.00000000000E+00  0.00000000000E+00  0.18250000000E+03  0.18250000000E+03  0.00000000000E+00 0. -1.
         11   -1    0    0    0    0 -0.00000000000E+00 -0.00000000000E+00 -0.18250000000E+03  0.18250000000E+03  0.00000000000E+00 0.  1.
        -11    1    1    2    0    0 -0.40755613534E+01  0.65215176700E+01  0.17076594325E+03  0.17093901769E+03  0.00000000000E+00 0. -1.
         11    1    1    2    0    0  0.14005306189E+02  0.12774898411E+02 -0.16025357844E+03  0.16137086488E+03  0.00000000000E+00 0.  1.
        -15    1    1    2    0    0 -0.10700492509E+02 -0.13102071410E+02 -0.16617703900E+02  0.23779626302E+02  0.17770000000E+01 0. -1.
         15    1    1    2    0    0  0.77074767294E+00 -0.61943446712E+01  0.61053390835E+01  0.89104911316E+01  0.17770000000E+01 0.  1.
</event>
<event>
 6    1  0.1045352E-002  0.1851021E+03  0.7546771E-02  0.1066402E+00
        -11   -1    0    0    0    0  0.00000000000E+00  0.00000000000E+00  0.18250000000E+03  0.18250000000E+03  0.00000000000E+00 0.  1.
         11   -1    0    0    0    0 -0.00000000000E+00 -0.00000000000E+00 -0.18250000000E+03  0.18250000000E+03  0.00000000000E+00 0. -1.
        -11    1    1    2    0    0  0.17189089837E+01 -0.62911391511E+00  0.11181642464E+03  0.11183140548E+03  0.00000000000E+00 0.  1.
         11    1    1    2    0    0 -0.61345140218E+01  0.58723842894E+00 -0.17979235395E+03  0.17989793676E+03  0.00000000000E+00 0. -1.
        -15    1    1    2    0    0 -0.28691738446E+01 -0.17357281587E+01  0.64839765807E+02  0.64950734174E+02  0.17770000000E+01 0.  1.
         15    1    1    2    0    0  0.72847788827E+01  0.17776036449E+01  0.31361635039E+01  0.83199235941E+01  0.17770000000E+01 0. -1.
</event>
<event>
 6    1  0.1045352E-002  0.1826625E+03  0.7546771E-02  0.1068326E+00
        -11   -1    0    0    0    0  0.00000000000E+00  0.00000000000E+00  0.18250000000E+03  0.18250000000E+03  0.00000000000E+00 0. -1.
         11   -1    0    0    0    0 -0.00000000000E+00 -0.00000000000E+00 -0.18250000000E+03  0.18250000000E+03  0.00000000000E+00 0. -1.
        -11    1    1    2    0    0 -0.19925259971E+01 -0.27812539782E+01  0.18230540237E+03  0.18233750373E+03  0.00000000000E+00 0. -1.
         11    1    1    2    0    0 -0.55650488852E+00  0.54377625315E+00 -0.66207822184E+01  0.66663443872E+01  0.00000000000E+00 0. -1.
        -15    1    1    2    0    0  0.15135271309E+01 -0.17071660691E+01 -0.14071394945E+03  0.14074366231E+03  0.17770000000E+01 0. -1.
         15    1    1    2    0    0  0.10355037548E+01  0.39446437941E+01 -0.34970670700E+02  0.35252489570E+02  0.17770000000E+01 0. -1.
</event>
<event>
 6    1  0.1045352E-002  0.1841321E+03  0.7546771E-02  0.1067163E+00
        -11   -1    0    0    0    0  0.00000000000E+00  0.00000000000E+00  0.18250000000E+03  0.18250000000E+03  0.00000000000E+00 0. -1.
         11   -1    0    0    0    0 -0.00000000000E+00 -0.00000000000E+00 -0.18250000000E+03  0.18250000000E+03  0.00000000000E+00 0. -1.
        -11    1    1    2    0    0 -0.25372335265E+01  0.11008148584E+00  0.13614226383E+03  0.13616594902E+03  0.00000000000E+00 0. -1.
         11    1    1    2    0    0  0.29141675361E+01  0.43988414217E+00 -0.18084385205E+03  0.18086786529E+03  0.00000000000E+00 0. -1.
        -15    1    1    2    0    0  0.15596787105E+01  0.17967347402E+01 -0.15287390891E+00  0.29735421367E+01  0.17770000000E+01 0.  1.
         15    1    1    2    0    0 -0.19366127201E+01 -0.23467003682E+01  0.44854462128E+02  0.44992643546E+02  0.17770000000E+01 0. -1.
</event>
<event>
 6    1  0.1045352E-002  0.1840812E+03  0.7546771E-02  0.1067203E+00
        -11   -1    0    0    0    0  0.00000000000E+00  0.00000000000E+00  0.18250000000E+03  0.18250000000E+03  0.00000000000E+00 0. -1.
         11   -1    0    0    0    0 -0.00000000000E+00 -0.00000000000E+00 -0.18250000000E+03  0.18250000000E+03  0.00000000000E+00 0.  1.
        -11    1    1    2    0    0 -0.41148920914E+01 -0.14608557823E+01  0.18086611500E+03  0.18091881603E+03  0.00000000000E+00 0. -1.
         11    1    1    2    0    0  0.22955733401E+01  0.26827650190E+01 -0.17216673596E+03  0.17220293800E+03  0.00000000000E+00 0.  1.
        -15    1    1    2    0    0  0.12589347894E+01  0.20388186239E+01 -0.73436383975E+00  0.30722495723E+01  0.17770000000E+01 0.  1.
         15    1    1    2    0    0  0.56038396181E+00 -0.32607278605E+01 -0.79650152060E+01  0.88059963999E+01  0.17770000000E+01 0. -1.
</event>
<event>
 6    1  0.1045352E-002  0.1896446E+03  0.7546771E-02  0.1062906E+00
        -11   -1    0    0    0    0  0.00000000000E+00  0.00000000000E+00  0.18250000000E+03  0.18250000000E+03  0.00000000000E+00 0. -1.
         11   -1    0    0    0    0 -0.00000000000E+00 -0.00000000000E+00 -0.18250000000E+03  0.18250000000E+03  0.00000000000E+00 0. -1.
        -11    1    1    2    0    0 -0.42808486479E+01 -0.29422204236E+01  0.17527844699E+03  0.17535539999E+03  0.00000000000E+00 0. -1.
         11    1    1    2    0    0 -0.58733063747E+01 -0.53256683025E+01 -0.16622802867E+03  0.16641699429E+03  0.00000000000E+00 0. -1.
        -15    1    1    2    0    0  0.11555878178E+02  0.72144268248E+01  0.10408597142E+00  0.13738807727E+02  0.17770000000E+01 0.  1.
         15    1    1    2    0    0 -0.14017231558E+01  0.10534619013E+01 -0.91545042849E+01  0.94887980000E+01  0.17770000000E+01 0. -1.
</event>
<event>
 6    1  0.1045352E-002  0.1905775E+03  0.7546771E-02  0.1062201E+00
        -11   -1    0    0    0    0  0.00000000000E+00  0.00000000000E+00  0.18250000000E+03  0.18250000000E+03  0.00000000000E+00 0. -1.
         11   -1    0    0    0    0 -0.00000000000E+00 -0.00000000000E+00 -0.18250000000E+03  0.18250000000E+03  0.00000000000E+00 0. -1.
        -11    1    1    2    0    0  0.78609041952E+01  0.10199419952E+02  0.17394646177E+03  0.17442245711E+03  0.00000000000E+00 0. -1.
         11    1    1    2    0    0 -0.11420571243E+01 -0.32006422229E+01 -0.16796496166E+03  0.16799933556E+03  0.00000000000E+00 0. -1.
        -15    1    1    2    0    0 -0.88650143395E-01  0.35367831022E+01 -0.88372923595E+01  0.96836025738E+01  0.17770000000E+01 0.  1.
         15    1    1    2    0    0 -0.66301969275E+01 -0.10535560832E+02  0.28557922418E+01  0.12894604750E+02  0.17770000000E+01 0.  1.
</event>
<event>
 6    1  0.1045352E-002  0.1868146E+03  0.7546771E-02  0.1065071E+00
        -11   -1    0    0    0    0  0.00000000000E+00  0.00000000000E+00  0.18250000000E+03  0.18250000000E+03  0.00000000000E+00 0.  1.
         11   -1    0    0    0    0 -0.00000000000E+00 -0.00000000000E+00 -0.18250000000E+03  0.18250000000E+03  0.00000000000E+00 0. -1.
        -11    1    1    2    0    0  0.39548840427E+00 -0.50846726201E+01  0.17315454182E+03  0.17322963274E+03  0.00000000000E+00 0.  1.
         11    1    1    2    0    0  0.43184440577E+01  0.42168621870E+01 -0.17808315415E+03  0.17818541096E+03  0.00000000000E+00 0. -1.
        -15    1    1    2    0    0 -0.13179101374E+01 -0.51042442980E+01  0.21411529512E+01  0.59609111673E+01  0.17770000000E+01 0. -1.
         15    1    1    2    0    0 -0.33960223246E+01  0.59720547312E+01  0.27874593775E+01  0.76240451286E+01  0.17770000000E+01 0.  1.
</event>
<event>
 6    1  0.1045352E-002  0.1835748E+03  0.7546771E-02  0.1067602E+00
        -11   -1    0    0    0    0  0.00000000000E+00  0.00000000000E+00  0.18250000000E+03  0.18250000000E+03  0.00000000000E+00 0. -1.
         11   -1    0    0    0    0 -0.00000000000E+00 -0.00000000000E+00 -0.18250000000E+03  0.18250000000E+03  0.00000000000E+00 0. -1.
        -11    1    1    2    0    0  0.21004951396E+01 -0.25939300401E+01  0.18139447686E+03  0.18142518234E+03  0.00000000000E+00 0. -1.
         11    1    1    2    0    0  0.65888612069E+00 -0.10413856192E+01 -0.77907863598E+02  0.77917609212E+02  0.00000000000E+00 0. -1.
        -15    1    1    2    0    0  0.19459997199E+01  0.86479965915E+01 -0.20972300245E+02  0.22837904162E+02  0.17770000000E+01 0.  1.
         15    1    1    2    0    0 -0.47053809802E+01 -0.50126809322E+01 -0.82514313017E+02  0.82819304283E+02  0.17770000000E+01 0. -1.
</event>
<event>
 6    1  0.1045352E-002  0.1788506E+03  0.7546771E-02  0.1071397E+00
        -11   -1    0    0    0    0  0.00000000000E+00  0.00000000000E+00  0.18250000000E+03  0.18250000000E+03  0.00000000000E+00 0. -1.
         11   -1    0    0    0    0 -0.00000000000E+00 -0.00000000000E+00 -0.18250000000E+03  0.18250000000E+03  0.00000000000E+00 0. -1.
        -11    1    1    2    0    0  0.27415826420E+01 -0.16593376346E-01  0.17983935936E+03  0.17986025610E+03  0.00000000000E+00 0. -1.
         11    1    1    2    0    0  0.10294771222E+01  0.30718407366E+01 -0.17784987270E+03  0.17787937836E+03  0.00000000000E+00 0. -1.
        -15    1    1    2    0    0 -0.88460924642E+00 -0.25303509517E+01  0.14699384740E+00  0.32194014427E+01  0.17770000000E+01 0.  1.
         15    1    1    2    0    0 -0.28864505177E+01 -0.52489640852E+00 -0.21364805077E+01  0.40409640917E+01  0.17770000000E+01 0. -1.
</event>
<event>
 6    1  0.1045352E-002  0.1827426E+03  0.7546771E-02  0.1068262E+00
        -11   -1    0    0    0    0  0.00000000000E+00  0.00000000000E+00  0.18250000000E+03  0.18250000000E+03  0.00000000000E+00 0. -1.
         11   -1    0    0    0    0 -0.00000000000E+00 -0.00000000000E+00 -0.18250000000E+03  0.18250000000E+03  0.00000000000E+00 0. -1.
        -11    1    1    2    0    0  0.21623925514E+01  0.43996956850E+00  0.14538358925E+03  0.14540033542E+03  0.00000000000E+00 0. -1.
         11    1    1    2    0    0 -0.18872538475E+01 -0.32168403512E+01 -0.18221925904E+03  0.18225742276E+03  0.00000000000E+00 0. -1.
        -15    1    1    2    0    0 -0.48486276280E+00  0.19691110286E+01  0.32137146820E+02  0.32250060851E+02  0.17770000000E+01 0. -1.
         15    1    1    2    0    0  0.20972405890E+00  0.80775975408E+00  0.46985229630E+01  0.50921809704E+01  0.17770000000E+01 0.  1.
</event>
<event>
 6    1  0.1045352E-002  0.1864301E+03  0.7546771E-02  0.1065369E+00
        -11   -1    0    0    0    0  0.00000000000E+00  0.00000000000E+00  0.18250000000E+03  0.18250000000E+03  0.00000000000E+00 0. -1.
         11   -1    0    0    0    0 -0.00000000000E+00 -0.00000000000E+00 -0.18250000000E+03  0.18250000000E+03  0.00000000000E+00 0.  1.
        -11    1    1    2    0    0  0.96894205534E+00 -0.25627435816E+01  0.14329476508E+03  0.14332095521E+03  0.00000000000E+00 0. -1.
         11    1    1    2    0    0 -0.30292872852E+01  0.25519899166E+01 -0.17852597480E+03  0.17856991043E+03  0.00000000000E+00 0.  1.
        -15    1    1    2    0    0  0.28797508013E+01  0.73222272842E+01  0.10907426718E+01  0.81397435866E+01  0.17770000000E+01 0.  1.
         15    1    1    2    0    0 -0.81940557143E+00 -0.73114736192E+01  0.34140467041E+02  0.34969390769E+02  0.17770000000E+01 0. -1.
</event>
<event>
 6    1  0.1045352E-002  0.1789917E+03  0.7546771E-02  0.1071282E+00
        -11   -1    0    0    0    0  0.00000000000E+00  0.00000000000E+00  0.18250000000E+03  0.18250000000E+03  0.00000000000E+00 0. -1.
         11   -1    0    0    0    0 -0.00000000000E+00 -0.00000000000E+00 -0.18250000000E+03  0.18250000000E+03  0.00000000000E+00 0.  1.
        -11    1    1    2    0    0  0.74140505597E+00  0.26844789584E+01  0.17882319694E+03  0.17884488215E+03  0.00000000000E+00 0. -1.
         11    1    1    2    0    0  0.21008175056E+01  0.16380152814E+01 -0.17915623071E+03  0.17917603503E+03  0.00000000000E+00 0.  1.
        -15    1    1    2    0    0 -0.17396314672E-01 -0.15572358279E+01  0.10508603478E+01  0.25859857939E+01  0.17770000000E+01 0. -1.
         15    1    1    2    0    0 -0.28248262469E+01 -0.27652584119E+01 -0.71782657890E+00  0.43930970177E+01  0.17770000000E+01 0.  1.
</event>
<event>
 6    1  0.1045352E-002  0.1828838E+03  0.7546771E-02  0.1068150E+00
        -11   -1    0    0    0    0  0.00000000000E+00  0.00000000000E+00  0.18250000000E+03  0.18250000000E+03  0.00000000000E+00 0.  1.
         11   -1    0    0    0    0 -0.00000000000E+00 -0.00000000000E+00 -0.18250000000E+03  0.18250000000E+03  0.00000000000E+00 0. -1.
        -11    1    1    2    0    0  0.13887298783E+01  0.30034960449E+01  0.12094085571E+03  0.12098611548E+03  0.00000000000E+00 0.  1.
         11    1    1    2    0    0 -0.10917938927E+01 -0.28323670215E+01 -0.18209086684E+03  0.18211616650E+03  0.00000000000E+00 0. -1.
        -15    1    1    2    0    0 -0.17062009914E+01  0.12930137639E+01  0.53298948049E+01  0.60123634328E+01  0.17770000000E+01 0. -1.
         15    1    1    2    0    0  0.14092650058E+01 -0.14641427873E+01  0.55820116324E+02  0.55885354587E+02  0.17770000000E+01 0.  1.
</event>
<event>
 6    1  0.1045352E-002  0.1827305E+03  0.7546771E-02  0.1068271E+00
        -11   -1    0    0    0    0  0.00000000000E+00  0.00000000000E+00  0.18250000000E+03  0.18250000000E+03  0.00000000000E+00 0.  1.
         11   -1    0    0    0    0 -0.00000000000E+00 -0.00000000000E+00 -0.18250000000E+03  0.18250000000E+03  0.00000000000E+00 0.  1.
        -11    1    1    2    0    0  0.12042884090E+01 -0.11896936384E+01  0.11992885142E+03  0.11994079825E+03  0.00000000000E+00 0.  1.
         11    1    1    2    0    0  0.32192285709E+01  0.49793649177E+00 -0.18224041309E+03  0.18226952443E+03  0.00000000000E+00 0.  1.
        -15    1    1    2    0    0 -0.32220607600E+01  0.88748927305E+00  0.16544730382E+02  0.16972187401E+02  0.17770000000E+01 0. -1.
         15    1    1    2    0    0 -0.12014562199E+01 -0.19573212641E+00  0.45766831284E+02  0.45817489923E+02  0.17770000000E+01 0.  1.
</event>
<event>
 6    1  0.1045352E-002  0.1763405E+03  0.7546771E-02  0.1073466E+00
        -11   -1    0    0    0    0  0.00000000000E+00  0.00000000000E+00  0.18250000000E+03  0.18250000000E+03  0.00000000000E+00 0.  1.
         11   -1    0    0    0    0 -0.00000000000E+00 -0.00000000000E+00 -0.18250000000E+03  0.18250000000E+03  0.00000000000E+00 0.  1.
        -11    1    1    2    0    0 -0.12689126489E+01 -0.50495379406E+01  0.17678221782E+03  0.17685887174E+03  0.00000000000E+00 0.  1.
         11    1    1    2    0    0  0.12156501564E+01 -0.37648266830E+01 -0.17588880547E+03  0.17593329308E+03  0.00000000000E+00 0.  1.
        -15    1    1    2    0    0  0.33324951759E+01  0.25301004956E+01  0.10091163468E+01  0.46564984073E+01  0.17770000000E+01 0. -1.
         15    1    1    2    0    0 -0.32792326835E+01  0.62842641280E+01 -0.19025287013E+01  0.75513367745E+01  0.17770000000E+01 0.  1.
</event>
<event>
 6    1  0.1045352E-002  0.1833637E+03  0.7546771E-02  0.1067769E+00
        -11   -1    0    0    0    0  0.00000000000E+00  0.00000000000E+00  0.18250000000E+03  0.18250000000E+03  0.00000000000E+00 0.  1.
         11   -1    0    0    0    0 -0.00000000000E+00 -0.00000000000E+00 -0.18250000000E+03  0.18250000000E+03  0.00000000000E+00 0.  1.
        -11    1    1    2    0    0  0.19904401989E+01 -0.43323865601E+01  0.18157372498E+03  0.18163630978E+03  0.00000000000E+00 0.  1.
         11    1    1    2    0    0 -0.32442922250E+01  0.17557141853E+01 -0.13516147694E+03  0.13521180722E+03  0.00000000000E+00 0.  1.
        -15    1    1    2    0    0 -0.30446074081E+01 -0.29589615850E+01 -0.27912318754E+02  0.28289226839E+02  0.17770000000E+01 0.  1.
         15    1    1    2    0    0  0.42984594342E+01  0.55356339597E+01 -0.18499929291E+02  0.19862656157E+02  0.17770000000E+01 0.  1.
</event>
<event>
 6    1  0.1045352E-002  0.1850640E+03  0.7546771E-02  0.1066432E+00
        -11   -1    0    0    0    0  0.00000000000E+00  0.00000000000E+00  0.18250000000E+03  0.18250000000E+03  0.00000000000E+00 0. -1.
         11   -1    0    0    0    0 -0.00000000000E+00 -0.00000000000E+00 -0.18250000000E+03  0.18250000000E+03  0.00000000000E+00 0. -1.
        -11    1    1    2    0    0  0.39918704271E+01  0.35074631569E+01  0.17985749867E+03  0.17993598071E+03  0.00000000000E+00 0. -1.
         11    1    1    2    0    0  0.37782662824E+01  0.11283912652E+01 -0.16856190399E+03  0.16860801890E+03  0.00000000000E+00 0. -1.
        -15    1    1    2    0    0 -0.14049378168E+01 -0.45433113166E+00  0.44145586209E+00  0.23522073302E+01  0.17770000000E+01 0. -1.
         15    1    1    2    0    0 -0.63651988927E+01 -0.41815232904E+01 -0.11737050545E+02  0.14103793053E+02  0.17770000000E+01 0.  1.
</event>
<event>
 6    1  0.1045352E-002  0.1868866E+03  0.7546771E-02  0.1065016E+00
        -11   -1    0    0    0    0  0.00000000000E+00  0.00000000000E+00  0.18250000000E+03  0.18250000000E+03  0.00000000000E+00 0. -1.
         11   -1    0    0    0    0 -0.00000000000E+00 -0.00000000000E+00 -0.18250000000E+03  0.18250000000E+03  0.00000000000E+00 0. -1.
        -11    1    1    2    0    0  0.13801818376E+01  0.59864797929E+01  0.15898690515E+03  0.15910555883E+03  0.00000000000E+00 0. -1.
         11    1    1    2    0    0 -0.19235485104E+01  0.21056019286E+01 -0.17809052840E+03  0.17811336251E+03  0.00000000000E+00 0. -1.
        -15    1    1    2    0    0  0.23812945116E+01  0.43009444186E+00 -0.28211582025E+01  0.41197338971E+01  0.17770000000E+01 0.  1.
         15    1    1    2    0    0 -0.18379278388E+01 -0.85221761634E+01  0.21924781454E+02  0.23661344765E+02  0.17770000000E+01 0.  1.
</event>
<event>
 6    1  0.1045352E-002  0.1838661E+03  0.7546771E-02  0.1067373E+00
        -11   -1    0    0    0    0  0.00000000000E+00  0.00000000000E+00  0.18250000000E+03  0.18250000000E+03  0.00000000000E+00 0. -1.
         11   -1    0    0    0    0 -0.00000000000E+00 -0.00000000000E+00 -0.18250000000E+03  0.18250000000E+03  0.00000000000E+00 0. -1.
        -11    1    1    2    0    0 -0.12950912202E+01  0.21578769621E+01  0.18111644857E+03  0.18113393287E+03  0.00000000000E+00 0. -1.
         11    1    1    2    0    0 -0.31942687566E+01 -0.11893148209E+01 -0.16116475749E+03  0.16120079677E+03  0.00000000000E+00 0. -1.
        -15    1    1    2    0    0  0.16798673472E+01  0.25674262465E+01 -0.16053299542E+02  0.16440188168E+02  0.17770000000E+01 0. -1.
         15    1    1    2    0    0  0.28094926297E+01 -0.35359883877E+01 -0.38983915430E+01  0.62250821952E+01  0.17770000000E+01 0. -1.
</event>
<event>
 6    1  0.1045352E-002  0.2011770E+03  0.7546771E-02  0.1054489E+00
        -11   -1    0    0    0    0  0.00000000000E+00  0.00000000000E+00  0.18250000000E+03  0.18250000000E+03  0.00000000000E+00 0.  1.
         11   -1    0    0    0    0 -0.00000000000E+00 -0.00000000000E+00 -0.18250000000E+03  0.18250000000E+03  0.00000000000E+00 0. -1.
        -11    1    1    2    0    0  0.28991104136E+02  0.16351402383E+02  0.16040613742E+03  0.16382301853E+03  0.00000000000E+00 0.  1.
         11    1    1    2    0    0  0.12647272974E+01 -0.13777161081E+01 -0.12001852015E+03  0.12003309050E+03  0.00000000000E+00 0. -1.
        -15    1    1    2    0    0 -0.27280781564E+02 -0.22348782092E+02  0.44333433955E+01  0.35588219489E+02  0.17770000000E+01 0.  1.
         15    1    1    2    0    0 -0.29750498697E+01  0.73750958166E+01 -0.44820960668E+02  0.45555671482E+02  0.17770000000E+01 0. -1.
</event>
<event>
 6    1  0.1045352E-002  0.1843063E+03  0.7546771E-02  0.1067026E+00
        -11   -1    0    0    0    0  0.00000000000E+00  0.00000000000E+00  0.18250000000E+03  0.18250000000E+03  0.00000000000E+00 0.  1.
         11   -1    0    0    0    0 -0.00000000000E+00 -0.00000000000E+00 -0.18250000000E+03  0.18250000000E+03  0.00000000000E+00 0. -1.
        -11    1    1    2    0    0  0.20088452672E+01 -0.38261816575E+01  0.17065262220E+03  0.17070733022E+03  0.00000000000E+00 0.  1.
         11    1    1    2    0    0 -0.69744005578E+01  0.37657635896E+01 -0.18051979217E+03  0.18069371490E+03  0.00000000000E+00 0. -1.
        -15    1    1    2    0    0  0.31083468595E+01 -0.34662571104E+01  0.55811522822E+01  0.74822288358E+01  0.17770000000E+01 0. -1.
         15    1    1    2    0    0  0.18572084311E+01  0.35266751783E+01  0.42860176830E+01  0.61167260482E+01  0.17770000000E+01 0.  1.
</event>
<event>
 6    1  0.1045352E-002  0.1840926E+03  0.7546771E-02  0.1067194E+00
        -11   -1    0    0    0    0  0.00000000000E+00  0.00000000000E+00  0.18250000000E+03  0.18250000000E+03  0.00000000000E+00 0.  1.
         11   -1    0    0    0    0 -0.00000000000E+00 -0.00000000000E+00 -0.18250000000E+03  0.18250000000E+03  0.00000000000E+00 0. -1.
        -11    1    1    2    0    0 -0.43032637486E+01 -0.24570391356E+01  0.18083947580E+03  0.18090735509E+03  0.00000000000E+00 0.  1.
         11    1    1    2    0    0  0.30097905362E+01  0.89344094781E+01 -0.15232782958E+03  0.15261929818E+03  0.00000000000E+00 0. -1.
        -15    1    1    2    0    0 -0.22320466090E+01 -0.30644039102E+01 -0.23603568711E+01  0.48064141467E+01  0.17770000000E+01 0.  1.
         15    1    1    2    0    0  0.35255198214E+01 -0.34129664322E+01 -0.26151289342E+02  0.26666932579E+02  0.17770000000E+01 0. -1.
</event>
<event>
 6    1  0.1045352E-002  0.1835698E+03  0.7546771E-02  0.1067606E+00
        -11   -1    0    0    0    0  0.00000000000E+00  0.00000000000E+00  0.18250000000E+03  0.18250000000E+03  0.00000000000E+00 0.  1.
         11   -1    0    0    0    0 -0.00000000000E+00 -0.00000000000E+00 -0.18250000000E+03  0.18250000000E+03  0.00000000000E+00 0. -1.
        -11    1    1    2    0    0  0.22347869888E+01 -0.38370895549E+01  0.18137583225E+03  0.18143017955E+03  0.00000000000E+00 0.  1.
         11    1    1    2    0    0  0.15237479395E+01  0.45350990040E+01 -0.14654095697E+03  0.14661903356E+03  0.00000000000E+00 0. -1.
        -15    1    1    2    0    0 -0.44695382279E+01 -0.25319176225E+00 -0.34643276580E+02  0.34976495239E+02  0.17770000000E+01 0. -1.
         15    1    1    2    0    0  0.71100329956E+00 -0.44481768688E+00 -0.19159869324E+00  0.19742916517E+01  0.17770000000E+01 0. -1.
</event>
<event>
 6    1  0.1045352E-002  0.1847465E+03  0.7546771E-02  0.1066681E+00
        -11   -1    0    0    0    0  0.00000000000E+00  0.00000000000E+00  0.18250000000E+03  0.18250000000E+03  0.00000000000E+00 0. -1.
         11   -1    0    0    0    0 -0.00000000000E+00 -0.00000000000E+00 -0.18250000000E+03  0.18250000000E+03  0.00000000000E+00 0. -1.
        -11    1    1    2    0    0  0.32289874433E+01 -0.57623720401E+01  0.11530298847E+03  0.11549203627E+03  0.00000000000E+00 0. -1.
         11    1    1    2    0    0  0.29239782944E+01  0.52050509290E+01 -0.18015464248E+03  0.18025353647E+03  0.00000000000E+00 0. -1.
        -15    1    1    2    0    0 -0.58002546946E+01 -0.27551217289E+00  0.20326238426E+01  0.64037606268E+01  0.17770000000E+01 0.  1.
         15    1    1    2    0    0 -0.35271104300E+00  0.83283328401E+00  0.62819030167E+02  0.62850666635E+02  0.17770000000E+01 0. -1.
</event>
<event>
 6    1  0.1045352E-002  0.1826870E+03  0.7546771E-02  0.1068306E+00
        -11   -1    0    0    0    0  0.00000000000E+00  0.00000000000E+00  0.18250000000E+03  0.18250000000E+03  0.00000000000E+00 0. -1.
         11   -1    0    0    0    0 -0.00000000000E+00 -0.00000000000E+00 -0.18250000000E+03  0.18250000000E+03  0.00000000000E+00 0. -1.
        -11    1    1    2    0    0  0.24440210394E+01  0.23029804543E+01  0.18228207082E+03  0.18231300091E+03  0.00000000000E+00 0. -1.
         11    1    1    2    0    0  0.42468091906E+00  0.17958738753E+01 -0.10398458448E+03  0.10400095829E+03  0.00000000000E+00 0. -1.
        -15    1    1    2    0    0 -0.40970259990E+01 -0.26014956917E+01 -0.54031454142E+02  0.54278072622E+02  0.17770000000E+01 0.  1.
         15    1    1    2    0    0  0.12283240405E+01 -0.14973586379E+01 -0.24266032202E+02  0.24407968179E+02  0.17770000000E+01 0.  1.
</event>
<event>
 6    1  0.1045352E-002  0.1521332E+03  0.7546771E-02  0.1095578E+00
        -11   -1    0    0    0    0  0.00000000000E+00  0.00000000000E+00  0.18250000000E+03  0.18250000000E+03  0.00000000000E+00 0.  1.
         11   -1    0    0    0    0 -0.00000000000E+00 -0.00000000000E+00 -0.18250000000E+03  0.18250000000E+03  0.00000000000E+00 0. -1.
        -11    1    1    2    0    0  0.11817858610E+01  0.26250203464E+01  0.14896101899E+03  0.14898883357E+03  0.00000000000E+00 0.  1.
         11    1    1    2    0    0  0.93028370113E+01 -0.14742699097E+02 -0.15477605221E+03  0.15575466699E+03  0.00000000000E+00 0. -1.
        -15    1    1    2    0    0 -0.17923144139E+02  0.17013431900E+02 -0.20664895113E+02  0.32262851391E+02  0.17770000000E+01 0. -1.
         15    1    1    2    0    0  0.74385212666E+01 -0.48957531490E+01  0.26479928331E+02  0.27993648046E+02  0.17770000000E+01 0. -1.
</event>
<event>
 6    1  0.1045352E-002  0.1871441E+03  0.7546771E-02  0.1064817E+00
        -11   -1    0    0    0    0  0.00000000000E+00  0.00000000000E+00  0.18250000000E+03  0.18250000000E+03  0.00000000000E+00 0.  1.
         11   -1    0    0    0    0 -0.00000000000E+00 -0.00000000000E+00 -0.18250000000E+03  0.18250000000E+03  0.00000000000E+00 0.  1.
        -11    1    1    2    0    0  0.44430067189E+01 -0.22887825313E+01  0.17778563951E+03  0.17785587550E+03  0.00000000000E+00 0.  1.
         11    1    1    2    0    0 -0.15913289936E+01  0.25329875946E+01 -0.17123495763E+03  0.17126108451E+03  0.00000000000E+00 0.  1.
        -15    1    1    2    0    0 -0.19394602422E+01 -0.52750917229E+01  0.15916383654E+01  0.61056646159E+01  0.17770000000E+01 0. -1.
         15    1    1    2    0    0 -0.91221748312E+00  0.50308866595E+01 -0.81423202452E+01  0.97773753785E+01  0.17770000000E+01 0.  1.
</event>
<event>
 6    1  0.1045352E-002  0.1846353E+03  0.7546771E-02  0.1066768E+00
        -11   -1    0    0    0    0  0.00000000000E+00  0.00000000000E+00  0.18250000000E+03  0.18250000000E+03  0.00000000000E+00 0.  1.
         11   -1    0    0    0    0 -0.00000000000E+00 -0.00000000000E+00 -0.18250000000E+03  0.18250000000E+03  0.00000000000E+00 0.  1.
        -11    1    1    2    0    0  0.33703704746E+01 -0.15621257910E+01  0.17568646888E+03  0.17572573796E+03  0.00000000000E+00 0.  1.
         11    1    1    2    0    0 -0.34281878953E+01 -0.16880859058E+01 -0.18032418641E+03  0.18036467035E+03  0.00000000000E+00 0.  1.
        -15    1    1    2    0    0 -0.14314599150E+01  0.92143539626E+00  0.50303799819E+01  0.56000511104E+01  0.17770000000E+01 0.  1.
         15    1    1    2    0    0  0.14892773357E+01  0.23287763006E+01 -0.39266245759E+00  0.33095405793E+01  0.17770000000E+01 0. -1.
</event>
<event>
 6    1  0.1045352E-002  0.1825570E+03  0.7546771E-02  0.1068409E+00
        -11   -1    0    0    0    0  0.00000000000E+00  0.00000000000E+00  0.18250000000E+03  0.18250000000E+03  0.00000000000E+00 0.  1.
         11   -1    0    0    0    0 -0.00000000000E+00 -0.00000000000E+00 -0.18250000000E+03  0.18250000000E+03  0.00000000000E+00 0. -1.
        -11    1    1    2    0    0  0.37515065251E+00  0.76253880108E+00  0.37215762311E+02  0.37225463971E+02  0.00000000000E+00 0.  1.
         11    1    1    2    0    0  0.36705414619E+01 -0.28198080361E+01 -0.18238423054E+03  0.18244295476E+03  0.00000000000E+00 0. -1.
        -15    1    1    2    0    0 -0.44677876575E+00 -0.49003446895E+00  0.60537254350E+02  0.60566959956E+02  0.17770000000E+01 0. -1.
         15    1    1    2    0    0 -0.35989133487E+01  0.25473037040E+01  0.84631213883E+02  0.84764621310E+02  0.17770000000E+01 0. -1.
</event>
<event>
 6    1  0.1045352E-002  0.1856817E+03  0.7546771E-02  0.1065950E+00
        -11   -1    0    0    0    0  0.00000000000E+00  0.00000000000E+00  0.18250000000E+03  0.18250000000E+03  0.00000000000E+00 0. -1.
         11   -1    0    0    0    0 -0.00000000000E+00 -0.00000000000E+00 -0.18250000000E+03  0.18250000000E+03  0.00000000000E+00 0.  1.
        -11    1    1    2    0    0  0.15863228423E+01  0.54723505959E+01  0.16153148323E+03  0.16163193718E+03  0.00000000000E+00 0. -1.
         11    1    1    2    0    0  0.28821371943E+01  0.18727492025E+01 -0.17928533665E+03  0.17931828084E+03  0.00000000000E+00 0.  1.
        -15    1    1    2    0    0  0.45114406407E+01 -0.14601240473E+01  0.36826905245E+01  0.62613894135E+01  0.17770000000E+01 0.  1.
         15    1    1    2    0    0 -0.89799006773E+01 -0.58849757511E+01  0.14071162898E+02  0.17788392566E+02  0.17770000000E+01 0. -1.
</event>
<event>
 6    1  0.1045352E-002  0.1829054E+03  0.7546771E-02  0.1068133E+00
        -11   -1    0    0    0    0  0.00000000000E+00  0.00000000000E+00  0.18250000000E+03  0.18250000000E+03  0.00000000000E+00 0. -1.
         11   -1    0    0    0    0 -0.00000000000E+00 -0.00000000000E+00 -0.18250000000E+03  0.18250000000E+03  0.00000000000E+00 0. -1.
        -11    1    1    2    0    0  0.79311441401E+01  0.44656654438E+01  0.18186700011E+03  0.18209462086E+03  0.00000000000E+00 0. -1.
         11    1    1    2    0    0 -0.53404733333E+00 -0.15384302138E-01 -0.28783027263E+02  0.28787985370E+02  0.00000000000E+00 0. -1.
        -15    1    1    2    0    0 -0.64337996226E+01 -0.36704674256E+00 -0.22951312702E+02  0.23904999156E+02  0.17770000000E+01 0.  1.
         15    1    1    2    0    0 -0.96329718419E+00 -0.40832343991E+01 -0.13013266015E+03  0.13021239461E+03  0.17770000000E+01 0. -1.
</event>
<event>
 6    1  0.1045352E-002  0.1864135E+03  0.7546771E-02  0.1065382E+00
        -11   -1    0    0    0    0  0.00000000000E+00  0.00000000000E+00  0.18250000000E+03  0.18250000000E+03  0.00000000000E+00 0.  1.
         11   -1    0    0    0    0 -0.00000000000E+00 -0.00000000000E+00 -0.18250000000E+03  0.18250000000E+03  0.00000000000E+00 0.  1.
        -11    1    1    2    0    0  0.20039189121E+01  0.36963653637E+01  0.17853698327E+03  0.17858648662E+03  0.00000000000E+00 0.  1.
         11    1    1    2    0    0 -0.16784698226E+01  0.40726169231E+01 -0.17274238948E+03  0.17279854338E+03  0.00000000000E+00 0.  1.
        -15    1    1    2    0    0 -0.45377668818E+00 -0.50164810279E+01 -0.80317964992E+01  0.96456456078E+01  0.17770000000E+01 0. -1.
         15    1    1    2    0    0  0.12832759870E+00 -0.27525012589E+01  0.22372027123E+01  0.39693243920E+01  0.17770000000E+01 0.  1.
</event>
<event>
 6    1  0.1045352E-002  0.1831125E+03  0.7546771E-02  0.1067968E+00
        -11   -1    0    0    0    0  0.00000000000E+00  0.00000000000E+00  0.18250000000E+03  0.18250000000E+03  0.00000000000E+00 0.  1.
         11   -1    0    0    0    0 -0.00000000000E+00 -0.00000000000E+00 -0.18250000000E+03  0.18250000000E+03  0.00000000000E+00 0.  1.
        -11    1    1    2    0    0  0.13313242472E+01 -0.18269935933E+01  0.11366995278E+03  0.11369242937E+03  0.00000000000E+00 0.  1.
         11    1    1    2    0    0  0.21079523636E+01  0.32073203840E+01 -0.18184703510E+03  0.18188753267E+03  0.00000000000E+00 0.  1.
        -15    1    1    2    0    0 -0.36540439751E+01 -0.59375110398E+00  0.63500849083E+01  0.75621349557E+01  0.17770000000E+01 0. -1.
         15    1    1    2    0    0  0.21476736424E+00 -0.78657568674E+00  0.61826997407E+02  0.61857903001E+02  0.17770000000E+01 0.  1.
</event>
<event>
 6    1  0.1045352E-002  0.1825641E+03  0.7546771E-02  0.1068404E+00
        -11   -1    0    0    0    0  0.00000000000E+00  0.00000000000E+00  0.18250000000E+03  0.18250000000E+03  0.00000000000E+00 0.  1.
         11   -1    0    0    0    0 -0.00000000000E+00 -0.00000000000E+00 -0.18250000000E+03  0.18250000000E+03  0.00000000000E+00 0.  1.
        -11    1    1    2    0    0  0.54535616731E+01 -0.34842935736E+01  0.18232112646E+03  0.18243594709E+03  0.00000000000E+00 0.  1.
         11    1    1    2    0    0  0.37176683888E+00  0.51405780394E+00 -0.23509024794E+02  0.23517583056E+02  0.00000000000E+00 0.  1.
        -15    1    1    2    0    0 -0.50505619010E+01  0.60854041833E+00 -0.11626260243E+03  0.11638740890E+03  0.17770000000E+01 0.  1.
         15    1    1    2    0    0 -0.77476661097E+00  0.23616953513E+01 -0.42549499230E+02  0.42659060959E+02  0.17770000000E+01 0. -1.
</event>
<event>
 6    1  0.1045352E-002  0.1861394E+03  0.7546771E-02  0.1065594E+00
        -11   -1    0    0    0    0  0.00000000000E+00  0.00000000000E+00  0.18250000000E+03  0.18250000000E+03  0.00000000000E+00 0.  1.
         11   -1    0    0    0    0 -0.00000000000E+00 -0.00000000000E+00 -0.18250000000E+03  0.18250000000E+03  0.00000000000E+00 0. -1.
        -11    1    1    2    0    0  0.30352139893E+01  0.28413200962E+00  0.16174651163E+03  0.16177523692E+03  0.00000000000E+00 0.  1.
         11    1    1    2    0    0  0.56365135634E+01  0.13706830521E+01 -0.17876655358E+03  0.17886064334E+03  0.00000000000E+00 0. -1.
        -15    1    1    2    0    0 -0.81140103213E+01 -0.32271648002E+01  0.19808707973E+01  0.91287093424E+01  0.17770000000E+01 0. -1.
         15    1    1    2    0    0 -0.55771723142E+00  0.15723497385E+01  0.15039171152E+02  0.15235410403E+02  0.17770000000E+01 0. -1.
</event>
<event>
 6    1  0.1045352E-002  0.1840450E+03  0.7546771E-02  0.1067232E+00
        -11   -1    0    0    0    0  0.00000000000E+00  0.00000000000E+00  0.18250000000E+03  0.18250000000E+03  0.00000000000E+00 0. -1.
         11   -1    0    0    0    0 -0.00000000000E+00 -0.00000000000E+00 -0.18250000000E+03  0.18250000000E+03  0.00000000000E+00 0.  1.
        -11    1    1    2    0    0  0.53613193968E+00  0.33320963682E+01  0.15557390929E+03  0.15561051236E+03  0.00000000000E+00 0. -1.
         11    1    1    2    0    0  0.27246178893E+01  0.13384983971E+01 -0.18092957691E+03  0.18095504116E+03  0.00000000000E+00 0.  1.
        -15    1    1    2    0    0 -0.52043895206E+01 -0.47388477420E+01  0.24664817350E+02  0.25710956655E+02  0.17770000000E+01 0. -1.
         15    1    1    2    0    0  0.19436396916E+01  0.68252976734E-01  0.69085027000E+00  0.27234898228E+01  0.17770000000E+01 0. -1.
</event>
<event>
 6    1  0.1045352E-002  0.1833463E+03  0.7546771E-02  0.1067783E+00
        -11   -1    0    0    0    0  0.00000000000E+00  0.00000000000E+00  0.18250000000E+03  0.18250000000E+03  0.00000000000E+00 0.  1.
         11   -1    0    0    0    0 -0.00000000000E+00 -0.00000000000E+00 -0.18250000000E+03  0.18250000000E+03  0.00000000000E+00 0. -1.
        -11    1    1    2    0    0 -0.10969091634E+01 -0.22239101384E+01  0.18163673207E+03  0.18165365788E+03  0.00000000000E+00 0.  1.
         11    1    1    2    0    0 -0.30935387186E+01  0.42076049667E+01 -0.13812337574E+03  0.13822207076E+03  0.00000000000E+00 0. -1.
        -15    1    1    2    0    0  0.23077164983E+01  0.66936725832E+00 -0.39677731260E+02  0.39790120569E+02  0.17770000000E+01 0. -1.
         15    1    1    2    0    0  0.18827313837E+01 -0.26530620867E+01 -0.38356250714E+01  0.53341507841E+01  0.17770000000E+01 0.  1.
</event>
<event>
 6    1  0.1045352E-002  0.2036542E+03  0.7546771E-02  0.1052761E+00
        -11   -1    0    0    0    0  0.00000000000E+00  0.00000000000E+00  0.18250000000E+03  0.18250000000E+03  0.00000000000E+00 0.  1.
         11   -1    0    0    0    0 -0.00000000000E+00 -0.00000000000E+00 -0.18250000000E+03  0.18250000000E+03  0.00000000000E+00 0.  1.
        -11    1    1    2    0    0  0.40772248726E+01 -0.13655895452E+02  0.16071519154E+03  0.16134583984E+03  0.00000000000E+00 0.  1.
         11    1    1    2    0    0 -0.22981572517E+01  0.18735841987E+01 -0.14828565125E+03  0.14831529325E+03  0.00000000000E+00 0.  1.
        -15    1    1    2    0    0 -0.22021466897E+02  0.82534755910E+01  0.93257601002E+01  0.25361238024E+02  0.17770000000E+01 0.  1.
         15    1    1    2    0    0  0.20242399277E+02  0.35288356626E+01 -0.21755300387E+02  0.29977628885E+02  0.17770000000E+01 0. -1.
</event>
<event>
 6    1  0.1045352E-002  0.1830962E+03  0.7546771E-02  0.1067981E+00
        -11   -1    0    0    0    0  0.00000000000E+00  0.00000000000E+00  0.18250000000E+03  0.18250000000E+03  0.00000000000E+00 0. -1.
         11   -1    0    0    0    0 -0.00000000000E+00 -0.00000000000E+00 -0.18250000000E+03  0.18250000000E+03  0.00000000000E+00 0.  1.
        -11    1    1    2    0    0  0.10209389451E+01 -0.30278523931E+01  0.97206814768E+02  0.97259318544E+02  0.00000000000E+00 0. -1.
         11    1    1    2    0    0  0.16484658556E+01  0.29991248634E+01 -0.18187156640E+03  0.18190376262E+03  0.00000000000E+00 0.  1.
        -15    1    1    2    0    0  0.59739611319E+00  0.26089202187E-01  0.79226743870E+02  0.79248925772E+02  0.17770000000E+01 0. -1.
         15    1    1    2    0    0 -0.32668009139E+01  0.26383274782E-02  0.54380077640E+01  0.65879930641E+01  0.17770000000E+01 0.  1.
</event>
<event>
 6    1  0.1045352E-002  0.1830887E+03  0.7546771E-02  0.1067987E+00
        -11   -1    0    0    0    0  0.00000000000E+00  0.00000000000E+00  0.18250000000E+03  0.18250000000E+03  0.00000000000E+00 0. -1.
         11   -1    0    0    0    0 -0.00000000000E+00 -0.00000000000E+00 -0.18250000000E+03  0.18250000000E+03  0.00000000000E+00 0. -1.
        -11    1    1    2    0    0 -0.14044089814E+01 -0.37876594762E+01  0.20518935353E+02  0.20912805573E+02  0.00000000000E+00 0. -1.
         11    1    1    2    0    0  0.14731720881E+01 -0.21358350509E+01 -0.18189282512E+03  0.18191132966E+03  0.00000000000E+00 0. -1.
        -15    1    1    2    0    0 -0.48394249073E+01  0.68994114809E+01  0.13629621652E+03  0.13656807196E+03  0.17770000000E+01 0. -1.
         15    1    1    2    0    0  0.47706618006E+01 -0.97591695385E+00  0.25077673252E+02  0.25607792811E+02  0.17770000000E+01 0.  1.
</event>
<event>
 6    1  0.1045352E-002  0.1857650E+03  0.7546771E-02  0.1065885E+00
        -11   -1    0    0    0    0  0.00000000000E+00  0.00000000000E+00  0.18250000000E+03  0.18250000000E+03  0.00000000000E+00 0.  1.
         11   -1    0    0    0    0 -0.00000000000E+00 -0.00000000000E+00 -0.18250000000E+03  0.18250000000E+03  0.00000000000E+00 0.  1.
        -11    1    1    2    0    0 -0.58676974476E+01  0.59268114279E+01  0.17904082557E+03  0.17923496921E+03  0.00000000000E+00 0.  1.
         11    1    1    2    0    0 -0.29863859617E+00  0.60837598856E+01 -0.16330152572E+03  0.16341508383E+03  0.00000000000E+00 0.  1.
        -15    1    1    2    0    0  0.74900555667E+00 -0.23386464809E+01 -0.17923395483E-01  0.30312253190E+01  0.17770000000E+01 0. -1.
         15    1    1    2    0    0  0.54173304871E+01 -0.96719248326E+01 -0.15721376449E+02  0.19318721646E+02  0.17770000000E+01 0.  1.
</event>
<event>
 6    1  0.1045352E-002  0.1863932E+03  0.7546771E-02  0.1065397E+00
        -11   -1    0    0    0    0  0.00000000000E+00  0.00000000000E+00  0.18250000000E+03  0.18250000000E+03  0.00000000000E+00 0. -1.
         11   -1    0    0    0    0 -0.00000000000E+00 -0.00000000000E+00 -0.18250000000E+03  0.18250000000E+03  0.00000000000E+00 0. -1.
        -11    1    1    2    0    0 -0.62553356274E+00  0.26484279906E+01  0.17858607907E+03  0.17860681146E+03  0.00000000000E+00 0. -1.
         11    1    1    2    0    0  0.71767941909E+01 -0.19969329513E+01 -0.17248298451E+03  0.17264377794E+03  0.00000000000E+00 0. -1.
        -15    1    1    2    0    0 -0.53785507689E+00 -0.11014093013E+01  0.23655002343E+01  0.32024538859E+01  0.17770000000E+01 0.  1.
         15    1    1    2    0    0 -0.60134055513E+01  0.44991426199E+00 -0.84685947947E+01  0.10546956716E+02  0.17770000000E+01 0.  1.
</event>
<event>
 6    1  0.1045352E-002  0.1848009E+03  0.7546771E-02  0.1066638E+00
        -11   -1    0    0    0    0  0.00000000000E+00  0.00000000000E+00  0.18250000000E+03  0.18250000000E+03  0.00000000000E+00 0. -1.
         11   -1    0    0    0    0 -0.00000000000E+00 -0.00000000000E+00 -0.18250000000E+03  0.18250000000E+03  0.00000000000E+00 0.  1.
        -11    1    1    2    0    0  0.30370135137E+01 -0.46671546685E+01  0.18011303251E+03  0.18019908508E+03  0.00000000000E+00 0. -1.
         11    1    1    2    0    0  0.31299749134E+01  0.15646129548E+01 -0.17072994107E+03  0.17076579732E+03  0.00000000000E+00 0.  1.
        -15    1    1    2    0    0  0.76806942936E+00  0.19513128445E+01 -0.45669868276E+01  0.53303517847E+01  0.17770000000E+01 0. -1.
         15    1    1    2    0    0 -0.69350578564E+01  0.11512288691E+01 -0.48161046126E+01  0.87047658222E+01  0.17770000000E+01 0.  1.
</event>
<event>
 6    1  0.1045352E-002  0.1827717E+03  0.7546771E-02  0.1068239E+00
        -11   -1    0    0    0    0  0.00000000000E+00  0.00000000000E+00  0.18250000000E+03  0.18250000000E+03  0.00000000000E+00 0.  1.
         11   -1    0    0    0    0 -0.00000000000E+00 -0.00000000000E+00 -0.18250000000E+03  0.18250000000E+03  0.00000000000E+00 0.  1.
        -11    1    1    2    0    0 -0.15667558218E+01 -0.12626643767E+01  0.72785640159E+02  0.72813449709E+02  0.00000000000E+00 0.  1.
         11    1    1    2    0    0  0.18548162934E+01 -0.36153945281E+01 -0.18218302227E+03  0.18222833211E+03  0.00000000000E+00 0.  1.
        -15    1    1    2    0    0 -0.74564286696E+00  0.65101833078E+01  0.10047226779E+03  0.10070140413E+03  0.17770000000E+01 0.  1.
         15    1    1    2    0    0  0.45758239537E+00 -0.16321244030E+01  0.89251143202E+01  0.92568140493E+01  0.17770000000E+01 0.  1.
</event>
<event>
 6    1  0.1045352E-002  0.1886386E+03  0.7546771E-02  0.1063671E+00
        -11   -1    0    0    0    0  0.00000000000E+00  0.00000000000E+00  0.18250000000E+03  0.18250000000E+03  0.00000000000E+00 0.  1.
         11   -1    0    0    0    0 -0.00000000000E+00 -0.00000000000E+00 -0.18250000000E+03  0.18250000000E+03  0.00000000000E+00 0.  1.
        -11    1    1    2    0    0 -0.36661393530E+01  0.67102701235E+00  0.17008425667E+03  0.17012508698E+03  0.00000000000E+00 0.  1.
         11    1    1    2    0    0  0.92411213864E+01  0.31386229105E+01 -0.17609112348E+03  0.17636137062E+03  0.00000000000E+00 0.  1.
        -15    1    1    2    0    0  0.44749533550E+01  0.24169585429E+01  0.69792187133E+00  0.54324690580E+01  0.17770000000E+01 0. -1.
         15    1    1    2    0    0 -0.10049935388E+02 -0.62266084658E+01  0.53089449400E+01  0.13081073338E+02  0.17770000000E+01 0.  1.
</event>
<event>
 6    1  0.1045352E-002  0.1828255E+03  0.7546771E-02  0.1068196E+00
        -11   -1    0    0    0    0  0.00000000000E+00  0.00000000000E+00  0.18250000000E+03  0.18250000000E+03  0.00000000000E+00 0. -1.
         11   -1    0    0    0    0 -0.00000000000E+00 -0.00000000000E+00 -0.18250000000E+03  0.18250000000E+03  0.00000000000E+00 0. -1.
        -11    1    1    2    0    0 -0.56457903670E+00 -0.20257558422E+01  0.11952928213E+03  0.11954778008E+03  0.00000000000E+00 0. -1.
         11    1    1    2    0    0  0.24106944597E+01  0.28023839081E+01 -0.18213695665E+03  0.18217446523E+03  0.00000000000E+00 0. -1.
        -15    1    1    2    0    0  0.69845288196E+00 -0.18210874432E+01  0.54058807314E+02  0.54123161152E+02  0.17770000000E+01 0.  1.
         15    1    1    2    0    0 -0.25445683049E+01  0.10444593773E+01  0.85488672130E+01  0.91545935396E+01  0.17770000000E+01 0. -1.
</event>
<event>
 6    1  0.1045352E-002  0.1830690E+03  0.7546771E-02  0.1068003E+00
        -11   -1    0    0    0    0  0.00000000000E+00  0.00000000000E+00  0.18250000000E+03  0.18250000000E+03  0.00000000000E+00 0.  1.
         11   -1    0    0    0    0 -0.00000000000E+00 -0.00000000000E+00 -0.18250000000E+03  0.18250000000E+03  0.00000000000E+00 0.  1.
        -11    1    1    2    0    0  0.77866188580E+01 -0.11449259426E+01  0.18176068854E+03  0.18193100392E+03  0.00000000000E+00 0.  1.
         11    1    1    2    0    0 -0.32609223231E+01  0.30026057469E+01 -0.11956232147E+03  0.11964446486E+03  0.00000000000E+00 0.  1.
        -15    1    1    2    0    0  0.90581613326E+00 -0.25179914061E+01 -0.47966298648E+02  0.48073738346E+02  0.17770000000E+01 0.  1.
         15    1    1    2    0    0 -0.54315126682E+01  0.66031160186E+00 -0.14232068424E+02  0.15350792876E+02  0.17770000000E+01 0. -1.
</event>
<event>
 6    1  0.1045352E-002  0.1844837E+03  0.7546771E-02  0.1066887E+00
        -11   -1    0    0    0    0  0.00000000000E+00  0.00000000000E+00  0.18250000000E+03  0.18250000000E+03  0.00000000000E+00 0.  1.
         11   -1    0    0    0    0 -0.00000000000E+00 -0.00000000000E+00 -0.18250000000E+03  0.18250000000E+03  0.00000000000E+00 0. -1.
        -11    1    1    2    0    0  0.10852723933E+01  0.25751745413E+01  0.18049463786E+03  0.18051626973E+03  0.00000000000E+00 0.  1.
         11    1    1    2    0    0 -0.33490834667E+01  0.16966592010E+01 -0.16554155692E+03  0.16558412388E+03  0.00000000000E+00 0. -1.
        -15    1    1    2    0    0  0.15368619730E+01 -0.32664014452E+01 -0.24317851220E+00  0.40309041063E+01  0.17770000000E+01 0.  1.
         15    1    1    2    0    0  0.72694910042E+00 -0.10054322971E+01 -0.14709902431E+02  0.14868702284E+02  0.17770000000E+01 0. -1.
</event>
<event>
 6    1  0.1045352E-002  0.1854071E+03  0.7546771E-02  0.1066164E+00
        -11   -1    0    0    0    0  0.00000000000E+00  0.00000000000E+00  0.18250000000E+03  0.18250000000E+03  0.00000000000E+00 0. -1.
         11   -1    0    0    0    0 -0.00000000000E+00 -0.00000000000E+00 -0.18250000000E+03  0.18250000000E+03  0.00000000000E+00 0.  1.
        -11    1    1    2    0    0 -0.39844028561E+01 -0.33993868453E+01  0.16827927674E+03  0.16836076228E+03  0.00000000000E+00 0. -1.
         11    1    1    2    0    0 -0.21672494994E+01 -0.19120775243E+01 -0.17956963800E+03  0.17959289491E+03  0.00000000000E+00 0.  1.
        -15    1    1    2    0    0  0.58066280021E+01  0.36568688626E+01  0.18968106120E+01  0.73379314613E+01  0.17770000000E+01 0. -1.
         15    1    1    2    0    0  0.34502435337E+00  0.16545955070E+01  0.93935506478E+01  0.97084113463E+01  0.17770000000E+01 0.  1.
</event>
<event>
 6    1  0.1045352E-002  0.1946836E+03  0.7546771E-02  0.1059150E+00
        -11   -1    0    0    0    0  0.00000000000E+00  0.00000000000E+00  0.18250000000E+03  0.18250000000E+03  0.00000000000E+00 0. -1.
         11   -1    0    0    0    0 -0.00000000000E+00 -0.00000000000E+00 -0.18250000000E+03  0.18250000000E+03  0.00000000000E+00 0. -1.
        -11    1    1    2    0    0 -0.54023114699E+01  0.16105806214E+01  0.17022308141E+03  0.17031640081E+03  0.00000000000E+00 0. -1.
         11    1    1    2    0    0 -0.32830304441E+01 -0.15954499101E+00 -0.12159005575E+03  0.12163447456E+03  0.00000000000E+00 0. -1.
        -15    1    1    2    0    0  0.11286079647E+02  0.23450636188E+01 -0.59754864195E+02  0.60882480576E+02  0.17770000000E+01 0.  1.
         15    1    1    2    0    0 -0.26007377330E+01 -0.37960992492E+01  0.11121838530E+02  0.12166644055E+02  0.17770000000E+01 0. -1.
</event>
<event>
 6    1  0.1045352E-002  0.2007601E+03  0.7546771E-02  0.1054783E+00
        -11   -1    0    0    0    0  0.00000000000E+00  0.00000000000E+00  0.18250000000E+03  0.18250000000E+03  0.00000000000E+00 0.  1.
         11   -1    0    0    0    0 -0.00000000000E+00 -0.00000000000E+00 -0.18250000000E+03  0.18250000000E+03  0.00000000000E+00 0.  1.
        -11    1    1    2    0    0  0.10568024773E+02  0.24981816563E+01  0.16388048700E+03  0.16423987968E+03  0.00000000000E+00 0.  1.
         11    1    1    2    0    0  0.48431918883E+01  0.10770741860E+01 -0.14785797928E+03  0.14794119992E+03  0.00000000000E+00 0.  1.
        -15    1    1    2    0    0  0.67540879187E+00  0.20826674129E+02 -0.85930981239E+01  0.22609856185E+02  0.17770000000E+01 0.  1.
         15    1    1    2    0    0 -0.16086625453E+02 -0.24401929972E+02 -0.74294095904E+01  0.30209064214E+02  0.17770000000E+01 0. -1.
</event>
<event>
 6    1  0.1045352E-002  0.1825613E+03  0.7546771E-02  0.1068406E+00
        -11   -1    0    0    0    0  0.00000000000E+00  0.00000000000E+00  0.18250000000E+03  0.18250000000E+03  0.00000000000E+00 0.  1.
         11   -1    0    0    0    0 -0.00000000000E+00 -0.00000000000E+00 -0.18250000000E+03  0.18250000000E+03  0.00000000000E+00 0. -1.
        -11    1    1    2    0    0  0.82651371336E-01 -0.68029939346E+00  0.49882354637E+02  0.49887061877E+02  0.00000000000E+00 0.  1.
         11    1    1    2    0    0 -0.22213215853E+01  0.43726340790E+01 -0.18237279948E+03  0.18243873544E+03  0.00000000000E+00 0. -1.
        -15    1    1    2    0    0  0.15164271606E+01 -0.17522300778E+01  0.10718143826E+03  0.10722121198E+03  0.17770000000E+01 0.  1.
         15    1    1    2    0    0  0.62224305340E+00 -0.19401046077E+01  0.25309006588E+02  0.25452990704E+02  0.17770000000E+01 0. -1.
</event>
<event>
 6    1  0.1045352E-002  0.1827317E+03  0.7546771E-02  0.1068271E+00
        -11   -1    0    0    0    0  0.00000000000E+00  0.00000000000E+00  0.18250000000E+03  0.18250000000E+03  0.00000000000E+00 0.  1.
         11   -1    0    0    0    0 -0.00000000000E+00 -0.00000000000E+00 -0.18250000000E+03  0.18250000000E+03  0.00000000000E+00 0. -1.
        -11    1    1    2    0    0 -0.17111722249E+01  0.85001391636E+00  0.78484391129E+02  0.78507644755E+02  0.00000000000E+00 0.  1.
         11    1    1    2    0    0 -0.44050281547E+01  0.21200314553E+01 -0.18220270708E+03  0.18226827830E+03  0.00000000000E+00 0. -1.
        -15    1    1    2    0    0  0.83496381021E+00 -0.40629526311E+01  0.40208567756E+02  0.40460986130E+02  0.17770000000E+01 0. -1.
         15    1    1    2    0    0  0.52812365694E+01  0.10929072595E+01  0.63509748194E+02  0.63763090818E+02  0.17770000000E+01 0.  1.
</event>
<event>
 6    1  0.1045352E-002  0.1772086E+03  0.7546771E-02  0.1072747E+00
        -11   -1    0    0    0    0  0.00000000000E+00  0.00000000000E+00  0.18250000000E+03  0.18250000000E+03  0.00000000000E+00 0.  1.
         11   -1    0    0    0    0 -0.00000000000E+00 -0.00000000000E+00 -0.18250000000E+03  0.18250000000E+03  0.00000000000E+00 0. -1.
        -11    1    1    2    0    0  0.57685663746E+00  0.27196381631E+01  0.17594947532E+03  0.17597143820E+03  0.00000000000E+00 0.  1.
         11    1    1    2    0    0  0.48298371193E+00  0.30266425885E+01 -0.17847656666E+03  0.17850288145E+03  0.00000000000E+00 0. -1.
        -15    1    1    2    0    0 -0.21334331862E+01 -0.25798648417E-01 -0.15696574238E+01  0.31896326055E+01  0.17770000000E+01 0.  1.
         15    1    1    2    0    0  0.10735928368E+01 -0.57204821033E+01  0.40967487661E+01  0.73360477456E+01  0.17770000000E+01 0. -1.
</event>
<event>
 6    1  0.1045352E-002  0.1707141E+03  0.7546771E-02  0.1078244E+00
        -11   -1    0    0    0    0  0.00000000000E+00  0.00000000000E+00  0.18250000000E+03  0.18250000000E+03  0.00000000000E+00 0. -1.
         11   -1    0    0    0    0 -0.00000000000E+00 -0.00000000000E+00 -0.18250000000E+03  0.18250000000E+03  0.00000000000E+00 0. -1.
        -11    1    1    2    0    0  0.31221595724E+01 -0.17601687979E+01  0.17012308087E+03  0.17016083192E+03  0.00000000000E+00 0. -1.
         11    1    1    2    0    0  0.10665005689E+02  0.45878600444E+00 -0.17121743851E+03  0.17154988802E+03  0.00000000000E+00 0. -1.
        -15    1    1    2    0    0  0.29977927624E+01 -0.42431406470E+01  0.49536033850E+00  0.55130857840E+01  0.17770000000E+01 0.  1.
         15    1    1    2    0    0 -0.16784958023E+02  0.55445234405E+01  0.59899729716E+00  0.17776194272E+02  0.17770000000E+01 0. -1.
</event>
<event>
 6    1  0.1045352E-002  0.1854639E+03  0.7546771E-02  0.1066120E+00
        -11   -1    0    0    0    0  0.00000000000E+00  0.00000000000E+00  0.18250000000E+03  0.18250000000E+03  0.00000000000E+00 0. -1.
         11   -1    0    0    0    0 -0.00000000000E+00 -0.00000000000E+00 -0.18250000000E+03  0.18250000000E+03  0.00000000000E+00 0. -1.
        -11    1    1    2    0    0  0.44317571132E+01  0.23290020465E+01  0.17946630511E+03  0.17953612281E+03  0.00000000000E+00 0. -1.
         11    1    1    2    0    0  0.81824318701E+00  0.59196714597E+01 -0.16991186381E+03  0.17001692120E+03  0.00000000000E+00 0. -1.
        -15    1    1    2    0    0 -0.62732234287E+01 -0.48917969915E+01 -0.71050925737E+01  0.10813097589E+02  0.17770000000E+01 0.  1.
         15    1    1    2    0    0  0.10232231285E+01 -0.33568765148E+01 -0.24493487305E+01  0.46338584042E+01  0.17770000000E+01 0. -1.
</event>
<event>
 6    1  0.1045352E-002  0.1855515E+03  0.7546771E-02  0.1066051E+00
        -11   -1    0    0    0    0  0.00000000000E+00  0.00000000000E+00  0.18250000000E+03  0.18250000000E+03  0.00000000000E+00 0.  1.
         11   -1    0    0    0    0 -0.00000000000E+00 -0.00000000000E+00 -0.18250000000E+03  0.18250000000E+03  0.00000000000E+00 0. -1.
        -11    1    1    2    0    0  0.23599061772E+01 -0.70879658397E+00  0.17943153345E+03  0.17944845150E+03  0.00000000000E+00 0.  1.
         11    1    1    2    0    0 -0.12594809348E+01  0.50693442794E+01 -0.16399280719E+03  0.16407597433E+03  0.00000000000E+00 0. -1.
        -15    1    1    2    0    0  0.43420824715E+01 -0.15106299782E+01 -0.18148503215E+00  0.49321748689E+01  0.17770000000E+01 0. -1.
         15    1    1    2    0    0 -0.54425077139E+01 -0.28499177173E+01 -0.15257241231E+02  0.16543399293E+02  0.17770000000E+01 0.  1.
</event>
<event>
 6    1  0.1045352E-002  0.1837713E+03  0.7546771E-02  0.1067447E+00
        -11   -1    0    0    0    0  0.00000000000E+00  0.00000000000E+00  0.18250000000E+03  0.18250000000E+03  0.00000000000E+00 0.  1.
         11   -1    0    0    0    0 -0.00000000000E+00 -0.00000000000E+00 -0.18250000000E+03  0.18250000000E+03  0.00000000000E+00 0. -1.
        -11    1    1    2    0    0  0.45297879940E+01  0.91040168000E+00  0.18116974605E+03  0.18122865307E+03  0.00000000000E+00 0.  1.
         11    1    1    2    0    0  0.30905786912E+01 -0.82158324635E+00 -0.12262340306E+03  0.12266509550E+03  0.00000000000E+00 0. -1.
        -15    1    1    2    0    0 -0.82907161100E+01  0.64701357081E+01 -0.36553299718E+02  0.38077553479E+02  0.17770000000E+01 0. -1.
         15    1    1    2    0    0  0.67034942483E+00 -0.65589541418E+01 -0.21993043272E+02  0.23028697947E+02  0.17770000000E+01 0.  1.
</event>
<event>
 6    1  0.1045352E-002  0.1827695E+03  0.7546771E-02  0.1068241E+00
        -11   -1    0    0    0    0  0.00000000000E+00  0.00000000000E+00  0.18250000000E+03  0.18250000000E+03  0.00000000000E+00 0. -1.
         11   -1    0    0    0    0 -0.00000000000E+00 -0.00000000000E+00 -0.18250000000E+03  0.18250000000E+03  0.00000000000E+00 0. -1.
        -11    1    1    2    0    0 -0.25333719054E+01 -0.11648290341E+01  0.18220920844E+03  0.18223054200E+03  0.00000000000E+00 0. -1.
         11    1    1    2    0    0 -0.13480753347E+01 -0.10676480786E+01 -0.69032152829E+02  0.69053568364E+02  0.00000000000E+00 0. -1.
        -15    1    1    2    0    0  0.30822011984E+01  0.52111484158E+01 -0.44321016598E+02  0.44767915668E+02  0.17770000000E+01 0. -1.
         15    1    1    2    0    0  0.79924604173E+00 -0.29786713031E+01 -0.68856039009E+02  0.68947973965E+02  0.17770000000E+01 0.  1.
</event>
<event>
 6    1  0.1045352E-002  0.1857542E+03  0.7546771E-02  0.1065894E+00
        -11   -1    0    0    0    0  0.00000000000E+00  0.00000000000E+00  0.18250000000E+03  0.18250000000E+03  0.00000000000E+00 0.  1.
         11   -1    0    0    0    0 -0.00000000000E+00 -0.00000000000E+00 -0.18250000000E+03  0.18250000000E+03  0.00000000000E+00 0.  1.
        -11    1    1    2    0    0  0.20480459625E+01  0.55450149496E+00  0.15303354343E+03  0.15304825180E+03  0.00000000000E+00 0.  1.
         11    1    1    2    0    0  0.43524816424E+01 -0.52086142885E+01 -0.17911726986E+03  0.17924583711E+03  0.00000000000E+00 0.  1.
        -15    1    1    2    0    0  0.11611747706E+01  0.23188328874E+01  0.24167999985E+02  0.24371607766E+02  0.17770000000E+01 0.  1.
         15    1    1    2    0    0 -0.75617023756E+01  0.23352799061E+01  0.19157264448E+01  0.83343033223E+01  0.17770000000E+01 0. -1.
</event>
<event>
 6    1  0.1045352E-002  0.1849587E+03  0.7546771E-02  0.1066514E+00
        -11   -1    0    0    0    0  0.00000000000E+00  0.00000000000E+00  0.18250000000E+03  0.18250000000E+03  0.00000000000E+00 0.  1.
         11   -1    0    0    0    0 -0.00000000000E+00 -0.00000000000E+00 -0.18250000000E+03  0.18250000000E+03  0.00000000000E+00 0.  1.
        -11    1    1    2    0    0 -0.38776651446E+01  0.60535247001E+00  0.13621645328E+03  0.13627297928E+03  0.00000000000E+00 0.  1.
         11    1    1    2    0    0  0.80695338586E+01  0.11993834323E+02 -0.17946003184E+03  0.18004130766E+03  0.00000000000E+00 0.  1.
        -15    1    1    2    0    0 -0.43303065318E+01  0.16958652280E+00  0.29390940593E+02  0.29761811641E+02  0.17770000000E+01 0. -1.
         15    1    1    2    0    0  0.13843781779E+00 -0.12768773316E+02  0.13852637967E+02  0.18923901413E+02  0.17770000000E+01 0.  1.
</event>
<event>
 6    1  0.1045352E-002  0.1849995E+03  0.7546771E-02  0.1066482E+00
        -11   -1    0    0    0    0  0.00000000000E+00  0.00000000000E+00  0.18250000000E+03  0.18250000000E+03  0.00000000000E+00 0. -1.
         11   -1    0    0    0    0 -0.00000000000E+00 -0.00000000000E+00 -0.18250000000E+03  0.18250000000E+03  0.00000000000E+00 0.  1.
        -11    1    1    2    0    0 -0.38333514267E+01  0.55376789024E+00  0.17995879326E+03  0.18000046809E+03  0.00000000000E+00 0. -1.
         11    1    1    2    0    0  0.22491626173E+01 -0.78919768619E+00 -0.11745526884E+03  0.11747945244E+03  0.00000000000E+00 0.  1.
        -15    1    1    2    0    0  0.45483081216E+01  0.57792998476E+01 -0.38230546469E+01  0.84770802362E+01  0.17770000000E+01 0. -1.
         15    1    1    2    0    0 -0.29641193121E+01 -0.55438700517E+01 -0.58680469764E+02  0.59042999239E+02  0.17770000000E+01 0.  1.
</event>
<event>
 6    1  0.1045352E-002  0.1839717E+03  0.7546771E-02  0.1067289E+00
        -11   -1    0    0    0    0  0.00000000000E+00  0.00000000000E+00  0.18250000000E+03  0.18250000000E+03  0.00000000000E+00 0. -1.
         11   -1    0    0    0    0 -0.00000000000E+00 -0.00000000000E+00 -0.18250000000E+03  0.18250000000E+03  0.00000000000E+00 0.  1.
        -11    1    1    2    0    0  0.60752595818E+01 -0.40857550398E+01  0.14213697129E+03  0.14232540455E+03  0.00000000000E+00 0. -1.
         11    1    1    2    0    0 -0.49665275216E+01  0.75999348376E+01 -0.18080050409E+03  0.18102830630E+03  0.00000000000E+00 0.  1.
        -15    1    1    2    0    0  0.10925322982E+01 -0.82214504015E+01  0.13920134655E+02  0.16300728553E+02  0.17770000000E+01 0.  1.
         15    1    1    2    0    0 -0.22012643585E+01  0.47072706038E+01  0.24743398139E+02  0.25345560594E+02  0.17770000000E+01 0.  1.
</event>
<event>
 6    1  0.1045352E-002  0.1829908E+03  0.7546771E-02  0.1068065E+00
        -11   -1    0    0    0    0  0.00000000000E+00  0.00000000000E+00  0.18250000000E+03  0.18250000000E+03  0.00000000000E+00 0. -1.
         11   -1    0    0    0    0 -0.00000000000E+00 -0.00000000000E+00 -0.18250000000E+03  0.18250000000E+03  0.00000000000E+00 0.  1.
        -11    1    1    2    0    0  0.54196765051E+01 -0.42890568138E+01  0.18187796561E+03  0.18200923954E+03  0.00000000000E+00 0. -1.
         11    1    1    2    0    0 -0.38988524954E+01  0.11023280687E+01 -0.15001202509E+03  0.15006673132E+03  0.00000000000E+00 0.  1.
        -15    1    1    2    0    0 -0.74210973000E+00 -0.14852759243E+01 -0.47089844155E+01  0.52999089282E+01  0.17770000000E+01 0. -1.
         15    1    1    2    0    0 -0.77871427974E+00  0.46720046694E+01 -0.27156956105E+02  0.27624120212E+02  0.17770000000E+01 0.  1.
</event>
<event>
 6    1  0.1045352E-002  0.1858409E+03  0.7546771E-02  0.1065826E+00
        -11   -1    0    0    0    0  0.00000000000E+00  0.00000000000E+00  0.18250000000E+03  0.18250000000E+03  0.00000000000E+00 0. -1.
         11   -1    0    0    0    0 -0.00000000000E+00 -0.00000000000E+00 -0.18250000000E+03  0.18250000000E+03  0.00000000000E+00 0. -1.
        -11    1    1    2    0    0 -0.23478286327E+01  0.90744780640E-01  0.16884576148E+03  0.16886210855E+03  0.00000000000E+00 0. -1.
         11    1    1    2    0    0 -0.46683806931E+01 -0.52174744459E+01 -0.17902224383E+03  0.17915909020E+03  0.00000000000E+00 0. -1.
        -15    1    1    2    0    0  0.48601394350E+01  0.39292210991E+01  0.14740922452E+00  0.64991685817E+01  0.17770000000E+01 0. -1.
         15    1    1    2    0    0  0.21560698908E+01  0.11975085662E+01  0.10029073121E+02  0.10479632666E+02  0.17770000000E+01 0.  1.
</event>
<event>
 6    1  0.1045352E-002  0.1840525E+03  0.7546771E-02  0.1067226E+00
        -11   -1    0    0    0    0  0.00000000000E+00  0.00000000000E+00  0.18250000000E+03  0.18250000000E+03  0.00000000000E+00 0. -1.
         11   -1    0    0    0    0 -0.00000000000E+00 -0.00000000000E+00 -0.18250000000E+03  0.18250000000E+03  0.00000000000E+00 0.  1.
        -11    1    1    2    0    0  0.27637320044E+01  0.68242344568E+01  0.18079762914E+03  0.18094748159E+03  0.00000000000E+00 0. -1.
         11    1    1    2    0    0 -0.26533391278E+01 -0.16496994211E+01 -0.11278665023E+03  0.11282991708E+03  0.00000000000E+00 0.  1.
        -15    1    1    2    0    0  0.98553513657E+01 -0.31515799502E+01 -0.40499817790E+02  0.41838419864E+02  0.17770000000E+01 0.  1.
         15    1    1    2    0    0 -0.99657442423E+01 -0.20229550855E+01 -0.27511161118E+02  0.29384181469E+02  0.17770000000E+01 0. -1.
</event>
<event>
 6    1  0.1045352E-002  0.1767572E+03  0.7546771E-02  0.1073120E+00
        -11   -1    0    0    0    0  0.00000000000E+00  0.00000000000E+00  0.18250000000E+03  0.18250000000E+03  0.00000000000E+00 0.  1.
         11   -1    0    0    0    0 -0.00000000000E+00 -0.00000000000E+00 -0.18250000000E+03  0.18250000000E+03  0.00000000000E+00 0. -1.
        -11    1    1    2    0    0 -0.27483795673E+01  0.20365474937E+01  0.17463011523E+03  0.17466361458E+03  0.00000000000E+00 0.  1.
         11    1    1    2    0    0 -0.37219159946E+01  0.13278170524E+01 -0.17890833946E+03  0.17895197592E+03  0.00000000000E+00 0. -1.
        -15    1    1    2    0    0  0.42811622485E+01 -0.13114296534E+01  0.58336319639E+01  0.75655263415E+01  0.17770000000E+01 0.  1.
         15    1    1    2    0    0  0.21891333134E+01 -0.20529348928E+01 -0.15554077263E+01  0.38188831525E+01  0.17770000000E+01 0. -1.
</event>
<event>
 6    1  0.1045352E-002  0.1832226E+03  0.7546771E-02  0.1067881E+00
        -11   -1    0    0    0    0  0.00000000000E+00  0.00000000000E+00  0.18250000000E+03  0.18250000000E+03  0.00000000000E+00 0.  1.
         11   -1    0    0    0    0 -0.00000000000E+00 -0.00000000000E+00 -0.18250000000E+03  0.18250000000E+03  0.00000000000E+00 0.  1.
        -11    1    1    2    0    0 -0.97583199028E+00  0.29761848586E+01  0.25615525823E+02  0.25806299378E+02  0.00000000000E+00 0.  1.
         11    1    1    2    0    0 -0.12771931947E+01  0.80869512215E+01 -0.18159289379E+03  0.18177736129E+03  0.00000000000E+00 0.  1.
        -15    1    1    2    0    0 -0.26911271712E+01 -0.47374798833E+01  0.13089664918E+03  0.13102204539E+03  0.17770000000E+01 0.  1.
         15    1    1    2    0    0  0.49441523562E+01 -0.63256561968E+01  0.25080718786E+02  0.26394293941E+02  0.17770000000E+01 0. -1.
</event>
<event>
 6    1  0.1045352E-002  0.1767881E+03  0.7546771E-02  0.1073095E+00
        -11   -1    0    0    0    0  0.00000000000E+00  0.00000000000E+00  0.18250000000E+03  0.18250000000E+03  0.00000000000E+00 0.  1.
         11   -1    0    0    0    0 -0.00000000000E+00 -0.00000000000E+00 -0.18250000000E+03  0.18250000000E+03  0.00000000000E+00 0.  1.
        -11    1    1    2    0    0 -0.38394768944E+01 -0.48674709995E+01  0.17744754196E+03  0.17755580532E+03  0.00000000000E+00 0.  1.
         11    1    1    2    0    0  0.50843471530E+01  0.17418746056E+01 -0.17595750706E+03  0.17603956659E+03  0.00000000000E+00 0.  1.
        -15    1    1    2    0    0 -0.30060971084E+01  0.18206142574E+01 -0.53376271318E+01  0.66331929339E+01  0.17770000000E+01 0. -1.
         15    1    1    2    0    0  0.17612268498E+01  0.13049821365E+01  0.38475922398E+01  0.47714351548E+01  0.17770000000E+01 0.  1.
</event>
<event>
 6    1  0.1045352E-002  0.1653120E+03  0.7546771E-02  0.1083024E+00
        -11   -1    0    0    0    0  0.00000000000E+00  0.00000000000E+00  0.18250000000E+03  0.18250000000E+03  0.00000000000E+00 0.  1.
         11   -1    0    0    0    0 -0.00000000000E+00 -0.00000000000E+00 -0.18250000000E+03  0.18250000000E+03  0.00000000000E+00 0.  1.
        -11    1    1    2    0    0  0.86977913206E+01  0.21140678017E+02  0.16864663562E+03  0.17018891723E+03  0.00000000000E+00 0.  1.
         11    1    1    2    0    0 -0.53884190123E+00 -0.59439547029E+01 -0.16086549377E+03  0.16097617226E+03  0.00000000000E+00 0.  1.
        -15    1    1    2    0    0 -0.17773920209E+02 -0.11142007017E+02 -0.63293582153E+00  0.21062167426E+02  0.17770000000E+01 0.  1.
         15    1    1    2    0    0  0.96149707895E+01 -0.40547162976E+01 -0.71482060308E+01  0.12772743088E+02  0.17770000000E+01 0.  1.
</event>
<event>
 6    1  0.1045352E-002  0.1902458E+03  0.7546771E-02  0.1062451E+00
        -11   -1    0    0    0    0  0.00000000000E+00  0.00000000000E+00  0.18250000000E+03  0.18250000000E+03  0.00000000000E+00 0.  1.
         11   -1    0    0    0    0 -0.00000000000E+00 -0.00000000000E+00 -0.18250000000E+03  0.18250000000E+03  0.00000000000E+00 0.  1.
        -11    1    1    2    0    0  0.15894991638E+02  0.29946023593E+01  0.11976865416E+03  0.12085590148E+03  0.00000000000E+00 0.  1.
         11    1    1    2    0    0 -0.11283928430E+01 -0.10121601488E+02 -0.17445714163E+03  0.17475415404E+03  0.00000000000E+00 0.  1.
        -15    1    1    2    0    0  0.61812423311E+01  0.26372291795E+01 -0.31898981879E+01  0.76482621522E+01  0.17770000000E+01 0.  1.
         15    1    1    2    0    0 -0.20947841126E+02  0.44897699487E+01  0.57878385659E+02  0.61741682335E+02  0.17770000000E+01 0. -1.
</event>
<event>
 6    1  0.1045352E-002  0.1958003E+03  0.7546771E-02  0.1058335E+00
        -11   -1    0    0    0    0  0.00000000000E+00  0.00000000000E+00  0.18250000000E+03  0.18250000000E+03  0.00000000000E+00 0. -1.
         11   -1    0    0    0    0 -0.00000000000E+00 -0.00000000000E+00 -0.18250000000E+03  0.18250000000E+03  0.00000000000E+00 0.  1.
        -11    1    1    2    0    0  0.78330766139E+01  0.45046588058E+01  0.16895826849E+03  0.16919972084E+03  0.00000000000E+00 0. -1.
         11    1    1    2    0    0  0.58864118840E+01 -0.18681656433E+02 -0.12433445157E+03  0.12586782742E+03  0.00000000000E+00 0.  1.
        -15    1    1    2    0    0  0.10156341989E+02  0.10295970957E+02 -0.43250698133E+02  0.45639225657E+02  0.17770000000E+01 0.  1.
         15    1    1    2    0    0 -0.23875830487E+02  0.38810266702E+01 -0.13731187948E+01  0.24293226086E+02  0.17770000000E+01 0. -1.
</event>
<event>
 6    1  0.1045352E-002  0.1828177E+03  0.7546771E-02  0.1068202E+00
        -11   -1    0    0    0    0  0.00000000000E+00  0.00000000000E+00  0.18250000000E+03  0.18250000000E+03  0.00000000000E+00 0. -1.
         11   -1    0    0    0    0 -0.00000000000E+00 -0.00000000000E+00 -0.18250000000E+03  0.18250000000E+03  0.00000000000E+00 0. -1.
        -11    1    1    2    0    0 -0.20142354291E+01  0.31324896605E+01  0.13415806597E+03  0.13420974741E+03  0.00000000000E+00 0. -1.
         11    1    1    2    0    0 -0.68931674926E+00 -0.27787068364E+01 -0.18215984123E+03  0.18218233758E+03  0.00000000000E+00 0. -1.
        -15    1    1    2    0    0  0.22959651668E+01  0.83270997842E+00  0.43534981197E+02  0.43639628536E+02  0.17770000000E+01 0. -1.
         15    1    1    2    0    0  0.40758701160E+00 -0.11864928026E+01  0.44667940623E+01  0.49682864790E+01  0.17770000000E+01 0. -1.
</event>
<event>
 6    1  0.1045352E-002  0.1851993E+03  0.7546771E-02  0.1066326E+00
        -11   -1    0    0    0    0  0.00000000000E+00  0.00000000000E+00  0.18250000000E+03  0.18250000000E+03  0.00000000000E+00 0. -1.
         11   -1    0    0    0    0 -0.00000000000E+00 -0.00000000000E+00 -0.18250000000E+03  0.18250000000E+03  0.00000000000E+00 0.  1.
        -11    1    1    2    0    0  0.47103773148E+01  0.24360361778E+00  0.17973886827E+03  0.17980074461E+03  0.00000000000E+00 0. -1.
         11    1    1    2    0    0 -0.34057748585E+00  0.27515905741E+01 -0.17170616207E+03  0.17172854549E+03  0.00000000000E+00 0.  1.
        -15    1    1    2    0    0 -0.78040376827E+00  0.18679268716E+00 -0.81238697433E+01  0.83545742055E+01  0.17770000000E+01 0. -1.
         15    1    1    2    0    0 -0.35893960606E+01 -0.31819868790E+01  0.91163546991E-01  0.51161356873E+01  0.17770000000E+01 0.  1.
</event>
<event>
 6    1  0.1045352E-002  0.1827632E+03  0.7546771E-02  0.1068245E+00
        -11   -1    0    0    0    0  0.00000000000E+00  0.00000000000E+00  0.18250000000E+03  0.18250000000E+03  0.00000000000E+00 0. -1.
         11   -1    0    0    0    0 -0.00000000000E+00 -0.00000000000E+00 -0.18250000000E+03  0.18250000000E+03  0.00000000000E+00 0. -1.
        -11    1    1    2    0    0 -0.93331469768E+00 -0.41449213447E+00  0.46645537092E+01  0.47750331266E+01  0.00000000000E+00 0. -1.
         11    1    1    2    0    0 -0.35891705198E+01 -0.26336170838E+01 -0.18218238927E+03  0.18223677193E+03  0.00000000000E+00 0. -1.
        -15    1    1    2    0    0  0.26818061344E+01 -0.98190496052E+00  0.15142188744E+03  0.15145924186E+03  0.17770000000E+01 0. -1.
         15    1    1    2    0    0  0.18406790830E+01  0.40300141788E+01  0.26095948124E+02  0.26528953075E+02  0.17770000000E+01 0.  1.
</event>
<event>
 6    1  0.1045352E-002  0.1842029E+03  0.7546771E-02  0.1067107E+00
        -11   -1    0    0    0    0  0.00000000000E+00  0.00000000000E+00  0.18250000000E+03  0.18250000000E+03  0.00000000000E+00 0.  1.
         11   -1    0    0    0    0 -0.00000000000E+00 -0.00000000000E+00 -0.18250000000E+03  0.18250000000E+03  0.00000000000E+00 0.  1.
        -11    1    1    2    0    0 -0.31018454014E+01  0.13971480642E+01  0.18076507191E+03  0.18079708153E+03  0.00000000000E+00 0.  1.
         11    1    1    2    0    0 -0.32437805919E+01  0.27976197653E+01 -0.13514426305E+03  0.13521213194E+03  0.00000000000E+00 0.  1.
        -15    1    1    2    0    0  0.56015190960E+01 -0.16477501820E+01 -0.45379557263E+02  0.45788143042E+02  0.17770000000E+01 0. -1.
         15    1    1    2    0    0  0.74410689734E+00 -0.25470176476E+01 -0.24125159080E+00  0.32026434865E+01  0.17770000000E+01 0.  1.
</event>
<event>
 6    1  0.1045352E-002  0.1828718E+03  0.7546771E-02  0.1068159E+00
        -11   -1    0    0    0    0  0.00000000000E+00  0.00000000000E+00  0.18250000000E+03  0.18250000000E+03  0.00000000000E+00 0. -1.
         11   -1    0    0    0    0 -0.00000000000E+00 -0.00000000000E+00 -0.18250000000E+03  0.18250000000E+03  0.00000000000E+00 0.  1.
        -11    1    1    2    0    0 -0.33057708997E+01  0.37325169979E+01  0.18205994846E+03  0.18212820934E+03  0.00000000000E+00 0. -1.
         11    1    1    2    0    0  0.16892353159E+01  0.34159599395E+01 -0.10530316530E+03  0.10537209745E+03  0.00000000000E+00 0.  1.
        -15    1    1    2    0    0  0.37341947031E+01 -0.67088599141E+01 -0.54232381687E+02  0.54802025180E+02  0.17770000000E+01 0.  1.
         15    1    1    2    0    0 -0.21176591194E+01 -0.43961702332E+00 -0.22524401470E+02  0.22697668027E+02  0.17770000000E+01 0. -1.
</event>
<event>
 6    1  0.1045352E-002  0.1830961E+03  0.7546771E-02  0.1067981E+00
        -11   -1    0    0    0    0  0.00000000000E+00  0.00000000000E+00  0.18250000000E+03  0.18250000000E+03  0.00000000000E+00 0. -1.
         11   -1    0    0    0    0 -0.00000000000E+00 -0.00000000000E+00 -0.18250000000E+03  0.18250000000E+03  0.00000000000E+00 0.  1.
        -11    1    1    2    0    0 -0.10689206308E+02  0.47565890728E+01  0.18152726821E+03  0.18190391248E+03  0.00000000000E+00 0. -1.
         11    1    1    2    0    0  0.95594553432E+00 -0.15793392955E+00 -0.29036178624E+02  0.29052339735E+02  0.00000000000E+00 0.  1.
        -15    1    1    2    0    0  0.31974522287E+01 -0.18729795734E+01 -0.54716113723E+01  0.68430996812E+01  0.17770000000E+01 0. -1.
         15    1    1    2    0    0  0.65358085444E+01 -0.27256755699E+01 -0.14701947821E+03  0.14720064811E+03  0.17770000000E+01 0.  1.
</event>
<event>
 6    1  0.1045352E-002  0.1834733E+03  0.7546771E-02  0.1067683E+00
        -11   -1    0    0    0    0  0.00000000000E+00  0.00000000000E+00  0.18250000000E+03  0.18250000000E+03  0.00000000000E+00 0.  1.
         11   -1    0    0    0    0 -0.00000000000E+00 -0.00000000000E+00 -0.18250000000E+03  0.18250000000E+03  0.00000000000E+00 0. -1.
        -11    1    1    2    0    0 -0.65990553680E+00  0.13835061103E+01  0.76517624152E+02  0.76532975705E+02  0.00000000000E+00 0.  1.
         11    1    1    2    0    0  0.25844164663E+01 -0.97486255053E+01 -0.18124633692E+03  0.18152671857E+03  0.00000000000E+00 0. -1.
        -15    1    1    2    0    0  0.57244103843E+01  0.13644768899E+01  0.77602006507E+02  0.77845101415E+02  0.17770000000E+01 0. -1.
         15    1    1    2    0    0 -0.76489213138E+01  0.70006425052E+01  0.27126706257E+02  0.29095204314E+02  0.17770000000E+01 0.  1.
</event>
<event>
 6    1  0.1045352E-002  0.1834166E+03  0.7546771E-02  0.1067728E+00
        -11   -1    0    0    0    0  0.00000000000E+00  0.00000000000E+00  0.18250000000E+03  0.18250000000E+03  0.00000000000E+00 0. -1.
         11   -1    0    0    0    0 -0.00000000000E+00 -0.00000000000E+00 -0.18250000000E+03  0.18250000000E+03  0.00000000000E+00 0. -1.
        -11    1    1    2    0    0  0.98290224167E+00 -0.25233365534E+01  0.12325420778E+03  0.12328395297E+03  0.00000000000E+00 0. -1.
         11    1    1    2    0    0 -0.23286634145E+01  0.26935853084E+01 -0.18154851719E+03  0.18158343033E+03  0.00000000000E+00 0. -1.
        -15    1    1    2    0    0  0.69590477237E+01 -0.10084586131E+01  0.44836078705E+02  0.45418905938E+02  0.17770000000E+01 0. -1.
         15    1    1    2    0    0 -0.56132865509E+01  0.83820985810E+00  0.13458230704E+02  0.14713710761E+02  0.17770000000E+01 0.  1.
</event>
<event>
 6    1  0.1045352E-002  0.1853317E+03  0.7546771E-02  0.1066223E+00
        -11   -1    0    0    0    0  0.00000000000E+00  0.00000000000E+00  0.18250000000E+03  0.18250000000E+03  0.00000000000E+00 0. -1.
         11   -1    0    0    0    0 -0.00000000000E+00 -0.00000000000E+00 -0.18250000000E+03  0.18250000000E+03  0.00000000000E+00 0.  1.
        -11    1    1    2    0    0 -0.12674427612E+01  0.41790400182E+01  0.17961520251E+03  0.17966828256E+03  0.00000000000E+00 0. -1.
         11    1    1    2    0    0  0.45339542119E+00  0.17053299520E+01 -0.12210513119E+03  0.12211788067E+03  0.00000000000E+00 0.  1.
        -15    1    1    2    0    0  0.83758373222E+01 -0.78885054736E+01 -0.10999655915E+02  0.16016657850E+02  0.17770000000E+01 0.  1.
         15    1    1    2    0    0 -0.75617899822E+01  0.20041355034E+01 -0.46510415410E+02  0.47197178914E+02  0.17770000000E+01 0.  1.
</event>
<event>
 6    1  0.1045352E-002  0.1836641E+03  0.7546771E-02  0.1067532E+00
        -11   -1    0    0    0    0  0.00000000000E+00  0.00000000000E+00  0.18250000000E+03  0.18250000000E+03  0.00000000000E+00 0.  1.
         11   -1    0    0    0    0 -0.00000000000E+00 -0.00000000000E+00 -0.18250000000E+03  0.18250000000E+03  0.00000000000E+00 0. -1.
        -11    1    1    2    0    0 -0.32283630233E+01 -0.36543501069E+01  0.18127033827E+03  0.18133590968E+03  0.00000000000E+00 0.  1.
         11    1    1    2    0    0  0.28133467845E+01  0.55276417235E+00 -0.10129283587E+03  0.10133340548E+03  0.00000000000E+00 0. -1.
        -15    1    1    2    0    0 -0.28997131735E+01 -0.12001359676E+01 -0.73903382600E+02  0.73991326191E+02  0.17770000000E+01 0. -1.
         15    1    1    2    0    0  0.33147294123E+01  0.43017219021E+01 -0.60741197984E+01  0.83393586519E+01  0.17770000000E+01 0. -1.
</event>
<event>
 6    1  0.1045352E-002  0.1719317E+03  0.7546771E-02  0.1077193E+00
        -11   -1    0    0    0    0  0.00000000000E+00  0.00000000000E+00  0.18250000000E+03  0.18250000000E+03  0.00000000000E+00 0. -1.
         11   -1    0    0    0    0 -0.00000000000E+00 -0.00000000000E+00 -0.18250000000E+03  0.18250000000E+03  0.00000000000E+00 0. -1.
        -11    1    1    2    0    0  0.23890136222E+01  0.24243746087E+01  0.17201329742E+03  0.17204696878E+03  0.00000000000E+00 0. -1.
         11    1    1    2    0    0  0.11037841056E+02  0.81566416949E+01 -0.17169366607E+03  0.17224134146E+03  0.00000000000E+00 0. -1.
        -15    1    1    2    0    0 -0.13447355264E+02 -0.11106384635E+02 -0.26543070299E+01  0.17730939571E+02  0.17770000000E+01 0. -1.
         15    1    1    2    0    0  0.20500586007E-01  0.52536833114E+00  0.23346756810E+01  0.29807501896E+01  0.17770000000E+01 0.  1.
</event>
<event>
 6    1  0.1045352E-002  0.1853050E+03  0.7546771E-02  0.1066244E+00
        -11   -1    0    0    0    0  0.00000000000E+00  0.00000000000E+00  0.18250000000E+03  0.18250000000E+03  0.00000000000E+00 0.  1.
         11   -1    0    0    0    0 -0.00000000000E+00 -0.00000000000E+00 -0.18250000000E+03  0.18250000000E+03  0.00000000000E+00 0. -1.
        -11    1    1    2    0    0 -0.57181606218E+01  0.22125982009E+01  0.17406593595E+03  0.17417388728E+03  0.00000000000E+00 0.  1.
         11    1    1    2    0    0  0.84786046089E+00 -0.46339339512E+01 -0.17963321740E+03  0.17969497768E+03  0.00000000000E+00 0. -1.
        -15    1    1    2    0    0  0.32280577725E+01 -0.14923288792E+01  0.88541723078E-01  0.39765526657E+01  0.17770000000E+01 0.  1.
         15    1    1    2    0    0  0.16422423883E+01  0.39136646295E+01  0.54787397248E+01  0.71545823684E+01  0.17770000000E+01 0. -1.
</event>
<event>
 6    1  0.1045352E-002  0.2083802E+03  0.7546771E-02  0.1049538E+00
        -11   -1    0    0    0    0  0.00000000000E+00  0.00000000000E+00  0.18250000000E+03  0.18250000000E+03  0.00000000000E+00 0.  1.
         11   -1    0    0    0    0 -0.00000000000E+00 -0.00000000000E+00 -0.18250000000E+03  0.18250000000E+03  0.00000000000E+00 0. -1.
        -11    1    1    2    0    0 -0.83802420117E+01  0.34621782486E+02  0.15251513810E+03  0.15661980599E+03  0.00000000000E+00 0.  1.
         11    1    1    2    0    0  0.32518546076E+01 -0.11391513558E+01 -0.84887747475E+02  0.84957647658E+02  0.00000000000E+00 0. -1.
        -15    1    1    2    0    0  0.10315121168E+02 -0.38180701223E+02  0.13611035344E+02  0.41863894740E+02  0.17770000000E+01 0.  1.
         15    1    1    2    0    0 -0.51867337644E+01  0.46980700927E+01 -0.81238425970E+02  0.81558651612E+02  0.17770000000E+01 0. -1.
</event>
<event>
 6    1  0.1045352E-002  0.1848908E+03  0.7546771E-02  0.1066567E+00
        -11   -1    0    0    0    0  0.00000000000E+00  0.00000000000E+00  0.18250000000E+03  0.18250000000E+03  0.00000000000E+00 0.  1.
         11   -1    0    0    0    0 -0.00000000000E+00 -0.00000000000E+00 -0.18250000000E+03  0.18250000000E+03  0.00000000000E+00 0.  1.
        -11    1    1    2    0    0 -0.21264497082E+00 -0.30924048642E+01  0.16317591172E+03  0.16320535026E+03  0.00000000000E+00 0.  1.
         11    1    1    2    0    0  0.51274834165E+00 -0.26481945386E+01 -0.18008896173E+03  0.18010916129E+03  0.00000000000E+00 0.  1.
        -15    1    1    2    0    0  0.69309196995E+00  0.68523468246E+01  0.32381474245E+01  0.78152646293E+01  0.17770000000E+01 0.  1.
         15    1    1    2    0    0 -0.99319534078E+00 -0.11117474218E+01  0.13674902578E+02  0.13870223821E+02  0.17770000000E+01 0.  1.
</event>
<event>
 6    1  0.1045352E-002  0.1825427E+03  0.7546771E-02  0.1068421E+00
        -11   -1    0    0    0    0  0.00000000000E+00  0.00000000000E+00  0.18250000000E+03  0.18250000000E+03  0.00000000000E+00 0.  1.
         11   -1    0    0    0    0 -0.00000000000E+00 -0.00000000000E+00 -0.18250000000E+03  0.18250000000E+03  0.00000000000E+00 0.  1.
        -11    1    1    2    0    0 -0.28350793163E+01 -0.42147345110E+01  0.18238659961E+03  0.18245731934E+03  0.00000000000E+00 0.  1.
         11    1    1    2    0    0  0.16098867213E+01  0.10448519486E+01 -0.58513673619E+02  0.58545140287E+02  0.00000000000E+00 0.  1.
        -15    1    1    2    0    0  0.13879634497E+01  0.26758654069E+01 -0.95622134087E+02  0.95686137735E+02  0.17770000000E+01 0. -1.
         15    1    1    2    0    0 -0.16277085460E+00  0.49401715544E+00 -0.28250791905E+02  0.28311402642E+02  0.17770000000E+01 0.  1.
</event>
<event>
 6    1  0.1045352E-002  0.1955910E+03  0.7546771E-02  0.1058487E+00
        -11   -1    0    0    0    0  0.00000000000E+00  0.00000000000E+00  0.18250000000E+03  0.18250000000E+03  0.00000000000E+00 0. -1.
         11   -1    0    0    0    0 -0.00000000000E+00 -0.00000000000E+00 -0.18250000000E+03  0.18250000000E+03  0.00000000000E+00 0.  1.
        -11    1    1    2    0    0  0.49208385077E+01 -0.14859737315E+00  0.16097897156E+03  0.16105423315E+03  0.00000000000E+00 0. -1.
         11    1    1    2    0    0 -0.14925466750E+01  0.17861441460E+01 -0.16939300043E+03  0.16940899209E+03  0.00000000000E+00 0.  1.
        -15    1    1    2    0    0 -0.50887876698E+01  0.99773171404E+00  0.20868429279E+02  0.21576382878E+02  0.17770000000E+01 0.  1.
         15    1    1    2    0    0  0.16604958371E+01 -0.26352784869E+01 -0.12454400405E+02  0.12960391876E+02  0.17770000000E+01 0.  1.
</event>
<event>
 6    1  0.1045352E-002  0.1833847E+03  0.7546771E-02  0.1067753E+00
        -11   -1    0    0    0    0  0.00000000000E+00  0.00000000000E+00  0.18250000000E+03  0.18250000000E+03  0.00000000000E+00 0. -1.
         11   -1    0    0    0    0 -0.00000000000E+00 -0.00000000000E+00 -0.18250000000E+03  0.18250000000E+03  0.00000000000E+00 0. -1.
        -11    1    1    2    0    0 -0.46207251304E+01  0.29254760438E+01  0.18153296745E+03  0.18161532915E+03  0.00000000000E+00 0. -1.
         11    1    1    2    0    0 -0.13967534420E+01 -0.17345613458E+01 -0.16101922851E+03  0.16103462849E+03  0.00000000000E+00 0. -1.
        -15    1    1    2    0    0  0.40934055087E+01 -0.16790654550E+01 -0.63655284449E+01  0.79531698614E+01  0.17770000000E+01 0. -1.
         15    1    1    2    0    0  0.19240730637E+01  0.48815075702E+00 -0.14148210495E+02  0.14396872491E+02  0.17770000000E+01 0.  1.
</event>
<event>
 6    1  0.1045352E-002  0.1841206E+03  0.7546771E-02  0.1067172E+00
        -11   -1    0    0    0    0  0.00000000000E+00  0.00000000000E+00  0.18250000000E+03  0.18250000000E+03  0.00000000000E+00 0.  1.
         11   -1    0    0    0    0 -0.00000000000E+00 -0.00000000000E+00 -0.18250000000E+03  0.18250000000E+03  0.00000000000E+00 0.  1.
        -11    1    1    2    0    0 -0.45847179575E+01  0.36453185295E+01  0.18078449166E+03  0.18087935319E+03  0.00000000000E+00 0.  1.
         11    1    1    2    0    0 -0.11554868839E+02  0.34417922267E+01 -0.11320868169E+03  0.11384887588E+03  0.00000000000E+00 0.  1.
        -15    1    1    2    0    0  0.69231268162E+00  0.43908136918E-01 -0.11077083155E+02  0.11240139012E+02  0.17770000000E+01 0. -1.
         15    1    1    2    0    0  0.15447274115E+02 -0.71310188931E+01 -0.56498726808E+02  0.59031631927E+02  0.17770000000E+01 0.  1.
</event>
<event>
 6    1  0.1045352E-002  0.1831741E+03  0.7546771E-02  0.1067920E+00
        -11   -1    0    0    0    0  0.00000000000E+00  0.00000000000E+00  0.18250000000E+03  0.18250000000E+03  0.00000000000E+00 0.  1.
         11   -1    0    0    0    0 -0.00000000000E+00 -0.00000000000E+00 -0.18250000000E+03  0.18250000000E+03  0.00000000000E+00 0. -1.
        -11    1    1    2    0    0 -0.61130553351E+01 -0.25433128584E+00  0.18172295025E+03  0.18182591888E+03  0.00000000000E+00 0.  1.
         11    1    1    2    0    0  0.26666261668E+01  0.14733279082E+01 -0.11663743819E+02  0.12055061598E+02  0.00000000000E+00 0. -1.
        -15    1    1    2    0    0  0.28921565763E+01 -0.56426586565E+01 -0.21581218854E+02  0.22563486047E+02  0.17770000000E+01 0.  1.
         15    1    1    2    0    0  0.55427259209E+00  0.44236620342E+01 -0.14847798757E+03  0.14855553348E+03  0.17770000000E+01 0. -1.
</event>
<event>
 6    1  0.1045352E-002  0.1830358E+03  0.7546771E-02  0.1068029E+00
        -11   -1    0    0    0    0  0.00000000000E+00  0.00000000000E+00  0.18250000000E+03  0.18250000000E+03  0.00000000000E+00 0. -1.
         11   -1    0    0    0    0 -0.00000000000E+00 -0.00000000000E+00 -0.18250000000E+03  0.18250000000E+03  0.00000000000E+00 0.  1.
        -11    1    1    2    0    0  0.80432567672E+00 -0.23158606637E+01  0.68126912621E+02  0.68171008308E+02  0.00000000000E+00 0. -1.
         11    1    1    2    0    0  0.47149343709E+00 -0.25001594403E+01 -0.18194643517E+03  0.18196422278E+03  0.00000000000E+00 0.  1.
        -15    1    1    2    0    0  0.74656190387E+00  0.28164636551E+01  0.53656917559E+01  0.63591036488E+01  0.17770000000E+01 0.  1.
         15    1    1    2    0    0 -0.20223810177E+01  0.19995564490E+01  0.10845383079E+03  0.10850566526E+03  0.17770000000E+01 0. -1.
</event>
<event>
 6    1  0.1045352E-002  0.1867950E+03  0.7546771E-02  0.1065086E+00
        -11   -1    0    0    0    0  0.00000000000E+00  0.00000000000E+00  0.18250000000E+03  0.18250000000E+03  0.00000000000E+00 0.  1.
         11   -1    0    0    0    0 -0.00000000000E+00 -0.00000000000E+00 -0.18250000000E+03  0.18250000000E+03  0.00000000000E+00 0. -1.
        -11    1    1    2    0    0 -0.24245454731E+01 -0.93697551294E+01  0.17097935481E+03  0.17125305983E+03  0.00000000000E+00 0.  1.
         11    1    1    2    0    0  0.34590504154E+01  0.85874816990E+00 -0.17816935580E+03  0.17820499944E+03  0.00000000000E+00 0. -1.
        -15    1    1    2    0    0 -0.31755111605E+01  0.80364086605E+01  0.11778060635E+01  0.89001512017E+01  0.17770000000E+01 0. -1.
         15    1    1    2    0    0  0.21410062182E+01  0.47459829891E+00  0.60121949313E+01  0.66417895227E+01  0.17770000000E+01 0.  1.
</event>
<event>
 6    1  0.1045352E-002  0.1847190E+03  0.7546771E-02  0.1066702E+00
        -11   -1    0    0    0    0  0.00000000000E+00  0.00000000000E+00  0.18250000000E+03  0.18250000000E+03  0.00000000000E+00 0.  1.
         11   -1    0    0    0    0 -0.00000000000E+00 -0.00000000000E+00 -0.18250000000E+03  0.18250000000E+03  0.00000000000E+00 0. -1.
        -11    1    1    2    0    0 -0.22729198055E+01 -0.31123092725E+01  0.15327926000E+03  0.15332770193E+03  0.00000000000E+00 0.  1.
         11    1    1    2    0    0 -0.19022564010E+01 -0.64448188829E+01 -0.18015569878E+03  0.18028097535E+03  0.00000000000E+00 0. -1.
        -15    1    1    2    0    0  0.70679789806E+01  0.10404713122E+02  0.20463298995E+02  0.24085653754E+02  0.17770000000E+01 0.  1.
         15    1    1    2    0    0 -0.28928027741E+01 -0.84758496636E+00  0.64131397845E+01  0.73056689673E+01  0.17770000000E+01 0. -1.
</event>
<event>
 6    1  0.1045352E-002  0.1829502E+03  0.7546771E-02  0.1068097E+00
        -11   -1    0    0    0    0  0.00000000000E+00  0.00000000000E+00  0.18250000000E+03  0.18250000000E+03  0.00000000000E+00 0. -1.
         11   -1    0    0    0    0 -0.00000000000E+00 -0.00000000000E+00 -0.18250000000E+03  0.18250000000E+03  0.00000000000E+00 0.  1.
        -11    1    1    2    0    0  0.12887682949E+01 -0.23293244718E+01  0.18203033423E+03  0.18204979884E+03  0.00000000000E+00 0. -1.
         11    1    1    2    0    0  0.20268202832E+01  0.23638353611E+01 -0.16013860502E+03  0.16016887505E+03  0.00000000000E+00 0.  1.
        -15    1    1    2    0    0 -0.17549370561E+01  0.19025364782E+01 -0.89934493254E+01  0.95257182873E+01  0.17770000000E+01 0. -1.
         15    1    1    2    0    0 -0.15606515220E+01 -0.19370473675E+01 -0.12898279886E+02  0.13255607820E+02  0.17770000000E+01 0.  1.
</event>
<event>
 6    1  0.1045352E-002  0.1816431E+03  0.7546771E-02  0.1069139E+00
        -11   -1    0    0    0    0  0.00000000000E+00  0.00000000000E+00  0.18250000000E+03  0.18250000000E+03  0.00000000000E+00 0. -1.
         11   -1    0    0    0    0 -0.00000000000E+00 -0.00000000000E+00 -0.18250000000E+03  0.18250000000E+03  0.00000000000E+00 0.  1.
        -11    1    1    2    0    0  0.17273459659E+01  0.45630762441E+00  0.22653401454E+01  0.28850834838E+01  0.00000000000E+00 0. -1.
         11    1    1    2    0    0 -0.10833298275E+01 -0.43081621627E+01 -0.18154655418E+03  0.18160089537E+03  0.00000000000E+00 0.  1.
        -15    1    1    2    0    0  0.46756907719E+00 -0.42037726998E+01  0.15006691190E+03  0.15013702442E+03  0.17770000000E+01 0. -1.
         15    1    1    2    0    0 -0.11115852156E+01  0.80556272382E+01  0.29214302130E+02  0.30376996722E+02  0.17770000000E+01 0.  1.
</event>
<event>
 6    1  0.1045352E-002  0.1758887E+03  0.7546771E-02  0.1073843E+00
        -11   -1    0    0    0    0  0.00000000000E+00  0.00000000000E+00  0.18250000000E+03  0.18250000000E+03  0.00000000000E+00 0.  1.
         11   -1    0    0    0    0 -0.00000000000E+00 -0.00000000000E+00 -0.18250000000E+03  0.18250000000E+03  0.00000000000E+00 0.  1.
        -11    1    1    2    0    0 -0.42267691660E+01 -0.20378329262E+01  0.17553631338E+03  0.17559901951E+03  0.00000000000E+00 0.  1.
         11    1    1    2    0    0  0.31884107020E+00  0.31221538361E+01 -0.17617442361E+03  0.17620237524E+03  0.00000000000E+00 0.  1.
        -15    1    1    2    0    0  0.42633905010E+00 -0.70740475302E+00 -0.55409588528E+01  0.58772562033E+01  0.17770000000E+01 0. -1.
         15    1    1    2    0    0  0.34815890457E+01 -0.37691615689E+00  0.61790690867E+01  0.73213490458E+01  0.17770000000E+01 0.  1.
</event>
<event>
 6    1  0.1045352E-002  0.1830459E+03  0.7546771E-02  0.1068021E+00
        -11   -1    0    0    0    0  0.00000000000E+00  0.00000000000E+00  0.18250000000E+03  0.18250000000E+03  0.00000000000E+00 0.  1.
         11   -1    0    0    0    0 -0.00000000000E+00 -0.00000000000E+00 -0.18250000000E+03  0.18250000000E+03  0.00000000000E+00 0.  1.
        -11    1    1    2    0    0  0.37576178658E+00  0.35531503385E+01  0.18191902904E+03  0.18195411290E+03  0.00000000000E+00 0.  1.
         11    1    1    2    0    0  0.23839277530E+01 -0.21918731580E+01 -0.14937724425E+03  0.14941234394E+03  0.00000000000E+00 0.  1.
        -15    1    1    2    0    0 -0.25253000709E+01  0.15049027374E+01 -0.26403083472E+02  0.26625597054E+02  0.17770000000E+01 0. -1.
         15    1    1    2    0    0 -0.23438946868E+00 -0.28661799178E+01 -0.61387013181E+01  0.70079461055E+01  0.17770000000E+01 0. -1.
</event>
<event>
 6    1  0.1045352E-002  0.2029461E+03  0.7546771E-02  0.1053253E+00
        -11   -1    0    0    0    0  0.00000000000E+00  0.00000000000E+00  0.18250000000E+03  0.18250000000E+03  0.00000000000E+00 0.  1.
         11   -1    0    0    0    0 -0.00000000000E+00 -0.00000000000E+00 -0.18250000000E+03  0.18250000000E+03  0.00000000000E+00 0. -1.
        -11    1    1    2    0    0  0.10794793830E+02  0.57449626932E+01  0.11505156740E+03  0.11569959088E+03  0.00000000000E+00 0.  1.
         11    1    1    2    0    0 -0.56800208253E+01 -0.15242051294E+01 -0.16194713435E+03  0.16205388043E+03  0.00000000000E+00 0. -1.
        -15    1    1    2    0    0 -0.20119806730E+02 -0.56052742911E+01  0.62235180903E+02  0.65670398154E+02  0.17770000000E+01 0. -1.
         15    1    1    2    0    0  0.15005033726E+02  0.13845167273E+01 -0.15339613945E+02  0.21576130530E+02  0.17770000000E+01 0.  1.
</event>
<event>
 6    1  0.1045352E-002  0.1834595E+03  0.7546771E-02  0.1067694E+00
        -11   -1    0    0    0    0  0.00000000000E+00  0.00000000000E+00  0.18250000000E+03  0.18250000000E+03  0.00000000000E+00 0.  1.
         11   -1    0    0    0    0 -0.00000000000E+00 -0.00000000000E+00 -0.18250000000E+03  0.18250000000E+03  0.00000000000E+00 0. -1.
        -11    1    1    2    0    0 -0.98928882658E+00  0.30874091418E+00  0.59184047142E+02  0.59193119950E+02  0.00000000000E+00 0.  1.
         11    1    1    2    0    0  0.24325145804E+01  0.61813101088E+01 -0.18141896356E+03  0.18154053559E+03  0.00000000000E+00 0. -1.
        -15    1    1    2    0    0 -0.54562484563E+01 -0.19454508953E+01  0.89660887691E+01  0.10821455689E+02  0.17770000000E+01 0. -1.
         15    1    1    2    0    0  0.40130227024E+01 -0.45446001276E+01  0.11326882765E+03  0.11344488877E+03  0.17770000000E+01 0.  1.
</event>
<event>
 6    1  0.1045352E-002  0.1829795E+03  0.7546771E-02  0.1068074E+00
        -11   -1    0    0    0    0  0.00000000000E+00  0.00000000000E+00  0.18250000000E+03  0.18250000000E+03  0.00000000000E+00 0.  1.
         11   -1    0    0    0    0 -0.00000000000E+00 -0.00000000000E+00 -0.18250000000E+03  0.18250000000E+03  0.00000000000E+00 0. -1.
        -11    1    1    2    0    0  0.95166564222E+00  0.14518771186E+01  0.12599237592E+03  0.12600433487E+03  0.00000000000E+00 0.  1.
         11    1    1    2    0    0  0.29237740573E+00  0.28690225384E+01 -0.18199765642E+03  0.18202050357E+03  0.00000000000E+00 0. -1.
        -15    1    1    2    0    0  0.25708748794E+01 -0.16971050490E+01  0.85315016111E+01  0.92430412708E+01  0.17770000000E+01 0.  1.
         15    1    1    2    0    0 -0.38149179274E+01 -0.26237946080E+01  0.47473778889E+02  0.47732120296E+02  0.17770000000E+01 0. -1.
</event>
<event>
 6    1  0.1045352E-002  0.1947203E+03  0.7546771E-02  0.1059123E+00
        -11   -1    0    0    0    0  0.00000000000E+00  0.00000000000E+00  0.18250000000E+03  0.18250000000E+03  0.00000000000E+00 0. -1.
         11   -1    0    0    0    0 -0.00000000000E+00 -0.00000000000E+00 -0.18250000000E+03  0.18250000000E+03  0.00000000000E+00 0. -1.
        -11    1    1    2    0    0  0.69472360335E+01  0.23424427801E+00  0.52986019974E+02  0.53440034353E+02  0.00000000000E+00 0. -1.
         11    1    1    2    0    0 -0.54152576945E+01  0.30492172337E+01 -0.17016620577E+03  0.17027965330E+03  0.00000000000E+00 0. -1.
        -15    1    1    2    0    0  0.40840611494E+01 -0.40060822879E+01 -0.11232755443E+02  0.12730309289E+02  0.17770000000E+01 0. -1.
         15    1    1    2    0    0 -0.56160394884E+01  0.72262077614E+00  0.12841294124E+03  0.12855000306E+03  0.17770000000E+01 0. -1.
</event>
<event>
 6    1  0.1045352E-002  0.1882432E+03  0.7546771E-02  0.1063973E+00
        -11   -1    0    0    0    0  0.00000000000E+00  0.00000000000E+00  0.18250000000E+03  0.18250000000E+03  0.00000000000E+00 0.  1.
         11   -1    0    0    0    0 -0.00000000000E+00 -0.00000000000E+00 -0.18250000000E+03  0.18250000000E+03  0.00000000000E+00 0.  1.
        -11    1    1    2    0    0 -0.19808077045E+01 -0.19476894257E+01  0.17673496654E+03  0.17675679758E+03  0.00000000000E+00 0.  1.
         11    1    1    2    0    0  0.73708271692E+01 -0.68172667820E+01 -0.13610030374E+03  0.13647013189E+03  0.00000000000E+00 0.  1.
        -15    1    1    2    0    0 -0.83066251244E+01  0.61224512214E+01 -0.44659118536E+02  0.45870241195E+02  0.17770000000E+01 0.  1.
         15    1    1    2    0    0  0.29166056597E+01  0.26425049862E+01  0.40244557407E+01  0.59028293373E+01  0.17770000000E+01 0.  1.
</event>
<event>
 6    1  0.1045352E-002  0.1828045E+03  0.7546771E-02  0.1068213E+00
        -11   -1    0    0    0    0  0.00000000000E+00  0.00000000000E+00  0.18250000000E+03  0.18250000000E+03  0.00000000000E+00 0.  1.
         11   -1    0    0    0    0 -0.00000000000E+00 -0.00000000000E+00 -0.18250000000E+03  0.18250000000E+03  0.00000000000E+00 0. -1.
        -11    1    1    2    0    0  0.12709856208E+01  0.21357486930E+01  0.18217853074E+03  0.18219548262E+03  0.00000000000E+00 0.  1.
         11    1    1    2    0    0 -0.27328853002E+01 -0.12521845914E+01 -0.14925953116E+03  0.14928979962E+03  0.00000000000E+00 0. -1.
        -15    1    1    2    0    0  0.29586446525E+01 -0.83851819645E+00 -0.25333524029E+02  0.25581279477E+02  0.17770000000E+01 0. -1.
         15    1    1    2    0    0 -0.14967449731E+01 -0.45045905144E-01 -0.75854755525E+01  0.79334382840E+01  0.17770000000E+01 0.  1.
</event>
<event>
 6    1  0.1045352E-002  0.1871344E+03  0.7546771E-02  0.1064825E+00
        -11   -1    0    0    0    0  0.00000000000E+00  0.00000000000E+00  0.18250000000E+03  0.18250000000E+03  0.00000000000E+00 0.  1.
         11   -1    0    0    0    0 -0.00000000000E+00 -0.00000000000E+00 -0.18250000000E+03  0.18250000000E+03  0.00000000000E+00 0. -1.
        -11    1    1    2    0    0  0.26197665340E+01 -0.19358381580E+01  0.17567304071E+03  0.17570323810E+03  0.00000000000E+00 0.  1.
         11    1    1    2    0    0  0.21664354800E+00  0.31356811263E+01 -0.17783782630E+03  0.17786560065E+03  0.00000000000E+00 0. -1.
        -15    1    1    2    0    0 -0.10222562033E+01 -0.32099383876E+01 -0.33258735514E+01  0.50564687360E+01  0.17770000000E+01 0.  1.
         15    1    1    2    0    0 -0.18141538787E+01  0.20100954193E+01  0.54906591404E+01  0.63746925170E+01  0.17770000000E+01 0.  1.
</event>
<event>
 6    1  0.1045352E-002  0.1876966E+03  0.7546771E-02  0.1064392E+00
        -11   -1    0    0    0    0  0.00000000000E+00  0.00000000000E+00  0.18250000000E+03  0.18250000000E+03  0.00000000000E+00 0.  1.
         11   -1    0    0    0    0 -0.00000000000E+00 -0.00000000000E+00 -0.18250000000E+03  0.18250000000E+03  0.00000000000E+00 0. -1.
        -11    1    1    2    0    0  0.17617983322E+00 -0.64608089981E+01  0.17718556903E+03  0.17730340935E+03  0.00000000000E+00 0.  1.
         11    1    1    2    0    0 -0.39327775059E+01  0.16361922470E+01 -0.14585885546E+03  0.14592103885E+03  0.00000000000E+00 0. -1.
        -15    1    1    2    0    0  0.72245844049E-01  0.20263036370E+01  0.46952414142E+01  0.54142540418E+01  0.17770000000E+01 0.  1.
         15    1    1    2    0    0  0.36843518286E+01  0.27983131140E+01 -0.36021954987E+02  0.36361297760E+02  0.17770000000E+01 0. -1.
</event>
<event>
 6    1  0.1045352E-002  0.1850624E+03  0.7546771E-02  0.1066433E+00
        -11   -1    0    0    0    0  0.00000000000E+00  0.00000000000E+00  0.18250000000E+03  0.18250000000E+03  0.00000000000E+00 0. -1.
         11   -1    0    0    0    0 -0.00000000000E+00 -0.00000000000E+00 -0.18250000000E+03  0.18250000000E+03  0.00000000000E+00 0.  1.
        -11    1    1    2    0    0  0.18099510319E+01 -0.30910808501E+01  0.17990192175E+03  0.17993757849E+03  0.00000000000E+00 0. -1.
         11    1    1    2    0    0  0.34714382044E+01  0.10169726133E+01 -0.17621110294E+03  0.17624822812E+03  0.00000000000E+00 0.  1.
        -15    1    1    2    0    0  0.32180220614E+00  0.55807614807E+00 -0.12781318761E+01  0.22817440127E+01  0.17770000000E+01 0. -1.
         15    1    1    2    0    0 -0.56031914425E+01  0.15160320887E+01 -0.24126869331E+01  0.65324493777E+01  0.17770000000E+01 0.  1.
</event>
<event>
 6    1  0.1045352E-002  0.1833807E+03  0.7546771E-02  0.1067756E+00
        -11   -1    0    0    0    0  0.00000000000E+00  0.00000000000E+00  0.18250000000E+03  0.18250000000E+03  0.00000000000E+00 0.  1.
         11   -1    0    0    0    0 -0.00000000000E+00 -0.00000000000E+00 -0.18250000000E+03  0.18250000000E+03  0.00000000000E+00 0.  1.
        -11    1    1    2    0    0 -0.12484037722E+01  0.35576409135E+01  0.14116165259E+03  0.14121199483E+03  0.00000000000E+00 0.  1.
         11    1    1    2    0    0 -0.48065145948E+01 -0.59294131669E+00 -0.18155476145E+03  0.18161934249E+03  0.00000000000E+00 0.  1.
        -15    1    1    2    0    0  0.37285142300E+01 -0.58547686944E+01  0.17518722094E+02  0.18927321195E+02  0.17770000000E+01 0. -1.
         15    1    1    2    0    0  0.23264041370E+01  0.28900690976E+01  0.22874386758E+02  0.23241341488E+02  0.17770000000E+01 0.  1.
</event>
<event>
 6    1  0.1045352E-002  0.1832736E+03  0.7546771E-02  0.1067841E+00
        -11   -1    0    0    0    0  0.00000000000E+00  0.00000000000E+00  0.18250000000E+03  0.18250000000E+03  0.00000000000E+00 0.  1.
         11   -1    0    0    0    0 -0.00000000000E+00 -0.00000000000E+00 -0.18250000000E+03  0.18250000000E+03  0.00000000000E+00 0.  1.
        -11    1    1    2    0    0 -0.51449382076E+01 -0.16752084723E+01  0.18164578054E+03  0.18172635004E+03  0.00000000000E+00 0.  1.
         11    1    1    2    0    0 -0.22188818254E+01  0.62878771788E+00 -0.14325684199E+03  0.14327540469E+03  0.00000000000E+00 0.  1.
        -15    1    1    2    0    0  0.10070224206E+01  0.22183081304E+01 -0.23207535460E+02  0.23402615586E+02  0.17770000000E+01 0.  1.
         15    1    1    2    0    0  0.63567976124E+01 -0.11718873760E+01 -0.15181403085E+02  0.16595629682E+02  0.17770000000E+01 0. -1.
</event>
<event>
 6    1  0.1045352E-002  0.1855698E+03  0.7546771E-02  0.1066037E+00
        -11   -1    0    0    0    0  0.00000000000E+00  0.00000000000E+00  0.18250000000E+03  0.18250000000E+03  0.00000000000E+00 0.  1.
         11   -1    0    0    0    0 -0.00000000000E+00 -0.00000000000E+00 -0.18250000000E+03  0.18250000000E+03  0.00000000000E+00 0. -1.
        -11    1    1    2    0    0 -0.29754153822E+01 -0.34690657327E+01  0.16842913036E+03  0.16849112578E+03  0.00000000000E+00 0.  1.
         11    1    1    2    0    0 -0.54122468968E+01 -0.20812519271E+01 -0.17933652372E+03  0.17943024485E+03  0.00000000000E+00 0. -1.
        -15    1    1    2    0    0  0.82277008957E+01  0.65704973774E+01  0.10514883547E+02  0.14986227105E+02  0.17770000000E+01 0.  1.
         15    1    1    2    0    0  0.15996138331E+00 -0.10201797177E+01  0.39250981593E+00  0.20924022692E+01  0.17770000000E+01 0.  1.
</event>
<event>
 6    1  0.1045352E-002  0.1835388E+03  0.7546771E-02  0.1067631E+00
        -11   -1    0    0    0    0  0.00000000000E+00  0.00000000000E+00  0.18250000000E+03  0.18250000000E+03  0.00000000000E+00 0.  1.
         11   -1    0    0    0    0 -0.00000000000E+00 -0.00000000000E+00 -0.18250000000E+03  0.18250000000E+03  0.00000000000E+00 0.  1.
        -11    1    1    2    0    0  0.85689125111E+00  0.26333958157E+01  0.18144011570E+03  0.18146124826E+03  0.00000000000E+00 0.  1.
         11    1    1    2    0    0  0.76155278449E+01  0.33514341367E+01 -0.92411903427E+02  0.92785711562E+02  0.00000000000E+00 0.  1.
        -15    1    1    2    0    0 -0.10912816115E+02 -0.38814236133E+01 -0.81872356155E+02  0.82706683141E+02  0.17770000000E+01 0.  1.
         15    1    1    2    0    0  0.24403970188E+01 -0.21034063391E+01 -0.71558561149E+01  0.80463570374E+01  0.17770000000E+01 0. -1.
</event>
<event>
 6    1  0.1045352E-002  0.1837278E+03  0.7546771E-02  0.1067482E+00
        -11   -1    0    0    0    0  0.00000000000E+00  0.00000000000E+00  0.18250000000E+03  0.18250000000E+03  0.00000000000E+00 0.  1.
         11   -1    0    0    0    0 -0.00000000000E+00 -0.00000000000E+00 -0.18250000000E+03  0.18250000000E+03  0.00000000000E+00 0. -1.
        -11    1    1    2    0    0 -0.35299803785E+01  0.33746289159E+01  0.18120637420E+03  0.18127216811E+03  0.00000000000E+00 0.  1.
         11    1    1    2    0    0 -0.14505103751E+01 -0.27250871516E+01 -0.16298852196E+03  0.16301775477E+03  0.00000000000E+00 0. -1.
        -15    1    1    2    0    0  0.15145488846E+01 -0.40321848124E+01 -0.78213624150E+01  0.91040546852E+01  0.17770000000E+01 0.  1.
         15    1    1    2    0    0  0.34659418689E+01  0.33826430481E+01 -0.10396489824E+02  0.11606022432E+02  0.17770000000E+01 0. -1.
</event>
<event>
 6    1  0.1045352E-002  0.1887440E+03  0.7546771E-02  0.1063590E+00
        -11   -1    0    0    0    0  0.00000000000E+00  0.00000000000E+00  0.18250000000E+03  0.18250000000E+03  0.00000000000E+00 0.  1.
         11   -1    0    0    0    0 -0.00000000000E+00 -0.00000000000E+00 -0.18250000000E+03  0.18250000000E+03  0.00000000000E+00 0. -1.
        -11    1    1    2    0    0 -0.16768382894E+02  0.57158139402E+01  0.13639690540E+03  0.13754259339E+03  0.00000000000E+00 0.  1.
         11    1    1    2    0    0 -0.30603363715E+01 -0.69039992548E+01 -0.17609411261E+03  0.17625597113E+03  0.00000000000E+00 0. -1.
        -15    1    1    2    0    0  0.17223985199E+02  0.80232537214E+01  0.39270565980E+02  0.43662035543E+02  0.17770000000E+01 0.  1.
         15    1    1    2    0    0  0.26047340667E+01 -0.68350684069E+01  0.42664122712E+00  0.75393999378E+01  0.17770000000E+01 0. -1.
</event>
<event>
 6    1  0.1045352E-002  0.2110925E+03  0.7546771E-02  0.1047730E+00
        -11   -1    0    0    0    0  0.00000000000E+00  0.00000000000E+00  0.18250000000E+03  0.18250000000E+03  0.00000000000E+00 0.  1.
         11   -1    0    0    0    0 -0.00000000000E+00 -0.00000000000E+00 -0.18250000000E+03  0.18250000000E+03  0.00000000000E+00 0. -1.
        -11    1    1    2    0    0 -0.24220790759E+01 -0.53510127619E+01  0.11404147134E+03  0.11419263107E+03  0.00000000000E+00 0.  1.
         11    1    1    2    0    0  0.47698411789E+01 -0.22168954026E+01 -0.15381761978E+03  0.15390752472E+03  0.00000000000E+00 0. -1.
        -15    1    1    2    0    0  0.18317572493E+02 -0.29427677953E+01  0.61996477319E+02  0.64737271129E+02  0.17770000000E+01 0.  1.
         15    1    1    2    0    0 -0.20665334595E+02  0.10510675960E+02 -0.22220328879E+02  0.32162573087E+02  0.17770000000E+01 0. -1.
</event>
<event>
 6    1  0.1045352E-002  0.1927145E+03  0.7546771E-02  0.1060603E+00
        -11   -1    0    0    0    0  0.00000000000E+00  0.00000000000E+00  0.18250000000E+03  0.18250000000E+03  0.00000000000E+00 0.  1.
         11   -1    0    0    0    0 -0.00000000000E+00 -0.00000000000E+00 -0.18250000000E+03  0.18250000000E+03  0.00000000000E+00 0.  1.
        -11    1    1    2    0    0  0.24393002264E+01  0.18881223995E+01  0.13238624668E+03  0.13242217904E+03  0.00000000000E+00 0.  1.
         11    1    1    2    0    0 -0.28169803351E+01 -0.14132481336E+02 -0.17168182044E+03  0.17228554749E+03  0.00000000000E+00 0.  1.
        -15    1    1    2    0    0 -0.30983071424E+01  0.16451185793E+02 -0.34322170475E+01  0.17180770181E+02  0.17770000000E+01 0.  1.
         15    1    1    2    0    0  0.34759872511E+01 -0.42068268567E+01  0.42727790800E+02  0.43111503282E+02  0.17770000000E+01 0. -1.
</event>
<event>
 6    1  0.1045352E-002  0.1852888E+03  0.7546771E-02  0.1066256E+00
        -11   -1    0    0    0    0  0.00000000000E+00  0.00000000000E+00  0.18250000000E+03  0.18250000000E+03  0.00000000000E+00 0. -1.
         11   -1    0    0    0    0 -0.00000000000E+00 -0.00000000000E+00 -0.18250000000E+03  0.18250000000E+03  0.00000000000E+00 0. -1.
        -11    1    1    2    0    0 -0.16932250778E+01 -0.43719566770E+01  0.41817810007E+02  0.42079808104E+02  0.00000000000E+00 0. -1.
         11    1    1    2    0    0 -0.19294331363E+02  0.21032366549E+02 -0.17743026868E+03  0.17971124592E+03  0.00000000000E+00 0. -1.
        -15    1    1    2    0    0  0.26520643627E+02 -0.23541975602E+02  0.12043527416E+03  0.12556027296E+03  0.17770000000E+01 0. -1.
         15    1    1    2    0    0 -0.55330871863E+01  0.68815657303E+01  0.15177184509E+02  0.17648673019E+02  0.17770000000E+01 0.  1.
</event>
<event>
 6    1  0.1045352E-002  0.1828874E+03  0.7546771E-02  0.1068147E+00
        -11   -1    0    0    0    0  0.00000000000E+00  0.00000000000E+00  0.18250000000E+03  0.18250000000E+03  0.00000000000E+00 0.  1.
         11   -1    0    0    0    0 -0.00000000000E+00 -0.00000000000E+00 -0.18250000000E+03  0.18250000000E+03  0.00000000000E+00 0.  1.
        -11    1    1    2    0    0  0.16931539739E+01 -0.17743003136E+01  0.68795488253E+02  0.68839190262E+02  0.00000000000E+00 0.  1.
         11    1    1    2    0    0 -0.32444357422E+01 -0.20203047977E+01 -0.18207248545E+03  0.18211259691E+03  0.00000000000E+00 0.  1.
        -15    1    1    2    0    0 -0.27426270755E+01 -0.30225077148E+01  0.25623260993E+02  0.26007052680E+02  0.17770000000E+01 0. -1.
         15    1    1    2    0    0  0.42939088438E+01  0.68171128262E+01  0.87653736206E+02  0.88041160148E+02  0.17770000000E+01 0.  1.
</event>
<event>
 6    1  0.1045352E-002  0.1829932E+03  0.7546771E-02  0.1068063E+00
        -11   -1    0    0    0    0  0.00000000000E+00  0.00000000000E+00  0.18250000000E+03  0.18250000000E+03  0.00000000000E+00 0. -1.
         11   -1    0    0    0    0 -0.00000000000E+00 -0.00000000000E+00 -0.18250000000E+03  0.18250000000E+03  0.00000000000E+00 0.  1.
        -11    1    1    2    0    0 -0.66244109773E+01 -0.54169088019E+00  0.99586708176E+02  0.99808259654E+02  0.00000000000E+00 0. -1.
         11    1    1    2    0    0  0.74122808508E+01 -0.38056298639E+01 -0.18181593155E+03  0.18200675177E+03  0.00000000000E+00 0.  1.
        -15    1    1    2    0    0 -0.21416335718E+01  0.52621481505E+00  0.71794239343E+02  0.71850080224E+02  0.17770000000E+01 0. -1.
         15    1    1    2    0    0  0.13537636983E+01  0.38211059290E+01  0.10434984027E+02  0.11334908351E+02  0.17770000000E+01 0.  1.
</event>
<event>
 6    1  0.1045352E-002  0.1837850E+03  0.7546771E-02  0.1067437E+00
        -11   -1    0    0    0    0  0.00000000000E+00  0.00000000000E+00  0.18250000000E+03  0.18250000000E+03  0.00000000000E+00 0. -1.
         11   -1    0    0    0    0 -0.00000000000E+00 -0.00000000000E+00 -0.18250000000E+03  0.18250000000E+03  0.00000000000E+00 0.  1.
        -11    1    1    2    0    0  0.27700304785E+01 -0.12986164182E+01  0.18118920804E+03  0.18121503410E+03  0.00000000000E+00 0. -1.
         11    1    1    2    0    0  0.14375528345E+01  0.67586674974E+01 -0.13991768004E+03  0.14008819840E+03  0.00000000000E+00 0.  1.
        -15    1    1    2    0    0 -0.41477566485E+01 -0.47064722251E+01 -0.41253491240E+02  0.41765572359E+02  0.17770000000E+01 0.  1.
         15    1    1    2    0    0 -0.59826664465E-01 -0.75357885414E+00 -0.18036764812E-01  0.19311951336E+01  0.17770000000E+01 0.  1.
</event>
<event>
 6    1  0.1045352E-002  0.1828515E+03  0.7546771E-02  0.1068175E+00
        -11   -1    0    0    0    0  0.00000000000E+00  0.00000000000E+00  0.18250000000E+03  0.18250000000E+03  0.00000000000E+00 0. -1.
         11   -1    0    0    0    0 -0.00000000000E+00 -0.00000000000E+00 -0.18250000000E+03  0.18250000000E+03  0.00000000000E+00 0. -1.
        -11    1    1    2    0    0  0.26414541069E+01 -0.27180576381E+00  0.18212917409E+03  0.18214853064E+03  0.00000000000E+00 0. -1.
         11    1    1    2    0    0 -0.38386509553E+01 -0.18640454462E+01 -0.13859463088E+03  0.13866031017E+03  0.00000000000E+00 0. -1.
        -15    1    1    2    0    0  0.34760506614E+01  0.15648193566E+00 -0.27674491740E+02  0.27948929083E+02  0.17770000000E+01 0.  1.
         15    1    1    2    0    0 -0.22788538130E+01  0.19793692744E+01 -0.15860051466E+02  0.16242230109E+02  0.17770000000E+01 0.  1.
</event>
<event>
 6    1  0.1045352E-002  0.1856145E+03  0.7546771E-02  0.1066002E+00
        -11   -1    0    0    0    0  0.00000000000E+00  0.00000000000E+00  0.18250000000E+03  0.18250000000E+03  0.00000000000E+00 0.  1.
         11   -1    0    0    0    0 -0.00000000000E+00 -0.00000000000E+00 -0.18250000000E+03  0.18250000000E+03  0.00000000000E+00 0. -1.
        -11    1    1    2    0    0  0.23202044871E+01 -0.25583356228E+01  0.17935226834E+03  0.17938551945E+03  0.00000000000E+00 0.  1.
         11    1    1    2    0    0  0.17271735704E+01 -0.28364458910E+01 -0.17470906394E+03  0.17474062372E+03  0.00000000000E+00 0. -1.
        -15    1    1    2    0    0  0.12322784370E+01  0.30834577348E+00 -0.17336245706E+01  0.27886861448E+01  0.17770000000E+01 0.  1.
         15    1    1    2    0    0 -0.52796564945E+01  0.50864357403E+01 -0.29095798257E+01  0.80851706848E+01  0.17770000000E+01 0.  1.
</event>
<event>
 6    1  0.1045352E-002  0.1835201E+03  0.7546771E-02  0.1067646E+00
        -11   -1    0    0    0    0  0.00000000000E+00  0.00000000000E+00  0.18250000000E+03  0.18250000000E+03  0.00000000000E+00 0. -1.
         11   -1    0    0    0    0 -0.00000000000E+00 -0.00000000000E+00 -0.18250000000E+03  0.18250000000E+03  0.00000000000E+00 0. -1.
        -11    1    1    2    0    0  0.61011132742E+01  0.23697322536E+01  0.18136185363E+03  0.18147991946E+03  0.00000000000E+00 0. -1.
         11    1    1    2    0    0  0.13935569931E+01 -0.31479611821E+01 -0.10701179075E+03  0.10706715192E+03  0.00000000000E+00 0. -1.
        -15    1    1    2    0    0 -0.90550012157E+01 -0.46850828910E+01 -0.30667876375E+02  0.32366949486E+02  0.17770000000E+01 0. -1.
         15    1    1    2    0    0  0.15603309485E+01  0.54633118195E+01 -0.43682186509E+02  0.44085979131E+02  0.17770000000E+01 0. -1.
</event>
<event>
 6    1  0.1045352E-002  0.1831586E+03  0.7546771E-02  0.1067932E+00
        -11   -1    0    0    0    0  0.00000000000E+00  0.00000000000E+00  0.18250000000E+03  0.18250000000E+03  0.00000000000E+00 0. -1.
         11   -1    0    0    0    0 -0.00000000000E+00 -0.00000000000E+00 -0.18250000000E+03  0.18250000000E+03  0.00000000000E+00 0. -1.
        -11    1    1    2    0    0 -0.41351451866E+01 -0.48243410373E+00  0.11609649675E+03  0.11617111829E+03  0.00000000000E+00 0. -1.
         11    1    1    2    0    0  0.54320995545E+01 -0.25570063117E+01 -0.18174225226E+03  0.18184139310E+03  0.00000000000E+00 0. -1.
        -15    1    1    2    0    0 -0.33230551012E+01  0.32096542520E+01  0.89515009668E+01  0.10228962517E+02  0.17770000000E+01 0.  1.
         15    1    1    2    0    0  0.20261007333E+01 -0.17021383660E+00  0.56694254544E+02  0.56758526093E+02  0.17770000000E+01 0. -1.
</event>
<event>
 6    1  0.1045352E-002  0.1833409E+03  0.7546771E-02  0.1067787E+00
        -11   -1    0    0    0    0  0.00000000000E+00  0.00000000000E+00  0.18250000000E+03  0.18250000000E+03  0.00000000000E+00 0. -1.
         11   -1    0    0    0    0 -0.00000000000E+00 -0.00000000000E+00 -0.18250000000E+03  0.18250000000E+03  0.00000000000E+00 0. -1.
        -11    1    1    2    0    0  0.19023094316E+01  0.54813018766E+00  0.14257193209E+03  0.14258567617E+03  0.00000000000E+00 0. -1.
         11    1    1    2    0    0  0.25257235002E+01 -0.11187602214E+01 -0.18163805567E+03  0.18165906025E+03  0.00000000000E+00 0. -1.
        -15    1    1    2    0    0 -0.38072092588E+01  0.10801489571E+01  0.49438196057E+01  0.65772825242E+01  0.17770000000E+01 0.  1.
         15    1    1    2    0    0 -0.62082367299E+00 -0.50951892331E+00  0.34122303975E+02  0.34177981057E+02  0.17770000000E+01 0.  1.
</event>
<event>
 6    1  0.1045352E-002  0.1827458E+03  0.7546771E-02  0.1068259E+00
        -11   -1    0    0    0    0  0.00000000000E+00  0.00000000000E+00  0.18250000000E+03  0.18250000000E+03  0.00000000000E+00 0. -1.
         11   -1    0    0    0    0 -0.00000000000E+00 -0.00000000000E+00 -0.18250000000E+03  0.18250000000E+03  0.00000000000E+00 0.  1.
        -11    1    1    2    0    0 -0.18300156297E+01 -0.17503846642E+01  0.97197398956E+02  0.97230381915E+02  0.00000000000E+00 0. -1.
         11    1    1    2    0    0 -0.52008090636E+01  0.26369506057E+01 -0.18216090139E+03  0.18225420687E+03  0.00000000000E+00 0.  1.
        -15    1    1    2    0    0  0.86005437977E+00 -0.14665153790E+00  0.44046654935E+02  0.44091118609E+02  0.17770000000E+01 0.  1.
         15    1    1    2    0    0  0.61707703136E+01 -0.73991440364E+00  0.40916847504E+02  0.41424292610E+02  0.17770000000E+01 0. -1.
</event>
<event>
 6    1  0.1045352E-002  0.1719053E+03  0.7546771E-02  0.1077216E+00
        -11   -1    0    0    0    0  0.00000000000E+00  0.00000000000E+00  0.18250000000E+03  0.18250000000E+03  0.00000000000E+00 0.  1.
         11   -1    0    0    0    0 -0.00000000000E+00 -0.00000000000E+00 -0.18250000000E+03  0.18250000000E+03  0.00000000000E+00 0.  1.
        -11    1    1    2    0    0  0.84700067925E+00 -0.32119599103E+01  0.16740410447E+03  0.16743705769E+03  0.00000000000E+00 0.  1.
         11    1    1    2    0    0 -0.84580919650E+01 -0.98749335862E+01 -0.17634407493E+03  0.17682275418E+03  0.00000000000E+00 0.  1.
        -15    1    1    2    0    0  0.34978755902E+01  0.64491758878E+01  0.10140984502E+02  0.12642163539E+02  0.17770000000E+01 0. -1.
         15    1    1    2    0    0  0.41132156955E+01  0.66377176087E+01 -0.12010140358E+01  0.80980245816E+01  0.17770000000E+01 0.  1.
</event>
<event>
 6    1  0.1045352E-002  0.1825671E+03  0.7546771E-02  0.1068401E+00
        -11   -1    0    0    0    0  0.00000000000E+00  0.00000000000E+00  0.18250000000E+03  0.18250000000E+03  0.00000000000E+00 0. -1.
         11   -1    0    0    0    0 -0.00000000000E+00 -0.00000000000E+00 -0.18250000000E+03  0.18250000000E+03  0.00000000000E+00 0.  1.
        -11    1    1    2    0    0  0.33715078671E+01  0.11222773928E+01  0.18239824783E+03  0.18243285719E+03  0.00000000000E+00 0. -1.
         11    1    1    2    0    0 -0.10537802648E+01  0.15922940996E-01 -0.73532629662E+02  0.73540181747E+02  0.00000000000E+00 0.  1.
        -15    1    1    2    0    0 -0.32989577878E+01 -0.74032506745E+00 -0.64273422942E+02  0.64386814095E+02  0.17770000000E+01 0. -1.
         15    1    1    2    0    0  0.98123018541E+00 -0.39787526636E+00 -0.44592195224E+02  0.44640146968E+02  0.17770000000E+01 0.  1.
</event>
<event>
 6    1  0.1045352E-002  0.1868690E+03  0.7546771E-02  0.1065029E+00
        -11   -1    0    0    0    0  0.00000000000E+00  0.00000000000E+00  0.18250000000E+03  0.18250000000E+03  0.00000000000E+00 0.  1.
         11   -1    0    0    0    0 -0.00000000000E+00 -0.00000000000E+00 -0.18250000000E+03  0.18250000000E+03  0.00000000000E+00 0.  1.
        -11    1    1    2    0    0 -0.46812835773E+01 -0.16320705918E+01  0.16438810547E+03  0.16446284471E+03  0.00000000000E+00 0.  1.
         11    1    1    2    0    0 -0.28897301904E+01 -0.12824646349E+01 -0.17810297631E+03  0.17813103442E+03  0.00000000000E+00 0.  1.
        -15    1    1    2    0    0  0.85041250181E+01  0.11481219788E+01  0.16414033068E+02  0.18606894877E+02  0.17770000000E+01 0. -1.
         15    1    1    2    0    0 -0.93311125036E+00  0.17664132480E+01 -0.26991622312E+01  0.37992259894E+01  0.17770000000E+01 0.  1.
</event>
<event>
 6    1  0.1045352E-002  0.1831586E+03  0.7546771E-02  0.1067932E+00
        -11   -1    0    0    0    0  0.00000000000E+00  0.00000000000E+00  0.18250000000E+03  0.18250000000E+03  0.00000000000E+00 0.  1.
         11   -1    0    0    0    0 -0.00000000000E+00 -0.00000000000E+00 -0.18250000000E+03  0.18250000000E+03  0.00000000000E+00 0.  1.
        -11    1    1    2    0    0 -0.45997341474E+00 -0.39137777461E+01  0.18179872412E+03  0.18184142907E+03  0.00000000000E+00 0.  1.
         11    1    1    2    0    0  0.20071248046E+01 -0.19573803320E+01 -0.14422567949E+03  0.14425292549E+03  0.00000000000E+00 0.  1.
        -15    1    1    2    0    0  0.14553772832E+01  0.20727973135E+01 -0.46769251920E+01  0.56076706386E+01  0.17770000000E+01 0. -1.
         15    1    1    2    0    0 -0.30025286730E+01  0.37983607646E+01 -0.32896119445E+02  0.33297974810E+02  0.17770000000E+01 0.  1.
</event>
<event>
 6    1  0.1045352E-002  0.1868098E+03  0.7546771E-02  0.1065075E+00
        -11   -1    0    0    0    0  0.00000000000E+00  0.00000000000E+00  0.18250000000E+03  0.18250000000E+03  0.00000000000E+00 0. -1.
         11   -1    0    0    0    0 -0.00000000000E+00 -0.00000000000E+00 -0.18250000000E+03  0.18250000000E+03  0.00000000000E+00 0.  1.
        -11    1    1    2    0    0  0.27236071289E+01  0.20530113629E+01  0.17815758067E+03  0.17819022543E+03  0.00000000000E+00 0. -1.
         11    1    1    2    0    0 -0.54523790629E+01  0.26626229525E+01 -0.14277110407E+03  0.14289998655E+03  0.00000000000E+00 0.  1.
        -15    1    1    2    0    0  0.31242479933E+01  0.20102540007E+01 -0.36605178957E+02  0.36836108672E+02  0.17770000000E+01 0. -1.
         15    1    1    2    0    0 -0.39547605929E+00 -0.67258883161E+01  0.12187023633E+01  0.70736793399E+01  0.17770000000E+01 0.  1.
</event>
<event>
 6    1  0.1045352E-002  0.1848320E+03  0.7546771E-02  0.1066614E+00
        -11   -1    0    0    0    0  0.00000000000E+00  0.00000000000E+00  0.18250000000E+03  0.18250000000E+03  0.00000000000E+00 0.  1.
         11   -1    0    0    0    0 -0.00000000000E+00 -0.00000000000E+00 -0.18250000000E+03  0.18250000000E+03  0.00000000000E+00 0.  1.
        -11    1    1    2    0    0  0.32840750021E+01  0.47241792241E+01  0.18007610436E+03  0.18016799488E+03  0.00000000000E+00 0.  1.
         11    1    1    2    0    0 -0.12565053391E+01  0.27100180257E+01 -0.16618532660E+03  0.16621217097E+03  0.00000000000E+00 0.  1.
        -15    1    1    2    0    0  0.72522506832E-01 -0.49516090803E+01 -0.13954816472E+02  0.14913695845E+02  0.17770000000E+01 0. -1.
         15    1    1    2    0    0 -0.21000921698E+01 -0.24825881695E+01  0.64038710226E-01  0.37061382998E+01  0.17770000000E+01 0.  1.
</event>
<event>
 6    1  0.1045352E-002  0.1868341E+03  0.7546771E-02  0.1065056E+00
        -11   -1    0    0    0    0  0.00000000000E+00  0.00000000000E+00  0.18250000000E+03  0.18250000000E+03  0.00000000000E+00 0.  1.
         11   -1    0    0    0    0 -0.00000000000E+00 -0.00000000000E+00 -0.18250000000E+03  0.18250000000E+03  0.00000000000E+00 0.  1.
        -11    1    1    2    0    0  0.91009520257E+01  0.37100806773E+01  0.14346735646E+03  0.14380359660E+03  0.00000000000E+00 0.  1.
         11    1    1    2    0    0 -0.20775863746E+01  0.29018118704E+01 -0.17813013635E+03  0.17816588437E+03  0.00000000000E+00 0.  1.
        -15    1    1    2    0    0  0.36654783926E+01  0.17173120241E+01 -0.12591690168E+01  0.45965343519E+01  0.17770000000E+01 0.  1.
         15    1    1    2    0    0 -0.10688844044E+02 -0.83292045718E+01  0.35921948909E+02  0.38433984677E+02  0.17770000000E+01 0. -1.
</event>
<event>
 6    1  0.1045352E-002  0.1839686E+03  0.7546771E-02  0.1067292E+00
        -11   -1    0    0    0    0  0.00000000000E+00  0.00000000000E+00  0.18250000000E+03  0.18250000000E+03  0.00000000000E+00 0. -1.
         11   -1    0    0    0    0 -0.00000000000E+00 -0.00000000000E+00 -0.18250000000E+03  0.18250000000E+03  0.00000000000E+00 0.  1.
        -11    1    1    2    0    0  0.32574327683E+01 -0.29701463183E+01  0.18097767575E+03  0.18103135573E+03  0.00000000000E+00 0. -1.
         11    1    1    2    0    0 -0.34987854990E+01  0.26846728770E+01 -0.16820906578E+03  0.16826686774E+03  0.00000000000E+00 0.  1.
        -15    1    1    2    0    0  0.34676249881E+01  0.74141516725E+00 -0.10789992559E+02  0.11495903093E+02  0.17770000000E+01 0.  1.
         15    1    1    2    0    0 -0.32262722574E+01 -0.45594172592E+00 -0.19786174148E+01  0.42058734421E+01  0.17770000000E+01 0. -1.
</event>
<event>
 6    1  0.1045352E-002  0.2120829E+03  0.7546771E-02  0.1047077E+00
        -11   -1    0    0    0    0  0.00000000000E+00  0.00000000000E+00  0.18250000000E+03  0.18250000000E+03  0.00000000000E+00 0.  1.
         11   -1    0    0    0    0 -0.00000000000E+00 -0.00000000000E+00 -0.18250000000E+03  0.18250000000E+03  0.00000000000E+00 0.  1.
        -11    1    1    2    0    0  0.11821896304E+00  0.21831739414E+01  0.13312326189E+03  0.13314121481E+03  0.00000000000E+00 0.  1.
         11    1    1    2    0    0 -0.33173272116E+01 -0.24120086893E+02 -0.15096637903E+03  0.15291707181E+03  0.00000000000E+00 0.  1.
        -15    1    1    2    0    0 -0.14190128646E+02 -0.24063006260E+01  0.39426918278E+02  0.42009399515E+02  0.17770000000E+01 0.  1.
         15    1    1    2    0    0  0.17389236894E+02  0.24343213577E+02 -0.21583801137E+02  0.36932313867E+02  0.17770000000E+01 0. -1.
</event>
<event>
 6    1  0.1045352E-002  0.1753364E+03  0.7546771E-02  0.1074304E+00
        -11   -1    0    0    0    0  0.00000000000E+00  0.00000000000E+00  0.18250000000E+03  0.18250000000E+03  0.00000000000E+00 0. -1.
         11   -1    0    0    0    0 -0.00000000000E+00 -0.00000000000E+00 -0.18250000000E+03  0.18250000000E+03  0.00000000000E+00 0. -1.
        -11    1    1    2    0    0 -0.27483500742E+01  0.65597214461E+00  0.17577464549E+03  0.17579735414E+03  0.00000000000E+00 0. -1.
         11    1    1    2    0    0  0.64804507484E+01 -0.21540639289E+01 -0.17476661980E+03  0.17489999322E+03  0.00000000000E+00 0. -1.
        -15    1    1    2    0    0  0.35785614012E+01 -0.15186359783E+01  0.30371778288E+01  0.52435231572E+01  0.17770000000E+01 0.  1.
         15    1    1    2    0    0 -0.73106620754E+01  0.30167277627E+01 -0.40452035167E+01  0.90591294761E+01  0.17770000000E+01 0.  1.
</event>
<event>
 6    1  0.1045352E-002  0.1947055E+03  0.7546771E-02  0.1059134E+00
        -11   -1    0    0    0    0  0.00000000000E+00  0.00000000000E+00  0.18250000000E+03  0.18250000000E+03  0.00000000000E+00 0. -1.
         11   -1    0    0    0    0 -0.00000000000E+00 -0.00000000000E+00 -0.18250000000E+03  0.18250000000E+03  0.00000000000E+00 0. -1.
        -11    1    1    2    0    0 -0.57699799775E+00  0.16335818580E+01  0.80453017652E+02  0.80471669336E+02  0.00000000000E+00 0. -1.
         11    1    1    2    0    0 -0.58943113771E+00 -0.36080108599E+01 -0.17025523989E+03  0.17029448576E+03  0.00000000000E+00 0. -1.
        -15    1    1    2    0    0 -0.25832189884E+01  0.41067705602E+01 -0.11613431638E+02  0.12710944425E+02  0.17770000000E+01 0.  1.
         15    1    1    2    0    0  0.37496481238E+01 -0.21323415584E+01  0.10141565387E+03  0.10152290048E+03  0.17770000000E+01 0. -1.
</event>
<event>
 6    1  0.1045352E-002  0.1850663E+03  0.7546771E-02  0.1066430E+00
        -11   -1    0    0    0    0  0.00000000000E+00  0.00000000000E+00  0.18250000000E+03  0.18250000000E+03  0.00000000000E+00 0. -1.
         11   -1    0    0    0    0 -0.00000000000E+00 -0.00000000000E+00 -0.18250000000E+03  0.18250000000E+03  0.00000000000E+00 0.  1.
        -11    1    1    2    0    0 -0.18871475742E+01 -0.16565475565E+01  0.16017093196E+03  0.16019061433E+03  0.00000000000E+00 0. -1.
         11    1    1    2    0    0  0.26363119758E+01 -0.69926507680E+01 -0.17977848186E+03  0.17993373737E+03  0.00000000000E+00 0.  1.
        -15    1    1    2    0    0 -0.54811509940E+01  0.49345758087E+01  0.53023455833E+01  0.92555741213E+01  0.17770000000E+01 0. -1.
         15    1    1    2    0    0  0.47319865924E+01  0.37146225158E+01  0.14305204320E+02  0.15620074174E+02  0.17770000000E+01 0.  1.
</event>
<event>
 6    1  0.1045352E-002  0.1850886E+03  0.7546771E-02  0.1066413E+00
        -11   -1    0    0    0    0  0.00000000000E+00  0.00000000000E+00  0.18250000000E+03  0.18250000000E+03  0.00000000000E+00 0.  1.
         11   -1    0    0    0    0 -0.00000000000E+00 -0.00000000000E+00 -0.18250000000E+03  0.18250000000E+03  0.00000000000E+00 0. -1.
        -11    1    1    2    0    0  0.34592640042E+01  0.40869653155E+01  0.17983174860E+03  0.17991144377E+03  0.00000000000E+00 0.  1.
         11    1    1    2    0    0  0.91877835301E+00 -0.58188495951E+01 -0.10232065836E+03  0.10249009850E+03  0.00000000000E+00 0. -1.
        -15    1    1    2    0    0 -0.77111093639E+00  0.53813382721E+01 -0.76924411642E+02  0.77136737351E+02  0.17770000000E+01 0. -1.
         15    1    1    2    0    0 -0.36069314208E+01 -0.36494539924E+01 -0.58667860067E+00  0.54617203789E+01  0.17770000000E+01 0. -1.
</event>
<event>
 6    1  0.1045352E-002  0.1630955E+03  0.7546771E-02  0.1085044E+00
        -11   -1    0    0    0    0  0.00000000000E+00  0.00000000000E+00  0.18250000000E+03  0.18250000000E+03  0.00000000000E+00 0.  1.
         11   -1    0    0    0    0 -0.00000000000E+00 -0.00000000000E+00 -0.18250000000E+03  0.18250000000E+03  0.00000000000E+00 0. -1.
        -11    1    1    2    0    0 -0.12454218044E+02  0.12586376464E+02  0.16534181245E+03  0.16628721948E+03  0.00000000000E+00 0.  1.
         11    1    1    2    0    0  0.46705007390E+01 -0.22330536311E+01 -0.16011889883E+03  0.16020256512E+03  0.00000000000E+00 0. -1.
        -15    1    1    2    0    0  0.40437429019E+01 -0.17902658768E+02  0.10032947344E+02  0.20992255930E+02  0.17770000000E+01 0. -1.
         15    1    1    2    0    0  0.37399744029E+01  0.75493359358E+01 -0.15255860956E+02  0.17517959474E+02  0.17770000000E+01 0.  1.
</event>
<event>
 6    1  0.1045352E-002  0.1869064E+03  0.7546771E-02  0.1065000E+00
        -11   -1    0    0    0    0  0.00000000000E+00  0.00000000000E+00  0.18250000000E+03  0.18250000000E+03  0.00000000000E+00 0.  1.
         11   -1    0    0    0    0 -0.00000000000E+00 -0.00000000000E+00 -0.18250000000E+03  0.18250000000E+03  0.00000000000E+00 0. -1.
        -11    1    1    2    0    0  0.20549392747E+01 -0.16703256710E+01  0.17807390438E+03  0.17809359389E+03  0.00000000000E+00 0.  1.
         11    1    1    2    0    0  0.66671942565E+01  0.97990016701E+00 -0.16173917245E+03  0.16187949712E+03  0.00000000000E+00 0. -1.
        -15    1    1    2    0    0 -0.12778448092E+02  0.38840653615E+01 -0.12227573302E+02  0.18194668923E+02  0.17770000000E+01 0. -1.
         15    1    1    2    0    0  0.40563145614E+01 -0.31936398575E+01 -0.41071586305E+01  0.68322400701E+01  0.17770000000E+01 0. -1.
</event>
<event>
 6    1  0.1045352E-002  0.1830324E+03  0.7546771E-02  0.1068032E+00
        -11   -1    0    0    0    0  0.00000000000E+00  0.00000000000E+00  0.18250000000E+03  0.18250000000E+03  0.00000000000E+00 0. -1.
         11   -1    0    0    0    0 -0.00000000000E+00 -0.00000000000E+00 -0.18250000000E+03  0.18250000000E+03  0.00000000000E+00 0. -1.
        -11    1    1    2    0    0  0.34605389495E+01 -0.32772593092E+01  0.18190518040E+03  0.18196760815E+03  0.00000000000E+00 0. -1.
         11    1    1    2    0    0 -0.89260166742E+00  0.16152709152E+00 -0.22184085846E+02  0.22202623573E+02  0.00000000000E+00 0. -1.
        -15    1    1    2    0    0 -0.39758524446E+01 -0.23374330447E+00 -0.84902503763E+01  0.95448477749E+01  0.17770000000E+01 0.  1.
         15    1    1    2    0    0  0.14079151626E+01  0.33494755221E+01 -0.15123084418E+03  0.15128492050E+03  0.17770000000E+01 0. -1.
</event>
<event>
 6    1  0.1045352E-002  0.1832292E+03  0.7546771E-02  0.1067876E+00
        -11   -1    0    0    0    0  0.00000000000E+00  0.00000000000E+00  0.18250000000E+03  0.18250000000E+03  0.00000000000E+00 0.  1.
         11   -1    0    0    0    0 -0.00000000000E+00 -0.00000000000E+00 -0.18250000000E+03  0.18250000000E+03  0.00000000000E+00 0.  1.
        -11    1    1    2    0    0 -0.24619436588E+01  0.97266452671E+00  0.36591471249E+02  0.36687095975E+02  0.00000000000E+00 0.  1.
         11    1    1    2    0    0 -0.92200721470E+01 -0.43331617684E+01 -0.18148510463E+03  0.18177081511E+03  0.00000000000E+00 0.  1.
        -15    1    1    2    0    0  0.10949316270E+02  0.25896399861E+01  0.39030945334E+02  0.40659146384E+02  0.17770000000E+01 0. -1.
         15    1    1    2    0    0  0.73269953535E+00  0.77085725556E+00  0.10586268805E+03  0.10588294253E+03  0.17770000000E+01 0.  1.
</event>
<event>
 6    1  0.1045352E-002  0.1830727E+03  0.7546771E-02  0.1068000E+00
        -11   -1    0    0    0    0  0.00000000000E+00  0.00000000000E+00  0.18250000000E+03  0.18250000000E+03  0.00000000000E+00 0.  1.
         11   -1    0    0    0    0 -0.00000000000E+00 -0.00000000000E+00 -0.18250000000E+03  0.18250000000E+03  0.00000000000E+00 0.  1.
        -11    1    1    2    0    0 -0.31419333504E+01  0.13300985455E+01  0.96292404929E+02  0.96352831584E+02  0.00000000000E+00 0.  1.
         11    1    1    2    0    0 -0.27038064724E+01 -0.30920206445E+01 -0.18188090885E+03  0.18192728263E+03  0.00000000000E+00 0.  1.
        -15    1    1    2    0    0  0.71302769063E+01 -0.23610196390E+01  0.70603466312E+02  0.71024097648E+02  0.17770000000E+01 0.  1.
         15    1    1    2    0    0 -0.12845370835E+01  0.41229417380E+01  0.14985037609E+02  0.15695788137E+02  0.17770000000E+01 0. -1.
</event>
<event>
 6    1  0.1045352E-002  0.1883956E+03  0.7546771E-02  0.1063856E+00
        -11   -1    0    0    0    0  0.00000000000E+00  0.00000000000E+00  0.18250000000E+03  0.18250000000E+03  0.00000000000E+00 0. -1.
         11   -1    0    0    0    0 -0.00000000000E+00 -0.00000000000E+00 -0.18250000000E+03  0.18250000000E+03  0.00000000000E+00 0.  1.
        -11    1    1    2    0    0 -0.12564856182E+02  0.94696514097E+01  0.17590218203E+03  0.17660443809E+03  0.00000000000E+00 0. -1.
         11    1    1    2    0    0  0.13335031910E+02 -0.12960220854E+01 -0.95793746812E+02  0.96726132341E+02  0.00000000000E+00 0.  1.
        -15    1    1    2    0    0 -0.89110051853E+01 -0.12340087924E+01  0.15449791525E+01  0.92991118229E+01  0.17770000000E+01 0. -1.
         15    1    1    2    0    0  0.81408294578E+01 -0.69396205319E+01 -0.81653414375E+02  0.82370317745E+02  0.17770000000E+01 0.  1.
</event>
<event>
 6    1  0.1045352E-002  0.1877042E+03  0.7546771E-02  0.1064386E+00
        -11   -1    0    0    0    0  0.00000000000E+00  0.00000000000E+00  0.18250000000E+03  0.18250000000E+03  0.00000000000E+00 0.  1.
         11   -1    0    0    0    0 -0.00000000000E+00 -0.00000000000E+00 -0.18250000000E+03  0.18250000000E+03  0.00000000000E+00 0. -1.
        -11    1    1    2    0    0 -0.38173854445E+01 -0.17779929442E+01  0.11484286995E+03  0.11492005251E+03  0.00000000000E+00 0.  1.
         11    1    1    2    0    0  0.24130787938E+01 -0.86761582023E+00 -0.17727728278E+03  0.17729582820E+03  0.00000000000E+00 0. -1.
        -15    1    1    2    0    0  0.75536323478E+01  0.27392000180E+00 -0.19766758483E+01  0.80123261431E+01  0.17770000000E+01 0. -1.
         15    1    1    2    0    0 -0.61493256971E+01  0.23716887626E+01  0.64411088678E+02  0.64771793149E+02  0.17770000000E+01 0.  1.
</event>
<event>
 6    1  0.1045352E-002  0.1850014E+03  0.7546771E-02  0.1066481E+00
        -11   -1    0    0    0    0  0.00000000000E+00  0.00000000000E+00  0.18250000000E+03  0.18250000000E+03  0.00000000000E+00 0. -1.
         11   -1    0    0    0    0 -0.00000000000E+00 -0.00000000000E+00 -0.18250000000E+03  0.18250000000E+03  0.00000000000E+00 0.  1.
        -11    1    1    2    0    0 -0.31217992936E+01 -0.88017444889E+00  0.17996937297E+03  0.17999859874E+03  0.00000000000E+00 0. -1.
         11    1    1    2    0    0 -0.13075351437E+01 -0.14737594196E+01 -0.11888763846E+03  0.11890396206E+03  0.00000000000E+00 0.  1.
        -15    1    1    2    0    0 -0.30365867800E+01 -0.44355623791E+01 -0.52291096712E+02  0.52596688082E+02  0.17770000000E+01 0. -1.
         15    1    1    2    0    0  0.74659212173E+01  0.67894962476E+01 -0.87906378076E+01  0.13500751127E+02  0.17770000000E+01 0.  1.
</event>
<event>
 6    1  0.1045352E-002  0.1876390E+03  0.7546771E-02  0.1064436E+00
        -11   -1    0    0    0    0  0.00000000000E+00  0.00000000000E+00  0.18250000000E+03  0.18250000000E+03  0.00000000000E+00 0.  1.
         11   -1    0    0    0    0 -0.00000000000E+00 -0.00000000000E+00 -0.18250000000E+03  0.18250000000E+03  0.00000000000E+00 0.  1.
        -11    1    1    2    0    0 -0.77881822497E+00 -0.28578755763E+01  0.17733629489E+03  0.17736103150E+03  0.00000000000E+00 0.  1.
         11    1    1    2    0    0 -0.24841906957E+01  0.11558777191E+01 -0.14783175255E+03  0.14785714159E+03  0.00000000000E+00 0.  1.
        -15    1    1    2    0    0  0.29660246201E+01 -0.10665265709E+01 -0.34006287433E+02  0.34198246957E+02  0.17770000000E+01 0. -1.
         15    1    1    2    0    0  0.29698430060E+00  0.27685244281E+01  0.45017450983E+01  0.55835799550E+01  0.17770000000E+01 0. -1.
</event>
<event>
 6    1  0.1045352E-002  0.1883599E+03  0.7546771E-02  0.1063884E+00
        -11   -1    0    0    0    0  0.00000000000E+00  0.00000000000E+00  0.18250000000E+03  0.18250000000E+03  0.00000000000E+00 0. -1.
         11   -1    0    0    0    0 -0.00000000000E+00 -0.00000000000E+00 -0.18250000000E+03  0.18250000000E+03  0.00000000000E+00 0. -1.
        -11    1    1    2    0    0 -0.19161873824E+01  0.15504782700E+01  0.17662286872E+03  0.17664006769E+03  0.00000000000E+00 0. -1.
         11    1    1    2    0    0 -0.36534808226E+01 -0.39946578450E+01 -0.17224508689E+03  0.17233013425E+03  0.00000000000E+00 0. -1.
        -15    1    1    2    0    0  0.94226555824E+01  0.15706741094E+01 -0.59819709638E+01  0.11410309417E+02  0.17770000000E+01 0.  1.
         15    1    1    2    0    0 -0.38529873774E+01  0.87350546565E+00  0.16041891352E+01  0.46194886417E+01  0.17770000000E+01 0.  1.
</event>
<event>
 6    1  0.5337782E-002  0.1826206E+03  0.7546771E-02  0.1068359E+00
        -11   -1    0    0    0    0  0.00000000000E+00  0.00000000000E+00  0.18250000000E+03  0.18250000000E+03  0.00000000000E+00 0. -1.
         11   -1    0    0    0    0 -0.00000000000E+00 -0.00000000000E+00 -0.18250000000E+03  0.18250000000E+03  0.00000000000E+00 0.  1.
        -11    1    1    2    0    0  0.26097248200E+01 -0.12341366636E+01  0.18235659311E+03  0.18237944184E+03  0.00000000000E+00 0. -1.
         11    1    1    2    0    0  0.50630495870E+00 -0.13655083486E+00 -0.32934559597E+02  0.32938734139E+02  0.00000000000E+00 0.  1.
        -15    1    1    2    0    0 -0.38792286505E+01  0.85372857960E+00 -0.39059994909E+02  0.39301630993E+02  0.17770000000E+01 0.  1.
         15    1    1    2    0    0  0.76319887180E+00  0.51695891883E+00 -0.11036203860E+03  0.11038019303E+03  0.17770000000E+01 0.  1.
</event>
<event>
 6    1  0.1045352E-002  0.1764778E+03  0.7546771E-02  0.1073352E+00
        -11   -1    0    0    0    0  0.00000000000E+00  0.00000000000E+00  0.18250000000E+03  0.18250000000E+03  0.00000000000E+00 0. -1.
         11   -1    0    0    0    0 -0.00000000000E+00 -0.00000000000E+00 -0.18250000000E+03  0.18250000000E+03  0.00000000000E+00 0. -1.
        -11    1    1    2    0    0  0.38518264843E-01 -0.43258650005E+01  0.17604028274E+03  0.17609342901E+03  0.00000000000E+00 0. -1.
         11    1    1    2    0    0 -0.54082714207E+01  0.72477144667E+01 -0.17668440569E+03  0.17691568042E+03  0.00000000000E+00 0. -1.
        -15    1    1    2    0    0  0.35031560935E+01  0.31669399707E+01  0.16378165727E+01  0.53048829882E+01  0.17770000000E+01 0. -1.
         15    1    1    2    0    0  0.18665970624E+01 -0.60887894368E+01 -0.99369362676E+00  0.66860075848E+01  0.17770000000E+01 0.  1.
</event>
<event>
 6    1  0.1045352E-002  0.1864507E+03  0.7546771E-02  0.1065353E+00
        -11   -1    0    0    0    0  0.00000000000E+00  0.00000000000E+00  0.18250000000E+03  0.18250000000E+03  0.00000000000E+00 0. -1.
         11   -1    0    0    0    0 -0.00000000000E+00 -0.00000000000E+00 -0.18250000000E+03  0.18250000000E+03  0.00000000000E+00 0.  1.
        -11    1    1    2    0    0  0.13477267437E+01 -0.23666889176E+01  0.17320002387E+03  0.17322143589E+03  0.00000000000E+00 0. -1.
         11    1    1    2    0    0  0.31199229657E+01  0.23347301348E+01 -0.17850673754E+03  0.17854926556E+03  0.00000000000E+00 0.  1.
        -15    1    1    2    0    0 -0.60766702217E+01 -0.87963725325E+00 -0.95479554289E+00  0.64628976636E+01  0.17770000000E+01 0. -1.
         15    1    1    2    0    0  0.16090205123E+01  0.91159603608E+00  0.62615092170E+01  0.67664008909E+01  0.17770000000E+01 0. -1.
</event>
<event>
 6    1  0.1045352E-002  0.1835695E+03  0.7546771E-02  0.1067607E+00
        -11   -1    0    0    0    0  0.00000000000E+00  0.00000000000E+00  0.18250000000E+03  0.18250000000E+03  0.00000000000E+00 0.  1.
         11   -1    0    0    0    0 -0.00000000000E+00 -0.00000000000E+00 -0.18250000000E+03  0.18250000000E+03  0.00000000000E+00 0.  1.
        -11    1    1    2    0    0  0.34446237664E+00  0.50492041928E+01  0.14431064349E+03  0.14439935922E+03  0.00000000000E+00 0.  1.
         11    1    1    2    0    0  0.54087694222E+01 -0.13035692986E+01 -0.18134522215E+03  0.18143054781E+03  0.00000000000E+00 0.  1.
        -15    1    1    2    0    0  0.21613244823E+01 -0.10346319828E+01  0.18729039251E+02  0.18965137150E+02  0.17770000000E+01 0. -1.
         15    1    1    2    0    0 -0.79145562811E+01 -0.27110029115E+01  0.18305539412E+02  0.20204955829E+02  0.17770000000E+01 0.  1.
</event>
<event>
 6    1  0.1045352E-002  0.1883797E+03  0.7546771E-02  0.1063869E+00
        -11   -1    0    0    0    0  0.00000000000E+00  0.00000000000E+00  0.18250000000E+03  0.18250000000E+03  0.00000000000E+00 0. -1.
         11   -1    0    0    0    0 -0.00000000000E+00 -0.00000000000E+00 -0.18250000000E+03  0.18250000000E+03  0.00000000000E+00 0.  1.
        -11    1    1    2    0    0 -0.24687127185E+01  0.29428395876E+01  0.17657851348E+03  0.17662028839E+03  0.00000000000E+00 0. -1.
         11    1    1    2    0    0 -0.27542814077E+01  0.25579221603E+01 -0.17071386726E+03  0.17075524445E+03  0.00000000000E+00 0.  1.
        -15    1    1    2    0    0  0.47617677281E+01 -0.42141511464E+01  0.38578563320E+01  0.76468481259E+01  0.17770000000E+01 0.  1.
         15    1    1    2    0    0  0.46122639804E+00 -0.12866106015E+01 -0.97225025546E+01  0.99776190323E+01  0.17770000000E+01 0.  1.
</event>
<event>
 6    1  0.1045352E-002  0.1752434E+03  0.7546771E-02  0.1074382E+00
        -11   -1    0    0    0    0  0.00000000000E+00  0.00000000000E+00  0.18250000000E+03  0.18250000000E+03  0.00000000000E+00 0. -1.
         11   -1    0    0    0    0 -0.00000000000E+00 -0.00000000000E+00 -0.18250000000E+03  0.18250000000E+03  0.00000000000E+00 0. -1.
        -11    1    1    2    0    0 -0.84357408206E+01 -0.86205919913E+00  0.17294272014E+03  0.17315048171E+03  0.00000000000E+00 0. -1.
         11    1    1    2    0    0  0.14259815344E+01  0.43260327602E+01 -0.17739331467E+03  0.17745178521E+03  0.00000000000E+00 0. -1.
        -15    1    1    2    0    0  0.81467035256E+01 -0.93075692111E+00  0.64138734831E+01  0.10560804365E+02  0.17770000000E+01 0. -1.
         15    1    1    2    0    0 -0.11369442394E+01 -0.25332166400E+01 -0.19632789453E+01  0.38369287152E+01  0.17770000000E+01 0.  1.
</event>
<event>
 6    1  0.1045352E-002  0.1943260E+03  0.7546771E-02  0.1059413E+00
        -11   -1    0    0    0    0  0.00000000000E+00  0.00000000000E+00  0.18250000000E+03  0.18250000000E+03  0.00000000000E+00 0. -1.
         11   -1    0    0    0    0 -0.00000000000E+00 -0.00000000000E+00 -0.18250000000E+03  0.18250000000E+03  0.00000000000E+00 0. -1.
        -11    1    1    2    0    0 -0.61949548519E+01 -0.23618568470E+00  0.15966398977E+03  0.15978430110E+03  0.00000000000E+00 0. -1.
         11    1    1    2    0    0 -0.49445493086E+01 -0.18375472465E+01 -0.17059248789E+03  0.17067402283E+03  0.00000000000E+00 0. -1.
        -15    1    1    2    0    0  0.69436382038E+01  0.83142989234E+01 -0.83370706541E+01  0.13784271986E+02  0.17770000000E+01 0.  1.
         15    1    1    2    0    0  0.41958659566E+01 -0.62405659922E+01  0.19265568771E+02  0.20757404079E+02  0.17770000000E+01 0. -1.
</event>
<event>
 6    1  0.1045352E-002  0.1827331E+03  0.7546771E-02  0.1068269E+00
        -11   -1    0    0    0    0  0.00000000000E+00  0.00000000000E+00  0.18250000000E+03  0.18250000000E+03  0.00000000000E+00 0.  1.
         11   -1    0    0    0    0 -0.00000000000E+00 -0.00000000000E+00 -0.18250000000E+03  0.18250000000E+03  0.00000000000E+00 0.  1.
        -11    1    1    2    0    0  0.59138929167E+00 -0.14112593779E+01  0.71914191293E+02  0.71930468535E+02  0.00000000000E+00 0.  1.
         11    1    1    2    0    0  0.23196954859E+01 -0.23854003884E+01 -0.18223649734E+03  0.18226687051E+03  0.00000000000E+00 0.  1.
        -15    1    1    2    0    0 -0.16613628965E+01  0.40942351468E+01  0.24850139928E+02  0.25302372844E+02  0.17770000000E+01 0.  1.
         15    1    1    2    0    0 -0.12497218811E+01 -0.29757538048E+00  0.85472166123E+02  0.85500288109E+02  0.17770000000E+01 0. -1.
</event>
<event>
 6    1  0.1045352E-002  0.1729329E+03  0.7546771E-02  0.1076336E+00
        -11   -1    0    0    0    0  0.00000000000E+00  0.00000000000E+00  0.18250000000E+03  0.18250000000E+03  0.00000000000E+00 0.  1.
         11   -1    0    0    0    0 -0.00000000000E+00 -0.00000000000E+00 -0.18250000000E+03  0.18250000000E+03  0.00000000000E+00 0.  1.
        -11    1    1    2    0    0 -0.91394843217E+00 -0.27091535956E+01  0.17273929415E+03  0.17276295482E+03  0.00000000000E+00 0.  1.
         11    1    1    2    0    0 -0.26666947787E+01 -0.84386225552E+00 -0.17311723982E+03  0.17313983391E+03  0.00000000000E+00 0.  1.
        -15    1    1    2    0    0 -0.14134997813E+00  0.81374169772E+00  0.89695196074E+01  0.91810765357E+01  0.17770000000E+01 0. -1.
         15    1    1    2    0    0  0.37219931890E+01  0.27392741534E+01 -0.85915739402E+01  0.99161347286E+01  0.17770000000E+01 0.  1.
</event>
<event>
 6    1  0.1045352E-002  0.1855258E+03  0.7546771E-02  0.1066071E+00
        -11   -1    0    0    0    0  0.00000000000E+00  0.00000000000E+00  0.18250000000E+03  0.18250000000E+03  0.00000000000E+00 0.  1.
         11   -1    0    0    0    0 -0.00000000000E+00 -0.00000000000E+00 -0.18250000000E+03  0.18250000000E+03  0.00000000000E+00 0. -1.
        -11    1    1    2    0    0  0.20576641287E+01  0.56146382245E+01  0.95751670832E+02  0.95938212466E+02  0.00000000000E+00 0.  1.
         11    1    1    2    0    0 -0.25289235389E+01 -0.13841162587E+01 -0.17945105775E+03  0.17947421364E+03  0.00000000000E+00 0. -1.
        -15    1    1    2    0    0  0.28772453965E+01  0.19505645719E+01 -0.14479223973E+01  0.41638265441E+01  0.17770000000E+01 0.  1.
         15    1    1    2    0    0 -0.24059859863E+01 -0.61810865377E+01  0.85147309316E+02  0.85423747355E+02  0.17770000000E+01 0.  1.
</event>
<event>
 6    1  0.1045352E-002  0.1899591E+03  0.7546771E-02  0.1062668E+00
        -11   -1    0    0    0    0  0.00000000000E+00  0.00000000000E+00  0.18250000000E+03  0.18250000000E+03  0.00000000000E+00 0.  1.
         11   -1    0    0    0    0 -0.00000000000E+00 -0.00000000000E+00 -0.18250000000E+03  0.18250000000E+03  0.00000000000E+00 0.  1.
        -11    1    1    2    0    0  0.11263348022E+02 -0.49123644575E+01  0.14968119111E+03  0.15018473060E+03  0.00000000000E+00 0.  1.
         11    1    1    2    0    0  0.21998334219E+01 -0.21261500562E+01 -0.17501416968E+03  0.17504090770E+03  0.00000000000E+00 0.  1.
        -15    1    1    2    0    0  0.67742243497E+01  0.38738373557E+01  0.14432859869E+02  0.16503390694E+02  0.17770000000E+01 0.  1.
         15    1    1    2    0    0 -0.20237405793E+02  0.31646771580E+01  0.10900118698E+02  0.23270971002E+02  0.17770000000E+01 0. -1.
</event>
<event>
 6    1  0.1045352E-002  0.1825529E+03  0.7546771E-02  0.1068413E+00
        -11   -1    0    0    0    0  0.00000000000E+00  0.00000000000E+00  0.18250000000E+03  0.18250000000E+03  0.00000000000E+00 0.  1.
         11   -1    0    0    0    0 -0.00000000000E+00 -0.00000000000E+00 -0.18250000000E+03  0.18250000000E+03  0.00000000000E+00 0. -1.
        -11    1    1    2    0    0  0.11393143577E+01  0.44206467845E+00  0.29585592767E+02  0.29610821632E+02  0.00000000000E+00 0.  1.
         11    1    1    2    0    0 -0.10888960345E+01 -0.22398713780E+01 -0.18243010582E+03  0.18244710529E+03  0.00000000000E+00 0. -1.
        -15    1    1    2    0    0 -0.66284999813E+00 -0.21084484865E+00  0.26935880139E+02  0.27003392260E+02  0.17770000000E+01 0.  1.
         15    1    1    2    0    0  0.61243167496E+00  0.20086515482E+01  0.12590863292E+03  0.12593868082E+03  0.17770000000E+01 0.  1.
</event>
<event>
 6    1  0.1045352E-002  0.1834254E+03  0.7546771E-02  0.1067721E+00
        -11   -1    0    0    0    0  0.00000000000E+00  0.00000000000E+00  0.18250000000E+03  0.18250000000E+03  0.00000000000E+00 0. -1.
         11   -1    0    0    0    0 -0.00000000000E+00 -0.00000000000E+00 -0.18250000000E+03  0.18250000000E+03  0.00000000000E+00 0.  1.
        -11    1    1    2    0    0  0.82796919060E+01 -0.54098627062E+01  0.18130506742E+03  0.18157463310E+03  0.00000000000E+00 0. -1.
         11    1    1    2    0    0 -0.17363193353E+01  0.27743273960E+01 -0.51200961320E+02  0.51305459139E+02  0.00000000000E+00 0.  1.
        -15    1    1    2    0    0  0.39534690927E+01 -0.71301124372E+01 -0.56320558236E+02  0.56935326734E+02  0.17770000000E+01 0. -1.
         15    1    1    2    0    0 -0.10496841663E+02  0.97656477474E+01 -0.73783547861E+02  0.75184581031E+02  0.17770000000E+01 0.  1.
</event>
<event>
 6    1  0.1045352E-002  0.1927419E+03  0.7546771E-02  0.1060582E+00
        -11   -1    0    0    0    0  0.00000000000E+00  0.00000000000E+00  0.18250000000E+03  0.18250000000E+03  0.00000000000E+00 0.  1.
         11   -1    0    0    0    0 -0.00000000000E+00 -0.00000000000E+00 -0.18250000000E+03  0.18250000000E+03  0.00000000000E+00 0. -1.
        -11    1    1    2    0    0 -0.51945319153E+00  0.31082741284E+01  0.16547973286E+03  0.16550973744E+03  0.00000000000E+00 0.  1.
         11    1    1    2    0    0 -0.36674972848E+01  0.51745074765E+01 -0.17214126015E+03  0.17225806080E+03  0.00000000000E+00 0. -1.
        -15    1    1    2    0    0  0.30815122279E+01 -0.81305291340E+01  0.15655916889E+02  0.17996296404E+02  0.17770000000E+01 0.  1.
         15    1    1    2    0    0  0.11054382485E+01 -0.15225247098E+00 -0.89943895959E+01  0.92359053557E+01  0.17770000000E+01 0. -1.
</event>
<event>
 6    1  0.1045352E-002  0.1830027E+03  0.7546771E-02  0.1068055E+00
        -11   -1    0    0    0    0  0.00000000000E+00  0.00000000000E+00  0.18250000000E+03  0.18250000000E+03  0.00000000000E+00 0. -1.
         11   -1    0    0    0    0 -0.00000000000E+00 -0.00000000000E+00 -0.18250000000E+03  0.18250000000E+03  0.00000000000E+00 0.  1.
        -11    1    1    2    0    0 -0.46129604973E+00  0.23994577282E+01  0.16258653902E+03  0.16260489802E+03  0.00000000000E+00 0. -1.
         11    1    1    2    0    0 -0.23854032830E+01 -0.11604380777E+01 -0.18197793203E+03  0.18199726512E+03  0.00000000000E+00 0.  1.
        -15    1    1    2    0    0  0.36980791329E+01 -0.96662783454E+00  0.11160392959E+02  0.11929889297E+02  0.17770000000E+01 0. -1.
         15    1    1    2    0    0 -0.85137980021E+00 -0.27239181595E+00  0.82310000596E+01  0.84679475581E+01  0.17770000000E+01 0. -1.
</event>
<event>
 6    1  0.1045352E-002  0.1829935E+03  0.7546771E-02  0.1068063E+00
        -11   -1    0    0    0    0  0.00000000000E+00  0.00000000000E+00  0.18250000000E+03  0.18250000000E+03  0.00000000000E+00 0.  1.
         11   -1    0    0    0    0 -0.00000000000E+00 -0.00000000000E+00 -0.18250000000E+03  0.18250000000E+03  0.00000000000E+00 0. -1.
        -11    1    1    2    0    0 -0.41475105460E+01 -0.43175697115E+01  0.18190803054E+03  0.18200652413E+03  0.00000000000E+00 0.  1.
         11    1    1    2    0    0  0.34506176937E+00  0.13497929359E+01 -0.41433147584E+02  0.41456564345E+02  0.00000000000E+00 0. -1.
        -15    1    1    2    0    0  0.47555844627E+01  0.43125473351E+01 -0.20865603291E+02  0.21903076902E+02  0.17770000000E+01 0. -1.
         15    1    1    2    0    0 -0.95313568601E+00 -0.13447705595E+01 -0.11960927966E+03  0.11963383462E+03  0.17770000000E+01 0. -1.
</event>
<event>
 6    1  0.1045352E-002  0.1830257E+03  0.7546771E-02  0.1068037E+00
        -11   -1    0    0    0    0  0.00000000000E+00  0.00000000000E+00  0.18250000000E+03  0.18250000000E+03  0.00000000000E+00 0. -1.
         11   -1    0    0    0    0 -0.00000000000E+00 -0.00000000000E+00 -0.18250000000E+03  0.18250000000E+03  0.00000000000E+00 0.  1.
        -11    1    1    2    0    0  0.38209731861E+01 -0.27139601979E+01  0.12231673266E+03  0.12240648882E+03  0.00000000000E+00 0. -1.
         11    1    1    2    0    0  0.44084690847E+01 -0.13988717862E+01 -0.18191548291E+03  0.18197426842E+03  0.00000000000E+00 0.  1.
        -15    1    1    2    0    0 -0.20492291052E+01 -0.95954374117E+00  0.14461401086E+02  0.14744826702E+02  0.17770000000E+01 0. -1.
         15    1    1    2    0    0 -0.61802131656E+01  0.50723757253E+01  0.45137349163E+02  0.45874416059E+02  0.17770000000E+01 0. -1.
</event>
<event>
 6    1  0.1045352E-002  0.1864046E+03  0.7546771E-02  0.1065389E+00
        -11   -1    0    0    0    0  0.00000000000E+00  0.00000000000E+00  0.18250000000E+03  0.18250000000E+03  0.00000000000E+00 0. -1.
         11   -1    0    0    0    0 -0.00000000000E+00 -0.00000000000E+00 -0.18250000000E+03  0.18250000000E+03  0.00000000000E+00 0.  1.
        -11    1    1    2    0    0 -0.62148279742E+01  0.35490211462E+01  0.16353395151E+03  0.16369047906E+03  0.00000000000E+00 0. -1.
         11    1    1    2    0    0  0.33076158743E+00  0.58000387186E+01 -0.17850089627E+03  0.17859540817E+03  0.00000000000E+00 0.  1.
        -15    1    1    2    0    0 -0.73437850963E+00 -0.43417760519E+01 -0.79287024034E+00  0.48142188669E+01  0.17770000000E+01 0.  1.
         15    1    1    2    0    0  0.66184448964E+01 -0.50072838129E+01  0.15759814993E+02  0.17899893900E+02  0.17770000000E+01 0.  1.
</event>
<event>
 6    1  0.1045352E-002  0.1856894E+03  0.7546771E-02  0.1065944E+00
        -11   -1    0    0    0    0  0.00000000000E+00  0.00000000000E+00  0.18250000000E+03  0.18250000000E+03  0.00000000000E+00 0. -1.
         11   -1    0    0    0    0 -0.00000000000E+00 -0.00000000000E+00 -0.18250000000E+03  0.18250000000E+03  0.00000000000E+00 0.  1.
        -11    1    1    2    0    0 -0.78371257229E+01  0.46350292967E+01  0.17907928121E+03  0.17931060481E+03  0.00000000000E+00 0. -1.
         11    1    1    2    0    0  0.92593166409E+01  0.35781334293E+00 -0.15904901939E+03  0.15931871687E+03  0.00000000000E+00 0.  1.
        -15    1    1    2    0    0 -0.78970181057E+01  0.63242955658E+00 -0.11992538077E+02  0.14482456995E+02  0.17770000000E+01 0. -1.
         15    1    1    2    0    0  0.64748271876E+01 -0.56252721962E+01 -0.80377237423E+01  0.11888221328E+02  0.17770000000E+01 0.  1.
</event>
<event>
 6    1  0.1045352E-002  0.1666881E+03  0.7546771E-02  0.1081788E+00
        -11   -1    0    0    0    0  0.00000000000E+00  0.00000000000E+00  0.18250000000E+03  0.18250000000E+03  0.00000000000E+00 0. -1.
         11   -1    0    0    0    0 -0.00000000000E+00 -0.00000000000E+00 -0.18250000000E+03  0.18250000000E+03  0.00000000000E+00 0.  1.
        -11    1    1    2    0    0 -0.51779173579E+01  0.80899917821E+01  0.16764013641E+03  0.16791508011E+03  0.00000000000E+00 0. -1.
         11    1    1    2    0    0 -0.80368146314E+01 -0.10641140834E+02 -0.16520423247E+03  0.16574155391E+03  0.00000000000E+00 0.  1.
        -15    1    1    2    0    0  0.94786522587E+01  0.18856813037E+01 -0.15093419184E+02  0.18010265803E+02  0.17770000000E+01 0.  1.
         15    1    1    2    0    0  0.37360797305E+01  0.66546774829E+00  0.12657515243E+02  0.13333100173E+02  0.17770000000E+01 0. -1.
</event>
<event>
 6    1  0.1045352E-002  0.1916494E+03  0.7546771E-02  0.1061396E+00
        -11   -1    0    0    0    0  0.00000000000E+00  0.00000000000E+00  0.18250000000E+03  0.18250000000E+03  0.00000000000E+00 0. -1.
         11   -1    0    0    0    0 -0.00000000000E+00 -0.00000000000E+00 -0.18250000000E+03  0.18250000000E+03  0.00000000000E+00 0.  1.
        -11    1    1    2    0    0  0.28327623473E+01  0.15529785314E+02  0.16140273112E+03  0.16217287192E+03  0.00000000000E+00 0. -1.
         11    1    1    2    0    0 -0.16603464999E+01 -0.20191842167E+01 -0.17333087242E+03  0.17335058462E+03  0.00000000000E+00 0.  1.
        -15    1    1    2    0    0  0.69043733799E+01 -0.51750343877E+01  0.14949452341E+02  0.17352095176E+02  0.17770000000E+01 0. -1.
         15    1    1    2    0    0 -0.80767892272E+01 -0.83355667099E+01 -0.30213110453E+01  0.12124448277E+02  0.17770000000E+01 0.  1.
</event>
<event>
 6    1  0.1045352E-002  0.1882187E+03  0.7546771E-02  0.1063992E+00
        -11   -1    0    0    0    0  0.00000000000E+00  0.00000000000E+00  0.18250000000E+03  0.18250000000E+03  0.00000000000E+00 0. -1.
         11   -1    0    0    0    0 -0.00000000000E+00 -0.00000000000E+00 -0.18250000000E+03  0.18250000000E+03  0.00000000000E+00 0. -1.
        -11    1    1    2    0    0  0.10382765264E+02  0.31835940659E+01  0.16611874194E+03  0.16647334174E+03  0.00000000000E+00 0. -1.
         11    1    1    2    0    0  0.25969204370E+00  0.26083980693E+01 -0.17676182290E+03  0.17678125810E+03  0.00000000000E+00 0. -1.
        -15    1    1    2    0    0 -0.34050476226E+00 -0.32160657554E+01 -0.27202235218E+01  0.45843611817E+01  0.17770000000E+01 0.  1.
         15    1    1    2    0    0 -0.10301952545E+02 -0.25759263798E+01  0.13363304488E+02  0.17161038978E+02  0.17770000000E+01 0.  1.
</event>
<event>
 6    1  0.1045352E-002  0.1826340E+03  0.7546771E-02  0.1068348E+00
        -11   -1    0    0    0    0  0.00000000000E+00  0.00000000000E+00  0.18250000000E+03  0.18250000000E+03  0.00000000000E+00 0. -1.
         11   -1    0    0    0    0 -0.00000000000E+00 -0.00000000000E+00 -0.18250000000E+03  0.18250000000E+03  0.00000000000E+00 0. -1.
        -11    1    1    2    0    0 -0.62298457024E+00  0.15007340730E+01  0.14567404976E+02  0.14657748813E+02  0.00000000000E+00 0. -1.
         11    1    1    2    0    0  0.10985449751E+00 -0.79069277381E+01 -0.18219451297E+03  0.18236603886E+03  0.00000000000E+00 0. -1.
        -15    1    1    2    0    0  0.10796906938E+01  0.70622766947E+01  0.82958939658E+02  0.83284961921E+02  0.17770000000E+01 0. -1.
         15    1    1    2    0    0 -0.56656062103E+00 -0.65608302963E+00  0.84668168338E+02  0.84691250401E+02  0.17770000000E+01 0. -1.
</event>
<event>
 6    1  0.1045352E-002  0.1828841E+03  0.7546771E-02  0.1068149E+00
        -11   -1    0    0    0    0  0.00000000000E+00  0.00000000000E+00  0.18250000000E+03  0.18250000000E+03  0.00000000000E+00 0.  1.
         11   -1    0    0    0    0 -0.00000000000E+00 -0.00000000000E+00 -0.18250000000E+03  0.18250000000E+03  0.00000000000E+00 0.  1.
        -11    1    1    2    0    0  0.33486023343E+01  0.69692585988E+00  0.14162213028E+03  0.14166342728E+03  0.00000000000E+00 0.  1.
         11    1    1    2    0    0  0.16278737767E+01 -0.22535592313E+01 -0.18209467128E+03  0.18211589115E+03  0.00000000000E+00 0.  1.
        -15    1    1    2    0    0 -0.36341654368E+01  0.27965050766E+01  0.31912688882E+02  0.32289395160E+02  0.17770000000E+01 0. -1.
         15    1    1    2    0    0 -0.13423106743E+01 -0.12398717052E+01  0.85598521133E+01  0.89312864131E+01  0.17770000000E+01 0.  1.
</event>
<event>
 6    1  0.1045352E-002  0.1467321E+03  0.7546771E-02  0.1101134E+00
        -11   -1    0    0    0    0  0.00000000000E+00  0.00000000000E+00  0.18250000000E+03  0.18250000000E+03  0.00000000000E+00 0. -1.
         11   -1    0    0    0    0 -0.00000000000E+00 -0.00000000000E+00 -0.18250000000E+03  0.18250000000E+03  0.00000000000E+00 0.  1.
        -11    1    1    2    0    0  0.64994852347E+01  0.11711921729E+02  0.14734054515E+03  0.14794812829E+03  0.00000000000E+00 0. -1.
         11    1    1    2    0    0  0.17110458926E+02 -0.32724424739E+01 -0.14555178964E+03  0.14659058684E+03  0.00000000000E+00 0.  1.
        -15    1    1    2    0    0  0.25801623618E+01 -0.24267108318E+02 -0.22682659107E+02  0.33364809862E+02  0.17770000000E+01 0.  1.
         15    1    1    2    0    0 -0.26190106522E+02  0.15827629063E+02  0.20893903591E+02  0.37096475004E+02  0.17770000000E+01 0. -1.
</event>
<event>
 6    1  0.1045352E-002  0.1851764E+03  0.7546771E-02  0.1066344E+00
        -11   -1    0    0    0    0  0.00000000000E+00  0.00000000000E+00  0.18250000000E+03  0.18250000000E+03  0.00000000000E+00 0.  1.
         11   -1    0    0    0    0 -0.00000000000E+00 -0.00000000000E+00 -0.18250000000E+03  0.18250000000E+03  0.00000000000E+00 0. -1.
        -11    1    1    2    0    0 -0.19398828739E+01  0.25361441417E+01  0.17979529462E+03  0.17982364456E+03  0.00000000000E+00 0.  1.
         11    1    1    2    0    0  0.16941484541E+01 -0.19869172897E+01 -0.17366847316E+03  0.17368810134E+03  0.00000000000E+00 0. -1.
        -15    1    1    2    0    0  0.20156043827E+01 -0.27550297298E+01  0.67819652931E+00  0.39077524707E+01  0.17770000000E+01 0.  1.
         15    1    1    2    0    0 -0.17698699630E+01  0.22058028778E+01 -0.68050179962E+01  0.75805016292E+01  0.17770000000E+01 0.  1.
</event>
<event>
 6    1  0.1045352E-002  0.1840338E+03  0.7546771E-02  0.1067240E+00
        -11   -1    0    0    0    0  0.00000000000E+00  0.00000000000E+00  0.18250000000E+03  0.18250000000E+03  0.00000000000E+00 0.  1.
         11   -1    0    0    0    0 -0.00000000000E+00 -0.00000000000E+00 -0.18250000000E+03  0.18250000000E+03  0.00000000000E+00 0.  1.
        -11    1    1    2    0    0 -0.23144749529E+01  0.20597188377E+01  0.18093967008E+03  0.18096619421E+03  0.00000000000E+00 0.  1.
         11    1    1    2    0    0  0.54811245823E+01  0.14300849837E+01 -0.17134021339E+03  0.17143382570E+03  0.00000000000E+00 0.  1.
        -15    1    1    2    0    0 -0.31268568836E+01 -0.14575949278E+00 -0.73785990479E+01  0.82097462025E+01  0.17770000000E+01 0.  1.
         15    1    1    2    0    0 -0.39792745878E-01 -0.33440443286E+01 -0.22208576443E+01  0.43902338902E+01  0.17770000000E+01 0.  1.
</event>
<event>
 6    1  0.1045352E-002  0.1585855E+03  0.7546771E-02  0.1089265E+00
        -11   -1    0    0    0    0  0.00000000000E+00  0.00000000000E+00  0.18250000000E+03  0.18250000000E+03  0.00000000000E+00 0. -1.
         11   -1    0    0    0    0 -0.00000000000E+00 -0.00000000000E+00 -0.18250000000E+03  0.18250000000E+03  0.00000000000E+00 0.  1.
        -11    1    1    2    0    0 -0.23358044548E+02  0.58255628043E+01  0.15469600207E+03  0.15655793971E+03  0.00000000000E+00 0. -1.
         11    1    1    2    0    0  0.23032968196E+02  0.91592344532E+01 -0.15907757685E+03  0.16099715729E+03  0.00000000000E+00 0.  1.
        -15    1    1    2    0    0 -0.83100140012E+01  0.98617053463E+01 -0.10894114105E+02  0.16974952612E+02  0.17770000000E+01 0.  1.
         15    1    1    2    0    0  0.86350903533E+01 -0.24846502604E+02  0.15275688881E+02  0.30469950391E+02  0.17770000000E+01 0. -1.
</event>
<event>
 6    1  0.1045352E-002  0.1720198E+03  0.7546771E-02  0.1077117E+00
        -11   -1    0    0    0    0  0.00000000000E+00  0.00000000000E+00  0.18250000000E+03  0.18250000000E+03  0.00000000000E+00 0. -1.
         11   -1    0    0    0    0 -0.00000000000E+00 -0.00000000000E+00 -0.18250000000E+03  0.18250000000E+03  0.00000000000E+00 0. -1.
        -11    1    1    2    0    0 -0.44849264395E+01 -0.21980234911E+00  0.17240985136E+03  0.17246831513E+03  0.00000000000E+00 0. -1.
         11    1    1    2    0    0  0.11843285406E+01 -0.24543929625E+01 -0.17157684726E+03  0.17159848833E+03  0.00000000000E+00 0. -1.
        -15    1    1    2    0    0  0.89761061903E+00 -0.17592120812E+00  0.95511217354E+01  0.97579869081E+01  0.17770000000E+01 0. -1.
         15    1    1    2    0    0  0.24029872799E+01  0.28501165198E+01 -0.10384125834E+02  0.11175209635E+02  0.17770000000E+01 0.  1.
</event>
<event>
 6    1  0.1045352E-002  0.1829136E+03  0.7546771E-02  0.1068126E+00
        -11   -1    0    0    0    0  0.00000000000E+00  0.00000000000E+00  0.18250000000E+03  0.18250000000E+03  0.00000000000E+00 0.  1.
         11   -1    0    0    0    0 -0.00000000000E+00 -0.00000000000E+00 -0.18250000000E+03  0.18250000000E+03  0.00000000000E+00 0. -1.
        -11    1    1    2    0    0 -0.67404535847E+01  0.48954570130E+01  0.18189578351E+03  0.18208644999E+03  0.00000000000E+00 0.  1.
         11    1    1    2    0    0  0.12757150671E+01  0.24633099004E+00 -0.24490734118E+02  0.24525174526E+02  0.00000000000E+00 0. -1.
        -15    1    1    2    0    0  0.38873926628E+01 -0.67190312807E+00 -0.99937272052E+01  0.10890160145E+02  0.17770000000E+01 0.  1.
         15    1    1    2    0    0  0.15773458548E+01 -0.44698848749E+01 -0.14741132218E+03  0.14749821534E+03  0.17770000000E+01 0. -1.
</event>
<event>
 6    1  0.1045352E-002  0.1846861E+03  0.7546771E-02  0.1066728E+00
        -11   -1    0    0    0    0  0.00000000000E+00  0.00000000000E+00  0.18250000000E+03  0.18250000000E+03  0.00000000000E+00 0. -1.
         11   -1    0    0    0    0 -0.00000000000E+00 -0.00000000000E+00 -0.18250000000E+03  0.18250000000E+03  0.00000000000E+00 0.  1.
        -11    1    1    2    0    0 -0.21119796965E+01  0.64796548728E-01  0.15388798951E+03  0.15390249502E+03  0.00000000000E+00 0. -1.
         11    1    1    2    0    0 -0.61368190293E+01 -0.49281489325E+01 -0.18014206891E+03  0.18031392678E+03  0.00000000000E+00 0.  1.
        -15    1    1    2    0    0  0.98829361190E+01  0.27533242739E+01  0.25421208025E+02  0.27470871252E+02  0.17770000000E+01 0.  1.
         15    1    1    2    0    0 -0.16341373933E+01  0.21100281099E+01  0.83287136980E+00  0.33127069540E+01  0.17770000000E+01 0. -1.
</event>
<event>
 6    1  0.1045352E-002  0.1837665E+03  0.7546771E-02  0.1067451E+00
        -11   -1    0    0    0    0  0.00000000000E+00  0.00000000000E+00  0.18250000000E+03  0.18250000000E+03  0.00000000000E+00 0. -1.
         11   -1    0    0    0    0 -0.00000000000E+00 -0.00000000000E+00 -0.18250000000E+03  0.18250000000E+03  0.00000000000E+00 0.  1.
        -11    1    1    2    0    0 -0.60104915161E+01 -0.81634081155E+01  0.18094975877E+03  0.18123350253E+03  0.00000000000E+00 0. -1.
         11    1    1    2    0    0 -0.26731223981E+01  0.97984321913E-01 -0.84039407549E+02  0.84081967184E+02  0.00000000000E+00 0.  1.
        -15    1    1    2    0    0  0.24731892470E+01  0.67170011800E+01 -0.89331538336E+02  0.89635463074E+02  0.17770000000E+01 0.  1.
         15    1    1    2    0    0  0.62104246672E+01  0.13484226136E+01 -0.75788128851E+01  0.10049067212E+02  0.17770000000E+01 0. -1.
</event>
<event>
 6    1  0.1045352E-002  0.1876480E+03  0.7546771E-02  0.1064429E+00
        -11   -1    0    0    0    0  0.00000000000E+00  0.00000000000E+00  0.18250000000E+03  0.18250000000E+03  0.00000000000E+00 0.  1.
         11   -1    0    0    0    0 -0.00000000000E+00 -0.00000000000E+00 -0.18250000000E+03  0.18250000000E+03  0.00000000000E+00 0.  1.
        -11    1    1    2    0    0  0.19941325129E+01  0.50333405026E+01  0.17372238651E+03  0.17380672787E+03  0.00000000000E+00 0.  1.
         11    1    1    2    0    0  0.14361431268E+01 -0.23368282751E+01 -0.17733076281E+03  0.17735197409E+03  0.00000000000E+00 0.  1.
        -15    1    1    2    0    0 -0.46368167542E+00  0.17520302280E+01 -0.37778321872E+01  0.45513026323E+01  0.17770000000E+01 0.  1.
         15    1    1    2    0    0 -0.29665939643E+01 -0.44485424556E+01  0.73862084932E+01  0.92899954054E+01  0.17770000000E+01 0.  1.
</event>
<event>
 6    1  0.1045352E-002  0.1837572E+03  0.7546771E-02  0.1067458E+00
        -11   -1    0    0    0    0  0.00000000000E+00  0.00000000000E+00  0.18250000000E+03  0.18250000000E+03  0.00000000000E+00 0. -1.
         11   -1    0    0    0    0 -0.00000000000E+00 -0.00000000000E+00 -0.18250000000E+03  0.18250000000E+03  0.00000000000E+00 0. -1.
        -11    1    1    2    0    0  0.16657120451E+01 -0.38740959968E+01  0.13753980075E+03  0.13760443309E+03  0.00000000000E+00 0. -1.
         11    1    1    2    0    0  0.86300424410E+00  0.27591338440E+01 -0.18121970824E+03  0.18124276606E+03  0.00000000000E+00 0. -1.
        -15    1    1    2    0    0 -0.74756260952E+01 -0.11594085138E+01  0.14858976769E+02  0.16768307405E+02  0.17770000000E+01 0.  1.
         15    1    1    2    0    0  0.49469098059E+01  0.22743706667E+01  0.28820930715E+02  0.29384493442E+02  0.17770000000E+01 0. -1.
</event>
<event>
 6    1  0.1045352E-002  0.1829702E+03  0.7546771E-02  0.1068081E+00
        -11   -1    0    0    0    0  0.00000000000E+00  0.00000000000E+00  0.18250000000E+03  0.18250000000E+03  0.00000000000E+00 0. -1.
         11   -1    0    0    0    0 -0.00000000000E+00 -0.00000000000E+00 -0.18250000000E+03  0.18250000000E+03  0.00000000000E+00 0.  1.
        -11    1    1    2    0    0  0.70050477936E+00 -0.31971847537E+01  0.18200036666E+03  0.18202979471E+03  0.00000000000E+00 0. -1.
         11    1    1    2    0    0 -0.64688712691E+00  0.25813346688E+01 -0.17057211059E+03  0.17059286815E+03  0.00000000000E+00 0.  1.
        -15    1    1    2    0    0  0.58071167504E+00  0.50232349938E+00 -0.94302301102E+01  0.96268646962E+01  0.17770000000E+01 0.  1.
         15    1    1    2    0    0 -0.63432932749E+00  0.11352658554E+00 -0.19980259592E+01  0.27504724530E+01  0.17770000000E+01 0.  1.
</event>
<event>
 6    1  0.1045352E-002  0.1837720E+03  0.7546771E-02  0.1067447E+00
        -11   -1    0    0    0    0  0.00000000000E+00  0.00000000000E+00  0.18250000000E+03  0.18250000000E+03  0.00000000000E+00 0. -1.
         11   -1    0    0    0    0 -0.00000000000E+00 -0.00000000000E+00 -0.18250000000E+03  0.18250000000E+03  0.00000000000E+00 0.  1.
        -11    1    1    2    0    0 -0.27193097645E-01  0.11905874707E+01  0.86377551244E+02  0.86385760382E+02  0.00000000000E+00 0. -1.
         11    1    1    2    0    0 -0.32560899366E+01 -0.45823740366E+01 -0.18114075315E+03  0.18122795790E+03  0.00000000000E+00 0.  1.
        -15    1    1    2    0    0  0.90240300861E+01 -0.14842543619E+01  0.18324017749E+02  0.20556349031E+02  0.17770000000E+01 0.  1.
         15    1    1    2    0    0 -0.57407470518E+01  0.48760409278E+01  0.76439184160E+02  0.76829932682E+02  0.17770000000E+01 0. -1.
</event>
<event>
 6    1  0.1045352E-002  0.1835968E+03  0.7546771E-02  0.1067585E+00
        -11   -1    0    0    0    0  0.00000000000E+00  0.00000000000E+00  0.18250000000E+03  0.18250000000E+03  0.00000000000E+00 0. -1.
         11   -1    0    0    0    0 -0.00000000000E+00 -0.00000000000E+00 -0.18250000000E+03  0.18250000000E+03  0.00000000000E+00 0. -1.
        -11    1    1    2    0    0 -0.23271351865E+00 -0.29961130373E+01  0.18137835359E+03  0.18140324694E+03  0.00000000000E+00 0. -1.
         11    1    1    2    0    0  0.52293518578E+00 -0.27871281850E+01 -0.16306660258E+03  0.16309125796E+03  0.00000000000E+00 0. -1.
        -15    1    1    2    0    0  0.86456475202E+00  0.24937317271E+01 -0.15133367630E+02  0.15464239876E+02  0.17770000000E+01 0. -1.
         15    1    1    2    0    0 -0.11547864191E+01  0.32895094953E+01 -0.31783833788E+01  0.50412552302E+01  0.17770000000E+01 0. -1.
</event>
<event>
 6    1  0.1045352E-002  0.1842212E+03  0.7546771E-02  0.1067093E+00
        -11   -1    0    0    0    0  0.00000000000E+00  0.00000000000E+00  0.18250000000E+03  0.18250000000E+03  0.00000000000E+00 0.  1.
         11   -1    0    0    0    0 -0.00000000000E+00 -0.00000000000E+00 -0.18250000000E+03  0.18250000000E+03  0.00000000000E+00 0.  1.
        -11    1    1    2    0    0  0.13384785356E+00  0.38428706768E+01  0.18073786243E+03  0.18077876116E+03  0.00000000000E+00 0.  1.
         11    1    1    2    0    0 -0.56147829551E+01 -0.35864780163E+01 -0.17081642928E+03  0.17094631065E+03  0.00000000000E+00 0.  1.
        -15    1    1    2    0    0  0.21269641532E+00 -0.79090984199E+00 -0.79217938376E-01  0.19582601015E+01  0.17770000000E+01 0. -1.
         15    1    1    2    0    0  0.52682386862E+01  0.53451718148E+00 -0.98422152093E+01  0.11316668092E+02  0.17770000000E+01 0.  1.
</event>
<event>
 6    1  0.1045352E-002  0.1826234E+03  0.7546771E-02  0.1068357E+00
        -11   -1    0    0    0    0  0.00000000000E+00  0.00000000000E+00  0.18250000000E+03  0.18250000000E+03  0.00000000000E+00 0. -1.
         11   -1    0    0    0    0 -0.00000000000E+00 -0.00000000000E+00 -0.18250000000E+03  0.18250000000E+03  0.00000000000E+00 0. -1.
        -11    1    1    2    0    0  0.95109281912E+00  0.30136918549E+01  0.18234926022E+03  0.18237664220E+03  0.00000000000E+00 0. -1.
         11    1    1    2    0    0  0.15587423661E+01  0.92089168961E+00 -0.74632582567E+02  0.74654538375E+02  0.00000000000E+00 0. -1.
        -15    1    1    2    0    0  0.74848473006E+00 -0.62432626236E+00 -0.49005235401E+02  0.49047128748E+02  0.17770000000E+01 0. -1.
         15    1    1    2    0    0 -0.32583199153E+01 -0.33102572821E+01 -0.58711442254E+02  0.58921690679E+02  0.17770000000E+01 0.  1.
</event>
<event>
 6    1  0.1045352E-002  0.1840696E+03  0.7546771E-02  0.1067212E+00
        -11   -1    0    0    0    0  0.00000000000E+00  0.00000000000E+00  0.18250000000E+03  0.18250000000E+03  0.00000000000E+00 0.  1.
         11   -1    0    0    0    0 -0.00000000000E+00 -0.00000000000E+00 -0.18250000000E+03  0.18250000000E+03  0.00000000000E+00 0. -1.
        -11    1    1    2    0    0  0.19505839170E+01 -0.28813569536E+01  0.18089691449E+03  0.18093037519E+03  0.00000000000E+00 0.  1.
         11    1    1    2    0    0 -0.10731296519E+01 -0.58336001378E+01 -0.14343706432E+03  0.14355965283E+03  0.00000000000E+00 0. -1.
        -15    1    1    2    0    0 -0.31096002420E+01  0.89767968614E+01 -0.14842420639E+02  0.17711794798E+02  0.17770000000E+01 0. -1.
         15    1    1    2    0    0  0.22321459769E+01 -0.26183976995E+00 -0.22617429525E+02  0.22798177187E+02  0.17770000000E+01 0.  1.
</event>
<event>
 6    1  0.1045352E-002  0.1848100E+03  0.7546771E-02  0.1066631E+00
        -11   -1    0    0    0    0  0.00000000000E+00  0.00000000000E+00  0.18250000000E+03  0.18250000000E+03  0.00000000000E+00 0. -1.
         11   -1    0    0    0    0 -0.00000000000E+00 -0.00000000000E+00 -0.18250000000E+03  0.18250000000E+03  0.00000000000E+00 0. -1.
        -11    1    1    2    0    0  0.58919636295E+01 -0.95413500262E+01  0.17984074259E+03  0.18019002551E+03  0.00000000000E+00 0. -1.
         11    1    1    2    0    0 -0.66888795344E-01 -0.38383557973E+01 -0.15141395340E+03  0.15146261167E+03  0.00000000000E+00 0. -1.
        -15    1    1    2    0    0 -0.54466127492E+01  0.11997727703E+02 -0.16431335116E+02  0.21136640300E+02  0.17770000000E+01 0. -1.
         15    1    1    2    0    0 -0.37846208502E+00  0.13819781203E+01 -0.11995454075E+02  0.12210722523E+02  0.17770000000E+01 0.  1.
</event>
<event>
 6    1  0.1045352E-002  0.1886063E+03  0.7546771E-02  0.1063696E+00
        -11   -1    0    0    0    0  0.00000000000E+00  0.00000000000E+00  0.18250000000E+03  0.18250000000E+03  0.00000000000E+00 0. -1.
         11   -1    0    0    0    0 -0.00000000000E+00 -0.00000000000E+00 -0.18250000000E+03  0.18250000000E+03  0.00000000000E+00 0.  1.
        -11    1    1    2    0    0 -0.28485801590E+01  0.12532144431E+01  0.15645747139E+03  0.15648841909E+03  0.00000000000E+00 0. -1.
         11    1    1    2    0    0  0.61857151999E+01 -0.76371854559E+01 -0.17611973732E+03  0.17639374010E+03  0.00000000000E+00 0.  1.
        -15    1    1    2    0    0 -0.20616660097E+00  0.15302786573E+02  0.14701930175E+02  0.21296062110E+02  0.17770000000E+01 0. -1.
         15    1    1    2    0    0 -0.31309684400E+01 -0.89188155598E+01  0.49603357493E+01  0.10821778694E+02  0.17770000000E+01 0.  1.
</event>
<event>
 6    1  0.1045352E-002  0.1861984E+03  0.7546771E-02  0.1065548E+00
        -11   -1    0    0    0    0  0.00000000000E+00  0.00000000000E+00  0.18250000000E+03  0.18250000000E+03  0.00000000000E+00 0. -1.
         11   -1    0    0    0    0 -0.00000000000E+00 -0.00000000000E+00 -0.18250000000E+03  0.18250000000E+03  0.00000000000E+00 0.  1.
        -11    1    1    2    0    0 -0.26154674113E+01  0.44829132365E+00  0.17878191833E+03  0.17880161061E+03  0.00000000000E+00 0. -1.
         11    1    1    2    0    0 -0.47052659557E+01  0.35994037767E+01 -0.12827479661E+03  0.12841152082E+03  0.00000000000E+00 0.  1.
        -15    1    1    2    0    0 -0.60126380871E+01  0.67594025326E+01 -0.92177674444E+01  0.13037112603E+02  0.17770000000E+01 0.  1.
         15    1    1    2    0    0  0.13333371454E+02 -0.10807097633E+02 -0.41289354275E+02  0.44749755966E+02  0.17770000000E+01 0. -1.
</event>
<event>
 6    1  0.1045352E-002  0.1860469E+03  0.7546771E-02  0.1065666E+00
        -11   -1    0    0    0    0  0.00000000000E+00  0.00000000000E+00  0.18250000000E+03  0.18250000000E+03  0.00000000000E+00 0. -1.
         11   -1    0    0    0    0 -0.00000000000E+00 -0.00000000000E+00 -0.18250000000E+03  0.18250000000E+03  0.00000000000E+00 0. -1.
        -11    1    1    2    0    0  0.21167040763E+02  0.10301274014E+02  0.17739804187E+03  0.17895313666E+03  0.00000000000E+00 0. -1.
         11    1    1    2    0    0 -0.51003975211E+01  0.48941475993E+00 -0.13434827032E+03  0.13444594199E+03  0.00000000000E+00 0. -1.
        -15    1    1    2    0    0  0.12007808581E+01 -0.51125011716E+01 -0.83750605321E+00  0.56070213383E+01  0.17770000000E+01 0.  1.
         15    1    1    2    0    0 -0.17267424100E+02 -0.56781876021E+01 -0.42212265506E+02  0.45993900005E+02  0.17770000000E+01 0. -1.
</event>
<event>
 6    1  0.1045352E-002  0.1832758E+03  0.7546771E-02  0.1067839E+00
        -11   -1    0    0    0    0  0.00000000000E+00  0.00000000000E+00  0.18250000000E+03  0.18250000000E+03  0.00000000000E+00 0.  1.
         11   -1    0    0    0    0 -0.00000000000E+00 -0.00000000000E+00 -0.18250000000E+03  0.18250000000E+03  0.00000000000E+00 0.  1.
        -11    1    1    2    0    0  0.46472516862E+01 -0.32995066848E+01  0.18163483410E+03  0.18172423243E+03  0.00000000000E+00 0.  1.
         11    1    1    2    0    0  0.12934179452E+00  0.29207698689E+01 -0.16420253684E+03  0.16422856247E+03  0.00000000000E+00 0.  1.
        -15    1    1    2    0    0 -0.23455833663E+01 -0.92924097527E-01 -0.26732818279E+01  0.39767525630E+01  0.17770000000E+01 0.  1.
         15    1    1    2    0    0 -0.24310101144E+01  0.47166091343E+00 -0.14759015431E+02  0.15070452538E+02  0.17770000000E+01 0. -1.
</event>
<event>
 6    1  0.1045352E-002  0.1849927E+03  0.7546771E-02  0.1066488E+00
        -11   -1    0    0    0    0  0.00000000000E+00  0.00000000000E+00  0.18250000000E+03  0.18250000000E+03  0.00000000000E+00 0.  1.
         11   -1    0    0    0    0 -0.00000000000E+00 -0.00000000000E+00 -0.18250000000E+03  0.18250000000E+03  0.00000000000E+00 0.  1.
        -11    1    1    2    0    0  0.26356669782E+01 -0.20915768698E+01  0.17997585906E+03  0.18000730896E+03  0.00000000000E+00 0.  1.
         11    1    1    2    0    0 -0.11065947819E+02  0.74560243299E+01 -0.11591165133E+03  0.11667715464E+03  0.00000000000E+00 0.  1.
        -15    1    1    2    0    0  0.27267819256E+01  0.46852050786E+01 -0.36319472999E+01  0.67627846696E+01  0.17770000000E+01 0. -1.
         15    1    1    2    0    0  0.57034989153E+01 -0.10049652539E+02 -0.60432260428E+02  0.61552751730E+02  0.17770000000E+01 0.  1.
</event>
<event>
 6    1  0.1045352E-002  0.1878909E+03  0.7546771E-02  0.1064243E+00
        -11   -1    0    0    0    0  0.00000000000E+00  0.00000000000E+00  0.18250000000E+03  0.18250000000E+03  0.00000000000E+00 0. -1.
         11   -1    0    0    0    0 -0.00000000000E+00 -0.00000000000E+00 -0.18250000000E+03  0.18250000000E+03  0.00000000000E+00 0.  1.
        -11    1    1    2    0    0  0.13547562957E+02 -0.40405394270E+01  0.87957569227E+02  0.89086454668E+02  0.00000000000E+00 0. -1.
         11    1    1    2    0    0 -0.43317412142E+01 -0.24243410985E+01 -0.17703949965E+03  0.17710907895E+03  0.00000000000E+00 0.  1.
        -15    1    1    2    0    0  0.21356021017E+01  0.49763865781E+01 -0.26912740659E+01  0.63028489439E+01  0.17770000000E+01 0. -1.
         15    1    1    2    0    0 -0.11351423845E+02  0.14884939474E+01  0.91773204486E+02  0.92501617436E+02  0.17770000000E+01 0. -1.
</event>
<event>
 6    1  0.1045352E-002  0.1826902E+03  0.7546771E-02  0.1068304E+00
        -11   -1    0    0    0    0  0.00000000000E+00  0.00000000000E+00  0.18250000000E+03  0.18250000000E+03  0.00000000000E+00 0.  1.
         11   -1    0    0    0    0 -0.00000000000E+00 -0.00000000000E+00 -0.18250000000E+03  0.18250000000E+03  0.00000000000E+00 0.  1.
        -11    1    1    2    0    0 -0.31857639629E+01 -0.59753764586E+00  0.18228100654E+03  0.18230982279E+03  0.00000000000E+00 0.  1.
         11    1    1    2    0    0  0.18850371314E+01 -0.33560062354E+00 -0.13834018971E+03  0.13835343899E+03  0.00000000000E+00 0.  1.
        -15    1    1    2    0    0  0.27933391226E+01 -0.19472649078E+00 -0.23117510323E+02  0.23354178950E+02  0.17770000000E+01 0. -1.
         15    1    1    2    0    0 -0.14926122911E+01  0.11278647602E+01 -0.20823306507E+02  0.20982559263E+02  0.17770000000E+01 0.  1.
</event>
<event>
 6    1  0.1045352E-002  0.1830799E+03  0.7546771E-02  0.1067994E+00
        -11   -1    0    0    0    0  0.00000000000E+00  0.00000000000E+00  0.18250000000E+03  0.18250000000E+03  0.00000000000E+00 0.  1.
         11   -1    0    0    0    0 -0.00000000000E+00 -0.00000000000E+00 -0.18250000000E+03  0.18250000000E+03  0.00000000000E+00 0. -1.
        -11    1    1    2    0    0  0.94663426962E+00  0.19492617424E+01  0.14884067540E+03  0.14885644895E+03  0.00000000000E+00 0.  1.
         11    1    1    2    0    0 -0.29091199748E+01 -0.43783879251E+01 -0.18184413627E+03  0.18192010102E+03  0.00000000000E+00 0. -1.
        -15    1    1    2    0    0 -0.18558617435E+01  0.36215788717E+01  0.20516415021E+02  0.20991452324E+02  0.17770000000E+01 0. -1.
         15    1    1    2    0    0  0.38183474487E+01 -0.11924526890E+01  0.12487045840E+02  0.13231997713E+02  0.17770000000E+01 0.  1.
</event>
<event>
 6    1  0.1045352E-002  0.1859481E+03  0.7546771E-02  0.1065743E+00
        -11   -1    0    0    0    0  0.00000000000E+00  0.00000000000E+00  0.18250000000E+03  0.18250000000E+03  0.00000000000E+00 0.  1.
         11   -1    0    0    0    0 -0.00000000000E+00 -0.00000000000E+00 -0.18250000000E+03  0.18250000000E+03  0.00000000000E+00 0.  1.
        -11    1    1    2    0    0 -0.20411890187E+00 -0.38052843907E+01  0.17901133300E+03  0.17905188968E+03  0.00000000000E+00 0.  1.
         11    1    1    2    0    0 -0.33297997139E+00 -0.55318374506E+01 -0.17299121258E+03  0.17307995762E+03  0.00000000000E+00 0.  1.
        -15    1    1    2    0    0 -0.15241877795E+01  0.55891726674E+01 -0.55418801247E+01  0.82117089458E+01  0.17770000000E+01 0.  1.
         15    1    1    2    0    0  0.20612866527E+01  0.37479491739E+01 -0.47824029795E+00  0.46564437565E+01  0.17770000000E+01 0. -1.
</event>
<event>
 6    1  0.1045352E-002  0.1861292E+03  0.7546771E-02  0.1065602E+00
        -11   -1    0    0    0    0  0.00000000000E+00  0.00000000000E+00  0.18250000000E+03  0.18250000000E+03  0.00000000000E+00 0.  1.
         11   -1    0    0    0    0 -0.00000000000E+00 -0.00000000000E+00 -0.18250000000E+03  0.18250000000E+03  0.00000000000E+00 0. -1.
        -11    1    1    2    0    0  0.61079746969E+01  0.12455085861E+01  0.17876212218E+03  0.17887077730E+03  0.00000000000E+00 0.  1.
         11    1    1    2    0    0 -0.26461196971E+01  0.19548758377E+01 -0.14862407035E+03  0.14866047819E+03  0.00000000000E+00 0. -1.
        -15    1    1    2    0    0 -0.11965008446E+01  0.48089706641E+01 -0.28268708246E+02  0.28754745835E+02  0.17770000000E+01 0.  1.
         15    1    1    2    0    0 -0.22653541553E+01 -0.80093550879E+01 -0.18693435813E+01  0.87139986687E+01  0.17770000000E+01 0. -1.
</event>
<event>
 6    1  0.1045352E-002  0.1828432E+03  0.7546771E-02  0.1068182E+00
        -11   -1    0    0    0    0  0.00000000000E+00  0.00000000000E+00  0.18250000000E+03  0.18250000000E+03  0.00000000000E+00 0. -1.
         11   -1    0    0    0    0 -0.00000000000E+00 -0.00000000000E+00 -0.18250000000E+03  0.18250000000E+03  0.00000000000E+00 0. -1.
        -11    1    1    2    0    0 -0.88275213543E+00  0.29007234501E+01  0.18213155484E+03  0.18215679158E+03  0.00000000000E+00 0. -1.
         11    1    1    2    0    0  0.16127220282E+01 -0.76226265905E+00 -0.89118311046E+02  0.89136161463E+02  0.00000000000E+00 0. -1.
        -15    1    1    2    0    0  0.10208342640E+01  0.17606814669E+01 -0.76759383892E+02  0.76806919260E+02  0.17770000000E+01 0. -1.
         15    1    1    2    0    0 -0.17508041568E+01 -0.38991422579E+01 -0.16253859904E+02  0.16900127702E+02  0.17770000000E+01 0.  1.
</event>
<event>
 6    1  0.1045352E-002  0.1960345E+03  0.7546771E-02  0.1058164E+00
        -11   -1    0    0    0    0  0.00000000000E+00  0.00000000000E+00  0.18250000000E+03  0.18250000000E+03  0.00000000000E+00 0. -1.
         11   -1    0    0    0    0 -0.00000000000E+00 -0.00000000000E+00 -0.18250000000E+03  0.18250000000E+03  0.00000000000E+00 0. -1.
        -11    1    1    2    0    0  0.39292868128E+01  0.47948777502E+01  0.16885169951E+03  0.16896545971E+03  0.00000000000E+00 0. -1.
         11    1    1    2    0    0  0.10323345851E+02 -0.30623221453E+01 -0.13079465298E+03  0.13123715379E+03  0.00000000000E+00 0. -1.
        -15    1    1    2    0    0 -0.82609562953E+01  0.23803399855E+02 -0.24621627486E+02  0.35273609294E+02  0.17770000000E+01 0.  1.
         15    1    1    2    0    0 -0.59916763688E+01 -0.25535955460E+02 -0.13435419038E+02  0.29523777209E+02  0.17770000000E+01 0. -1.
</event>
<event>
 6    1  0.1045352E-002  0.1905479E+03  0.7546771E-02  0.1062223E+00
        -11   -1    0    0    0    0  0.00000000000E+00  0.00000000000E+00  0.18250000000E+03  0.18250000000E+03  0.00000000000E+00 0.  1.
         11   -1    0    0    0    0 -0.00000000000E+00 -0.00000000000E+00 -0.18250000000E+03  0.18250000000E+03  0.00000000000E+00 0.  1.
        -11    1    1    2    0    0 -0.46542164512E+01  0.47288740817E+01  0.17432585784E+03  0.17445208137E+03  0.00000000000E+00 0.  1.
         11    1    1    2    0    0 -0.14040080198E+01  0.47289600701E+01 -0.16010305481E+03  0.16017903253E+03  0.00000000000E+00 0.  1.
        -15    1    1    2    0    0  0.64440930368E+01  0.51619130355E+01 -0.13109475142E+02  0.15594478149E+02  0.17770000000E+01 0.  1.
         15    1    1    2    0    0 -0.38586856569E+00 -0.14619747187E+02 -0.11133278884E+01  0.14774407953E+02  0.17770000000E+01 0. -1.
</event>
<event>
 6    1  0.1045352E-002  0.1834883E+03  0.7546771E-02  0.1067671E+00
        -11   -1    0    0    0    0  0.00000000000E+00  0.00000000000E+00  0.18250000000E+03  0.18250000000E+03  0.00000000000E+00 0. -1.
         11   -1    0    0    0    0 -0.00000000000E+00 -0.00000000000E+00 -0.18250000000E+03  0.18250000000E+03  0.00000000000E+00 0.  1.
        -11    1    1    2    0    0 -0.44372897332E+01  0.31601811959E+00  0.18145719609E+03  0.18151171703E+03  0.00000000000E+00 0. -1.
         11    1    1    2    0    0  0.23462424923E+01  0.14561990827E+01 -0.14077887160E+03  0.14080595178E+03  0.00000000000E+00 0.  1.
        -15    1    1    2    0    0 -0.36204017361E+00 -0.49527499545E+01 -0.35511041220E+02  0.35900593069E+02  0.17770000000E+01 0.  1.
         15    1    1    2    0    0  0.24530874145E+01  0.31805327523E+01 -0.51672832716E+01  0.67817381150E+01  0.17770000000E+01 0. -1.
</event>
<event>
 6    1  0.1045352E-002  0.1828918E+03  0.7546771E-02  0.1068143E+00
        -11   -1    0    0    0    0  0.00000000000E+00  0.00000000000E+00  0.18250000000E+03  0.18250000000E+03  0.00000000000E+00 0.  1.
         11   -1    0    0    0    0 -0.00000000000E+00 -0.00000000000E+00 -0.18250000000E+03  0.18250000000E+03  0.00000000000E+00 0.  1.
        -11    1    1    2    0    0  0.75669010647E+00  0.37305172156E+01  0.18206837719E+03  0.18210816377E+03  0.00000000000E+00 0.  1.
         11    1    1    2    0    0 -0.13141617904E+01  0.10677910445E+01 -0.11197795205E+03  0.11199075383E+03  0.00000000000E+00 0.  1.
        -15    1    1    2    0    0 -0.14006923577E+01 -0.10322485888E+01 -0.44360497791E+01  0.50856408517E+01  0.17770000000E+01 0. -1.
         15    1    1    2    0    0  0.19581640417E+01 -0.37660596712E+01 -0.65654375368E+02  0.65815441546E+02  0.17770000000E+01 0.  1.
</event>
<event>
 6    1  0.1045352E-002  0.1834776E+03  0.7546771E-02  0.1067679E+00
        -11   -1    0    0    0    0  0.00000000000E+00  0.00000000000E+00  0.18250000000E+03  0.18250000000E+03  0.00000000000E+00 0.  1.
         11   -1    0    0    0    0 -0.00000000000E+00 -0.00000000000E+00 -0.18250000000E+03  0.18250000000E+03  0.00000000000E+00 0. -1.
        -11    1    1    2    0    0 -0.50615968262E+01 -0.40932814623E+01  0.18140562754E+03  0.18152238545E+03  0.00000000000E+00 0.  1.
         11    1    1    2    0    0 -0.29333407811E+01 -0.13652103359E+01 -0.14190847113E+03  0.14194535028E+03  0.00000000000E+00 0. -1.
        -15    1    1    2    0    0 -0.87805181451E+00  0.21151232823E+01 -0.13379164900E+02  0.13689576469E+02  0.17770000000E+01 0.  1.
         15    1    1    2    0    0  0.88729894218E+01  0.33433685159E+01 -0.26117991515E+02  0.27842687803E+02  0.17770000000E+01 0. -1.
</event>
<event>
 6    1  0.1045352E-002  0.1827157E+03  0.7546771E-02  0.1068283E+00
        -11   -1    0    0    0    0  0.00000000000E+00  0.00000000000E+00  0.18250000000E+03  0.18250000000E+03  0.00000000000E+00 0.  1.
         11   -1    0    0    0    0 -0.00000000000E+00 -0.00000000000E+00 -0.18250000000E+03  0.18250000000E+03  0.00000000000E+00 0.  1.
        -11    1    1    2    0    0  0.52607700632E+00 -0.98714411429E+00  0.77940488849E+02  0.77948515140E+02  0.00000000000E+00 0.  1.
         11    1    1    2    0    0 -0.49443918359E+01 -0.11386522229E+01 -0.18221367366E+03  0.18228430105E+03  0.00000000000E+00 0.  1.
        -15    1    1    2    0    0 -0.87338806980E+00  0.32473073148E+00  0.67445040997E+02  0.67474880814E+02  0.17770000000E+01 0.  1.
         15    1    1    2    0    0  0.52917028994E+01  0.18010656057E+01  0.36828143817E+02  0.37292302998E+02  0.17770000000E+01 0.  1.
</event>
<event>
 6    1  0.2097384E-002  0.1849927E+03  0.7546771E-02  0.1066488E+00
        -11   -1    0    0    0    0  0.00000000000E+00  0.00000000000E+00  0.18250000000E+03  0.18250000000E+03  0.00000000000E+00 0. -1.
         11   -1    0    0    0    0 -0.00000000000E+00 -0.00000000000E+00 -0.18250000000E+03  0.18250000000E+03  0.00000000000E+00 0. -1.
        -11    1    1    2    0    0  0.98411485663E+00 -0.11152144403E+01  0.87484635968E+02  0.87497278334E+02  0.00000000000E+00 0. -1.
         11    1    1    2    0    0 -0.10721796483E+02 -0.13474069588E+02 -0.17918181974E+03  0.18000731095E+03  0.00000000000E+00 0. -1.
        -15    1    1    2    0    0  0.75654296771E+01  0.11934116310E+02  0.14937085948E+02  0.20638147299E+02  0.17770000000E+01 0.  1.
         15    1    1    2    0    0  0.21722519492E+01  0.26551677179E+01  0.76760097819E+02  0.76857263419E+02  0.17770000000E+01 0. -1.
</event>
<event>
 6    1  0.1045352E-002  0.1845998E+03  0.7546771E-02  0.1066796E+00
        -11   -1    0    0    0    0  0.00000000000E+00  0.00000000000E+00  0.18250000000E+03  0.18250000000E+03  0.00000000000E+00 0.  1.
         11   -1    0    0    0    0 -0.00000000000E+00 -0.00000000000E+00 -0.18250000000E+03  0.18250000000E+03  0.00000000000E+00 0. -1.
        -11    1    1    2    0    0 -0.21785795832E+01  0.45180261205E+01  0.18033041043E+03  0.18040015437E+03  0.00000000000E+00 0.  1.
         11    1    1    2    0    0 -0.57158100554E+01  0.56691270354E+01 -0.15708586323E+03  0.15729201478E+03  0.00000000000E+00 0. -1.
        -15    1    1    2    0    0  0.32233642474E+00 -0.29934458685E+01 -0.37944228367E+01  0.51594566189E+01  0.17770000000E+01 0.  1.
         15    1    1    2    0    0  0.75720532139E+01 -0.71937072874E+01 -0.19450124364E+02  0.22148374234E+02  0.17770000000E+01 0. -1.
</event>
<event>
 6    1  0.1045352E-002  0.1831506E+03  0.7546771E-02  0.1067938E+00
        -11   -1    0    0    0    0  0.00000000000E+00  0.00000000000E+00  0.18250000000E+03  0.18250000000E+03  0.00000000000E+00 0. -1.
         11   -1    0    0    0    0 -0.00000000000E+00 -0.00000000000E+00 -0.18250000000E+03  0.18250000000E+03  0.00000000000E+00 0. -1.
        -11    1    1    2    0    0 -0.15211165806E+01 -0.36206967065E+01  0.18180695815E+03  0.18184936974E+03  0.00000000000E+00 0. -1.
         11    1    1    2    0    0 -0.98134345698E+00 -0.29994347694E+01 -0.41748622500E+02  0.41867733693E+02  0.00000000000E+00 0. -1.
        -15    1    1    2    0    0  0.52435359210E+01  0.38804136787E+01 -0.13194016740E+03  0.13211327633E+03  0.17770000000E+01 0. -1.
         15    1    1    2    0    0 -0.27410758834E+01  0.27397177973E+01 -0.81181682560E+01  0.91696202452E+01  0.17770000000E+01 0.  1.
</event>
<event>
 6    1  0.1045352E-002  0.1840753E+03  0.7546771E-02  0.1067208E+00
        -11   -1    0    0    0    0  0.00000000000E+00  0.00000000000E+00  0.18250000000E+03  0.18250000000E+03  0.00000000000E+00 0.  1.
         11   -1    0    0    0    0 -0.00000000000E+00 -0.00000000000E+00 -0.18250000000E+03  0.18250000000E+03  0.00000000000E+00 0. -1.
        -11    1    1    2    0    0 -0.66859436147E+00 -0.24687719623E+01  0.15369869422E+03  0.15371997417E+03  0.00000000000E+00 0.  1.
         11    1    1    2    0    0  0.61621736245E+01 -0.23061138098E+01 -0.18080498843E+03  0.18092466494E+03  0.00000000000E+00 0. -1.
        -15    1    1    2    0    0 -0.43480389586E+01  0.41164184634E+01  0.27416893101E+02  0.28119283420E+02  0.17770000000E+01 0.  1.
         15    1    1    2    0    0 -0.11455403045E+01  0.65846730878E+00 -0.31059888968E+00  0.22360774710E+01  0.17770000000E+01 0. -1.
</event>
<event>
 6    1  0.1045352E-002  0.1841101E+03  0.7546771E-02  0.1067180E+00
        -11   -1    0    0    0    0  0.00000000000E+00  0.00000000000E+00  0.18250000000E+03  0.18250000000E+03  0.00000000000E+00 0.  1.
         11   -1    0    0    0    0 -0.00000000000E+00 -0.00000000000E+00 -0.18250000000E+03  0.18250000000E+03  0.00000000000E+00 0.  1.
        -11    1    1    2    0    0 -0.19621204212E+01 -0.13402637816E+01  0.13720565944E+03  0.13722623367E+03  0.00000000000E+00 0.  1.
         11    1    1    2    0    0 -0.22288319803E+01  0.35356512891E+01 -0.18084157160E+03  0.18088986301E+03  0.00000000000E+00 0.  1.
        -15    1    1    2    0    0  0.36386719370E+01 -0.17709189577E+01  0.14451275358E+01  0.46499688187E+01  0.17770000000E+01 0.  1.
         15    1    1    2    0    0  0.55228046455E+00 -0.42446854981E+00  0.42190784625E+02  0.42233934502E+02  0.17770000000E+01 0. -1.
</event>
<event>
 6    1  0.1045352E-002  0.1834756E+03  0.7546771E-02  0.1067681E+00
        -11   -1    0    0    0    0  0.00000000000E+00  0.00000000000E+00  0.18250000000E+03  0.18250000000E+03  0.00000000000E+00 0.  1.
         11   -1    0    0    0    0 -0.00000000000E+00 -0.00000000000E+00 -0.18250000000E+03  0.18250000000E+03  0.00000000000E+00 0.  1.
        -11    1    1    2    0    0 -0.39114921183E+01  0.28057898880E+01  0.18146052733E+03  0.18152436533E+03  0.00000000000E+00 0.  1.
         11    1    1    2    0    0  0.25112425294E+00  0.22584470150E+01 -0.14887273713E+03  0.14889007860E+03  0.00000000000E+00 0.  1.
        -15    1    1    2    0    0  0.31027438583E+01 -0.33521764910E+01 -0.54483394596E+01  0.73284540350E+01  0.17770000000E+01 0.  1.
         15    1    1    2    0    0  0.55762400708E+00 -0.17120604119E+01 -0.27139450750E+02  0.27257102036E+02  0.17770000000E+01 0. -1.
</event>
<event>
 6    1  0.1045352E-002  0.1868579E+03  0.7546771E-02  0.1065038E+00
        -11   -1    0    0    0    0  0.00000000000E+00  0.00000000000E+00  0.18250000000E+03  0.18250000000E+03  0.00000000000E+00 0. -1.
         11   -1    0    0    0    0 -0.00000000000E+00 -0.00000000000E+00 -0.18250000000E+03  0.18250000000E+03  0.00000000000E+00 0.  1.
        -11    1    1    2    0    0 -0.12102344544E+01 -0.22468991592E+01  0.17812384613E+03  0.17814212805E+03  0.00000000000E+00 0. -1.
         11    1    1    2    0    0  0.39830762249E+01 -0.66341021106E+01 -0.16434202708E+03  0.16452409572E+03  0.00000000000E+00 0.  1.
        -15    1    1    2    0    0  0.54317421839E+01  0.43703124564E+01 -0.26191768614E+01  0.76564528700E+01  0.17770000000E+01 0. -1.
         15    1    1    2    0    0 -0.82045839544E+01  0.45106888134E+01 -0.11162642195E+02  0.14677323366E+02  0.17770000000E+01 0.  1.
</event>
<event>
 6    1  0.1045352E-002  0.1868409E+03  0.7546771E-02  0.1065051E+00
        -11   -1    0    0    0    0  0.00000000000E+00  0.00000000000E+00  0.18250000000E+03  0.18250000000E+03  0.00000000000E+00 0. -1.
         11   -1    0    0    0    0 -0.00000000000E+00 -0.00000000000E+00 -0.18250000000E+03  0.18250000000E+03  0.00000000000E+00 0.  1.
        -11    1    1    2    0    0 -0.30086266307E+01  0.23251926366E+01  0.17388065709E+03  0.17392222764E+03  0.00000000000E+00 0. -1.
         11    1    1    2    0    0  0.52097490685E+01 -0.69469518704E+00 -0.17808154312E+03  0.17815908646E+03  0.00000000000E+00 0.  1.
        -15    1    1    2    0    0 -0.24789073538E+01 -0.92776001858E+00 -0.36427976906E+01  0.48408082317E+01  0.17770000000E+01 0.  1.
         15    1    1    2    0    0  0.27778491607E+00 -0.70273743101E+00  0.78436837218E+01  0.80778776721E+01  0.17770000000E+01 0.  1.
</event>
<event>
 6    1  0.1045352E-002  0.1920125E+03  0.7546771E-02  0.1061125E+00
        -11   -1    0    0    0    0  0.00000000000E+00  0.00000000000E+00  0.18250000000E+03  0.18250000000E+03  0.00000000000E+00 0.  1.
         11   -1    0    0    0    0 -0.00000000000E+00 -0.00000000000E+00 -0.18250000000E+03  0.18250000000E+03  0.00000000000E+00 0. -1.
        -11    1    1    2    0    0  0.42903951470E+01  0.85482648865E+01  0.14648291532E+03  0.14679483915E+03  0.00000000000E+00 0.  1.
         11    1    1    2    0    0  0.23210024718E+01 -0.34158640428E+01 -0.17293821133E+03  0.17298751434E+03  0.00000000000E+00 0. -1.
        -15    1    1    2    0    0 -0.67910055789E+01  0.26912459349E+01  0.33625756907E+02  0.34455911220E+02  0.17770000000E+01 0. -1.
         15    1    1    2    0    0  0.17960796007E+00 -0.78236467785E+01 -0.71704608929E+01  0.10761735285E+02  0.17770000000E+01 0.  1.
</event>
<event>
 6    1  0.1045352E-002  0.2135386E+03  0.7546771E-02  0.1046124E+00
        -11   -1    0    0    0    0  0.00000000000E+00  0.00000000000E+00  0.18250000000E+03  0.18250000000E+03  0.00000000000E+00 0.  1.
         11   -1    0    0    0    0 -0.00000000000E+00 -0.00000000000E+00 -0.18250000000E+03  0.18250000000E+03  0.00000000000E+00 0.  1.
        -11    1    1    2    0    0 -0.38815137145E+01  0.31465565121E+01  0.15137900471E+03  0.15146144735E+03  0.00000000000E+00 0.  1.
         11    1    1    2    0    0  0.68520998309E+01 -0.39366932612E+00 -0.10070394642E+03  0.10093756027E+03  0.00000000000E+00 0.  1.
        -15    1    1    2    0    0  0.35961826170E+02  0.64866318177E+01 -0.61097731013E+02  0.71213901717E+02  0.17770000000E+01 0.  1.
         15    1    1    2    0    0 -0.38932412287E+02 -0.92395190037E+01  0.10422672721E+02  0.41387090663E+02  0.17770000000E+01 0. -1.
</event>
<event>
 6    1  0.1045352E-002  0.1837188E+03  0.7546771E-02  0.1067489E+00
        -11   -1    0    0    0    0  0.00000000000E+00  0.00000000000E+00  0.18250000000E+03  0.18250000000E+03  0.00000000000E+00 0. -1.
         11   -1    0    0    0    0 -0.00000000000E+00 -0.00000000000E+00 -0.18250000000E+03  0.18250000000E+03  0.00000000000E+00 0. -1.
        -11    1    1    2    0    0  0.12141096152E+01 -0.46090745664E+00  0.78169238364E+02  0.78180025098E+02  0.00000000000E+00 0. -1.
         11    1    1    2    0    0 -0.22297212213E+01  0.52469046799E+01 -0.18119157732E+03  0.18128124381E+03  0.00000000000E+00 0. -1.
        -15    1    1    2    0    0 -0.54793363719E+00 -0.17174967204E+01  0.10124266247E+03  0.10127430305E+03  0.17770000000E+01 0. -1.
         15    1    1    2    0    0  0.15635452433E+01 -0.30685005029E+01  0.17796764917E+01  0.42644280366E+01  0.17770000000E+01 0.  1.
</event>
<event>
 6    1  0.1045352E-002  0.1829401E+03  0.7546771E-02  0.1068105E+00
        -11   -1    0    0    0    0  0.00000000000E+00  0.00000000000E+00  0.18250000000E+03  0.18250000000E+03  0.00000000000E+00 0. -1.
         11   -1    0    0    0    0 -0.00000000000E+00 -0.00000000000E+00 -0.18250000000E+03  0.18250000000E+03  0.00000000000E+00 0. -1.
        -11    1    1    2    0    0  0.21936044982E+01 -0.12600276032E+01  0.84532394019E+02  0.84570238316E+02  0.00000000000E+00 0. -1.
         11    1    1    2    0    0  0.72564783594E+01  0.36458930944E+01 -0.18187867006E+03  0.18205987927E+03  0.00000000000E+00 0. -1.
        -15    1    1    2    0    0 -0.54874227907E+01  0.10380192935E+01  0.20400563283E+02  0.21225692078E+02  0.17770000000E+01 0.  1.
         15    1    1    2    0    0 -0.39626600668E+01 -0.34238847847E+01  0.76945712761E+02  0.77144190339E+02  0.17770000000E+01 0. -1.
</event>
<event>
 6    1  0.1045352E-002  0.1825649E+03  0.7546771E-02  0.1068403E+00
        -11   -1    0    0    0    0  0.00000000000E+00  0.00000000000E+00  0.18250000000E+03  0.18250000000E+03  0.00000000000E+00 0. -1.
         11   -1    0    0    0    0 -0.00000000000E+00 -0.00000000000E+00 -0.18250000000E+03  0.18250000000E+03  0.00000000000E+00 0.  1.
        -11    1    1    2    0    0  0.86178793109E-01 -0.13440469720E+01  0.31927891141E+02  0.31956284542E+02  0.00000000000E+00 0. -1.
         11    1    1    2    0    0  0.17241616934E+01 -0.36244991931E+01 -0.18239097338E+03  0.18243513066E+03  0.00000000000E+00 0.  1.
        -15    1    1    2    0    0 -0.25169951584E+00  0.31836970053E+01  0.84968672093E+02  0.85047235379E+02  0.17770000000E+01 0. -1.
         15    1    1    2    0    0 -0.15586409707E+01  0.17848491599E+01  0.65494410147E+02  0.65561349419E+02  0.17770000000E+01 0.  1.
</event>
<event>
 6    1  0.1045352E-002  0.1871340E+03  0.7546771E-02  0.1064825E+00
        -11   -1    0    0    0    0  0.00000000000E+00  0.00000000000E+00  0.18250000000E+03  0.18250000000E+03  0.00000000000E+00 0.  1.
         11   -1    0    0    0    0 -0.00000000000E+00 -0.00000000000E+00 -0.18250000000E+03  0.18250000000E+03  0.00000000000E+00 0. -1.
        -11    1    1    2    0    0 -0.25172145737E+01 -0.26424721762E+01  0.17782858061E+03  0.17786602573E+03  0.00000000000E+00 0.  1.
         11    1    1    2    0    0 -0.23535077698E+01 -0.16821403569E+01 -0.14841154976E+03  0.14843974096E+03  0.00000000000E+00 0. -1.
        -15    1    1    2    0    0  0.62492664346E+00  0.19793599432E+01  0.40198971271E+01  0.48606276351E+01  0.17770000000E+01 0.  1.
         15    1    1    2    0    0  0.42457957001E+01  0.23452525900E+01 -0.33436927981E+02  0.33833605671E+02  0.17770000000E+01 0.  1.
</event>
<event>
 6    1  0.1045352E-002  0.1848178E+03  0.7546771E-02  0.1066625E+00
        -11   -1    0    0    0    0  0.00000000000E+00  0.00000000000E+00  0.18250000000E+03  0.18250000000E+03  0.00000000000E+00 0. -1.
         11   -1    0    0    0    0 -0.00000000000E+00 -0.00000000000E+00 -0.18250000000E+03  0.18250000000E+03  0.00000000000E+00 0. -1.
        -11    1    1    2    0    0 -0.11754305648E+01 -0.47203684838E+01  0.61488294086E+02  0.61680416870E+02  0.00000000000E+00 0. -1.
         11    1    1    2    0    0 -0.19117406841E+02 -0.39337914457E+01 -0.17912199800E+03  0.18018224143E+03  0.00000000000E+00 0. -1.
        -15    1    1    2    0    0 -0.63670949606E+01  0.41438267156E+00  0.41629909759E+02  0.42153513813E+02  0.17770000000E+01 0. -1.
         15    1    1    2    0    0  0.26659932366E+02  0.82397772580E+01  0.76003794158E+02  0.80983827882E+02  0.17770000000E+01 0.  1.
</event>
<event>
 6    1  0.1045352E-002  0.1918563E+03  0.7546771E-02  0.1061242E+00
        -11   -1    0    0    0    0  0.00000000000E+00  0.00000000000E+00  0.18250000000E+03  0.18250000000E+03  0.00000000000E+00 0. -1.
         11   -1    0    0    0    0 -0.00000000000E+00 -0.00000000000E+00 -0.18250000000E+03  0.18250000000E+03  0.00000000000E+00 0. -1.
        -11    1    1    2    0    0  0.32423086065E+01 -0.24286951407E+01  0.16325027939E+03  0.16330053535E+03  0.00000000000E+00 0. -1.
         11    1    1    2    0    0  0.37232424616E+00  0.23235306116E+01 -0.17312766009E+03  0.17314365166E+03  0.00000000000E+00 0. -1.
        -15    1    1    2    0    0  0.91294462036E+01 -0.35781090369E+00 -0.35416092538E+01  0.99586917682E+01  0.17770000000E+01 0. -1.
         15    1    1    2    0    0 -0.12744079056E+02  0.46297543276E+00  0.13418989960E+02  0.18597121223E+02  0.17770000000E+01 0.  1.
</event>
<event>
 6    1  0.1045352E-002  0.1839054E+03  0.7546771E-02  0.1067342E+00
        -11   -1    0    0    0    0  0.00000000000E+00  0.00000000000E+00  0.18250000000E+03  0.18250000000E+03  0.00000000000E+00 0. -1.
         11   -1    0    0    0    0 -0.00000000000E+00 -0.00000000000E+00 -0.18250000000E+03  0.18250000000E+03  0.00000000000E+00 0. -1.
        -11    1    1    2    0    0 -0.22999870738E-01 -0.18478700856E+01  0.11194475349E+03  0.11196000620E+03  0.00000000000E+00 0. -1.
         11    1    1    2    0    0 -0.42334038588E+01 -0.13595183178E+01 -0.18103996840E+03  0.18109456137E+03  0.00000000000E+00 0. -1.
        -15    1    1    2    0    0 -0.33034647541E+01  0.61003184201E+01  0.55946711464E+02  0.56403182684E+02  0.17770000000E+01 0. -1.
         15    1    1    2    0    0  0.75598684836E+01 -0.28929300167E+01  0.13148503445E+02  0.15542249754E+02  0.17770000000E+01 0.  1.
</event>
<event>
 6    1  0.1045352E-002  0.1684558E+03  0.7546771E-02  0.1080218E+00
        -11   -1    0    0    0    0  0.00000000000E+00  0.00000000000E+00  0.18250000000E+03  0.18250000000E+03  0.00000000000E+00 0.  1.
         11   -1    0    0    0    0 -0.00000000000E+00 -0.00000000000E+00 -0.18250000000E+03  0.18250000000E+03  0.00000000000E+00 0. -1.
        -11    1    1    2    0    0 -0.74849089878E+01 -0.14604361746E+02  0.16723894697E+03  0.16804218705E+03  0.00000000000E+00 0.  1.
         11    1    1    2    0    0 -0.47303099964E+00  0.31031899303E+01 -0.16913586917E+03  0.16916499574E+03  0.00000000000E+00 0. -1.
        -15    1    1    2    0    0  0.28333639502E+01 -0.34832692542E+01 -0.77742235655E+01  0.91519067422E+01  0.17770000000E+01 0. -1.
         15    1    1    2    0    0  0.51245760372E+01  0.14984441070E+02  0.96711457638E+01  0.18640910470E+02  0.17770000000E+01 0. -1.
</event>
<event>
 6    1  0.1045352E-002  0.1873860E+03  0.7546771E-02  0.1064631E+00
        -11   -1    0    0    0    0  0.00000000000E+00  0.00000000000E+00  0.18250000000E+03  0.18250000000E+03  0.00000000000E+00 0.  1.
         11   -1    0    0    0    0 -0.00000000000E+00 -0.00000000000E+00 -0.18250000000E+03  0.18250000000E+03  0.00000000000E+00 0. -1.
        -11    1    1    2    0    0 -0.93836401488E+01 -0.77187967746E+01  0.17719786809E+03  0.17761395492E+03  0.00000000000E+00 0.  1.
         11    1    1    2    0    0 -0.68508804990E+01 -0.37252937895E+01 -0.91444635809E+02  0.91776542731E+02  0.00000000000E+00 0. -1.
        -15    1    1    2    0    0  0.83288044742E+01  0.21110752909E+01 -0.82313832666E+02  0.82780132882E+02  0.17770000000E+01 0. -1.
         15    1    1    2    0    0  0.79057161736E+01  0.93330152732E+01 -0.34393996131E+01  0.12829369470E+02  0.17770000000E+01 0.  1.
</event>
<event>
 6    1  0.1045352E-002  0.1835787E+03  0.7546771E-02  0.1067599E+00
        -11   -1    0    0    0    0  0.00000000000E+00  0.00000000000E+00  0.18250000000E+03  0.18250000000E+03  0.00000000000E+00 0. -1.
         11   -1    0    0    0    0 -0.00000000000E+00 -0.00000000000E+00 -0.18250000000E+03  0.18250000000E+03  0.00000000000E+00 0.  1.
        -11    1    1    2    0    0  0.61039163344E+01  0.37150621909E+00  0.16233570688E+03  0.16245084653E+03  0.00000000000E+00 0. -1.
         11    1    1    2    0    0 -0.34172155346E+01 -0.91985658775E+00 -0.18138682848E+03  0.18142134671E+03  0.00000000000E+00 0.  1.
        -15    1    1    2    0    0 -0.17917737962E+01  0.51741767374E+00  0.18961750108E+02  0.19135931400E+02  0.17770000000E+01 0.  1.
         15    1    1    2    0    0 -0.89492700353E+00  0.30932694925E-01  0.89371491382E-01  0.19918753567E+01  0.17770000000E+01 0.  1.
</event>
<event>
 6    1  0.1045352E-002  0.1828921E+03  0.7546771E-02  0.1068143E+00
        -11   -1    0    0    0    0  0.00000000000E+00  0.00000000000E+00  0.18250000000E+03  0.18250000000E+03  0.00000000000E+00 0.  1.
         11   -1    0    0    0    0 -0.00000000000E+00 -0.00000000000E+00 -0.18250000000E+03  0.18250000000E+03  0.00000000000E+00 0. -1.
        -11    1    1    2    0    0 -0.42564549461E+01  0.51049266180E+01  0.18198654302E+03  0.18210787881E+03  0.00000000000E+00 0.  1.
         11    1    1    2    0    0  0.30320754432E+01 -0.36815876563E+01 -0.14270159046E+03  0.14278127149E+03  0.00000000000E+00 0. -1.
        -15    1    1    2    0    0 -0.14764684904E-01  0.11634040213E+01 -0.30361623819E+01  0.37053660982E+01  0.17770000000E+01 0. -1.
         15    1    1    2    0    0  0.12391441878E+01 -0.25867429831E+01 -0.36248790179E+02  0.36405483598E+02  0.17770000000E+01 0.  1.
</event>
<event>
 6    1  0.1045352E-002  0.1862833E+03  0.7546771E-02  0.1065483E+00
        -11   -1    0    0    0    0  0.00000000000E+00  0.00000000000E+00  0.18250000000E+03  0.18250000000E+03  0.00000000000E+00 0. -1.
         11   -1    0    0    0    0 -0.00000000000E+00 -0.00000000000E+00 -0.18250000000E+03  0.18250000000E+03  0.00000000000E+00 0. -1.
        -11    1    1    2    0    0 -0.77218238527E+01  0.30948466800E+01  0.17852297768E+03  0.17871669816E+03  0.00000000000E+00 0. -1.
         11    1    1    2    0    0 -0.47151085966E+01 -0.71042450156E+01 -0.14454564992E+03  0.14479691798E+03  0.00000000000E+00 0. -1.
        -15    1    1    2    0    0  0.17244307243E+02  0.30932235151E+01 -0.20423006147E+02  0.26966480547E+02  0.17770000000E+01 0. -1.
         15    1    1    2    0    0 -0.48073747937E+01  0.91617482052E+00 -0.13554321620E+02  0.14519903316E+02  0.17770000000E+01 0.  1.
</event>
<event>
 6    1  0.1045352E-002  0.1948808E+03  0.7546771E-02  0.1059006E+00
        -11   -1    0    0    0    0  0.00000000000E+00  0.00000000000E+00  0.18250000000E+03  0.18250000000E+03  0.00000000000E+00 0.  1.
         11   -1    0    0    0    0 -0.00000000000E+00 -0.00000000000E+00 -0.18250000000E+03  0.18250000000E+03  0.00000000000E+00 0.  1.
        -11    1    1    2    0    0  0.28508663404E+01  0.46516284328E+00  0.98393392518E+02  0.98435783669E+02  0.00000000000E+00 0.  1.
         11    1    1    2    0    0  0.12240654722E+02  0.68511936175E+01 -0.16953989174E+03  0.17011921518E+03  0.00000000000E+00 0.  1.
        -15    1    1    2    0    0 -0.85112338730E+01  0.30293091347E+01  0.80435203706E+02  0.80960468996E+02  0.17770000000E+01 0.  1.
         15    1    1    2    0    0 -0.65802871895E+01 -0.10345665595E+02 -0.92887044847E+01  0.15484532157E+02  0.17770000000E+01 0. -1.
</event>
<event>
 6    1  0.1045352E-002  0.1891718E+03  0.7546771E-02  0.1063265E+00
        -11   -1    0    0    0    0  0.00000000000E+00  0.00000000000E+00  0.18250000000E+03  0.18250000000E+03  0.00000000000E+00 0.  1.
         11   -1    0    0    0    0 -0.00000000000E+00 -0.00000000000E+00 -0.18250000000E+03  0.18250000000E+03  0.00000000000E+00 0.  1.
        -11    1    1    2    0    0 -0.13214419323E+02  0.11317914603E+02  0.12965890444E+03  0.13082105170E+03  0.00000000000E+00 0.  1.
         11    1    1    2    0    0 -0.24289475011E+01 -0.38368202044E+01 -0.17576955624E+03  0.17582820558E+03  0.00000000000E+00 0.  1.
        -15    1    1    2    0    0  0.11477662208E+02 -0.62586370883E+01  0.50336639996E+02  0.52036932298E+02  0.17770000000E+01 0.  1.
         15    1    1    2    0    0  0.41657046157E+01 -0.12224573106E+01 -0.42259881911E+01  0.63138104195E+01  0.17770000000E+01 0. -1.
</event>
<event>
 6    1  0.1045352E-002  0.1826879E+03  0.7546771E-02  0.1068305E+00
        -11   -1    0    0    0    0  0.00000000000E+00  0.00000000000E+00  0.18250000000E+03  0.18250000000E+03  0.00000000000E+00 0.  1.
         11   -1    0    0    0    0 -0.00000000000E+00 -0.00000000000E+00 -0.18250000000E+03  0.18250000000E+03  0.00000000000E+00 0. -1.
        -11    1    1    2    0    0  0.22775094620E+01 -0.20110042152E+01  0.38037018922E+02  0.38158170760E+02  0.00000000000E+00 0.  1.
         11    1    1    2    0    0 -0.17537819436E+01 -0.23826275158E+01 -0.18228810684E+03  0.18231211303E+03  0.00000000000E+00 0. -1.
        -15    1    1    2    0    0 -0.46557809485E+00  0.10611386857E+01  0.11687907451E+03  0.11689832576E+03  0.17770000000E+01 0.  1.
         15    1    1    2    0    0 -0.58149423558E-01  0.33324930453E+01  0.27372013408E+02  0.27631390451E+02  0.17770000000E+01 0. -1.
</event>
<event>
 6    1  0.1045352E-002  0.1826899E+03  0.7546771E-02  0.1068304E+00
        -11   -1    0    0    0    0  0.00000000000E+00  0.00000000000E+00  0.18250000000E+03  0.18250000000E+03  0.00000000000E+00 0.  1.
         11   -1    0    0    0    0 -0.00000000000E+00 -0.00000000000E+00 -0.18250000000E+03  0.18250000000E+03  0.00000000000E+00 0. -1.
        -11    1    1    2    0    0  0.20406403321E+01  0.17729583256E+01  0.30204391740E+02  0.30325119531E+02  0.00000000000E+00 0.  1.
         11    1    1    2    0    0 -0.13513483900E+01 -0.34648943274E+01 -0.18227217240E+03  0.18231011071E+03  0.00000000000E+00 0. -1.
        -15    1    1    2    0    0 -0.72144406142E+00  0.51049400017E+01  0.72999035588E+02  0.73202444083E+02  0.17770000000E+01 0.  1.
         15    1    1    2    0    0  0.32152119286E-01 -0.34130039999E+01  0.79068745073E+02  0.79162325676E+02  0.17770000000E+01 0.  1.
</event>
<event>
 6    1  0.1045352E-002  0.1855286E+03  0.7546771E-02  0.1066069E+00
        -11   -1    0    0    0    0  0.00000000000E+00  0.00000000000E+00  0.18250000000E+03  0.18250000000E+03  0.00000000000E+00 0.  1.
         11   -1    0    0    0    0 -0.00000000000E+00 -0.00000000000E+00 -0.18250000000E+03  0.18250000000E+03  0.00000000000E+00 0. -1.
        -11    1    1    2    0    0 -0.14749443835E+00 -0.21447665980E+01  0.15874962853E+03  0.15876418468E+03  0.00000000000E+00 0.  1.
         11    1    1    2    0    0  0.21630343940E+01 -0.22445649528E+01 -0.17944430549E+03  0.17947137812E+03  0.00000000000E+00 0. -1.
        -15    1    1    2    0    0 -0.32373854479E+01 -0.13095746654E+01 -0.11518024891E+01  0.40841190380E+01  0.17770000000E+01 0.  1.
         15    1    1    2    0    0  0.12218454922E+01  0.56989062163E+01  0.21846479455E+02  0.22680318164E+02  0.17770000000E+01 0. -1.
</event>
<event>
 6    1  0.1045352E-002  0.1831223E+03  0.7546771E-02  0.1067960E+00
        -11   -1    0    0    0    0  0.00000000000E+00  0.00000000000E+00  0.18250000000E+03  0.18250000000E+03  0.00000000000E+00 0.  1.
         11   -1    0    0    0    0 -0.00000000000E+00 -0.00000000000E+00 -0.18250000000E+03  0.18250000000E+03  0.00000000000E+00 0. -1.
        -11    1    1    2    0    0 -0.22554066744E+01 -0.18161944440E+01  0.18185459927E+03  0.18187765310E+03  0.00000000000E+00 0.  1.
         11    1    1    2    0    0 -0.23849885307E+01 -0.13386558452E+01 -0.64578757912E+02  0.64636647060E+02  0.00000000000E+00 0. -1.
        -15    1    1    2    0    0  0.76505601845E+01 -0.16308850695E+01 -0.97792617811E+02  0.98121071562E+02  0.17770000000E+01 0.  1.
         15    1    1    2    0    0 -0.30101649794E+01  0.47857353587E+01 -0.19483223547E+02  0.20364628278E+02  0.17770000000E+01 0. -1.
</event>
<event>
 6    1  0.1045352E-002  0.1829457E+03  0.7546771E-02  0.1068101E+00
        -11   -1    0    0    0    0  0.00000000000E+00  0.00000000000E+00  0.18250000000E+03  0.18250000000E+03  0.00000000000E+00 0. -1.
         11   -1    0    0    0    0 -0.00000000000E+00 -0.00000000000E+00 -0.18250000000E+03  0.18250000000E+03  0.00000000000E+00 0.  1.
        -11    1    1    2    0    0  0.26222501611E+01 -0.41905475642E+01  0.94334709926E+02  0.94464143365E+02  0.00000000000E+00 0. -1.
         11    1    1    2    0    0 -0.28569288571E+01  0.20059927476E+01 -0.18202080802E+03  0.18205427927E+03  0.00000000000E+00 0.  1.
        -15    1    1    2    0    0  0.31910844266E+01 -0.35422633372E+01  0.33388892339E+02  0.33774346922E+02  0.17770000000E+01 0. -1.
         15    1    1    2    0    0 -0.29564057307E+01  0.57268181537E+01  0.54297205753E+02  0.54707230442E+02  0.17770000000E+01 0.  1.
</event>
<event>
 6    1  0.1045352E-002  0.1838647E+03  0.7546771E-02  0.1067374E+00
        -11   -1    0    0    0    0  0.00000000000E+00  0.00000000000E+00  0.18250000000E+03  0.18250000000E+03  0.00000000000E+00 0.  1.
         11   -1    0    0    0    0 -0.00000000000E+00 -0.00000000000E+00 -0.18250000000E+03  0.18250000000E+03  0.00000000000E+00 0.  1.
        -11    1    1    2    0    0 -0.15653845213E+01 -0.47414362918E+01  0.18106649759E+03  0.18113533116E+03  0.00000000000E+00 0.  1.
         11    1    1    2    0    0 -0.28027549372E+01 -0.53666267311E+00 -0.16337572740E+03  0.16340064793E+03  0.00000000000E+00 0.  1.
        -15    1    1    2    0    0  0.44078348003E+00  0.66789993759E+00 -0.11354861153E+02  0.11520893247E+02  0.17770000000E+01 0. -1.
         15    1    1    2    0    0  0.39273559785E+01  0.46101990274E+01 -0.63359090356E+01  0.89431276610E+01  0.17770000000E+01 0.  1.
</event>
<event>
 6    1  0.1045352E-002  0.1868089E+03  0.7546771E-02  0.1065076E+00
        -11   -1    0    0    0    0  0.00000000000E+00  0.00000000000E+00  0.18250000000E+03  0.18250000000E+03  0.00000000000E+00 0.  1.
         11   -1    0    0    0    0 -0.00000000000E+00 -0.00000000000E+00 -0.18250000000E+03  0.18250000000E+03  0.00000000000E+00 0. -1.
        -11    1    1    2    0    0 -0.93013055310E+00 -0.40921591595E+01  0.17814171678E+03  0.17819113942E+03  0.00000000000E+00 0.  1.
         11    1    1    2    0    0 -0.73380427461E+01 -0.18639987054E+01 -0.14978100271E+03  0.14997223121E+03  0.00000000000E+00 0. -1.
        -15    1    1    2    0    0  0.13233977710E+02  0.78540638959E+01 -0.12160651533E+02  0.19694254502E+02  0.17770000000E+01 0. -1.
         15    1    1    2    0    0 -0.49658044104E+01 -0.18979060310E+01 -0.16200062541E+02  0.17142374867E+02  0.17770000000E+01 0.  1.
</event>
<event>
 6    1  0.1045352E-002  0.1830675E+03  0.7546771E-02  0.1068004E+00
        -11   -1    0    0    0    0  0.00000000000E+00  0.00000000000E+00  0.18250000000E+03  0.18250000000E+03  0.00000000000E+00 0. -1.
         11   -1    0    0    0    0 -0.00000000000E+00 -0.00000000000E+00 -0.18250000000E+03  0.18250000000E+03  0.00000000000E+00 0.  1.
        -11    1    1    2    0    0  0.20845889384E+01  0.70938603079E+01  0.18178215985E+03  0.18193246551E+03  0.00000000000E+00 0. -1.
         11    1    1    2    0    0  0.12364972149E+01  0.33623061540E+00 -0.28013631722E+02  0.28042923147E+02  0.00000000000E+00 0.  1.
        -15    1    1    2    0    0  0.42115458087E+00 -0.26464440286E+01 -0.13794714011E+03  0.13798460868E+03  0.17770000000E+01 0.  1.
         15    1    1    2    0    0 -0.37422407341E+01 -0.47836468947E+01 -0.15821388013E+02  0.17040002670E+02  0.17770000000E+01 0. -1.
</event>
<event>
 6    1  0.1045352E-002  0.1781911E+03  0.7546771E-02  0.1071937E+00
        -11   -1    0    0    0    0  0.00000000000E+00  0.00000000000E+00  0.18250000000E+03  0.18250000000E+03  0.00000000000E+00 0. -1.
         11   -1    0    0    0    0 -0.00000000000E+00 -0.00000000000E+00 -0.18250000000E+03  0.18250000000E+03  0.00000000000E+00 0. -1.
        -11    1    1    2    0    0  0.10513158314E+01  0.48116069602E+01  0.17893599004E+03  0.17900375794E+03  0.00000000000E+00 0. -1.
         11    1    1    2    0    0  0.28619122958E+01 -0.41124846766E+00 -0.17740673896E+03  0.17743029813E+03  0.00000000000E+00 0. -1.
        -15    1    1    2    0    0 -0.19033764645E+01 -0.21247217573E+01 -0.32274777507E+01  0.46595736009E+01  0.17770000000E+01 0.  1.
         15    1    1    2    0    0 -0.20098516627E+01 -0.22756367353E+01  0.16982266733E+01  0.39063703218E+01  0.17770000000E+01 0. -1.
</event>
<event>
 6    1  0.1045352E-002  0.1832661E+03  0.7546771E-02  0.1067847E+00
        -11   -1    0    0    0    0  0.00000000000E+00  0.00000000000E+00  0.18250000000E+03  0.18250000000E+03  0.00000000000E+00 0.  1.
         11   -1    0    0    0    0 -0.00000000000E+00 -0.00000000000E+00 -0.18250000000E+03  0.18250000000E+03  0.00000000000E+00 0.  1.
        -11    1    1    2    0    0 -0.18817775749E+01 -0.40734175403E+01  0.18167853675E+03  0.18173393886E+03  0.00000000000E+00 0.  1.
         11    1    1    2    0    0  0.14335984891E+01 -0.15456236766E+01 -0.75568471652E+02  0.75597870770E+02  0.00000000000E+00 0.  1.
        -15    1    1    2    0    0 -0.47160792100E+01  0.10019619870E+02 -0.67792944519E+02  0.68714447105E+02  0.17770000000E+01 0.  1.
         15    1    1    2    0    0  0.51642582958E+01 -0.44005786529E+01 -0.38317120578E+02  0.38953743268E+02  0.17770000000E+01 0. -1.
</event>
<event>
 6    1  0.1045352E-002  0.1834524E+03  0.7546771E-02  0.1067699E+00
        -11   -1    0    0    0    0  0.00000000000E+00  0.00000000000E+00  0.18250000000E+03  0.18250000000E+03  0.00000000000E+00 0. -1.
         11   -1    0    0    0    0 -0.00000000000E+00 -0.00000000000E+00 -0.18250000000E+03  0.18250000000E+03  0.00000000000E+00 0. -1.
        -11    1    1    2    0    0 -0.78713950668E-01  0.36668252734E+01  0.16003497142E+03  0.16007699361E+03  0.00000000000E+00 0. -1.
         11    1    1    2    0    0  0.42018769960E+00  0.34820486221E+01 -0.18151373615E+03  0.18154761808E+03  0.00000000000E+00 0. -1.
        -15    1    1    2    0    0  0.55698517338E+00 -0.42716573342E+01  0.65277449190E+01  0.80203785193E+01  0.17770000000E+01 0. -1.
         15    1    1    2    0    0 -0.89845892231E+00 -0.28772165613E+01  0.14951019804E+02  0.15355009794E+02  0.17770000000E+01 0.  1.
</event>
<event>
 6    1  0.1045352E-002  0.1834018E+03  0.7546771E-02  0.1067739E+00
        -11   -1    0    0    0    0  0.00000000000E+00  0.00000000000E+00  0.18250000000E+03  0.18250000000E+03  0.00000000000E+00 0. -1.
         11   -1    0    0    0    0 -0.00000000000E+00 -0.00000000000E+00 -0.18250000000E+03  0.18250000000E+03  0.00000000000E+00 0. -1.
        -11    1    1    2    0    0  0.32092551573E+01 -0.16787734882E+01  0.18156205292E+03  0.18159817361E+03  0.00000000000E+00 0. -1.
         11    1    1    2    0    0 -0.29278425331E+01  0.41488889074E+01 -0.17521943708E+03  0.17529300235E+03  0.00000000000E+00 0. -1.
        -15    1    1    2    0    0  0.11302608744E+01 -0.10576496379E+01 -0.33538744964E+01  0.40990627634E+01  0.17770000000E+01 0.  1.
         15    1    1    2    0    0 -0.14116734986E+01 -0.14124657814E+01 -0.29887413429E+01  0.40097612728E+01  0.17770000000E+01 0. -1.
</event>
<event>
 6    1  0.1045352E-002  0.1860122E+03  0.7546771E-02  0.1065693E+00
        -11   -1    0    0    0    0  0.00000000000E+00  0.00000000000E+00  0.18250000000E+03  0.18250000000E+03  0.00000000000E+00 0.  1.
         11   -1    0    0    0    0 -0.00000000000E+00 -0.00000000000E+00 -0.18250000000E+03  0.18250000000E+03  0.00000000000E+00 0. -1.
        -11    1    1    2    0    0 -0.53676383125E+01 -0.23570063667E+01  0.17889178503E+03  0.17898781459E+03  0.00000000000E+00 0.  1.
         11    1    1    2    0    0  0.35872803608E+01 -0.24338244047E+01 -0.17586524645E+03  0.17591866584E+03  0.00000000000E+00 0. -1.
        -15    1    1    2    0    0 -0.28307367147E+00 -0.60019297628E+00 -0.35563250972E+01  0.40305755804E+01  0.17770000000E+01 0. -1.
         15    1    1    2    0    0  0.20634316232E+01  0.53910237477E+01  0.52978651764E+00  0.60629439933E+01  0.17770000000E+01 0.  1.
</event>
<event>
 6    1  0.1045352E-002  0.1898050E+03  0.7546771E-02  0.1062784E+00
        -11   -1    0    0    0    0  0.00000000000E+00  0.00000000000E+00  0.18250000000E+03  0.18250000000E+03  0.00000000000E+00 0.  1.
         11   -1    0    0    0    0 -0.00000000000E+00 -0.00000000000E+00 -0.18250000000E+03  0.18250000000E+03  0.00000000000E+00 0. -1.
        -11    1    1    2    0    0 -0.66246167526E+01  0.26340142331E+01  0.13825939828E+03  0.13844307419E+03  0.00000000000E+00 0.  1.
         11    1    1    2    0    0 -0.18450178949E+01  0.54890092417E+01 -0.17509926283E+03  0.17519499182E+03  0.00000000000E+00 0. -1.
        -15    1    1    2    0    0  0.61637445686E+01 -0.30799606252E+01 -0.52677995647E+01  0.88535498990E+01  0.17770000000E+01 0. -1.
         15    1    1    2    0    0  0.23058900789E+01 -0.50430628496E+01  0.42107664112E+02  0.42508384090E+02  0.17770000000E+01 0.  1.
</event>
<event>
 6    1  0.1045352E-002  0.1829729E+03  0.7546771E-02  0.1068079E+00
        -11   -1    0    0    0    0  0.00000000000E+00  0.00000000000E+00  0.18250000000E+03  0.18250000000E+03  0.00000000000E+00 0.  1.
         11   -1    0    0    0    0 -0.00000000000E+00 -0.00000000000E+00 -0.18250000000E+03  0.18250000000E+03  0.00000000000E+00 0. -1.
        -11    1    1    2    0    0 -0.37312650477E+01  0.31914703044E+01  0.18196086068E+03  0.18202709315E+03  0.00000000000E+00 0.  1.
         11    1    1    2    0    0 -0.69723019886E+00  0.16260131892E+01 -0.11878567618E+03  0.11879885064E+03  0.00000000000E+00 0. -1.
        -15    1    1    2    0    0 -0.21567203258E+01 -0.11213958567E+01 -0.10243609301E+02  0.10676995446E+02  0.17770000000E+01 0. -1.
         15    1    1    2    0    0  0.65852155724E+01 -0.36960876370E+01 -0.52931575200E+02  0.53497060762E+02  0.17770000000E+01 0.  1.
</event>
<event>
 6    1  0.1045352E-002  0.1846195E+03  0.7546771E-02  0.1066780E+00
        -11   -1    0    0    0    0  0.00000000000E+00  0.00000000000E+00  0.18250000000E+03  0.18250000000E+03  0.00000000000E+00 0.  1.
         11   -1    0    0    0    0 -0.00000000000E+00 -0.00000000000E+00 -0.18250000000E+03  0.18250000000E+03  0.00000000000E+00 0.  1.
        -11    1    1    2    0    0 -0.50422096847E+01  0.27177258329E+01  0.18028958022E+03  0.18038054953E+03  0.00000000000E+00 0.  1.
         11    1    1    2    0    0 -0.20462324619E+01 -0.27656143376E+01 -0.17174204696E+03  0.17177650126E+03  0.00000000000E+00 0.  1.
        -15    1    1    2    0    0  0.45247018824E+01 -0.94548837838E+00 -0.16703801930E+01  0.52263538330E+01  0.17770000000E+01 0.  1.
         15    1    1    2    0    0  0.25637402642E+01  0.99337688307E+00 -0.68771530717E+01  0.76165953776E+01  0.17770000000E+01 0. -1.
</event>
<event>
 6    1  0.1045352E-002  0.1826849E+03  0.7546771E-02  0.1068308E+00
        -11   -1    0    0    0    0  0.00000000000E+00  0.00000000000E+00  0.18250000000E+03  0.18250000000E+03  0.00000000000E+00 0.  1.
         11   -1    0    0    0    0 -0.00000000000E+00 -0.00000000000E+00 -0.18250000000E+03  0.18250000000E+03  0.00000000000E+00 0. -1.
        -11    1    1    2    0    0  0.13760399457E+01  0.16722097330E+01  0.13540971261E+03  0.13542702847E+03  0.00000000000E+00 0.  1.
         11    1    1    2    0    0 -0.36903449544E+01  0.29106678181E+00 -0.18227751311E+03  0.18231509852E+03  0.00000000000E+00 0. -1.
        -15    1    1    2    0    0  0.20886157066E+01 -0.27165190243E+00  0.12418146672E+02  0.12720228225E+02  0.17770000000E+01 0.  1.
         15    1    1    2    0    0  0.22568930207E+00 -0.16916246124E+01  0.34449653824E+02  0.34537644782E+02  0.17770000000E+01 0. -1.
</event>
<event>
 6    1  0.1045352E-002  0.1826309E+03  0.7546771E-02  0.1068351E+00
        -11   -1    0    0    0    0  0.00000000000E+00  0.00000000000E+00  0.18250000000E+03  0.18250000000E+03  0.00000000000E+00 0. -1.
         11   -1    0    0    0    0 -0.00000000000E+00 -0.00000000000E+00 -0.18250000000E+03  0.18250000000E+03  0.00000000000E+00 0. -1.
        -11    1    1    2    0    0  0.26321661467E+01  0.75891753875E+00  0.27860177837E+02  0.27994530958E+02  0.00000000000E+00 0. -1.
         11    1    1    2    0    0 -0.30753229318E+00  0.31145420933E+01 -0.18234221142E+03  0.18236906814E+03  0.00000000000E+00 0. -1.
        -15    1    1    2    0    0 -0.10646529309E+00 -0.11756478824E+01  0.95759323800E+02  0.95783084658E+02  0.17770000000E+01 0. -1.
         15    1    1    2    0    0 -0.22181685604E+01 -0.26978117497E+01  0.58722709781E+02  0.58853316245E+02  0.17770000000E+01 0.  1.
</event>
<event>
 6    1  0.1045352E-002  0.1837647E+03  0.7546771E-02  0.1067453E+00
        -11   -1    0    0    0    0  0.00000000000E+00  0.00000000000E+00  0.18250000000E+03  0.18250000000E+03  0.00000000000E+00 0.  1.
         11   -1    0    0    0    0 -0.00000000000E+00 -0.00000000000E+00 -0.18250000000E+03  0.18250000000E+03  0.00000000000E+00 0.  1.
        -11    1    1    2    0    0  0.23815968541E+01 -0.55093125274E+00  0.18121881628E+03  0.18123530259E+03  0.00000000000E+00 0.  1.
         11    1    1    2    0    0 -0.10568889191E+01 -0.12807877116E+01 -0.10785696369E+03  0.10786974575E+03  0.00000000000E+00 0.  1.
        -15    1    1    2    0    0  0.30462488132E+01 -0.93021191657E+00 -0.68444506200E+02  0.68541615709E+02  0.17770000000E+01 0.  1.
         15    1    1    2    0    0 -0.43709567483E+01  0.27619308809E+01 -0.49173463913E+01  0.73533359517E+01  0.17770000000E+01 0. -1.
</event>
<event>
 6    1  0.1045352E-002  0.1855297E+03  0.7546771E-02  0.1066068E+00
        -11   -1    0    0    0    0  0.00000000000E+00  0.00000000000E+00  0.18250000000E+03  0.18250000000E+03  0.00000000000E+00 0.  1.
         11   -1    0    0    0    0 -0.00000000000E+00 -0.00000000000E+00 -0.18250000000E+03  0.18250000000E+03  0.00000000000E+00 0. -1.
        -11    1    1    2    0    0 -0.16447278486E+01  0.18046360926E+01  0.17945366009E+03  0.17947027041E+03  0.00000000000E+00 0.  1.
         11    1    1    2    0    0 -0.26805757361E+01  0.46066408048E+01 -0.64101689293E+02  0.64322882367E+02  0.00000000000E+00 0. -1.
        -15    1    1    2    0    0  0.90480890542E+01  0.28182586488E+01 -0.10786611590E+03  0.10829620116E+03  0.17770000000E+01 0. -1.
         15    1    1    2    0    0 -0.47227854696E+01 -0.92295355461E+01 -0.74858548970E+01  0.12910646054E+02  0.17770000000E+01 0.  1.
</event>
<event>
 6    1  0.1045352E-002  0.1828825E+03  0.7546771E-02  0.1068151E+00
        -11   -1    0    0    0    0  0.00000000000E+00  0.00000000000E+00  0.18250000000E+03  0.18250000000E+03  0.00000000000E+00 0. -1.
         11   -1    0    0    0    0 -0.00000000000E+00 -0.00000000000E+00 -0.18250000000E+03  0.18250000000E+03  0.00000000000E+00 0.  1.
        -11    1    1    2    0    0  0.34726314399E+01  0.31913298231E+01  0.10091655569E+03  0.10102670423E+03  0.00000000000E+00 0. -1.
         11    1    1    2    0    0  0.10529638035E+01  0.24403084313E+01 -0.18209806700E+03  0.18211746166E+03  0.00000000000E+00 0.  1.
        -15    1    1    2    0    0 -0.44389940106E+01 -0.70515666409E+00  0.27705205234E+02  0.28123620674E+02  0.17770000000E+01 0.  1.
         15    1    1    2    0    0 -0.86601232742E-01 -0.49264815902E+01  0.53476306069E+02  0.53732213433E+02  0.17770000000E+01 0. -1.
</event>
<event>
 6    1  0.1045352E-002  0.1871138E+03  0.7546771E-02  0.1064840E+00
        -11   -1    0    0    0    0  0.00000000000E+00  0.00000000000E+00  0.18250000000E+03  0.18250000000E+03  0.00000000000E+00 0.  1.
         11   -1    0    0    0    0 -0.00000000000E+00 -0.00000000000E+00 -0.18250000000E+03  0.18250000000E+03  0.00000000000E+00 0. -1.
        -11    1    1    2    0    0  0.87361913684E+00  0.38511146841E+01  0.15697138644E+03  0.15702105100E+03  0.00000000000E+00 0.  1.
         11    1    1    2    0    0  0.95237535713E+01  0.13459670158E+02 -0.17712042124E+03  0.17788622269E+03  0.00000000000E+00 0. -1.
        -15    1    1    2    0    0 -0.49677501211E+01 -0.20594266550E+01  0.78705963527E+01  0.96965867892E+01  0.17770000000E+01 0. -1.
         15    1    1    2    0    0 -0.54296225870E+01 -0.15251358187E+02  0.12278438444E+02  0.20396139527E+02  0.17770000000E+01 0.  1.
</event>
<event>
 6    1  0.1045352E-002  0.2148648E+03  0.7546771E-02  0.1045264E+00
        -11   -1    0    0    0    0  0.00000000000E+00  0.00000000000E+00  0.18250000000E+03  0.18250000000E+03  0.00000000000E+00 0.  1.
         11   -1    0    0    0    0 -0.00000000000E+00 -0.00000000000E+00 -0.18250000000E+03  0.18250000000E+03  0.00000000000E+00 0. -1.
        -11    1    1    2    0    0  0.64890870088E+01  0.96887760926E+00  0.10770712232E+03  0.10790677074E+03  0.00000000000E+00 0.  1.
         11    1    1    2    0    0 -0.58524716337E+01 -0.91113446854E+00 -0.15001835626E+03  0.15013523505E+03  0.00000000000E+00 0. -1.
        -15    1    1    2    0    0  0.41187547811E+01 -0.86678100346E+01 -0.31240859843E+02  0.32729865941E+02  0.17770000000E+01 0. -1.
         15    1    1    2    0    0 -0.47553701562E+01  0.86100668939E+01  0.73552093782E+02  0.74228128266E+02  0.17770000000E+01 0. -1.
</event>
<event>
 6    1  0.1045352E-002  0.1836013E+03  0.7546771E-02  0.1067582E+00
        -11   -1    0    0    0    0  0.00000000000E+00  0.00000000000E+00  0.18250000000E+03  0.18250000000E+03  0.00000000000E+00 0. -1.
         11   -1    0    0    0    0 -0.00000000000E+00 -0.00000000000E+00 -0.18250000000E+03  0.18250000000E+03  0.00000000000E+00 0. -1.
        -11    1    1    2    0    0 -0.24721351306E+01 -0.13873771482E+01  0.18137656973E+03  0.18139872192E+03  0.00000000000E+00 0. -1.
         11    1    1    2    0    0  0.80478666071E+00  0.49454546265E+01 -0.10458915346E+03  0.10470910288E+03  0.00000000000E+00 0. -1.
        -15    1    1    2    0    0 -0.57037505569E+00  0.14995330218E+01 -0.57955664276E+00  0.24632380904E+01  0.17770000000E+01 0. -1.
         15    1    1    2    0    0  0.22377235255E+01 -0.50576105002E+01 -0.76207859625E+02  0.76428937113E+02  0.17770000000E+01 0. -1.
</event>
<event>
 6    1  0.1045352E-002  0.1828231E+03  0.7546771E-02  0.1068198E+00
        -11   -1    0    0    0    0  0.00000000000E+00  0.00000000000E+00  0.18250000000E+03  0.18250000000E+03  0.00000000000E+00 0.  1.
         11   -1    0    0    0    0 -0.00000000000E+00 -0.00000000000E+00 -0.18250000000E+03  0.18250000000E+03  0.00000000000E+00 0. -1.
        -11    1    1    2    0    0 -0.52749380140E+00 -0.15724765424E+01  0.65248344454E+02  0.65269421525E+02  0.00000000000E+00 0.  1.
         11    1    1    2    0    0 -0.53505364052E+01 -0.29612124556E+01 -0.18207426167E+03  0.18217692988E+03  0.00000000000E+00 0. -1.
        -15    1    1    2    0    0  0.48560899854E+00 -0.24709800394E+00  0.33164767942E+01  0.38017917946E+01  0.17770000000E+01 0. -1.
         15    1    1    2    0    0  0.53924212080E+01  0.47807870019E+01  0.11350944042E+03  0.11375185680E+03  0.17770000000E+01 0.  1.
</event>
<event>
 6    1  0.1045352E-002  0.1832868E+03  0.7546771E-02  0.1067830E+00
        -11   -1    0    0    0    0  0.00000000000E+00  0.00000000000E+00  0.18250000000E+03  0.18250000000E+03  0.00000000000E+00 0. -1.
         11   -1    0    0    0    0 -0.00000000000E+00 -0.00000000000E+00 -0.18250000000E+03  0.18250000000E+03  0.00000000000E+00 0.  1.
        -11    1    1    2    0    0  0.41409689241E+00  0.26936159550E+01  0.18169273691E+03  0.18171317423E+03  0.00000000000E+00 0. -1.
         11    1    1    2    0    0  0.24932926534E+00 -0.33297365608E+01 -0.15517506679E+03  0.15521098757E+03  0.00000000000E+00 0.  1.
        -15    1    1    2    0    0  0.24188683519E+01  0.65879428250E+00 -0.30135985316E+01  0.43040026858E+01  0.17770000000E+01 0.  1.
         15    1    1    2    0    0 -0.30822945096E+01 -0.22673676696E-01 -0.23504071585E+02  0.23771835512E+02  0.17770000000E+01 0. -1.
</event>
<event>
 6    1  0.1045352E-002  0.1833916E+03  0.7546771E-02  0.1067747E+00
        -11   -1    0    0    0    0  0.00000000000E+00  0.00000000000E+00  0.18250000000E+03  0.18250000000E+03  0.00000000000E+00 0.  1.
         11   -1    0    0    0    0 -0.00000000000E+00 -0.00000000000E+00 -0.18250000000E+03  0.18250000000E+03  0.00000000000E+00 0. -1.
        -11    1    1    2    0    0 -0.75505915450E+00  0.34322318924E+01  0.18157442129E+03  0.18160842711E+03  0.00000000000E+00 0.  1.
         11    1    1    2    0    0 -0.16797875790E+01 -0.12477595909E+01 -0.11275581256E+03  0.11277522714E+03  0.00000000000E+00 0. -1.
        -15    1    1    2    0    0  0.36852330410E+00 -0.11358057878E+01 -0.45291402611E+00  0.21883154088E+01  0.17770000000E+01 0.  1.
         15    1    1    2    0    0  0.20663234294E+01 -0.10486665137E+01 -0.68365694712E+02  0.68428030342E+02  0.17770000000E+01 0. -1.
</event>
<event>
 6    1  0.1045352E-002  0.1839388E+03  0.7546771E-02  0.1067315E+00
        -11   -1    0    0    0    0  0.00000000000E+00  0.00000000000E+00  0.18250000000E+03  0.18250000000E+03  0.00000000000E+00 0. -1.
         11   -1    0    0    0    0 -0.00000000000E+00 -0.00000000000E+00 -0.18250000000E+03  0.18250000000E+03  0.00000000000E+00 0. -1.
        -11    1    1    2    0    0  0.14571712636E+01  0.61033628486E+01  0.15980086382E+03  0.15992401465E+03  0.00000000000E+00 0. -1.
         11    1    1    2    0    0  0.44187680585E+01 -0.58838738202E+00 -0.18100635652E+03  0.18106124050E+03  0.00000000000E+00 0. -1.
        -15    1    1    2    0    0 -0.12567388710E+01 -0.52996967753E+01  0.74758880172E+01  0.94187477483E+01  0.17770000000E+01 0. -1.
         15    1    1    2    0    0 -0.46192004511E+01 -0.21527869122E+00  0.13729604681E+02  0.14595997103E+02  0.17770000000E+01 0.  1.
</event>
<event>
 6    1  0.1045352E-002  0.1905312E+03  0.7546771E-02  0.1062236E+00
        -11   -1    0    0    0    0  0.00000000000E+00  0.00000000000E+00  0.18250000000E+03  0.18250000000E+03  0.00000000000E+00 0. -1.
         11   -1    0    0    0    0 -0.00000000000E+00 -0.00000000000E+00 -0.18250000000E+03  0.18250000000E+03  0.00000000000E+00 0. -1.
        -11    1    1    2    0    0  0.10864268914E+01 -0.35792821740E+01  0.17442869493E+03  0.17446879721E+03  0.00000000000E+00 0. -1.
         11    1    1    2    0    0 -0.23645049775E+01  0.23342906696E+01 -0.14163908096E+03  0.14167804718E+03  0.00000000000E+00 0. -1.
        -15    1    1    2    0    0  0.98448674865E+01  0.91189981692E+00 -0.37561601861E+02  0.38881674867E+02  0.17770000000E+01 0. -1.
         15    1    1    2    0    0 -0.85667894004E+01  0.33309168747E+00  0.47719878912E+01  0.99714807394E+01  0.17770000000E+01 0.  1.
</event>
<event>
 6    1  0.1045352E-002  0.1844624E+03  0.7546771E-02  0.1066903E+00
        -11   -1    0    0    0    0  0.00000000000E+00  0.00000000000E+00  0.18250000000E+03  0.18250000000E+03  0.00000000000E+00 0.  1.
         11   -1    0    0    0    0 -0.00000000000E+00 -0.00000000000E+00 -0.18250000000E+03  0.18250000000E+03  0.00000000000E+00 0.  1.
        -11    1    1    2    0    0 -0.28395686976E+01 -0.19712750044E+01  0.17592468168E+03  0.17595863918E+03  0.00000000000E+00 0.  1.
         11    1    1    2    0    0 -0.15501487158E+01  0.39586985386E+01 -0.18048748700E+03  0.18053755072E+03  0.00000000000E+00 0.  1.
        -15    1    1    2    0    0  0.12188307697E+01 -0.85468335285E+00 -0.28948933142E+00  0.23361432216E+01  0.17770000000E+01 0.  1.
         15    1    1    2    0    0  0.31708866437E+01 -0.11327401814E+01  0.48522946489E+01  0.61676668835E+01  0.17770000000E+01 0. -1.
</event>
<event>
 6    1  0.1045352E-002  0.1837263E+03  0.7546771E-02  0.1067483E+00
        -11   -1    0    0    0    0  0.00000000000E+00  0.00000000000E+00  0.18250000000E+03  0.18250000000E+03  0.00000000000E+00 0. -1.
         11   -1    0    0    0    0 -0.00000000000E+00 -0.00000000000E+00 -0.18250000000E+03  0.18250000000E+03  0.00000000000E+00 0.  1.
        -11    1    1    2    0    0  0.15736459593E+01 -0.16151647580E+00  0.92826693450E+02  0.92840171618E+02  0.00000000000E+00 0. -1.
         11    1    1    2    0    0  0.14035052448E+01 -0.35014067170E+01 -0.18123441164E+03  0.18127366504E+03  0.00000000000E+00 0.  1.
        -15    1    1    2    0    0  0.50183613194E+01  0.68443583373E+00  0.72899062984E+02  0.73096398787E+02  0.17770000000E+01 0. -1.
         15    1    1    2    0    0 -0.79955125235E+01  0.29784873590E+01  0.15508655206E+02  0.17789764551E+02  0.17770000000E+01 0. -1.
</event>
<event>
 6    1  0.1045352E-002  0.1852699E+03  0.7546771E-02  0.1066271E+00
        -11   -1    0    0    0    0  0.00000000000E+00  0.00000000000E+00  0.18250000000E+03  0.18250000000E+03  0.00000000000E+00 0. -1.
         11   -1    0    0    0    0 -0.00000000000E+00 -0.00000000000E+00 -0.18250000000E+03  0.18250000000E+03  0.00000000000E+00 0.  1.
        -11    1    1    2    0    0 -0.18121664277E+01 -0.14616239800E+01  0.16103311845E+03  0.16104994732E+03  0.00000000000E+00 0. -1.
         11    1    1    2    0    0  0.23858823384E+01  0.26220053675E+01 -0.17969513233E+03  0.17973009745E+03  0.00000000000E+00 0.  1.
        -15    1    1    2    0    0 -0.59338328288E+00  0.18106108214E+00  0.20945919008E+02  0.21030314760E+02  0.17770000000E+01 0. -1.
         15    1    1    2    0    0  0.19667372166E-01 -0.13414424696E+01 -0.22839051338E+01  0.31896404758E+01  0.17770000000E+01 0.  1.
</event>
<event>
 6    1  0.1045352E-002  0.1830617E+03  0.7546771E-02  0.1068009E+00
        -11   -1    0    0    0    0  0.00000000000E+00  0.00000000000E+00  0.18250000000E+03  0.18250000000E+03  0.00000000000E+00 0.  1.
         11   -1    0    0    0    0 -0.00000000000E+00 -0.00000000000E+00 -0.18250000000E+03  0.18250000000E+03  0.00000000000E+00 0.  1.
        -11    1    1    2    0    0  0.42119694637E+01  0.33054804833E+01  0.94511989044E+02  0.94663524977E+02  0.00000000000E+00 0.  1.
         11    1    1    2    0    0  0.38670723084E+01  0.65836762075E-01 -0.18189720421E+03  0.18193831780E+03  0.00000000000E+00 0.  1.
        -15    1    1    2    0    0 -0.88262455958E+01 -0.38617672999E+01  0.83080438542E+02  0.83656038965E+02  0.17770000000E+01 0.  1.
         15    1    1    2    0    0  0.74720382373E+00  0.49045005457E+00  0.43047766250E+01  0.47421182610E+01  0.17770000000E+01 0.  1.
</event>
<event>
 6    1  0.1045352E-002  0.1844780E+03  0.7546771E-02  0.1066891E+00
        -11   -1    0    0    0    0  0.00000000000E+00  0.00000000000E+00  0.18250000000E+03  0.18250000000E+03  0.00000000000E+00 0.  1.
         11   -1    0    0    0    0 -0.00000000000E+00 -0.00000000000E+00 -0.18250000000E+03  0.18250000000E+03  0.00000000000E+00 0.  1.
        -11    1    1    2    0    0  0.24800365631E+01 -0.20006222916E+01  0.16492660839E+03  0.16495738609E+03  0.00000000000E+00 0.  1.
         11    1    1    2    0    0 -0.26086676302E+01  0.12951260082E+01 -0.18049851358E+03  0.18052200947E+03  0.00000000000E+00 0.  1.
        -15    1    1    2    0    0 -0.27029403885E+01  0.50909259983E+01  0.10021394266E+02  0.11696558738E+02  0.17770000000E+01 0. -1.
         15    1    1    2    0    0  0.28315714556E+01 -0.43854297150E+01  0.55505109274E+01  0.78240457085E+01  0.17770000000E+01 0.  1.
</event>
<event>
 6    1  0.1045352E-002  0.1945084E+03  0.7546771E-02  0.1059279E+00
        -11   -1    0    0    0    0  0.00000000000E+00  0.00000000000E+00  0.18250000000E+03  0.18250000000E+03  0.00000000000E+00 0.  1.
         11   -1    0    0    0    0 -0.00000000000E+00 -0.00000000000E+00 -0.18250000000E+03  0.18250000000E+03  0.00000000000E+00 0.  1.
        -11    1    1    2    0    0  0.53325470995E+01 -0.58439915671E+01  0.17030794555E+03  0.17049159690E+03  0.00000000000E+00 0.  1.
         11    1    1    2    0    0 -0.10661693989E+02  0.65782813469E+01 -0.14619041392E+03  0.14672621656E+03  0.00000000000E+00 0.  1.
        -15    1    1    2    0    0 -0.96767484079E+01 -0.52147249599E+01 -0.29176537151E+02  0.31229166900E+02  0.17770000000E+01 0.  1.
         15    1    1    2    0    0  0.15005895298E+02  0.44804351801E+01  0.50590055202E+01  0.16553019632E+02  0.17770000000E+01 0. -1.
</event>
<event>
 6    1  0.1045352E-002  0.1905045E+03  0.7546771E-02  0.1062256E+00
        -11   -1    0    0    0    0  0.00000000000E+00  0.00000000000E+00  0.18250000000E+03  0.18250000000E+03  0.00000000000E+00 0. -1.
         11   -1    0    0    0    0 -0.00000000000E+00 -0.00000000000E+00 -0.18250000000E+03  0.18250000000E+03  0.00000000000E+00 0. -1.
        -11    1    1    2    0    0  0.23343402916E+01 -0.94155444660E+00  0.17447730515E+03  0.17449546035E+03  0.00000000000E+00 0. -1.
         11    1    1    2    0    0  0.10919494862E+01 -0.40566274336E+01 -0.17044949073E+03  0.17050125357E+03  0.00000000000E+00 0. -1.
        -15    1    1    2    0    0  0.15652655753E+01 -0.13554805299E+01 -0.96318715404E+01  0.10010897171E+02  0.17770000000E+01 0. -1.
         15    1    1    2    0    0 -0.49915553532E+01  0.63536624101E+01  0.56040571203E+01  0.99923889072E+01  0.17770000000E+01 0.  1.
</event>
<event>
 6    1  0.1045352E-002  0.1828083E+03  0.7546771E-02  0.1068210E+00
        -11   -1    0    0    0    0  0.00000000000E+00  0.00000000000E+00  0.18250000000E+03  0.18250000000E+03  0.00000000000E+00 0.  1.
         11   -1    0    0    0    0 -0.00000000000E+00 -0.00000000000E+00 -0.18250000000E+03  0.18250000000E+03  0.00000000000E+00 0.  1.
        -11    1    1    2    0    0 -0.14483065913E+01  0.71072853406E+00  0.23509916054E+02  0.23565204856E+02  0.00000000000E+00 0.  1.
         11    1    1    2    0    0 -0.24464870776E+01 -0.48284958865E+01 -0.18211129029E+03  0.18219171694E+03  0.00000000000E+00 0.  1.
        -15    1    1    2    0    0  0.10099901632E+01  0.18885341464E+01  0.14553769032E+03  0.14556429395E+03  0.17770000000E+01 0.  1.
         15    1    1    2    0    0  0.28848035057E+01  0.22292332060E+01  0.13063683919E+02  0.13678784247E+02  0.17770000000E+01 0. -1.
</event>
<event>
 6    1  0.1045352E-002  0.1827673E+03  0.7546771E-02  0.1068242E+00
        -11   -1    0    0    0    0  0.00000000000E+00  0.00000000000E+00  0.18250000000E+03  0.18250000000E+03  0.00000000000E+00 0. -1.
         11   -1    0    0    0    0 -0.00000000000E+00 -0.00000000000E+00 -0.18250000000E+03  0.18250000000E+03  0.00000000000E+00 0.  1.
        -11    1    1    2    0    0  0.29847959508E+01  0.29433131243E+01  0.18218450513E+03  0.18223272486E+03  0.00000000000E+00 0. -1.
         11    1    1    2    0    0 -0.23084137392E+01  0.14765885343E+01 -0.54155186684E+02  0.54224471712E+02  0.00000000000E+00 0.  1.
        -15    1    1    2    0    0  0.44360194415E+01 -0.25819844615E+01 -0.47168047020E+02  0.47479756749E+02  0.17770000000E+01 0. -1.
         15    1    1    2    0    0 -0.51124016531E+01 -0.18379171971E+01 -0.80861271431E+02  0.81063046678E+02  0.17770000000E+01 0.  1.
</event>
<event>
 6    1  0.1045352E-002  0.1835049E+03  0.7546771E-02  0.1067658E+00
        -11   -1    0    0    0    0  0.00000000000E+00  0.00000000000E+00  0.18250000000E+03  0.18250000000E+03  0.00000000000E+00 0.  1.
         11   -1    0    0    0    0 -0.00000000000E+00 -0.00000000000E+00 -0.18250000000E+03  0.18250000000E+03  0.00000000000E+00 0. -1.
        -11    1    1    2    0    0  0.15729673530E+01 -0.46282990969E+01  0.14271390974E+03  0.14279760297E+03  0.00000000000E+00 0.  1.
         11    1    1    2    0    0  0.48661020491E+01 -0.10865960754E+01 -0.18142657183E+03  0.18149507048E+03  0.00000000000E+00 0. -1.
        -15    1    1    2    0    0  0.71575843913E+00  0.17318089594E+01  0.20469809163E+02  0.20632069421E+02  0.17770000000E+01 0. -1.
         15    1    1    2    0    0 -0.71548278413E+01  0.39830862130E+01  0.18242852927E+02  0.20075257138E+02  0.17770000000E+01 0.  1.
</event>
<event>
 6    1  0.1045352E-002  0.1657302E+03  0.7546771E-02  0.1082647E+00
        -11   -1    0    0    0    0  0.00000000000E+00  0.00000000000E+00  0.18250000000E+03  0.18250000000E+03  0.00000000000E+00 0. -1.
         11   -1    0    0    0    0 -0.00000000000E+00 -0.00000000000E+00 -0.18250000000E+03  0.18250000000E+03  0.00000000000E+00 0. -1.
        -11    1    1    2    0    0 -0.11898770928E+02  0.45257121266E+01  0.16081712357E+03  0.16132020969E+03  0.00000000000E+00 0. -1.
         11    1    1    2    0    0 -0.23484092678E+01 -0.11466935905E+01 -0.17058720567E+03  0.17060722338E+03  0.00000000000E+00 0. -1.
        -15    1    1    2    0    0  0.74247064596E+01 -0.78858300588E+01  0.18162577347E+02  0.21221440258E+02  0.17770000000E+01 0.  1.
         15    1    1    2    0    0  0.68224737358E+01  0.45068115226E+01 -0.83924952475E+01  0.11851126674E+02  0.17770000000E+01 0. -1.
</event>
<event>
 6    1  0.1045352E-002  0.1829957E+03  0.7546771E-02  0.1068061E+00
        -11   -1    0    0    0    0  0.00000000000E+00  0.00000000000E+00  0.18250000000E+03  0.18250000000E+03  0.00000000000E+00 0.  1.
         11   -1    0    0    0    0 -0.00000000000E+00 -0.00000000000E+00 -0.18250000000E+03  0.18250000000E+03  0.00000000000E+00 0.  1.
        -11    1    1    2    0    0 -0.37724475986E+01  0.59580704806E+01  0.14187445158E+03  0.14204960392E+03  0.00000000000E+00 0.  1.
         11    1    1    2    0    0  0.22790574397E+01 -0.35403555651E+01 -0.18195555084E+03  0.18200426012E+03  0.00000000000E+00 0.  1.
        -15    1    1    2    0    0  0.43564733270E+00  0.67972693349E+00  0.31871948421E+02  0.31931655806E+02  0.17770000000E+01 0.  1.
         15    1    1    2    0    0  0.10577428262E+01 -0.30974418490E+01  0.82091508416E+01  0.90144801533E+01  0.17770000000E+01 0. -1.
</event>
<event>
 6    1  0.1045352E-002  0.1826530E+03  0.7546771E-02  0.1068333E+00
        -11   -1    0    0    0    0  0.00000000000E+00  0.00000000000E+00  0.18250000000E+03  0.18250000000E+03  0.00000000000E+00 0.  1.
         11   -1    0    0    0    0 -0.00000000000E+00 -0.00000000000E+00 -0.18250000000E+03  0.18250000000E+03  0.00000000000E+00 0.  1.
        -11    1    1    2    0    0  0.36864737585E+00  0.23842765478E+01  0.10343204511E+03  0.10346017896E+03  0.00000000000E+00 0.  1.
         11    1    1    2    0    0  0.30279312228E+01 -0.19551767416E+00 -0.18232173512E+03  0.18234698158E+03  0.00000000000E+00 0.  1.
        -15    1    1    2    0    0  0.33650615734E+00 -0.19563901772E+01  0.24080366020E+02  0.24227308054E+02  0.17770000000E+01 0. -1.
         15    1    1    2    0    0 -0.37330847560E+01 -0.23236869645E+00  0.54809323994E+02  0.54965531405E+02  0.17770000000E+01 0. -1.
</event>
<event>
 6    1  0.1045352E-002  0.1906820E+03  0.7546771E-02  0.1062122E+00
        -11   -1    0    0    0    0  0.00000000000E+00  0.00000000000E+00  0.18250000000E+03  0.18250000000E+03  0.00000000000E+00 0. -1.
         11   -1    0    0    0    0 -0.00000000000E+00 -0.00000000000E+00 -0.18250000000E+03  0.18250000000E+03  0.00000000000E+00 0. -1.
        -11    1    1    2    0    0 -0.28874089434E+01 -0.65782679532E-01  0.14614162318E+03  0.14617015935E+03  0.00000000000E+00 0. -1.
         11    1    1    2    0    0 -0.80443399212E+01 -0.10233820520E+02 -0.17383130629E+03  0.17431800118E+03  0.00000000000E+00 0. -1.
        -15    1    1    2    0    0  0.17605823881E+02  0.33662982854E-01  0.26789588952E+02  0.32106167210E+02  0.17770000000E+01 0.  1.
         15    1    1    2    0    0 -0.66740750162E+01  0.10265940217E+02  0.90009415761E+00  0.12405672265E+02  0.17770000000E+01 0. -1.
</event>
<event>
 6    1  0.1045352E-002  0.1832371E+03  0.7546771E-02  0.1067870E+00
        -11   -1    0    0    0    0  0.00000000000E+00  0.00000000000E+00  0.18250000000E+03  0.18250000000E+03  0.00000000000E+00 0.  1.
         11   -1    0    0    0    0 -0.00000000000E+00 -0.00000000000E+00 -0.18250000000E+03  0.18250000000E+03  0.00000000000E+00 0. -1.
        -11    1    1    2    0    0  0.18498114937E+01  0.28707889231E+01  0.18173076417E+03  0.18176285065E+03  0.00000000000E+00 0.  1.
         11    1    1    2    0    0  0.16512165544E+01 -0.23931936514E+01 -0.16159734664E+03  0.16162350180E+03  0.00000000000E+00 0. -1.
        -15    1    1    2    0    0 -0.10567222049E+01 -0.13449764870E+01 -0.19060328168E+01  0.31171002017E+01  0.17770000000E+01 0.  1.
         15    1    1    2    0    0 -0.24443058431E+01  0.86738121530E+00 -0.18227384713E+02  0.18496547345E+02  0.17770000000E+01 0. -1.
</event>
<event>
 6    1  0.1045352E-002  0.1827865E+03  0.7546771E-02  0.1068227E+00
        -11   -1    0    0    0    0  0.00000000000E+00  0.00000000000E+00  0.18250000000E+03  0.18250000000E+03  0.00000000000E+00 0. -1.
         11   -1    0    0    0    0 -0.00000000000E+00 -0.00000000000E+00 -0.18250000000E+03  0.18250000000E+03  0.00000000000E+00 0.  1.
        -11    1    1    2    0    0 -0.45694457645E+00 -0.28379985002E+01  0.18219082988E+03  0.18221350533E+03  0.00000000000E+00 0. -1.
         11    1    1    2    0    0 -0.15002267539E+01  0.29176528879E+01 -0.13872670726E+03  0.13876549530E+03  0.00000000000E+00 0.  1.
        -15    1    1    2    0    0  0.10871540783E+01 -0.21927417058E+01 -0.10413137660E+02  0.10843485838E+02  0.17770000000E+01 0. -1.
         15    1    1    2    0    0  0.87001725203E+00  0.21130873181E+01 -0.33050984960E+02  0.33177513527E+02  0.17770000000E+01 0.  1.
</event>
<event>
 6    1  0.1045352E-002  0.1849547E+03  0.7546771E-02  0.1066518E+00
        -11   -1    0    0    0    0  0.00000000000E+00  0.00000000000E+00  0.18250000000E+03  0.18250000000E+03  0.00000000000E+00 0.  1.
         11   -1    0    0    0    0 -0.00000000000E+00 -0.00000000000E+00 -0.18250000000E+03  0.18250000000E+03  0.00000000000E+00 0.  1.
        -11    1    1    2    0    0 -0.20780176013E+01  0.99308434865E+00  0.15159037951E+03  0.15160787424E+03  0.00000000000E+00 0.  1.
         11    1    1    2    0    0 -0.34631737081E+01  0.21340379418E+01 -0.17999937308E+03  0.18004533318E+03  0.00000000000E+00 0.  1.
        -15    1    1    2    0    0  0.39280259600E+01  0.57240321492E+01  0.18529487037E+02  0.19866895853E+02  0.17770000000E+01 0.  1.
         15    1    1    2    0    0  0.16131653494E+01 -0.88511544397E+01  0.98795065355E+01  0.13479896726E+02  0.17770000000E+01 0.  1.
</event>
<event>
 6    1  0.1045352E-002  0.1833445E+03  0.7546771E-02  0.1067785E+00
        -11   -1    0    0    0    0  0.00000000000E+00  0.00000000000E+00  0.18250000000E+03  0.18250000000E+03  0.00000000000E+00 0.  1.
         11   -1    0    0    0    0 -0.00000000000E+00 -0.00000000000E+00 -0.18250000000E+03  0.18250000000E+03  0.00000000000E+00 0.  1.
        -11    1    1    2    0    0  0.30342127748E+01 -0.47892163995E+01  0.13181182915E+03  0.13193370057E+03  0.00000000000E+00 0.  1.
         11    1    1    2    0    0  0.35941269633E+01  0.49100305683E-01 -0.18161997017E+03  0.18165553590E+03  0.00000000000E+00 0.  1.
        -15    1    1    2    0    0 -0.16274079505E+01  0.44875519993E+00  0.21319115530E+01  0.32484786803E+01  0.17770000000E+01 0. -1.
         15    1    1    2    0    0 -0.50009317876E+01  0.42913608939E+01  0.47676229463E+02  0.48162284849E+02  0.17770000000E+01 0.  1.
</event>
<event>
 6    1  0.1045352E-002  0.1841089E+03  0.7546771E-02  0.1067181E+00
        -11   -1    0    0    0    0  0.00000000000E+00  0.00000000000E+00  0.18250000000E+03  0.18250000000E+03  0.00000000000E+00 0. -1.
         11   -1    0    0    0    0 -0.00000000000E+00 -0.00000000000E+00 -0.18250000000E+03  0.18250000000E+03  0.00000000000E+00 0.  1.
        -11    1    1    2    0    0 -0.58549495792E+01  0.56872744375E+00  0.18079539731E+03  0.18089107102E+03  0.00000000000E+00 0. -1.
         11    1    1    2    0    0  0.18915976593E+01 -0.26418273600E+01 -0.15723460031E+03  0.15726816884E+03  0.00000000000E+00 0.  1.
        -15    1    1    2    0    0  0.85266085261E+00 -0.75038342126E+00 -0.21877156723E+02  0.21978576411E+02  0.17770000000E+01 0. -1.
         15    1    1    2    0    0  0.31106910673E+01  0.28234833375E+01 -0.16836402763E+01  0.48621837330E+01  0.17770000000E+01 0.  1.
</event>
<event>
 6    1  0.1045352E-002  0.1850041E+03  0.7546771E-02  0.1066479E+00
        -11   -1    0    0    0    0  0.00000000000E+00  0.00000000000E+00  0.18250000000E+03  0.18250000000E+03  0.00000000000E+00 0. -1.
         11   -1    0    0    0    0 -0.00000000000E+00 -0.00000000000E+00 -0.18250000000E+03  0.18250000000E+03  0.00000000000E+00 0. -1.
        -11    1    1    2    0    0 -0.25753091656E+01 -0.13036122293E+01  0.17997280093E+03  0.17999594634E+03  0.00000000000E+00 0. -1.
         11    1    1    2    0    0 -0.14089154299E+01 -0.51094580974E+01 -0.17260828109E+03  0.17268963578E+03  0.00000000000E+00 0. -1.
        -15    1    1    2    0    0  0.43704054300E+01  0.54140745517E+01 -0.36402507897E+01  0.80511987732E+01  0.17770000000E+01 0.  1.
         15    1    1    2    0    0 -0.38618083453E+00  0.99899577496E+00 -0.37242690533E+01  0.42632191096E+01  0.17770000000E+01 0. -1.
</event>
<event>
 6    1  0.1045352E-002  0.1882826E+03  0.7546771E-02  0.1063943E+00
        -11   -1    0    0    0    0  0.00000000000E+00  0.00000000000E+00  0.18250000000E+03  0.18250000000E+03  0.00000000000E+00 0.  1.
         11   -1    0    0    0    0 -0.00000000000E+00 -0.00000000000E+00 -0.18250000000E+03  0.18250000000E+03  0.00000000000E+00 0.  1.
        -11    1    1    2    0    0 -0.14744390232E+01  0.10066353234E+02  0.16902559074E+03  0.16933149666E+03  0.00000000000E+00 0.  1.
         11    1    1    2    0    0 -0.27061777674E+01 -0.23239897524E+01 -0.17668143784E+03  0.17671744340E+03  0.00000000000E+00 0.  1.
        -15    1    1    2    0    0 -0.10015811642E+01 -0.55957240882E+01  0.10760065257E+02  0.12298456254E+02  0.17770000000E+01 0.  1.
         15    1    1    2    0    0  0.51821979549E+01 -0.21466393934E+01 -0.31042181587E+01  0.66526036787E+01  0.17770000000E+01 0. -1.
</event>
<event>
 6    1  0.1045352E-002  0.1913113E+03  0.7546771E-02  0.1061650E+00
        -11   -1    0    0    0    0  0.00000000000E+00  0.00000000000E+00  0.18250000000E+03  0.18250000000E+03  0.00000000000E+00 0.  1.
         11   -1    0    0    0    0 -0.00000000000E+00 -0.00000000000E+00 -0.18250000000E+03  0.18250000000E+03  0.00000000000E+00 0.  1.
        -11    1    1    2    0    0  0.41716945242E+01 -0.38453542631E+01  0.16693326125E+03  0.16702964856E+03  0.00000000000E+00 0.  1.
         11    1    1    2    0    0  0.21320656257E+01 -0.23384905532E+01 -0.17365985453E+03  0.17368868506E+03  0.00000000000E+00 0.  1.
        -15    1    1    2    0    0 -0.63738118545E+01  0.42806913160E+01 -0.68595958766E+01  0.10448041936E+02  0.17770000000E+01 0.  1.
         15    1    1    2    0    0  0.70051704680E-01  0.19031535002E+01  0.13586189156E+02  0.13833624445E+02  0.17770000000E+01 0. -1.
</event>
<event>
 6    1  0.1045352E-002  0.1843263E+03  0.7546771E-02  0.1067010E+00
        -11   -1    0    0    0    0  0.00000000000E+00  0.00000000000E+00  0.18250000000E+03  0.18250000000E+03  0.00000000000E+00 0. -1.
         11   -1    0    0    0    0 -0.00000000000E+00 -0.00000000000E+00 -0.18250000000E+03  0.18250000000E+03  0.00000000000E+00 0. -1.
        -11    1    1    2    0    0  0.90473409075E+00 -0.39772326539E+01  0.12214470718E+03  0.12221279154E+03  0.00000000000E+00 0. -1.
         11    1    1    2    0    0  0.72837303842E+01 -0.30317063626E+01 -0.18050138511E+03  0.18067372249E+03  0.00000000000E+00 0. -1.
        -15    1    1    2    0    0 -0.60189788847E+01 -0.26729740726E+01  0.69887684424E+01  0.97659362351E+01  0.17770000000E+01 0.  1.
         15    1    1    2    0    0 -0.21694855903E+01  0.96819130891E+01  0.51367909493E+02  0.52347549737E+02  0.17770000000E+01 0. -1.
</event>
<event>
 6    1  0.1045352E-002  0.1827568E+03  0.7546771E-02  0.1068251E+00
        -11   -1    0    0    0    0  0.00000000000E+00  0.00000000000E+00  0.18250000000E+03  0.18250000000E+03  0.00000000000E+00 0. -1.
         11   -1    0    0    0    0 -0.00000000000E+00 -0.00000000000E+00 -0.18250000000E+03  0.18250000000E+03  0.00000000000E+00 0. -1.
        -11    1    1    2    0    0  0.26699565701E+01  0.12246450384E+01  0.11873885332E+03  0.11877518138E+03  0.00000000000E+00 0. -1.
         11    1    1    2    0    0 -0.43587138196E+01  0.21023717648E+01 -0.18217893309E+03  0.18224319470E+03  0.00000000000E+00 0. -1.
        -15    1    1    2    0    0  0.28668479056E+01 -0.23988085332E+01  0.56715940059E+02  0.56866762569E+02  0.17770000000E+01 0. -1.
         15    1    1    2    0    0 -0.11780906561E+01 -0.92820826990E+00  0.67241397142E+01  0.71148613537E+01  0.17770000000E+01 0.  1.
</event>
<event>
 6    1  0.1045352E-002  0.1830538E+03  0.7546771E-02  0.1068015E+00
        -11   -1    0    0    0    0  0.00000000000E+00  0.00000000000E+00  0.18250000000E+03  0.18250000000E+03  0.00000000000E+00 0.  1.
         11   -1    0    0    0    0 -0.00000000000E+00 -0.00000000000E+00 -0.18250000000E+03  0.18250000000E+03  0.00000000000E+00 0. -1.
        -11    1    1    2    0    0  0.25439492939E+01 -0.15790860695E+01  0.18192155234E+03  0.18194619094E+03  0.00000000000E+00 0.  1.
         11    1    1    2    0    0  0.22881898318E+01  0.10355665320E+01 -0.92432987448E+02  0.92467104309E+02  0.00000000000E+00 0. -1.
        -15    1    1    2    0    0  0.12941382943E+01  0.42652496736E+01 -0.59844634100E+02  0.60036698013E+02  0.17770000000E+01 0.  1.
         15    1    1    2    0    0 -0.61262774200E+01 -0.37217301361E+01 -0.29643930791E+02  0.30550006742E+02  0.17770000000E+01 0. -1.
</event>
<event>
 6    1  0.1045352E-002  0.1883868E+03  0.7546771E-02  0.1063863E+00
        -11   -1    0    0    0    0  0.00000000000E+00  0.00000000000E+00  0.18250000000E+03  0.18250000000E+03  0.00000000000E+00 0. -1.
         11   -1    0    0    0    0 -0.00000000000E+00 -0.00000000000E+00 -0.18250000000E+03  0.18250000000E+03  0.00000000000E+00 0.  1.
        -11    1    1    2    0    0 -0.28648093869E+01 -0.13359709804E+01  0.16622823369E+03  0.16625828589E+03  0.00000000000E+00 0. -1.
         11    1    1    2    0    0 -0.62272688053E+01  0.19188278946E+01 -0.17649296066E+03  0.17661320998E+03  0.00000000000E+00 0.  1.
        -15    1    1    2    0    0  0.35144218961E+01 -0.38326035584E+01 -0.37115510169E+01  0.66312405514E+01  0.17770000000E+01 0. -1.
         15    1    1    2    0    0  0.55776562961E+01  0.32497466441E+01  0.13976277992E+02  0.15497263582E+02  0.17770000000E+01 0.  1.
</event>
<event>
 6    1  0.1045352E-002  0.1724030E+03  0.7546771E-02  0.1076789E+00
        -11   -1    0    0    0    0  0.00000000000E+00  0.00000000000E+00  0.18250000000E+03  0.18250000000E+03  0.00000000000E+00 0. -1.
         11   -1    0    0    0    0 -0.00000000000E+00 -0.00000000000E+00 -0.18250000000E+03  0.18250000000E+03  0.00000000000E+00 0. -1.
        -11    1    1    2    0    0  0.10710016827E+01 -0.86456027743E+01  0.17513355439E+03  0.17535009371E+03  0.00000000000E+00 0. -1.
         11    1    1    2    0    0 -0.32756923100E+01 -0.21243436836E+01 -0.16963014415E+03  0.16967506829E+03  0.00000000000E+00 0. -1.
        -15    1    1    2    0    0 -0.44679777042E+01  0.32665239604E+01 -0.75960688693E+01  0.95650925148E+01  0.17770000000E+01 0.  1.
         15    1    1    2    0    0  0.66726683316E+01  0.75034224975E+01  0.20926586286E+01  0.10409745481E+02  0.17770000000E+01 0. -1.
</event>
<event>
 6    1  0.1045352E-002  0.1841648E+03  0.7546771E-02  0.1067137E+00
        -11   -1    0    0    0    0  0.00000000000E+00  0.00000000000E+00  0.18250000000E+03  0.18250000000E+03  0.00000000000E+00 0. -1.
         11   -1    0    0    0    0 -0.00000000000E+00 -0.00000000000E+00 -0.18250000000E+03  0.18250000000E+03  0.00000000000E+00 0.  1.
        -11    1    1    2    0    0  0.30123246945E+01 -0.19053626765E+01  0.18080002463E+03  0.18083515536E+03  0.00000000000E+00 0. -1.
         11    1    1    2    0    0  0.35427980836E+01  0.21137026765E+01 -0.78366673160E+02  0.78475184737E+02  0.00000000000E+00 0.  1.
        -15    1    1    2    0    0 -0.13969951673E+02  0.35091716000E+01 -0.37600315848E+02  0.40304035975E+02  0.17770000000E+01 0. -1.
         15    1    1    2    0    0  0.74148288952E+01 -0.37175116000E+01 -0.64833035621E+02  0.65385623931E+02  0.17770000000E+01 0.  1.
</event>
<event>
 6    1  0.1045352E-002  0.1827891E+03  0.7546771E-02  0.1068225E+00
        -11   -1    0    0    0    0  0.00000000000E+00  0.00000000000E+00  0.18250000000E+03  0.18250000000E+03  0.00000000000E+00 0.  1.
         11   -1    0    0    0    0 -0.00000000000E+00 -0.00000000000E+00 -0.18250000000E+03  0.18250000000E+03  0.00000000000E+00 0.  1.
        -11    1    1    2    0    0  0.22384383558E+01  0.37241868718E+01  0.25787655047E+02  0.26151163014E+02  0.00000000000E+00 0.  1.
         11    1    1    2    0    0 -0.16148366443E+01 -0.59243044774E+01 -0.18210737389E+03  0.18221086880E+03  0.00000000000E+00 0.  1.
        -15    1    1    2    0    0 -0.19920165826E+01  0.99098917022E+00  0.14528474171E+03  0.14531264258E+03  0.17770000000E+01 0.  1.
         15    1    1    2    0    0  0.13684148711E+01  0.12091284354E+01  0.11034977134E+02  0.11325325610E+02  0.17770000000E+01 0.  1.
</event>
<event>
 6    1  0.1045352E-002  0.1904291E+03  0.7546771E-02  0.1062313E+00
        -11   -1    0    0    0    0  0.00000000000E+00  0.00000000000E+00  0.18250000000E+03  0.18250000000E+03  0.00000000000E+00 0. -1.
         11   -1    0    0    0    0 -0.00000000000E+00 -0.00000000000E+00 -0.18250000000E+03  0.18250000000E+03  0.00000000000E+00 0. -1.
        -11    1    1    2    0    0  0.18780358388E+01 -0.20549554330E+01  0.17454871192E+03  0.17457091022E+03  0.00000000000E+00 0. -1.
         11    1    1    2    0    0 -0.51484793245E+00 -0.30149658869E+01 -0.16594220324E+03  0.16597038863E+03  0.00000000000E+00 0. -1.
        -15    1    1    2    0    0  0.23950380516E-01  0.64842377587E+01 -0.15593966370E+02  0.16981620332E+02  0.17770000000E+01 0.  1.
         15    1    1    2    0    0 -0.13871382869E+01 -0.14143164388E+01  0.69874576846E+01  0.74770808147E+01  0.17770000000E+01 0. -1.
</event>
<event>
 6    1  0.1045352E-002  0.1828785E+03  0.7546771E-02  0.1068154E+00
        -11   -1    0    0    0    0  0.00000000000E+00  0.00000000000E+00  0.18250000000E+03  0.18250000000E+03  0.00000000000E+00 0. -1.
         11   -1    0    0    0    0 -0.00000000000E+00 -0.00000000000E+00 -0.18250000000E+03  0.18250000000E+03  0.00000000000E+00 0.  1.
        -11    1    1    2    0    0  0.26430289000E+01  0.53756660408E+01  0.18202300281E+03  0.18212154442E+03  0.00000000000E+00 0. -1.
         11    1    1    2    0    0 -0.14540856359E+01 -0.17400703378E+01 -0.68942722412E+02  0.68980005678E+02  0.00000000000E+00 0.  1.
        -15    1    1    2    0    0  0.27266456158E+01  0.93936167257E+00 -0.88019854848E+01  0.94313134897E+01  0.17770000000E+01 0. -1.
         15    1    1    2    0    0 -0.39155888799E+01 -0.45749573755E+01 -0.10427829492E+03  0.10446713642E+03  0.17770000000E+01 0.  1.
</event>
<event>
 6    1  0.1045352E-002  0.1710733E+03  0.7546771E-02  0.1077933E+00
        -11   -1    0    0    0    0  0.00000000000E+00  0.00000000000E+00  0.18250000000E+03  0.18250000000E+03  0.00000000000E+00 0.  1.
         11   -1    0    0    0    0 -0.00000000000E+00 -0.00000000000E+00 -0.18250000000E+03  0.18250000000E+03  0.00000000000E+00 0. -1.
        -11    1    1    2    0    0  0.28607978921E+01  0.15242815607E+01  0.17185597578E+03  0.17188654401E+03  0.00000000000E+00 0.  1.
         11    1    1    2    0    0  0.44193766009E+01  0.84070064164E+01 -0.17022080385E+03  0.17048557331E+03  0.00000000000E+00 0. -1.
        -15    1    1    2    0    0 -0.30899483966E+01  0.26559484595E+01 -0.69305565589E+01  0.82336010670E+01  0.17770000000E+01 0.  1.
         15    1    1    2    0    0 -0.41902260965E+01 -0.12587236437E+02  0.52953846235E+01  0.14394281613E+02  0.17770000000E+01 0. -1.
</event>
<event>
 6    1  0.1045352E-002  0.1977957E+03  0.7546771E-02  0.1056892E+00
        -11   -1    0    0    0    0  0.00000000000E+00  0.00000000000E+00  0.18250000000E+03  0.18250000000E+03  0.00000000000E+00 0.  1.
         11   -1    0    0    0    0 -0.00000000000E+00 -0.00000000000E+00 -0.18250000000E+03  0.18250000000E+03  0.00000000000E+00 0. -1.
        -11    1    1    2    0    0  0.36931893720E+01  0.25057602242E+01  0.14685907603E+03  0.14692687533E+03  0.00000000000E+00 0.  1.
         11    1    1    2    0    0 -0.28812075614E+01 -0.14829461429E+01 -0.16717285407E+03  0.16720425720E+03  0.00000000000E+00 0. -1.
        -15    1    1    2    0    0 -0.18316988043E+00 -0.92460830299E+00 -0.15186152310E+02  0.15318792469E+02  0.17770000000E+01 0.  1.
         15    1    1    2    0    0 -0.62881193025E+00 -0.98205778378E-01  0.35499930354E+02  0.35550075007E+02  0.17770000000E+01 0. -1.
</event>
<event>
 6    1  0.1045352E-002  0.1903368E+03  0.7546771E-02  0.1062382E+00
        -11   -1    0    0    0    0  0.00000000000E+00  0.00000000000E+00  0.18250000000E+03  0.18250000000E+03  0.00000000000E+00 0.  1.
         11   -1    0    0    0    0 -0.00000000000E+00 -0.00000000000E+00 -0.18250000000E+03  0.18250000000E+03  0.00000000000E+00 0. -1.
        -11    1    1    2    0    0 -0.12005463341E+02 -0.13149427399E+02  0.16010271859E+03  0.16108978580E+03  0.00000000000E+00 0.  1.
         11    1    1    2    0    0  0.97680946453E+00  0.33155524852E+01 -0.17462899636E+03  0.17466319995E+03  0.00000000000E+00 0. -1.
        -15    1    1    2    0    0  0.41251444048E+01 -0.60619189499E+01  0.69210617738E+01  0.10238286126E+02  0.17770000000E+01 0.  1.
         15    1    1    2    0    0  0.69035094713E+01  0.15895793864E+02  0.76052160002E+01  0.19008728126E+02  0.17770000000E+01 0. -1.
</event>
<event>
 6    1  0.1045352E-002  0.2071389E+03  0.7546771E-02  0.1050376E+00
        -11   -1    0    0    0    0  0.00000000000E+00  0.00000000000E+00  0.18250000000E+03  0.18250000000E+03  0.00000000000E+00 0.  1.
         11   -1    0    0    0    0 -0.00000000000E+00 -0.00000000000E+00 -0.18250000000E+03  0.18250000000E+03  0.00000000000E+00 0. -1.
        -11    1    1    2    0    0 -0.37895278585E+01 -0.26598242662E+01  0.15779316406E+03  0.15786107123E+03  0.00000000000E+00 0.  1.
         11    1    1    2    0    0  0.10191264271E+02  0.10679905716E+02 -0.77679934176E+02  0.79070186714E+02  0.00000000000E+00 0. -1.
        -15    1    1    2    0    0  0.22248235559E+02 -0.60318821120E+01  0.15753654601E+02  0.27976828798E+02  0.17770000000E+01 0.  1.
         15    1    1    2    0    0 -0.28649971971E+02 -0.19881993376E+01 -0.95866884482E+02  0.10009191326E+03  0.17770000000E+01 0. -1.
</event>
<event>
 6    1  0.1045352E-002  0.1826840E+03  0.7546771E-02  0.1068308E+00
        -11   -1    0    0    0    0  0.00000000000E+00  0.00000000000E+00  0.18250000000E+03  0.18250000000E+03  0.00000000000E+00 0.  1.
         11   -1    0    0    0    0 -0.00000000000E+00 -0.00000000000E+00 -0.18250000000E+03  0.18250000000E+03  0.00000000000E+00 0. -1.
        -11    1    1    2    0    0 -0.10140075321E+01  0.27949393816E+01  0.18229179207E+03  0.18231603701E+03  0.00000000000E+00 0.  1.
         11    1    1    2    0    0  0.82499123295E+00 -0.16048414461E+01 -0.99693152062E+02  0.99709481468E+02  0.00000000000E+00 0. -1.
        -15    1    1    2    0    0  0.26269184191E+01  0.16013894118E+01 -0.28640707637E+02  0.28860232351E+02  0.17770000000E+01 0. -1.
         15    1    1    2    0    0 -0.24379021200E+01 -0.27914873472E+01 -0.53957932369E+02  0.54114249167E+02  0.17770000000E+01 0. -1.
</event>
<event>
 6    1  0.1045352E-002  0.1840317E+03  0.7546771E-02  0.1067242E+00
        -11   -1    0    0    0    0  0.00000000000E+00  0.00000000000E+00  0.18250000000E+03  0.18250000000E+03  0.00000000000E+00 0.  1.
         11   -1    0    0    0    0 -0.00000000000E+00 -0.00000000000E+00 -0.18250000000E+03  0.18250000000E+03  0.00000000000E+00 0.  1.
        -11    1    1    2    0    0 -0.28360754029E+01 -0.21173843009E+01  0.18093367351E+03  0.18096828686E+03  0.00000000000E+00 0.  1.
         11    1    1    2    0    0  0.17115291334E+00 -0.39037387850E+01 -0.15621616325E+03  0.15626502529E+03  0.00000000000E+00 0.  1.
        -15    1    1    2    0    0 -0.37895488067E+01  0.11110063366E+01 -0.91821486176E+01  0.10152073555E+02  0.17770000000E+01 0.  1.
         15    1    1    2    0    0  0.64544712963E+01  0.49101167493E+01 -0.15535361646E+02  0.17614614293E+02  0.17770000000E+01 0. -1.
</event>
<event>
 6    1  0.1045352E-002  0.1479265E+03  0.7546771E-02  0.1099883E+00
        -11   -1    0    0    0    0  0.00000000000E+00  0.00000000000E+00  0.18250000000E+03  0.18250000000E+03  0.00000000000E+00 0.  1.
         11   -1    0    0    0    0 -0.00000000000E+00 -0.00000000000E+00 -0.18250000000E+03  0.18250000000E+03  0.00000000000E+00 0. -1.
        -11    1    1    2    0    0  0.38718182719E+01  0.18298860789E+01  0.34013211825E+02  0.34281744974E+02  0.00000000000E+00 0.  1.
         11    1    1    2    0    0  0.10033531636E+02 -0.69018266590E+01 -0.17008284765E+03  0.17051827477E+03  0.00000000000E+00 0. -1.
        -15    1    1    2    0    0  0.12783957779E+01 -0.20081980848E+02  0.12813034014E+03  0.12971299875E+03  0.17770000000E+01 0.  1.
         15    1    1    2    0    0 -0.15183745686E+02  0.25153921428E+02  0.79392956753E+01  0.30486981502E+02  0.17770000000E+01 0. -1.
</event>
<event>
 6    1  0.1045352E-002  0.1855969E+03  0.7546771E-02  0.1066016E+00
        -11   -1    0    0    0    0  0.00000000000E+00  0.00000000000E+00  0.18250000000E+03  0.18250000000E+03  0.00000000000E+00 0.  1.
         11   -1    0    0    0    0 -0.00000000000E+00 -0.00000000000E+00 -0.18250000000E+03  0.18250000000E+03  0.00000000000E+00 0. -1.
        -11    1    1    2    0    0  0.14967944875E+01 -0.22364418118E+01  0.10578868630E+03  0.10582290969E+03  0.00000000000E+00 0.  1.
         11    1    1    2    0    0 -0.58607528621E+01 -0.12119197613E+02 -0.17889734959E+03  0.17940313561E+03  0.00000000000E+00 0. -1.
        -15    1    1    2    0    0 -0.26195404818E+01 -0.25023563832E+01  0.50523126881E+02  0.50684000026E+02  0.17770000000E+01 0. -1.
         15    1    1    2    0    0  0.69834988565E+01  0.16857995808E+02  0.22585536414E+02  0.29089954676E+02  0.17770000000E+01 0.  1.
</event>
<event>
 6    1  0.1045352E-002  0.1863947E+03  0.7546771E-02  0.1065396E+00
        -11   -1    0    0    0    0  0.00000000000E+00  0.00000000000E+00  0.18250000000E+03  0.18250000000E+03  0.00000000000E+00 0.  1.
         11   -1    0    0    0    0 -0.00000000000E+00 -0.00000000000E+00 -0.18250000000E+03  0.18250000000E+03  0.00000000000E+00 0.  1.
        -11    1    1    2    0    0  0.20940992557E+01  0.12149392896E+01  0.17858889566E+03  0.17860530502E+03  0.00000000000E+00 0.  1.
         11    1    1    2    0    0 -0.14771960357E+01  0.18184887616E+01 -0.17096491487E+03  0.17098096714E+03  0.00000000000E+00 0.  1.
        -15    1    1    2    0    0  0.37475317413E+00 -0.56213016365E+00 -0.10763361730E+02  0.10929964089E+02  0.17770000000E+01 0.  1.
         15    1    1    2    0    0 -0.99165639418E+00 -0.24712978875E+01  0.31393809398E+01  0.44837637469E+01  0.17770000000E+01 0.  1.
</event>
<event>
 6    1  0.1045352E-002  0.1839430E+03  0.7546771E-02  0.1067312E+00
        -11   -1    0    0    0    0  0.00000000000E+00  0.00000000000E+00  0.18250000000E+03  0.18250000000E+03  0.00000000000E+00 0.  1.
         11   -1    0    0    0    0 -0.00000000000E+00 -0.00000000000E+00 -0.18250000000E+03  0.18250000000E+03  0.00000000000E+00 0. -1.
        -11    1    1    2    0    0  0.53035720818E+01 -0.74366788550E+00  0.18097780906E+03  0.18105703049E+03  0.00000000000E+00 0.  1.
         11    1    1    2    0    0 -0.43825068426E+00 -0.32524148895E+01 -0.33144813370E+02  0.33306889972E+02  0.00000000000E+00 0. -1.
        -15    1    1    2    0    0 -0.35360641376E+00  0.71018612004E+01 -0.14280065119E+03  0.14298861905E+03  0.17770000000E+01 0. -1.
         15    1    1    2    0    0 -0.45117149838E+01 -0.31057784254E+01 -0.50323445006E+01  0.76474604867E+01  0.17770000000E+01 0.  1.
</event>
<event>
 6    1  0.1045352E-002  0.1874883E+03  0.7546771E-02  0.1064552E+00
        -11   -1    0    0    0    0  0.00000000000E+00  0.00000000000E+00  0.18250000000E+03  0.18250000000E+03  0.00000000000E+00 0. -1.
         11   -1    0    0    0    0 -0.00000000000E+00 -0.00000000000E+00 -0.18250000000E+03  0.18250000000E+03  0.00000000000E+00 0.  1.
        -11    1    1    2    0    0  0.49233007286E+01  0.60652488893E+00  0.17744238522E+03  0.17751170901E+03  0.00000000000E+00 0. -1.
         11    1    1    2    0    0  0.43698413782E+01  0.45437281123E+01 -0.16688035278E+03  0.16699938060E+03  0.00000000000E+00 0.  1.
        -15    1    1    2    0    0 -0.96480389100E+01 -0.42606525186E+01 -0.10295469690E+01  0.10745022599E+02  0.17770000000E+01 0.  1.
         15    1    1    2    0    0  0.35489680320E+00 -0.88960048260E+00 -0.95324854778E+01  0.97438877839E+01  0.17770000000E+01 0. -1.
</event>
<event>
 6    1  0.1476539E-002  0.1916399E+03  0.7546771E-02  0.1061404E+00
        -11   -1    0    0    0    0  0.00000000000E+00  0.00000000000E+00  0.18250000000E+03  0.18250000000E+03  0.00000000000E+00 0. -1.
         11   -1    0    0    0    0 -0.00000000000E+00 -0.00000000000E+00 -0.18250000000E+03  0.18250000000E+03  0.00000000000E+00 0. -1.
        -11    1    1    2    0    0 -0.56988958726E+01 -0.60999422812E+00  0.15733828726E+03  0.15744264398E+03  0.00000000000E+00 0. -1.
         11    1    1    2    0    0  0.45768252406E+00  0.38868765473E+01 -0.17331590834E+03  0.17336009162E+03  0.00000000000E+00 0. -1.
        -15    1    1    2    0    0  0.74425553407E+00 -0.16855192408E+01 -0.86645683980E+01  0.90347864355E+01  0.17770000000E+01 0.  1.
         15    1    1    2    0    0  0.44969578145E+01 -0.15913630784E+01  0.24642189479E+02  0.25162477965E+02  0.17770000000E+01 0. -1.
</event>
<event>
 6    1  0.1045352E-002  0.1834434E+03  0.7546771E-02  0.1067706E+00
        -11   -1    0    0    0    0  0.00000000000E+00  0.00000000000E+00  0.18250000000E+03  0.18250000000E+03  0.00000000000E+00 0. -1.
         11   -1    0    0    0    0 -0.00000000000E+00 -0.00000000000E+00 -0.18250000000E+03  0.18250000000E+03  0.00000000000E+00 0. -1.
        -11    1    1    2    0    0  0.10293345681E+01 -0.23750581420E+01  0.18153812251E+03  0.18155657619E+03  0.00000000000E+00 0. -1.
         11    1    1    2    0    0 -0.17727021065E+01  0.59917606465E+00 -0.13688501346E+03  0.13689780274E+03  0.00000000000E+00 0. -1.
        -15    1    1    2    0    0 -0.50999655633E+01  0.28269913215E+01 -0.13956684472E+02  0.15229848953E+02  0.17770000000E+01 0. -1.
         15    1    1    2    0    0  0.58433331017E+01 -0.10511092441E+01 -0.30696424581E+02  0.31315772120E+02  0.17770000000E+01 0.  1.
</event>
<event>
 6    1  0.1045352E-002  0.1832289E+03  0.7546771E-02  0.1067876E+00
        -11   -1    0    0    0    0  0.00000000000E+00  0.00000000000E+00  0.18250000000E+03  0.18250000000E+03  0.00000000000E+00 0. -1.
         11   -1    0    0    0    0 -0.00000000000E+00 -0.00000000000E+00 -0.18250000000E+03  0.18250000000E+03  0.00000000000E+00 0.  1.
        -11    1    1    2    0    0 -0.38986465464E+00 -0.21707104591E+01  0.71945101363E+02  0.71978896827E+02  0.00000000000E+00 0. -1.
         11    1    1    2    0    0  0.27188062103E+01 -0.21662016470E+01 -0.18173784554E+03  0.18177108912E+03  0.00000000000E+00 0.  1.
        -15    1    1    2    0    0 -0.31136646502E+01  0.32324085848E+01  0.74143886104E+01  0.88472741722E+01  0.17770000000E+01 0. -1.
         15    1    1    2    0    0  0.78472309459E+00  0.11045035213E+01  0.10237835557E+03  0.10240273988E+03  0.17770000000E+01 0. -1.
</event>
<event>
 6    1  0.1045352E-002  0.1873643E+03  0.7546771E-02  0.1064647E+00
        -11   -1    0    0    0    0  0.00000000000E+00  0.00000000000E+00  0.18250000000E+03  0.18250000000E+03  0.00000000000E+00 0. -1.
         11   -1    0    0    0    0 -0.00000000000E+00 -0.00000000000E+00 -0.18250000000E+03  0.18250000000E+03  0.00000000000E+00 0. -1.
        -11    1    1    2    0    0 -0.39517361971E+00  0.36262467593E+01  0.17185640957E+03  0.17189511726E+03  0.00000000000E+00 0. -1.
         11    1    1    2    0    0 -0.24650019913E+01 -0.80369391752E-01 -0.17761854775E+03  0.17763566984E+03  0.00000000000E+00 0. -1.
        -15    1    1    2    0    0  0.15644673109E+01  0.18307070365E+01 -0.34570546717E+01  0.45725268970E+01  0.17770000000E+01 0. -1.
         15    1    1    2    0    0  0.12957083001E+01 -0.53765844041E+01  0.92191928599E+01  0.10896686003E+02  0.17770000000E+01 0.  1.
</event>
<event>
 6    1  0.1045352E-002  0.1827538E+03  0.7546771E-02  0.1068253E+00
        -11   -1    0    0    0    0  0.00000000000E+00  0.00000000000E+00  0.18250000000E+03  0.18250000000E+03  0.00000000000E+00 0. -1.
         11   -1    0    0    0    0 -0.00000000000E+00 -0.00000000000E+00 -0.18250000000E+03  0.18250000000E+03  0.00000000000E+00 0. -1.
        -11    1    1    2    0    0  0.16611469159E+01  0.82064675287E+00  0.13477233953E+03  0.13478507474E+03  0.00000000000E+00 0. -1.
         11    1    1    2    0    0 -0.98000825428E+00 -0.25457912596E+01 -0.18222581581E+03  0.18224623293E+03  0.00000000000E+00 0. -1.
        -15    1    1    2    0    0 -0.10331247648E+01  0.58896920016E+00  0.47198208571E+01  0.51815701695E+01  0.17770000000E+01 0.  1.
         15    1    1    2    0    0  0.35198610320E+00  0.11361753065E+01  0.42733655424E+02  0.42787122168E+02  0.17770000000E+01 0.  1.
</event>
<event>
 6    1  0.1045352E-002  0.1836301E+03  0.7546771E-02  0.1067559E+00
        -11   -1    0    0    0    0  0.00000000000E+00  0.00000000000E+00  0.18250000000E+03  0.18250000000E+03  0.00000000000E+00 0. -1.
         11   -1    0    0    0    0 -0.00000000000E+00 -0.00000000000E+00 -0.18250000000E+03  0.18250000000E+03  0.00000000000E+00 0. -1.
        -11    1    1    2    0    0 -0.20597413733E+01 -0.10520194619E+01  0.17052856002E+03  0.17054424371E+03  0.00000000000E+00 0. -1.
         11    1    1    2    0    0  0.30422876791E+00 -0.33505176972E+01 -0.18133866545E+03  0.18136987101E+03  0.00000000000E+00 0. -1.
        -15    1    1    2    0    0  0.21836276425E+01  0.36494476983E+01  0.43785820202E+01  0.63573900062E+01  0.17770000000E+01 0. -1.
         15    1    1    2    0    0 -0.42811503713E+00  0.75308946078E+00  0.64315234126E+01  0.67284952722E+01  0.17770000000E+01 0. -1.
</event>
<event>
 6    1  0.1045352E-002  0.1834655E+03  0.7546771E-02  0.1067689E+00
        -11   -1    0    0    0    0  0.00000000000E+00  0.00000000000E+00  0.18250000000E+03  0.18250000000E+03  0.00000000000E+00 0.  1.
         11   -1    0    0    0    0 -0.00000000000E+00 -0.00000000000E+00 -0.18250000000E+03  0.18250000000E+03  0.00000000000E+00 0.  1.
        -11    1    1    2    0    0 -0.26097639894E+00 -0.33022566905E+01  0.15018514697E+03  0.15022167413E+03  0.00000000000E+00 0.  1.
         11    1    1    2    0    0 -0.36925864615E+01 -0.15382484411E+01 -0.18149039743E+03  0.18153447541E+03  0.00000000000E+00 0.  1.
        -15    1    1    2    0    0  0.15906396918E+01  0.17445048165E+01  0.27039337438E+02  0.27200311207E+02  0.17770000000E+01 0.  1.
         15    1    1    2    0    0  0.23629231686E+01  0.30960003152E+01  0.42659130200E+01  0.60435392566E+01  0.17770000000E+01 0. -1.
</event>
<event>
 6    1  0.1045352E-002  0.1828852E+03  0.7546771E-02  0.1068149E+00
        -11   -1    0    0    0    0  0.00000000000E+00  0.00000000000E+00  0.18250000000E+03  0.18250000000E+03  0.00000000000E+00 0.  1.
         11   -1    0    0    0    0 -0.00000000000E+00 -0.00000000000E+00 -0.18250000000E+03  0.18250000000E+03  0.00000000000E+00 0.  1.
        -11    1    1    2    0    0  0.29938142657E+01 -0.62246876070E+01  0.18198377852E+03  0.18211481353E+03  0.00000000000E+00 0.  1.
         11    1    1    2    0    0 -0.35102180028E+01  0.14759842372E+01 -0.11407966348E+03  0.11414319857E+03  0.00000000000E+00 0.  1.
        -15    1    1    2    0    0 -0.20781457060E+01  0.63854364831E+01 -0.38128700540E+02  0.38756264300E+02  0.17770000000E+01 0. -1.
         15    1    1    2    0    0  0.25945494430E+01 -0.16367331133E+01 -0.29775414507E+02  0.29985723606E+02  0.17770000000E+01 0.  1.
</event>
<event>
 6    1  0.1045352E-002  0.1840200E+03  0.7546771E-02  0.1067251E+00
        -11   -1    0    0    0    0  0.00000000000E+00  0.00000000000E+00  0.18250000000E+03  0.18250000000E+03  0.00000000000E+00 0. -1.
         11   -1    0    0    0    0 -0.00000000000E+00 -0.00000000000E+00 -0.18250000000E+03  0.18250000000E+03  0.00000000000E+00 0. -1.
        -11    1    1    2    0    0 -0.60712561399E-01  0.51221636045E+01  0.18090748485E+03  0.18097999426E+03  0.00000000000E+00 0. -1.
         11    1    1    2    0    0 -0.70684154681E+01  0.61066084607E+01 -0.13402402403E+03  0.13434914284E+03  0.00000000000E+00 0. -1.
        -15    1    1    2    0    0  0.48786176918E+01 -0.92378630946E+01 -0.20691139203E+02  0.23246935188E+02  0.17770000000E+01 0. -1.
         15    1    1    2    0    0  0.22505103377E+01 -0.19909089706E+01 -0.26192321617E+02  0.26423927717E+02  0.17770000000E+01 0.  1.
</event>
<event>
 6    1  0.1045352E-002  0.1700826E+03  0.7546771E-02  0.1078792E+00
        -11   -1    0    0    0    0  0.00000000000E+00  0.00000000000E+00  0.18250000000E+03  0.18250000000E+03  0.00000000000E+00 0. -1.
         11   -1    0    0    0    0 -0.00000000000E+00 -0.00000000000E+00 -0.18250000000E+03  0.18250000000E+03  0.00000000000E+00 0. -1.
        -11    1    1    2    0    0 -0.22911608921E+00 -0.67141413526E+00  0.11891885951E+02  0.11913028272E+02  0.00000000000E+00 0. -1.
         11    1    1    2    0    0 -0.27232479446E+01  0.31058922656E+00 -0.17043309213E+03  0.17045513028E+03  0.00000000000E+00 0. -1.
        -15    1    1    2    0    0  0.61136046613E+01  0.72425964272E+00 -0.11172200247E+02  0.12879305158E+02  0.17770000000E+01 0.  1.
         15    1    1    2    0    0 -0.31612406275E+01 -0.36343473403E+00  0.16971340643E+03  0.16975253629E+03  0.17770000000E+01 0. -1.
</event>
<event>
 6    1  0.1045352E-002  0.1838931E+03  0.7546771E-02  0.1067351E+00
        -11   -1    0    0    0    0  0.00000000000E+00  0.00000000000E+00  0.18250000000E+03  0.18250000000E+03  0.00000000000E+00 0.  1.
         11   -1    0    0    0    0 -0.00000000000E+00 -0.00000000000E+00 -0.18250000000E+03  0.18250000000E+03  0.00000000000E+00 0.  1.
        -11    1    1    2    0    0  0.37440695410E+00 -0.21480964786E+01  0.15133307548E+03  0.15134878339E+03  0.00000000000E+00 0.  1.
         11    1    1    2    0    0  0.13716476525E+00  0.31753252176E+01 -0.18107899617E+03  0.18110688656E+03  0.00000000000E+00 0.  1.
        -15    1    1    2    0    0  0.11019935921E+00  0.55063393643E+01  0.18685091427E+02  0.19560733313E+02  0.17770000000E+01 0.  1.
         15    1    1    2    0    0 -0.62177107855E+00 -0.65335681033E+01  0.11060829264E+02  0.12983596746E+02  0.17770000000E+01 0.  1.
</event>
<event>
 6    1  0.1045352E-002  0.1828589E+03  0.7546771E-02  0.1068169E+00
        -11   -1    0    0    0    0  0.00000000000E+00  0.00000000000E+00  0.18250000000E+03  0.18250000000E+03  0.00000000000E+00 0.  1.
         11   -1    0    0    0    0 -0.00000000000E+00 -0.00000000000E+00 -0.18250000000E+03  0.18250000000E+03  0.00000000000E+00 0. -1.
        -11    1    1    2    0    0 -0.55703011905E+00 -0.65544912509E+00  0.17754208423E+02  0.17775033413E+02  0.00000000000E+00 0.  1.
         11    1    1    2    0    0 -0.74700786231E+00  0.46089655381E+01 -0.18208124448E+03  0.18214109963E+03  0.00000000000E+00 0. -1.
        -15    1    1    2    0    0  0.25543012511E+01 -0.22959954294E+01  0.15942220459E+03  0.15946909762E+03  0.17770000000E+01 0.  1.
         15    1    1    2    0    0 -0.12502632697E+01 -0.16575209836E+01  0.49048314629E+01  0.56147693393E+01  0.17770000000E+01 0. -1.
</event>
<event>
 6    1  0.1045352E-002  0.1829416E+03  0.7546771E-02  0.1068104E+00
        -11   -1    0    0    0    0  0.00000000000E+00  0.00000000000E+00  0.18250000000E+03  0.18250000000E+03  0.00000000000E+00 0.  1.
         11   -1    0    0    0    0 -0.00000000000E+00 -0.00000000000E+00 -0.18250000000E+03  0.18250000000E+03  0.00000000000E+00 0. -1.
        -11    1    1    2    0    0 -0.10373827137E+01 -0.25498264178E+01  0.18203758852E+03  0.18205840110E+03  0.00000000000E+00 0.  1.
         11    1    1    2    0    0  0.19991233801E+01 -0.15481958252E+01 -0.16105976878E+03  0.16107961548E+03  0.00000000000E+00 0. -1.
        -15    1    1    2    0    0 -0.17674814480E+01  0.28191665185E+01 -0.14265671905E+02  0.14755975550E+02  0.17770000000E+01 0.  1.
         15    1    1    2    0    0  0.80574078158E+00  0.12788557245E+01 -0.67121478414E+01  0.71060078677E+01  0.17770000000E+01 0. -1.
</event>
<event>
 6    1  0.1045352E-002  0.1826510E+03  0.7546771E-02  0.1068335E+00
        -11   -1    0    0    0    0  0.00000000000E+00  0.00000000000E+00  0.18250000000E+03  0.18250000000E+03  0.00000000000E+00 0.  1.
         11   -1    0    0    0    0 -0.00000000000E+00 -0.00000000000E+00 -0.18250000000E+03  0.18250000000E+03  0.00000000000E+00 0.  1.
        -11    1    1    2    0    0  0.21107112846E+01  0.28451801987E-01  0.11187494884E+03  0.11189486177E+03  0.00000000000E+00 0.  1.
         11    1    1    2    0    0 -0.10908946931E+01 -0.27528107305E+01 -0.18232495776E+03  0.18234900121E+03  0.00000000000E+00 0.  1.
        -15    1    1    2    0    0 -0.61344680341E+00  0.36936999804E+00  0.54303686291E+02  0.54337471646E+02  0.17770000000E+01 0. -1.
         15    1    1    2    0    0 -0.40636978808E+00  0.23549889305E+01  0.16146322634E+02  0.16418665380E+02  0.17770000000E+01 0.  1.
</event>
<event>
 6    1  0.1045352E-002  0.1831795E+03  0.7546771E-02  0.1067915E+00
        -11   -1    0    0    0    0  0.00000000000E+00  0.00000000000E+00  0.18250000000E+03  0.18250000000E+03  0.00000000000E+00 0. -1.
         11   -1    0    0    0    0 -0.00000000000E+00 -0.00000000000E+00 -0.18250000000E+03  0.18250000000E+03  0.00000000000E+00 0.  1.
        -11    1    1    2    0    0 -0.30694756338E+01  0.14494898076E+01  0.16092033422E+03  0.16095613274E+03  0.00000000000E+00 0. -1.
         11    1    1    2    0    0  0.23611503499E+00  0.24900585043E+01 -0.18180328973E+03  0.18182049471E+03  0.00000000000E+00 0.  1.
        -15    1    1    2    0    0  0.14050480288E+01 -0.39175925007E+01  0.84737129262E+01  0.96064161226E+01  0.17770000000E+01 0.  1.
         15    1    1    2    0    0  0.14283125701E+01 -0.21955811190E-01  0.12409242588E+02  0.12616956426E+02  0.17770000000E+01 0.  1.
</event>
<event>
 6    1  0.1045352E-002  0.1776752E+03  0.7546771E-02  0.1072362E+00
        -11   -1    0    0    0    0  0.00000000000E+00  0.00000000000E+00  0.18250000000E+03  0.18250000000E+03  0.00000000000E+00 0.  1.
         11   -1    0    0    0    0 -0.00000000000E+00 -0.00000000000E+00 -0.18250000000E+03  0.18250000000E+03  0.00000000000E+00 0. -1.
        -11    1    1    2    0    0  0.19004693746E+01 -0.18184217956E+01  0.17646702428E+03  0.17648662584E+03  0.00000000000E+00 0.  1.
         11    1    1    2    0    0 -0.27133717509E+00 -0.52189006766E+01 -0.17886899809E+03  0.17894532412E+03  0.00000000000E+00 0. -1.
        -15    1    1    2    0    0 -0.71458314643E+00  0.25395225390E+01 -0.12724932261E+01  0.34258972269E+01  0.17770000000E+01 0. -1.
         15    1    1    2    0    0 -0.91454905313E+00  0.44977999333E+01  0.36744670364E+01  0.61421528158E+01  0.17770000000E+01 0.  1.
</event>
<event>
 6    1  0.1045352E-002  0.1828992E+03  0.7546771E-02  0.1068137E+00
        -11   -1    0    0    0    0  0.00000000000E+00  0.00000000000E+00  0.18250000000E+03  0.18250000000E+03  0.00000000000E+00 0. -1.
         11   -1    0    0    0    0 -0.00000000000E+00 -0.00000000000E+00 -0.18250000000E+03  0.18250000000E+03  0.00000000000E+00 0.  1.
        -11    1    1    2    0    0 -0.15226531713E+02  0.76821565581E+01  0.18130042326E+03  0.18210081349E+03  0.00000000000E+00 0. -1.
         11    1    1    2    0    0  0.15961167991E+01  0.19815088348E+01 -0.38363395854E+02  0.38447680132E+02  0.00000000000E+00 0.  1.
        -15    1    1    2    0    0  0.11333925527E+02 -0.65495190099E+01 -0.13281544530E+03  0.13347079946E+03  0.17770000000E+01 0.  1.
         15    1    1    2    0    0  0.22964893868E+01 -0.31141463829E+01 -0.10121582106E+02  0.10980706923E+02  0.17770000000E+01 0. -1.
</event>
<event>
 6    1  0.1045352E-002  0.1892381E+03  0.7546771E-02  0.1063214E+00
        -11   -1    0    0    0    0  0.00000000000E+00  0.00000000000E+00  0.18250000000E+03  0.18250000000E+03  0.00000000000E+00 0. -1.
         11   -1    0    0    0    0 -0.00000000000E+00 -0.00000000000E+00 -0.18250000000E+03  0.18250000000E+03  0.00000000000E+00 0. -1.
        -11    1    1    2    0    0  0.17923427919E+01 -0.18767884529E+01  0.12607463892E+03  0.12610134578E+03  0.00000000000E+00 0. -1.
         11    1    1    2    0    0 -0.16177729622E+02 -0.34583397875E+01 -0.17498159366E+03  0.17576187632E+03  0.00000000000E+00 0. -1.
        -15    1    1    2    0    0 -0.94536676667E+01 -0.27131357800E+01  0.29978869163E+02  0.31601000987E+02  0.17770000000E+01 0.  1.
         15    1    1    2    0    0  0.23839054497E+02  0.80482640203E+01  0.18928085574E+02  0.31535776914E+02  0.17770000000E+01 0. -1.
</event>
<event>
 6    1  0.1045352E-002  0.1842987E+03  0.7546771E-02  0.1067032E+00
        -11   -1    0    0    0    0  0.00000000000E+00  0.00000000000E+00  0.18250000000E+03  0.18250000000E+03  0.00000000000E+00 0. -1.
         11   -1    0    0    0    0 -0.00000000000E+00 -0.00000000000E+00 -0.18250000000E+03  0.18250000000E+03  0.00000000000E+00 0. -1.
        -11    1    1    2    0    0 -0.45092779444E+01 -0.29999859687E+01  0.15440339011E+03  0.15449835074E+03  0.00000000000E+00 0. -1.
         11    1    1    2    0    0  0.43394821430E+01 -0.31161548572E+01 -0.18062231081E+03  0.18070130240E+03  0.00000000000E+00 0. -1.
        -15    1    1    2    0    0 -0.16073153115E+01 -0.50491046927E+00 -0.19218677740E+00  0.24562291933E+01  0.17770000000E+01 0.  1.
         15    1    1    2    0    0  0.17771111130E+01  0.66210512952E+01  0.26411107475E+02  0.27344117671E+02  0.17770000000E+01 0. -1.
</event>
<event>
 6    1  0.1045352E-002  0.1828804E+03  0.7546771E-02  0.1068152E+00
        -11   -1    0    0    0    0  0.00000000000E+00  0.00000000000E+00  0.18250000000E+03  0.18250000000E+03  0.00000000000E+00 0. -1.
         11   -1    0    0    0    0 -0.00000000000E+00 -0.00000000000E+00 -0.18250000000E+03  0.18250000000E+03  0.00000000000E+00 0.  1.
        -11    1    1    2    0    0  0.53272168421E+00  0.18248464316E+01  0.12783093817E+03  0.12784507268E+03  0.00000000000E+00 0. -1.
         11    1    1    2    0    0 -0.61036641764E+00  0.33986971179E+01 -0.18208684035E+03  0.18211957918E+03  0.00000000000E+00 0.  1.
        -15    1    1    2    0    0  0.15214960194E+01  0.95040543389E+00  0.19318327258E+02  0.19482651710E+02  0.17770000000E+01 0. -1.
         15    1    1    2    0    0 -0.14438512859E+01 -0.61739489834E+01  0.34937574928E+02  0.35552696430E+02  0.17770000000E+01 0.  1.
</event>
<event>
 6    1  0.1045352E-002  0.1857333E+03  0.7546771E-02  0.1065910E+00
        -11   -1    0    0    0    0  0.00000000000E+00  0.00000000000E+00  0.18250000000E+03  0.18250000000E+03  0.00000000000E+00 0. -1.
         11   -1    0    0    0    0 -0.00000000000E+00 -0.00000000000E+00 -0.18250000000E+03  0.18250000000E+03  0.00000000000E+00 0. -1.
        -11    1    1    2    0    0 -0.26357562288E+01 -0.62626412037E+00  0.17924626700E+03  0.17926673883E+03  0.00000000000E+00 0. -1.
         11    1    1    2    0    0 -0.33816192855E+01  0.15770277856E+01 -0.17493117026E+03  0.17497095958E+03  0.00000000000E+00 0. -1.
        -15    1    1    2    0    0  0.76291262200E+00  0.36174055761E+00  0.16088191727E+01  0.25414405423E+01  0.17770000000E+01 0.  1.
         15    1    1    2    0    0  0.52544628923E+01 -0.13125042229E+01 -0.59239159104E+01  0.82208610458E+01  0.17770000000E+01 0. -1.
</event>
<event>
 6    1  0.1045352E-002  0.1849112E+03  0.7546771E-02  0.1066552E+00
        -11   -1    0    0    0    0  0.00000000000E+00  0.00000000000E+00  0.18250000000E+03  0.18250000000E+03  0.00000000000E+00 0. -1.
         11   -1    0    0    0    0 -0.00000000000E+00 -0.00000000000E+00 -0.18250000000E+03  0.18250000000E+03  0.00000000000E+00 0. -1.
        -11    1    1    2    0    0  0.36831494816E+01 -0.46176362543E+00  0.18005055597E+03  0.18008881565E+03  0.00000000000E+00 0. -1.
         11    1    1    2    0    0 -0.13976761564E+01  0.21305694870E+01 -0.13094632042E+03  0.13097111000E+03  0.00000000000E+00 0. -1.
        -15    1    1    2    0    0  0.27209554979E+01  0.99003415143E+00 -0.47719344364E+02  0.47840122512E+02  0.17770000000E+01 0. -1.
         15    1    1    2    0    0 -0.50064288231E+01 -0.26588400130E+01 -0.13848911951E+01  0.60999518357E+01  0.17770000000E+01 0.  1.
</event>
<event>
 6    1  0.1045352E-002  0.1768685E+03  0.7546771E-02  0.1073028E+00
        -11   -1    0    0    0    0  0.00000000000E+00  0.00000000000E+00  0.18250000000E+03  0.18250000000E+03  0.00000000000E+00 0.  1.
         11   -1    0    0    0    0 -0.00000000000E+00 -0.00000000000E+00 -0.18250000000E+03  0.18250000000E+03  0.00000000000E+00 0.  1.
        -11    1    1    2    0    0  0.45868119983E+01 -0.59146915144E+01  0.17754418251E+03  0.17770188283E+03  0.00000000000E+00 0.  1.
         11    1    1    2    0    0 -0.27287738130E+01 -0.17881579029E+00 -0.17607427133E+03  0.17609550592E+03  0.00000000000E+00 0.  1.
        -15    1    1    2    0    0 -0.13798647261E+01  0.42345011997E+01  0.32594959827E+01  0.57980229504E+01  0.17770000000E+01 0. -1.
         15    1    1    2    0    0 -0.47817345930E+00  0.18590061050E+01 -0.47294071641E+01  0.54045882988E+01  0.17770000000E+01 0.  1.
</event>
<event>
 6    1  0.1045352E-002  0.1827912E+03  0.7546771E-02  0.1068223E+00
        -11   -1    0    0    0    0  0.00000000000E+00  0.00000000000E+00  0.18250000000E+03  0.18250000000E+03  0.00000000000E+00 0.  1.
         11   -1    0    0    0    0 -0.00000000000E+00 -0.00000000000E+00 -0.18250000000E+03  0.18250000000E+03  0.00000000000E+00 0. -1.
        -11    1    1    2    0    0  0.54218816330E+00 -0.20953952905E+00  0.38538696165E+02  0.38543079494E+02  0.00000000000E+00 0.  1.
         11    1    1    2    0    0 -0.34780186995E+01  0.27008975619E+01 -0.18215553063E+03  0.18220875062E+03  0.00000000000E+00 0. -1.
        -15    1    1    2    0    0 -0.43829936060E+01 -0.13644175511E+01  0.32496542302E+02  0.32867236860E+02  0.17770000000E+01 0.  1.
         15    1    1    2    0    0  0.73188241423E+01 -0.11269404817E+01  0.11112029217E+03  0.11138093303E+03  0.17770000000E+01 0.  1.
</event>
<event>
 6    1  0.1045352E-002  0.1828785E+03  0.7546771E-02  0.1068154E+00
        -11   -1    0    0    0    0  0.00000000000E+00  0.00000000000E+00  0.18250000000E+03  0.18250000000E+03  0.00000000000E+00 0.  1.
         11   -1    0    0    0    0 -0.00000000000E+00 -0.00000000000E+00 -0.18250000000E+03  0.18250000000E+03  0.00000000000E+00 0. -1.
        -11    1    1    2    0    0  0.17062053082E+01 -0.74858536054E+00  0.13067663758E+03  0.13068991975E+03  0.00000000000E+00 0.  1.
         11    1    1    2    0    0  0.18874553803E+01 -0.21864283469E+01 -0.18209856190E+03  0.18212146827E+03  0.00000000000E+00 0. -1.
        -15    1    1    2    0    0 -0.13405876402E+01 -0.96724333939E+00  0.54968798832E+01  0.60088395177E+01  0.17770000000E+01 0. -1.
         15    1    1    2    0    0 -0.22530730483E+01  0.39022570469E+01  0.45925044444E+02  0.46179772460E+02  0.17770000000E+01 0.  1.
</event>
<event>
 6    1  0.1384907E-002  0.1526839E+03  0.7546771E-02  0.1095026E+00
        -11   -1    0    0    0    0  0.00000000000E+00  0.00000000000E+00  0.18250000000E+03  0.18250000000E+03  0.00000000000E+00 0.  1.
         11   -1    0    0    0    0 -0.00000000000E+00 -0.00000000000E+00 -0.18250000000E+03  0.18250000000E+03  0.00000000000E+00 0.  1.
        -11    1    1    2    0    0  0.73783443240E+01  0.13506250735E+02  0.14540631486E+03  0.14621851857E+03  0.00000000000E+00 0.  1.
         11    1    1    2    0    0 -0.10511946699E+02  0.84226509665E+01 -0.15971905251E+03  0.16028604995E+03  0.00000000000E+00 0.  1.
        -15    1    1    2    0    0 -0.47271041844E+01 -0.20598548852E+02  0.32357168610E+02  0.38688367997E+02  0.17770000000E+01 0. -1.
         15    1    1    2    0    0  0.78607065599E+01 -0.13303528489E+01 -0.18044430951E+02  0.19807063480E+02  0.17770000000E+01 0.  1.
</event>
<event>
 6    1  0.1045352E-002  0.1832771E+03  0.7546771E-02  0.1067838E+00
        -11   -1    0    0    0    0  0.00000000000E+00  0.00000000000E+00  0.18250000000E+03  0.18250000000E+03  0.00000000000E+00 0. -1.
         11   -1    0    0    0    0 -0.00000000000E+00 -0.00000000000E+00 -0.18250000000E+03  0.18250000000E+03  0.00000000000E+00 0.  1.
        -11    1    1    2    0    0 -0.20060906549E+01  0.61537168686E+01  0.14887886191E+03  0.14901948918E+03  0.00000000000E+00 0. -1.
         11    1    1    2    0    0  0.31797785317E+01 -0.30883283364E+01 -0.18166886087E+03  0.18172293133E+03  0.00000000000E+00 0.  1.
        -15    1    1    2    0    0 -0.46000182649E+01 -0.21531234239E+01  0.12921583740E+02  0.13997184141E+02  0.17770000000E+01 0.  1.
         15    1    1    2    0    0  0.34263303880E+01 -0.91226510822E+00  0.19868415216E+02  0.20260395350E+02  0.17770000000E+01 0. -1.
</event>
<event>
 6    1  0.1045352E-002  0.1959815E+03  0.7546771E-02  0.1058203E+00
        -11   -1    0    0    0    0  0.00000000000E+00  0.00000000000E+00  0.18250000000E+03  0.18250000000E+03  0.00000000000E+00 0.  1.
         11   -1    0    0    0    0 -0.00000000000E+00 -0.00000000000E+00 -0.18250000000E+03  0.18250000000E+03  0.00000000000E+00 0.  1.
        -11    1    1    2    0    0  0.52031077400E-01 -0.81227127029E+01  0.11552009115E+03  0.11580532210E+03  0.00000000000E+00 0.  1.
         11    1    1    2    0    0 -0.18819621866E+02 -0.28966718962E+02 -0.16545093307E+03  0.16901852037E+03  0.00000000000E+00 0.  1.
        -15    1    1    2    0    0  0.33354059183E+02  0.16495852014E+02  0.32682625933E+02  0.49557221114E+02  0.17770000000E+01 0.  1.
         15    1    1    2    0    0 -0.14586468394E+02  0.20593579651E+02  0.17248215991E+02  0.30618936411E+02  0.17770000000E+01 0. -1.
</event>
<event>
 6    1  0.1045352E-002  0.1858534E+03  0.7546771E-02  0.1065816E+00
        -11   -1    0    0    0    0  0.00000000000E+00  0.00000000000E+00  0.18250000000E+03  0.18250000000E+03  0.00000000000E+00 0. -1.
         11   -1    0    0    0    0 -0.00000000000E+00 -0.00000000000E+00 -0.18250000000E+03  0.18250000000E+03  0.00000000000E+00 0. -1.
        -11    1    1    2    0    0 -0.23725759516E+01 -0.53573915813E+00  0.17228633403E+03  0.17230350265E+03  0.00000000000E+00 0. -1.
         11    1    1    2    0    0 -0.24736685011E+01 -0.22314051691E+01 -0.17911562196E+03  0.17914659984E+03  0.00000000000E+00 0. -1.
        -15    1    1    2    0    0  0.76911190093E+01  0.12656381055E+01  0.41955092527E+01  0.90285756528E+01  0.17770000000E+01 0. -1.
         15    1    1    2    0    0 -0.28448745566E+01  0.15015062218E+01  0.26337786772E+01  0.45213218528E+01  0.17770000000E+01 0. -1.
</event>
<event>
 6    1  0.1045352E-002  0.1870727E+03  0.7546771E-02  0.1064872E+00
        -11   -1    0    0    0    0  0.00000000000E+00  0.00000000000E+00  0.18250000000E+03  0.18250000000E+03  0.00000000000E+00 0. -1.
         11   -1    0    0    0    0 -0.00000000000E+00 -0.00000000000E+00 -0.18250000000E+03  0.18250000000E+03  0.00000000000E+00 0.  1.
        -11    1    1    2    0    0 -0.34743975381E+01  0.56159007851E+01  0.17780472390E+03  0.17792731556E+03  0.00000000000E+00 0. -1.
         11    1    1    2    0    0  0.20885240950E+01  0.34514693553E+01 -0.17189550435E+03  0.17194283641E+03  0.00000000000E+00 0.  1.
        -15    1    1    2    0    0 -0.31263079340E+01 -0.54036708345E+01  0.22469050598E+00  0.64947420741E+01  0.17770000000E+01 0. -1.
         15    1    1    2    0    0  0.45121813771E+01 -0.36636993058E+01 -0.61339100553E+01  0.86351059605E+01  0.17770000000E+01 0.  1.
</event>
<event>
 6    1  0.1045352E-002  0.1841741E+03  0.7546771E-02  0.1067130E+00
        -11   -1    0    0    0    0  0.00000000000E+00  0.00000000000E+00  0.18250000000E+03  0.18250000000E+03  0.00000000000E+00 0.  1.
         11   -1    0    0    0    0 -0.00000000000E+00 -0.00000000000E+00 -0.18250000000E+03  0.18250000000E+03  0.00000000000E+00 0. -1.
        -11    1    1    2    0    0 -0.12072439950E+01 -0.49942844668E+01  0.14749683057E+03  0.14758629795E+03  0.00000000000E+00 0.  1.
         11    1    1    2    0    0 -0.58854598085E+01 -0.24236530932E+01 -0.18071386899E+03  0.18082592507E+03  0.00000000000E+00 0. -1.
        -15    1    1    2    0    0  0.50501379339E+01  0.22295548423E+01  0.28463226757E+02  0.29048025998E+02  0.17770000000E+01 0. -1.
         15    1    1    2    0    0  0.20425658696E+01  0.51883827177E+01  0.47538116666E+01  0.75397509852E+01  0.17770000000E+01 0.  1.
</event>
<event>
 6    1  0.1045352E-002  0.1743544E+03  0.7546771E-02  0.1075130E+00
        -11   -1    0    0    0    0  0.00000000000E+00  0.00000000000E+00  0.18250000000E+03  0.18250000000E+03  0.00000000000E+00 0. -1.
         11   -1    0    0    0    0 -0.00000000000E+00 -0.00000000000E+00 -0.18250000000E+03  0.18250000000E+03  0.00000000000E+00 0. -1.
        -11    1    1    2    0    0  0.83794017014E+01 -0.28223826006E+01  0.17292672839E+03  0.17315263096E+03  0.00000000000E+00 0. -1.
         11    1    1    2    0    0  0.17526441427E+01 -0.32246229702E+01 -0.17572860149E+03  0.17576692333E+03  0.00000000000E+00 0. -1.
        -15    1    1    2    0    0 -0.81942219529E+01  0.50540341596E+01 -0.24782636924E+01  0.10098913537E+02  0.17770000000E+01 0. -1.
         15    1    1    2    0    0 -0.19378238912E+01  0.99297141118E+00  0.52801367862E+01  0.59815321731E+01  0.17770000000E+01 0.  1.
</event>
<event>
 6    1  0.1045352E-002  0.1838006E+03  0.7546771E-02  0.1067424E+00
        -11   -1    0    0    0    0  0.00000000000E+00  0.00000000000E+00  0.18250000000E+03  0.18250000000E+03  0.00000000000E+00 0.  1.
         11   -1    0    0    0    0 -0.00000000000E+00 -0.00000000000E+00 -0.18250000000E+03  0.18250000000E+03  0.00000000000E+00 0.  1.
        -11    1    1    2    0    0  0.51090508816E+01  0.12679877089E+02  0.18068303289E+03  0.18119944829E+03  0.00000000000E+00 0.  1.
         11    1    1    2    0    0  0.21284839528E+01  0.13190275398E+01 -0.42702963730E+02  0.42776318085E+02  0.00000000000E+00 0.  1.
        -15    1    1    2    0    0 -0.85621057347E+01 -0.19591495260E+02 -0.83467218306E+02  0.86180453711E+02  0.17770000000E+01 0. -1.
         15    1    1    2    0    0  0.13245709004E+01  0.55925906311E+01 -0.54512850857E+02  0.54843779917E+02  0.17770000000E+01 0.  1.
</event>
<event>
 6    1  0.1045352E-002  0.1613654E+03  0.7546771E-02  0.1086645E+00
        -11   -1    0    0    0    0  0.00000000000E+00  0.00000000000E+00  0.18250000000E+03  0.18250000000E+03  0.00000000000E+00 0.  1.
         11   -1    0    0    0    0 -0.00000000000E+00 -0.00000000000E+00 -0.18250000000E+03  0.18250000000E+03  0.00000000000E+00 0.  1.
        -11    1    1    2    0    0  0.42774240717E+01  0.17779270492E+01  0.16847498657E+03  0.16853865575E+03  0.00000000000E+00 0.  1.
         11    1    1    2    0    0 -0.49362759577E-01  0.68019959923E+00 -0.12991142044E+02  0.13009030701E+02  0.00000000000E+00 0.  1.
        -15    1    1    2    0    0  0.87839525559E+01  0.21989994042E+02 -0.15382886794E+03  0.15565087857E+03  0.17770000000E+01 0.  1.
         15    1    1    2    0    0 -0.13012013868E+02 -0.24448120690E+02 -0.16549765946E+01  0.27801434976E+02  0.17770000000E+01 0. -1.
</event>
<event>
 6    1  0.1045352E-002  0.1854424E+03  0.7546771E-02  0.1066136E+00
        -11   -1    0    0    0    0  0.00000000000E+00  0.00000000000E+00  0.18250000000E+03  0.18250000000E+03  0.00000000000E+00 0.  1.
         11   -1    0    0    0    0 -0.00000000000E+00 -0.00000000000E+00 -0.18250000000E+03  0.18250000000E+03  0.00000000000E+00 0.  1.
        -11    1    1    2    0    0  0.16318740270E+01  0.27254742967E+01  0.16526694295E+03  0.16529747020E+03  0.00000000000E+00 0.  1.
         11    1    1    2    0    0  0.25763206930E+01  0.28420028143E+01 -0.17951663217E+03  0.17955761091E+03  0.00000000000E+00 0.  1.
        -15    1    1    2    0    0 -0.63394327610E+01 -0.43746675486E+01  0.29316624016E+01  0.84308064460E+01  0.17770000000E+01 0.  1.
         15    1    1    2    0    0  0.21312380410E+01 -0.11928095624E+01  0.11318026818E+02  0.11714112441E+02  0.17770000000E+01 0. -1.
</event>
<event>
 6    1  0.1045352E-002  0.1830138E+03  0.7546771E-02  0.1068047E+00
        -11   -1    0    0    0    0  0.00000000000E+00  0.00000000000E+00  0.18250000000E+03  0.18250000000E+03  0.00000000000E+00 0. -1.
         11   -1    0    0    0    0 -0.00000000000E+00 -0.00000000000E+00 -0.18250000000E+03  0.18250000000E+03  0.00000000000E+00 0.  1.
        -11    1    1    2    0    0  0.16546168471E+01  0.16454013206E+00  0.92502658014E+02  0.92517601407E+02  0.00000000000E+00 0. -1.
         11    1    1    2    0    0  0.75139897337E+01 -0.61274281804E+01 -0.18172770984E+03  0.18198616964E+03  0.00000000000E+00 0.  1.
        -15    1    1    2    0    0 -0.10400436132E+02  0.51384509768E+01  0.83507821240E+02  0.84328445304E+02  0.17770000000E+01 0. -1.
         15    1    1    2    0    0  0.12318295509E+01  0.82443707158E+00  0.57172305860E+01  0.61677836458E+01  0.17770000000E+01 0. -1.
</event>
<event>
 6    1  0.1099899E-002  0.1857943E+03  0.7546771E-02  0.1065862E+00
        -11   -1    0    0    0    0  0.00000000000E+00  0.00000000000E+00  0.18250000000E+03  0.18250000000E+03  0.00000000000E+00 0.  1.
         11   -1    0    0    0    0 -0.00000000000E+00 -0.00000000000E+00 -0.18250000000E+03  0.18250000000E+03  0.00000000000E+00 0.  1.
        -11    1    1    2    0    0 -0.18250021936E+01  0.28541113115E+01  0.17917368937E+03  0.17920571293E+03  0.00000000000E+00 0.  1.
         11    1    1    2    0    0  0.96534241893E+01 -0.15865975542E+01 -0.15558073176E+03  0.15588800463E+03  0.00000000000E+00 0.  1.
        -15    1    1    2    0    0 -0.80481334927E+01  0.16615583060E+01 -0.24862808857E+02  0.26245956298E+02  0.17770000000E+01 0.  1.
         15    1    1    2    0    0  0.21971149703E+00 -0.29290720633E+01  0.12698512543E+01  0.36603261469E+01  0.17770000000E+01 0.  1.
</event>
<event>
 6    1  0.1045352E-002  0.1882859E+03  0.7546771E-02  0.1063940E+00
        -11   -1    0    0    0    0  0.00000000000E+00  0.00000000000E+00  0.18250000000E+03  0.18250000000E+03  0.00000000000E+00 0. -1.
         11   -1    0    0    0    0 -0.00000000000E+00 -0.00000000000E+00 -0.18250000000E+03  0.18250000000E+03  0.00000000000E+00 0. -1.
        -11    1    1    2    0    0 -0.30666975335E+01  0.56242343233E-01  0.16885196263E+03  0.16887981845E+03  0.00000000000E+00 0. -1.
         11    1    1    2    0    0 -0.13268601843E+01  0.21856540721E+01 -0.17669562012E+03  0.17671411888E+03  0.00000000000E+00 0. -1.
        -15    1    1    2    0    0 -0.14109475465E+01  0.35551956560E+01 -0.33701697329E+01  0.53987000435E+01  0.17770000000E+01 0. -1.
         15    1    1    2    0    0  0.58045052643E+01 -0.57970920713E+01  0.11213827220E+02  0.14007362627E+02  0.17770000000E+01 0.  1.
</event>
<event>
 6    1  0.1045352E-002  0.1387944E+03  0.7546771E-02  0.1109794E+00
        -11   -1    0    0    0    0  0.00000000000E+00  0.00000000000E+00  0.18250000000E+03  0.18250000000E+03  0.00000000000E+00 0. -1.
         11   -1    0    0    0    0 -0.00000000000E+00 -0.00000000000E+00 -0.18250000000E+03  0.18250000000E+03  0.00000000000E+00 0.  1.
        -11    1    1    2    0    0  0.54040920003E+00 -0.17014232467E+01  0.12864782489E+03  0.12866021037E+03  0.00000000000E+00 0. -1.
         11    1    1    2    0    0 -0.28799903576E+02 -0.21588104585E+02 -0.14765438123E+03  0.15197794907E+03  0.00000000000E+00 0.  1.
        -15    1    1    2    0    0  0.39391286152E+01  0.13427591357E+02  0.45134088177E+02  0.47287002321E+02  0.17770000000E+01 0.  1.
         15    1    1    2    0    0  0.24320365761E+02  0.98619364743E+01 -0.26127531838E+02  0.37074838243E+02  0.17770000000E+01 0. -1.
</event>
<event>
 6    1  0.1045352E-002  0.1832424E+03  0.7546771E-02  0.1067865E+00
        -11   -1    0    0    0    0  0.00000000000E+00  0.00000000000E+00  0.18250000000E+03  0.18250000000E+03  0.00000000000E+00 0.  1.
         11   -1    0    0    0    0 -0.00000000000E+00 -0.00000000000E+00 -0.18250000000E+03  0.18250000000E+03  0.00000000000E+00 0.  1.
        -11    1    1    2    0    0 -0.23490890868E+01  0.37667351595E+01  0.18170338857E+03  0.18175760763E+03  0.00000000000E+00 0.  1.
         11    1    1    2    0    0 -0.53908969428E+00  0.48989321064E+01 -0.53255176958E+02  0.53482745127E+02  0.00000000000E+00 0.  1.
        -15    1    1    2    0    0 -0.90330649364E+00  0.26817642563E+01 -0.75313768842E+01  0.82393682355E+01  0.17770000000E+01 0.  1.
         15    1    1    2    0    0  0.37914852748E+01 -0.11347431522E+02 -0.12091683472E+03  0.12152027901E+03  0.17770000000E+01 0.  1.
</event>
<event>
 6    1  0.1045352E-002  0.1833481E+03  0.7546771E-02  0.1067782E+00
        -11   -1    0    0    0    0  0.00000000000E+00  0.00000000000E+00  0.18250000000E+03  0.18250000000E+03  0.00000000000E+00 0.  1.
         11   -1    0    0    0    0 -0.00000000000E+00 -0.00000000000E+00 -0.18250000000E+03  0.18250000000E+03  0.00000000000E+00 0. -1.
        -11    1    1    2    0    0 -0.29502327214E+01  0.60204286980E+00  0.18162692770E+03  0.18165188464E+03  0.00000000000E+00 0.  1.
         11    1    1    2    0    0  0.78993978741E+01  0.29817921720E+00 -0.14993392738E+03  0.15014217255E+03  0.00000000000E+00 0. -1.
        -15    1    1    2    0    0  0.19408523845E+01  0.40950401293E+00 -0.78541580455E+01  0.82933786311E+01  0.17770000000E+01 0.  1.
         15    1    1    2    0    0 -0.68900175371E+01 -0.13097260999E+01 -0.23838842273E+02  0.24912564180E+02  0.17770000000E+01 0. -1.
</event>
<event>
 6    1  0.1045352E-002  0.1847547E+03  0.7546771E-02  0.1066674E+00
        -11   -1    0    0    0    0  0.00000000000E+00  0.00000000000E+00  0.18250000000E+03  0.18250000000E+03  0.00000000000E+00 0. -1.
         11   -1    0    0    0    0 -0.00000000000E+00 -0.00000000000E+00 -0.18250000000E+03  0.18250000000E+03  0.00000000000E+00 0. -1.
        -11    1    1    2    0    0  0.27501599140E+01  0.62546156444E-01  0.16797876543E+03  0.16800128846E+03  0.00000000000E+00 0. -1.
         11    1    1    2    0    0  0.22229532433E+01 -0.15339183742E+01 -0.18022506359E+03  0.18024529944E+03  0.00000000000E+00 0. -1.
        -15    1    1    2    0    0 -0.15636101681E+01  0.17787281999E+01 -0.86658155080E+00  0.30850353890E+01  0.17770000000E+01 0. -1.
         15    1    1    2    0    0 -0.34095029892E+01 -0.30735598216E+00  0.13112879712E+02  0.13668376702E+02  0.17770000000E+01 0. -1.
</event>
<event>
 6    1  0.1045352E-002  0.1855589E+03  0.7546771E-02  0.1066046E+00
        -11   -1    0    0    0    0  0.00000000000E+00  0.00000000000E+00  0.18250000000E+03  0.18250000000E+03  0.00000000000E+00 0.  1.
         11   -1    0    0    0    0 -0.00000000000E+00 -0.00000000000E+00 -0.18250000000E+03  0.18250000000E+03  0.00000000000E+00 0. -1.
        -11    1    1    2    0    0 -0.19860196326E+01 -0.18729585908E+01  0.17942033571E+03  0.17944110208E+03  0.00000000000E+00 0.  1.
         11    1    1    2    0    0  0.11302339426E+00  0.35109235378E+01 -0.16119693664E+03  0.16123520627E+03  0.00000000000E+00 0. -1.
        -15    1    1    2    0    0  0.25238516592E+01  0.52067457968E+01 -0.16209350683E+01  0.62661940990E+01  0.17770000000E+01 0.  1.
         15    1    1    2    0    0 -0.65085542094E+00 -0.68447107438E+01 -0.16602464003E+02  0.18057497555E+02  0.17770000000E+01 0.  1.
</event>
<event>
 6    1  0.1045352E-002  0.1890979E+03  0.7546771E-02  0.1063321E+00
        -11   -1    0    0    0    0  0.00000000000E+00  0.00000000000E+00  0.18250000000E+03  0.18250000000E+03  0.00000000000E+00 0.  1.
         11   -1    0    0    0    0 -0.00000000000E+00 -0.00000000000E+00 -0.18250000000E+03  0.18250000000E+03  0.00000000000E+00 0. -1.
        -11    1    1    2    0    0 -0.12980561265E+02 -0.25170494753E+01  0.17540445914E+03  0.17590211709E+03  0.00000000000E+00 0.  1.
         11    1    1    2    0    0 -0.51494765211E+00 -0.19642471281E+01 -0.61826616197E+02  0.61859953995E+02  0.00000000000E+00 0. -1.
        -15    1    1    2    0    0  0.24943021775E+02  0.23894331563E+02 -0.73276144260E+02  0.81028664451E+02  0.17770000000E+01 0. -1.
         15    1    1    2    0    0 -0.11447512858E+02 -0.19413034960E+02 -0.40301698683E+02  0.46209264469E+02  0.17770000000E+01 0.  1.
</event>
<event>
 6    1  0.1045352E-002  0.1828230E+03  0.7546771E-02  0.1068198E+00
        -11   -1    0    0    0    0  0.00000000000E+00  0.00000000000E+00  0.18250000000E+03  0.18250000000E+03  0.00000000000E+00 0. -1.
         11   -1    0    0    0    0 -0.00000000000E+00 -0.00000000000E+00 -0.18250000000E+03  0.18250000000E+03  0.00000000000E+00 0.  1.
        -11    1    1    2    0    0 -0.33991569198E+01  0.10308852275E+01  0.80564845413E+02  0.80643110733E+02  0.00000000000E+00 0. -1.
         11    1    1    2    0    0  0.92796925779E+01 -0.18205216682E+01 -0.18193142662E+03  0.18217703199E+03  0.00000000000E+00 0.  1.
        -15    1    1    2    0    0 -0.11256011416E+01 -0.23889005965E+01  0.78372380399E+01  0.84589510628E+01  0.17770000000E+01 0.  1.
         15    1    1    2    0    0 -0.47549345164E+01  0.31785370372E+01  0.93529343164E+02  0.93720906215E+02  0.17770000000E+01 0. -1.
</event>
<event>
 6    1  0.1045352E-002  0.1825280E+03  0.7546771E-02  0.1068432E+00
        -11   -1    0    0    0    0  0.00000000000E+00  0.00000000000E+00  0.18250000000E+03  0.18250000000E+03  0.00000000000E+00 0. -1.
         11   -1    0    0    0    0 -0.00000000000E+00 -0.00000000000E+00 -0.18250000000E+03  0.18250000000E+03  0.00000000000E+00 0.  1.
        -11    1    1    2    0    0 -0.12412553451E+01  0.22274020229E+01  0.18245414202E+03  0.18247195942E+03  0.00000000000E+00 0. -1.
         11    1    1    2    0    0 -0.12818974552E+00 -0.62221175496E+00 -0.41699864725E+02  0.41704703549E+02  0.00000000000E+00 0.  1.
        -15    1    1    2    0    0  0.10777216657E+01 -0.84472249234E+00 -0.96263949435E+02  0.96290086353E+02  0.17770000000E+01 0.  1.
         15    1    1    2    0    0  0.29172342489E+00 -0.76046777562E+00 -0.44490327860E+02  0.44533250677E+02  0.17770000000E+01 0. -1.
</event>
<event>
 6    1  0.1045352E-002  0.1830691E+03  0.7546771E-02  0.1068003E+00
        -11   -1    0    0    0    0  0.00000000000E+00  0.00000000000E+00  0.18250000000E+03  0.18250000000E+03  0.00000000000E+00 0.  1.
         11   -1    0    0    0    0 -0.00000000000E+00 -0.00000000000E+00 -0.18250000000E+03  0.18250000000E+03  0.00000000000E+00 0. -1.
        -11    1    1    2    0    0 -0.43789732918E+00  0.13077379697E+01  0.10132949726E+03  0.10133888172E+03  0.00000000000E+00 0.  1.
         11    1    1    2    0    0 -0.15432519876E+01 -0.31721439847E+01 -0.18189668834E+03  0.18193089169E+03  0.00000000000E+00 0. -1.
        -15    1    1    2    0    0 -0.21442167390E+01  0.40488010682E+01  0.11806186552E+02  0.12788050102E+02  0.17770000000E+01 0. -1.
         15    1    1    2    0    0  0.41253660558E+01 -0.21843950532E+01  0.68761004526E+02  0.68942176491E+02  0.17770000000E+01 0.  1.
</event>
<event>
 6    1  0.1045352E-002  0.1970895E+03  0.7546771E-02  0.1057400E+00
        -11   -1    0    0    0    0  0.00000000000E+00  0.00000000000E+00  0.18250000000E+03  0.18250000000E+03  0.00000000000E+00 0.  1.
         11   -1    0    0    0    0 -0.00000000000E+00 -0.00000000000E+00 -0.18250000000E+03  0.18250000000E+03  0.00000000000E+00 0.  1.
        -11    1    1    2    0    0  0.10409348974E+02  0.82532315158E+01  0.53685862689E+02  0.55304992805E+02  0.00000000000E+00 0.  1.
         11    1    1    2    0    0 -0.12405079452E+01  0.29216268822E+01 -0.16788045133E+03  0.16791045442E+03  0.00000000000E+00 0.  1.
        -15    1    1    2    0    0  0.18874039753E+01 -0.29101987163E+01 -0.13132738093E+02  0.13698835321E+02  0.17770000000E+01 0. -1.
         15    1    1    2    0    0 -0.11056245004E+02 -0.82646596817E+01  0.12732732674E+03  0.12808571746E+03  0.17770000000E+01 0. -1.
</event>
<event>
 6    1  0.1045352E-002  0.1576632E+03  0.7546771E-02  0.1090147E+00
        -11   -1    0    0    0    0  0.00000000000E+00  0.00000000000E+00  0.18250000000E+03  0.18250000000E+03  0.00000000000E+00 0. -1.
         11   -1    0    0    0    0 -0.00000000000E+00 -0.00000000000E+00 -0.18250000000E+03  0.18250000000E+03  0.00000000000E+00 0. -1.
        -11    1    1    2    0    0 -0.68805173775E+01 -0.11173871755E+02  0.15694180284E+03  0.15748944856E+03  0.00000000000E+00 0. -1.
         11    1    1    2    0    0  0.16477342243E+02  0.16515724229E+02 -0.15629730832E+03  0.15802885984E+03  0.00000000000E+00 0. -1.
        -15    1    1    2    0    0 -0.14809717621E+02 -0.18794059433E+02 -0.15605316805E+02  0.28622160079E+02  0.17770000000E+01 0.  1.
         15    1    1    2    0    0  0.52128927554E+01  0.13452206960E+02  0.14960822279E+02  0.20859531520E+02  0.17770000000E+01 0. -1.
</event>
<event>
 6    1  0.1045352E-002  0.1852547E+03  0.7546771E-02  0.1066283E+00
        -11   -1    0    0    0    0  0.00000000000E+00  0.00000000000E+00  0.18250000000E+03  0.18250000000E+03  0.00000000000E+00 0. -1.
         11   -1    0    0    0    0 -0.00000000000E+00 -0.00000000000E+00 -0.18250000000E+03  0.18250000000E+03  0.00000000000E+00 0. -1.
        -11    1    1    2    0    0 -0.32401344022E+01 -0.38525831655E+01  0.17009082179E+03  0.17016529765E+03  0.00000000000E+00 0. -1.
         11    1    1    2    0    0  0.85273359286E+00 -0.38646734633E+01 -0.17970171933E+03  0.17974529420E+03  0.00000000000E+00 0. -1.
        -15    1    1    2    0    0 -0.17262204168E+01 -0.25158723663E+00  0.20150457933E+01  0.32033219654E+01  0.17770000000E+01 0. -1.
         15    1    1    2    0    0  0.41136212261E+01  0.79688438654E+01  0.75958517496E+01  0.11886086191E+02  0.17770000000E+01 0.  1.
</event>
<event>
 6    1  0.1045352E-002  0.1833298E+03  0.7546771E-02  0.1067796E+00
        -11   -1    0    0    0    0  0.00000000000E+00  0.00000000000E+00  0.18250000000E+03  0.18250000000E+03  0.00000000000E+00 0. -1.
         11   -1    0    0    0    0 -0.00000000000E+00 -0.00000000000E+00 -0.18250000000E+03  0.18250000000E+03  0.00000000000E+00 0.  1.
        -11    1    1    2    0    0 -0.22840917429E+01 -0.70993759714E-01  0.14046862893E+03  0.14048721589E+03  0.00000000000E+00 0. -1.
         11    1    1    2    0    0 -0.42588819916E+01 -0.33477424629E+01 -0.18158940623E+03  0.18167018993E+03  0.00000000000E+00 0.  1.
        -15    1    1    2    0    0  0.97760389663E+00  0.52160353301E-01  0.28158095854E+02  0.28231091393E+02  0.17770000000E+01 0.  1.
         15    1    1    2    0    0  0.55653698379E+01  0.33665758694E+01  0.12962681440E+02  0.14611502784E+02  0.17770000000E+01 0.  1.
</event>
<event>
 6    1  0.1045352E-002  0.1868931E+03  0.7546771E-02  0.1065011E+00
        -11   -1    0    0    0    0  0.00000000000E+00  0.00000000000E+00  0.18250000000E+03  0.18250000000E+03  0.00000000000E+00 0.  1.
         11   -1    0    0    0    0 -0.00000000000E+00 -0.00000000000E+00 -0.18250000000E+03  0.18250000000E+03  0.00000000000E+00 0. -1.
        -11    1    1    2    0    0 -0.26787502900E+01 -0.10923122939E+00  0.16290335038E+03  0.16292540993E+03  0.00000000000E+00 0.  1.
         11    1    1    2    0    0  0.33408676864E+01 -0.58307556037E+01 -0.17798005952E+03  0.17810687998E+03  0.00000000000E+00 0. -1.
        -15    1    1    2    0    0  0.39002301925E+01  0.16783572373E+01  0.16661798619E+02  0.17285888488E+02  0.17770000000E+01 0.  1.
         15    1    1    2    0    0 -0.45623475890E+01  0.42616295957E+01 -0.15850894777E+01  0.66818216069E+01  0.17770000000E+01 0. -1.
</event>
<event>
 6    1  0.1045352E-002  0.1837213E+03  0.7546771E-02  0.1067487E+00
        -11   -1    0    0    0    0  0.00000000000E+00  0.00000000000E+00  0.18250000000E+03  0.18250000000E+03  0.00000000000E+00 0. -1.
         11   -1    0    0    0    0 -0.00000000000E+00 -0.00000000000E+00 -0.18250000000E+03  0.18250000000E+03  0.00000000000E+00 0. -1.
        -11    1    1    2    0    0 -0.31281188826E+01  0.10805398600E+00  0.18125172080E+03  0.18127874420E+03  0.00000000000E+00 0. -1.
         11    1    1    2    0    0  0.26160685484E+01  0.16437653427E+01 -0.96370244539E+02  0.96419758409E+02  0.00000000000E+00 0. -1.
        -15    1    1    2    0    0  0.49659106594E+01  0.78789230463E+01 -0.45468556864E+02  0.46446583183E+02  0.17770000000E+01 0. -1.
         15    1    1    2    0    0 -0.44538603251E+01 -0.96307423749E+01 -0.39412919400E+02  0.40854914210E+02  0.17770000000E+01 0.  1.
</event>
<event>
 6    1  0.1045352E-002  0.1826081E+03  0.7546771E-02  0.1068369E+00
        -11   -1    0    0    0    0  0.00000000000E+00  0.00000000000E+00  0.18250000000E+03  0.18250000000E+03  0.00000000000E+00 0. -1.
         11   -1    0    0    0    0 -0.00000000000E+00 -0.00000000000E+00 -0.18250000000E+03  0.18250000000E+03  0.00000000000E+00 0.  1.
        -11    1    1    2    0    0 -0.62691742705E+01 -0.87438353673E+00  0.18228200032E+03  0.18239187134E+03  0.00000000000E+00 0. -1.
         11    1    1    2    0    0  0.11301798823E+01  0.11434426783E+01 -0.45570495707E+02  0.45598846989E+02  0.00000000000E+00 0.  1.
        -15    1    1    2    0    0  0.37021575494E+01  0.65536889401E+00 -0.12348597713E+03  0.12355597822E+03  0.17770000000E+01 0.  1.
         15    1    1    2    0    0  0.14368368388E+01 -0.92442803560E+00 -0.13225527486E+02  0.13453303444E+02  0.17770000000E+01 0.  1.
</event>
<event>
 6    1  0.1045352E-002  0.1681341E+03  0.7546771E-02  0.1080502E+00
        -11   -1    0    0    0    0  0.00000000000E+00  0.00000000000E+00  0.18250000000E+03  0.18250000000E+03  0.00000000000E+00 0. -1.
         11   -1    0    0    0    0 -0.00000000000E+00 -0.00000000000E+00 -0.18250000000E+03  0.18250000000E+03  0.00000000000E+00 0.  1.
        -11    1    1    2    0    0 -0.11084241657E+02 -0.99114780134E+01  0.16934625957E+03  0.16999780422E+03  0.00000000000E+00 0. -1.
         11    1    1    2    0    0 -0.27503616719E+01 -0.10947025331E+01 -0.16671873246E+03  0.16674501077E+03  0.00000000000E+00 0.  1.
        -15    1    1    2    0    0  0.11386203098E+02  0.10991211682E+02  0.75610449242E+01  0.17628938839E+02  0.17770000000E+01 0.  1.
         15    1    1    2    0    0  0.24484002304E+01  0.14968864599E-01 -0.10188572030E+02  0.10628246176E+02  0.17770000000E+01 0.  1.
</event>
<event>
 6    1  0.1045352E-002  0.1844265E+03  0.7546771E-02  0.1066932E+00
        -11   -1    0    0    0    0  0.00000000000E+00  0.00000000000E+00  0.18250000000E+03  0.18250000000E+03  0.00000000000E+00 0.  1.
         11   -1    0    0    0    0 -0.00000000000E+00 -0.00000000000E+00 -0.18250000000E+03  0.18250000000E+03  0.00000000000E+00 0.  1.
        -11    1    1    2    0    0 -0.24020116447E+00  0.23452982479E+01  0.14167984185E+03  0.14169945556E+03  0.00000000000E+00 0.  1.
         11    1    1    2    0    0  0.29391208109E+01 -0.10002924112E+01 -0.18054677467E+03  0.18057346666E+03  0.00000000000E+00 0.  1.
        -15    1    1    2    0    0 -0.34851492562E+01  0.93495216514E+00  0.28853014369E+00  0.40325400844E+01  0.17770000000E+01 0.  1.
         15    1    1    2    0    0  0.78622960973E+00 -0.22799580019E+01  0.38578402679E+02  0.38694537699E+02  0.17770000000E+01 0.  1.
</event>
<event>
 6    1  0.1045352E-002  0.1742696E+03  0.7546771E-02  0.1075202E+00
        -11   -1    0    0    0    0  0.00000000000E+00  0.00000000000E+00  0.18250000000E+03  0.18250000000E+03  0.00000000000E+00 0. -1.
         11   -1    0    0    0    0 -0.00000000000E+00 -0.00000000000E+00 -0.18250000000E+03  0.18250000000E+03  0.00000000000E+00 0.  1.
        -11    1    1    2    0    0  0.23327340091E+01 -0.10408501632E+01  0.17327542724E+03  0.17329425467E+03  0.00000000000E+00 0. -1.
         11    1    1    2    0    0  0.40369096059E+01  0.19301681527E+01 -0.17525277437E+03  0.17530988881E+03  0.00000000000E+00 0.  1.
        -15    1    1    2    0    0 -0.24689439898E+01  0.35613538803E+01  0.70071860012E+01  0.84283634557E+01  0.17770000000E+01 0.  1.
         15    1    1    2    0    0 -0.39006996252E+01 -0.44506718697E+01 -0.50298388681E+01  0.79674930622E+01  0.17770000000E+01 0.  1.
</event>
<event>
 6    1  0.1045352E-002  0.1828621E+03  0.7546771E-02  0.1068167E+00
        -11   -1    0    0    0    0  0.00000000000E+00  0.00000000000E+00  0.18250000000E+03  0.18250000000E+03  0.00000000000E+00 0. -1.
         11   -1    0    0    0    0 -0.00000000000E+00 -0.00000000000E+00 -0.18250000000E+03  0.18250000000E+03  0.00000000000E+00 0. -1.
        -11    1    1    2    0    0 -0.15045639062E+01 -0.20882142482E+01  0.12440391822E+03  0.12443053974E+03  0.00000000000E+00 0. -1.
         11    1    1    2    0    0  0.27757698591E+01 -0.27756175928E+01 -0.18209559706E+03  0.18213790220E+03  0.00000000000E+00 0. -1.
        -15    1    1    2    0    0 -0.12968463868E+01  0.20049328600E+01  0.49301564994E+02  0.49391331286E+02  0.17770000000E+01 0. -1.
         15    1    1    2    0    0  0.25640433901E-01  0.28588989809E+01  0.83901138417E+01  0.90402267722E+01  0.17770000000E+01 0.  1.
</event>
<event>
 6    1  0.1045352E-002  0.1828253E+03  0.7546771E-02  0.1068196E+00
        -11   -1    0    0    0    0  0.00000000000E+00  0.00000000000E+00  0.18250000000E+03  0.18250000000E+03  0.00000000000E+00 0.  1.
         11   -1    0    0    0    0 -0.00000000000E+00 -0.00000000000E+00 -0.18250000000E+03  0.18250000000E+03  0.00000000000E+00 0.  1.
        -11    1    1    2    0    0 -0.82356951628E+00  0.11325277231E+01  0.10246284381E+03  0.10247241212E+03  0.00000000000E+00 0.  1.
         11    1    1    2    0    0 -0.24249438024E+01 -0.10275736142E+01 -0.18215566093E+03  0.18217469931E+03  0.00000000000E+00 0.  1.
        -15    1    1    2    0    0 -0.10991080650E+01 -0.36357347922E+01  0.25504850767E+02  0.25847277374E+02  0.17770000000E+01 0. -1.
         15    1    1    2    0    0  0.43476213837E+01  0.35307806832E+01  0.54187966359E+02  0.54505611189E+02  0.17770000000E+01 0.  1.
</event>
<event>
 6    1  0.1045352E-002  0.1749462E+03  0.7546771E-02  0.1074632E+00
        -11   -1    0    0    0    0  0.00000000000E+00  0.00000000000E+00  0.18250000000E+03  0.18250000000E+03  0.00000000000E+00 0.  1.
         11   -1    0    0    0    0 -0.00000000000E+00 -0.00000000000E+00 -0.18250000000E+03  0.18250000000E+03  0.00000000000E+00 0.  1.
        -11    1    1    2    0    0 -0.12050461674E+01 -0.45868005545E+01  0.17337808390E+03  0.17344293255E+03  0.00000000000E+00 0.  1.
         11    1    1    2    0    0 -0.71159090282E+01 -0.27590352861E+01 -0.17647429687E+03  0.17663925355E+03  0.00000000000E+00 0.  1.
        -15    1    1    2    0    0  0.77608566249E+01  0.47615580533E+01 -0.14261933538E+01  0.93858983124E+01  0.17770000000E+01 0.  1.
         15    1    1    2    0    0  0.56009857073E+00  0.25842777873E+01  0.45224063314E+01  0.55319155920E+01  0.17770000000E+01 0.  1.
</event>
<event>
 6    1  0.1045352E-002  0.1880855E+03  0.7546771E-02  0.1064094E+00
        -11   -1    0    0    0    0  0.00000000000E+00  0.00000000000E+00  0.18250000000E+03  0.18250000000E+03  0.00000000000E+00 0. -1.
         11   -1    0    0    0    0 -0.00000000000E+00 -0.00000000000E+00 -0.18250000000E+03  0.18250000000E+03  0.00000000000E+00 0.  1.
        -11    1    1    2    0    0 -0.36370510225E+01  0.10941847491E+02  0.15153800053E+03  0.15197604341E+03  0.00000000000E+00 0. -1.
         11    1    1    2    0    0 -0.30638232403E+01 -0.38608320114E+01 -0.17684586325E+03  0.17691453413E+03  0.00000000000E+00 0.  1.
        -15    1    1    2    0    0 -0.22661981716E+01  0.50303026254E+01 -0.86055819093E+00  0.58598539279E+01  0.17770000000E+01 0.  1.
         15    1    1    2    0    0  0.89670724344E+01 -0.12111318105E+02  0.26168420917E+02  0.30249568535E+02  0.17770000000E+01 0. -1.
</event>
<event>
 6    1  0.1045352E-002  0.1852625E+03  0.7546771E-02  0.1066277E+00
        -11   -1    0    0    0    0  0.00000000000E+00  0.00000000000E+00  0.18250000000E+03  0.18250000000E+03  0.00000000000E+00 0. -1.
         11   -1    0    0    0    0 -0.00000000000E+00 -0.00000000000E+00 -0.18250000000E+03  0.18250000000E+03  0.00000000000E+00 0. -1.
        -11    1    1    2    0    0  0.79614922610E+00 -0.87318711506E+01  0.17952352534E+03  0.17973751856E+03  0.00000000000E+00 0. -1.
         11    1    1    2    0    0 -0.17619940827E+01  0.39038600045E+01 -0.90801482718E+02  0.90902442265E+02  0.00000000000E+00 0. -1.
        -15    1    1    2    0    0 -0.86731046492E+00 -0.53676473169E+01 -0.81281384249E+02  0.81482421537E+02  0.17770000000E+01 0. -1.
         15    1    1    2    0    0  0.18331553215E+01  0.10195658463E+02 -0.74406583757E+01  0.12877617636E+02  0.17770000000E+01 0. -1.
</event>
<event>
 6    1  0.1045352E-002  0.1830578E+03  0.7546771E-02  0.1068012E+00
        -11   -1    0    0    0    0  0.00000000000E+00  0.00000000000E+00  0.18250000000E+03  0.18250000000E+03  0.00000000000E+00 0.  1.
         11   -1    0    0    0    0 -0.00000000000E+00 -0.00000000000E+00 -0.18250000000E+03  0.18250000000E+03  0.00000000000E+00 0.  1.
        -11    1    1    2    0    0  0.27561095247E+01  0.19575495424E+01  0.13651143599E+03  0.13655328739E+03  0.00000000000E+00 0.  1.
         11    1    1    2    0    0  0.57576139772E+01 -0.54484294391E+01 -0.18176941127E+03  0.18194217317E+03  0.00000000000E+00 0.  1.
        -15    1    1    2    0    0 -0.21661154695E+01  0.24997524049E+01  0.21666386438E+02  0.21989334883E+02  0.17770000000E+01 0.  1.
         15    1    1    2    0    0 -0.63476080324E+01  0.99112749183E+00  0.23591588844E+02  0.24515204561E+02  0.17770000000E+01 0. -1.
</event>
<event>
 6    1  0.1045352E-002  0.1840125E+03  0.7546771E-02  0.1067257E+00
        -11   -1    0    0    0    0  0.00000000000E+00  0.00000000000E+00  0.18250000000E+03  0.18250000000E+03  0.00000000000E+00 0.  1.
         11   -1    0    0    0    0 -0.00000000000E+00 -0.00000000000E+00 -0.18250000000E+03  0.18250000000E+03  0.00000000000E+00 0.  1.
        -11    1    1    2    0    0  0.54267220799E+01  0.77309327547E+01  0.18074088368E+03  0.18098752351E+03  0.00000000000E+00 0.  1.
         11    1    1    2    0    0 -0.10996246479E+01  0.21775121620E+01 -0.15016636520E+03  0.15018617769E+03  0.00000000000E+00 0.  1.
        -15    1    1    2    0    0 -0.68595891499E+01 -0.80159927755E+01 -0.24771355487E+02  0.26983103697E+02  0.17770000000E+01 0.  1.
         15    1    1    2    0    0  0.25324917179E+01 -0.18924521411E+01 -0.58031629961E+01  0.68431950993E+01  0.17770000000E+01 0. -1.
</event>
<event>
 6    1  0.1045352E-002  0.1849692E+03  0.7546771E-02  0.1066506E+00
        -11   -1    0    0    0    0  0.00000000000E+00  0.00000000000E+00  0.18250000000E+03  0.18250000000E+03  0.00000000000E+00 0. -1.
         11   -1    0    0    0    0 -0.00000000000E+00 -0.00000000000E+00 -0.18250000000E+03  0.18250000000E+03  0.00000000000E+00 0.  1.
        -11    1    1    2    0    0 -0.19141263638E+01 -0.32941898132E+01  0.17999051813E+03  0.18003083676E+03  0.00000000000E+00 0. -1.
         11    1    1    2    0    0  0.73246334167E+00  0.39552776054E+01 -0.17233625217E+03  0.17238319099E+03  0.00000000000E+00 0.  1.
        -15    1    1    2    0    0 -0.68492830612E+00 -0.30739081145E+01  0.54694486904E+00  0.36571731666E+01  0.17770000000E+01 0. -1.
         15    1    1    2    0    0  0.18665913282E+01  0.24128203224E+01 -0.82012108272E+01  0.89287990865E+01  0.17770000000E+01 0. -1.
</event>
<event>
 6    1  0.1045352E-002  0.1728705E+03  0.7546771E-02  0.1076389E+00
        -11   -1    0    0    0    0  0.00000000000E+00  0.00000000000E+00  0.18250000000E+03  0.18250000000E+03  0.00000000000E+00 0. -1.
         11   -1    0    0    0    0 -0.00000000000E+00 -0.00000000000E+00 -0.18250000000E+03  0.18250000000E+03  0.00000000000E+00 0. -1.
        -11    1    1    2    0    0  0.45118068213E+01 -0.24606432834E+01  0.17473944316E+03  0.17481499982E+03  0.00000000000E+00 0. -1.
         11    1    1    2    0    0  0.23693854433E+01  0.22870770521E+01 -0.17098314035E+03  0.17101485022E+03  0.00000000000E+00 0. -1.
        -15    1    1    2    0    0 -0.41994292544E+01 -0.43569011320E+01 -0.93548835787E+01  0.11282259052E+02  0.17770000000E+01 0. -1.
         15    1    1    2    0    0 -0.26817630102E+01  0.45304673634E+01  0.55985807736E+01  0.78878909128E+01  0.17770000000E+01 0. -1.
</event>
<event>
 6    1  0.1045352E-002  0.1755607E+03  0.7546771E-02  0.1074117E+00
        -11   -1    0    0    0    0  0.00000000000E+00  0.00000000000E+00  0.18250000000E+03  0.18250000000E+03  0.00000000000E+00 0. -1.
         11   -1    0    0    0    0 -0.00000000000E+00 -0.00000000000E+00 -0.18250000000E+03  0.18250000000E+03  0.00000000000E+00 0. -1.
        -11    1    1    2    0    0  0.48784250790E+01 -0.16197744385E+01  0.17629263992E+03  0.17636756388E+03  0.00000000000E+00 0. -1.
         11    1    1    2    0    0  0.12802030376E+01  0.21844113230E+01 -0.17479311448E+03  0.17481145112E+03  0.00000000000E+00 0. -1.
        -15    1    1    2    0    0 -0.59932318474E+01 -0.56006343627E+01 -0.10670838237E+01  0.84606341446E+01  0.17770000000E+01 0.  1.
         15    1    1    2    0    0 -0.16539626928E+00  0.50359974783E+01 -0.43244161415E+00  0.53603508539E+01  0.17770000000E+01 0. -1.
</event>
<event>
 6    1  0.1045352E-002  0.1828207E+03  0.7546771E-02  0.1068200E+00
        -11   -1    0    0    0    0  0.00000000000E+00  0.00000000000E+00  0.18250000000E+03  0.18250000000E+03  0.00000000000E+00 0.  1.
         11   -1    0    0    0    0 -0.00000000000E+00 -0.00000000000E+00 -0.18250000000E+03  0.18250000000E+03  0.00000000000E+00 0. -1.
        -11    1    1    2    0    0  0.54363996242E+00 -0.53465741749E+00  0.15424053915E+02  0.15442889695E+02  0.00000000000E+00 0.  1.
         11    1    1    2    0    0  0.24127845089E+01  0.74805150013E+00 -0.18216176685E+03  0.18217928097E+03  0.00000000000E+00 0. -1.
        -15    1    1    2    0    0 -0.23587415091E+01 -0.88944594062E+00  0.16379327410E+03  0.16382230967E+03  0.17770000000E+01 0.  1.
         15    1    1    2    0    0 -0.59768296226E+00  0.67605185797E+00  0.29444388352E+01  0.35555196656E+01  0.17770000000E+01 0. -1.
</event>
<event>
 6    1  0.1045352E-002  0.1828438E+03  0.7546771E-02  0.1068181E+00
        -11   -1    0    0    0    0  0.00000000000E+00  0.00000000000E+00  0.18250000000E+03  0.18250000000E+03  0.00000000000E+00 0. -1.
         11   -1    0    0    0    0 -0.00000000000E+00 -0.00000000000E+00 -0.18250000000E+03  0.18250000000E+03  0.00000000000E+00 0. -1.
        -11    1    1    2    0    0 -0.26620387399E+01  0.46794509694E+00  0.18213616470E+03  0.18215621843E+03  0.00000000000E+00 0. -1.
         11    1    1    2    0    0  0.14537105659E+01 -0.13530945729E+01 -0.10520289055E+03  0.10522163427E+03  0.00000000000E+00 0. -1.
        -15    1    1    2    0    0  0.43120840478E+01  0.12531411267E+00 -0.18665137323E+02  0.19239408846E+02  0.17770000000E+01 0. -1.
         15    1    1    2    0    0 -0.31037558737E+01  0.75983536328E+00 -0.58268136826E+02  0.58382738446E+02  0.17770000000E+01 0. -1.
</event>
<event>
 6    1  0.1045352E-002  0.1668872E+03  0.7546771E-02  0.1081610E+00
        -11   -1    0    0    0    0  0.00000000000E+00  0.00000000000E+00  0.18250000000E+03  0.18250000000E+03  0.00000000000E+00 0. -1.
         11   -1    0    0    0    0 -0.00000000000E+00 -0.00000000000E+00 -0.18250000000E+03  0.18250000000E+03  0.00000000000E+00 0. -1.
        -11    1    1    2    0    0 -0.10974405178E+02 -0.90962998389E+01  0.16577389109E+03  0.16638558593E+03  0.00000000000E+00 0. -1.
         11    1    1    2    0    0 -0.28290838741E+01  0.68807652610E+01 -0.16752100733E+03  0.16768612508E+03  0.00000000000E+00 0. -1.
        -15    1    1    2    0    0  0.44040964569E+01  0.69113520293E+01  0.12974719284E+02  0.15448751470E+02  0.17770000000E+01 0. -1.
         15    1    1    2    0    0  0.93993925950E+01 -0.46958174513E+01 -0.11227603039E+02  0.15479537515E+02  0.17770000000E+01 0.  1.
</event>
<event>
 6    1  0.1045352E-002  0.1873207E+03  0.7546771E-02  0.1064681E+00
        -11   -1    0    0    0    0  0.00000000000E+00  0.00000000000E+00  0.18250000000E+03  0.18250000000E+03  0.00000000000E+00 0. -1.
         11   -1    0    0    0    0 -0.00000000000E+00 -0.00000000000E+00 -0.18250000000E+03  0.18250000000E+03  0.00000000000E+00 0.  1.
        -11    1    1    2    0    0 -0.19645070316E+01  0.43230073197E+01  0.17761580449E+03  0.17767926633E+03  0.00000000000E+00 0. -1.
         11    1    1    2    0    0  0.11301123268E+01  0.43068482452E+01 -0.16551254072E+03  0.16557242292E+03  0.00000000000E+00 0.  1.
        -15    1    1    2    0    0  0.24025118086E+01 -0.10171446911E+02 -0.14184750687E+01  0.10695802718E+02  0.17770000000E+01 0. -1.
         15    1    1    2    0    0 -0.15681171038E+01  0.15415913464E+01 -0.10684788700E+02  0.11052508027E+02  0.17770000000E+01 0.  1.
</event>
<event>
 6    1  0.1045352E-002  0.1868752E+03  0.7546771E-02  0.1065024E+00
        -11   -1    0    0    0    0  0.00000000000E+00  0.00000000000E+00  0.18250000000E+03  0.18250000000E+03  0.00000000000E+00 0.  1.
         11   -1    0    0    0    0 -0.00000000000E+00 -0.00000000000E+00 -0.18250000000E+03  0.18250000000E+03  0.00000000000E+00 0.  1.
        -11    1    1    2    0    0 -0.66629005700E+00  0.23836888203E+01  0.16880640869E+03  0.16882455251E+03  0.00000000000E+00 0.  1.
         11    1    1    2    0    0  0.50358036289E+01  0.60537503402E+01 -0.17795061048E+03  0.17812475117E+03  0.00000000000E+00 0.  1.
        -15    1    1    2    0    0 -0.51385595401E+01 -0.65927346603E+01  0.23081134488E-01  0.85455957187E+01  0.17770000000E+01 0. -1.
         15    1    1    2    0    0  0.76904596822E+00 -0.18447045002E+01  0.91211206542E+01  0.95051005982E+01  0.17770000000E+01 0. -1.
</event>
<event>
 6    1  0.1045352E-002  0.1827189E+03  0.7546771E-02  0.1068281E+00
        -11   -1    0    0    0    0  0.00000000000E+00  0.00000000000E+00  0.18250000000E+03  0.18250000000E+03  0.00000000000E+00 0.  1.
         11   -1    0    0    0    0 -0.00000000000E+00 -0.00000000000E+00 -0.18250000000E+03  0.18250000000E+03  0.00000000000E+00 0.  1.
        -11    1    1    2    0    0 -0.41911029865E+01  0.16803917984E+01  0.45105023504E+02  0.45330477674E+02  0.00000000000E+00 0.  1.
         11    1    1    2    0    0  0.17333320113E+01 -0.17650739998E+01 -0.18226435307E+03  0.18228114089E+03  0.00000000000E+00 0.  1.
        -15    1    1    2    0    0  0.69003322232E+00  0.17959924778E+01  0.17914775050E+02  0.18105209994E+02  0.17770000000E+01 0.  1.
         15    1    1    2    0    0  0.17677377528E+01 -0.17113102765E+01  0.11924455451E+03  0.11928317144E+03  0.17770000000E+01 0. -1.
</event>
<event>
 6    1  0.1045352E-002  0.1826456E+03  0.7546771E-02  0.1068339E+00
        -11   -1    0    0    0    0  0.00000000000E+00  0.00000000000E+00  0.18250000000E+03  0.18250000000E+03  0.00000000000E+00 0. -1.
         11   -1    0    0    0    0 -0.00000000000E+00 -0.00000000000E+00 -0.18250000000E+03  0.18250000000E+03  0.00000000000E+00 0. -1.
        -11    1    1    2    0    0 -0.14584058819E+01 -0.16299854816E+00  0.47718438613E+02  0.47740998104E+02  0.00000000000E+00 0. -1.
         11    1    1    2    0    0  0.66116359355E+01 -0.39104695943E+01 -0.18219257001E+03  0.18235442981E+03  0.00000000000E+00 0. -1.
        -15    1    1    2    0    0 -0.62471037178E+01  0.35881246984E+01  0.69471325691E+02  0.69866470971E+02  0.17770000000E+01 0. -1.
         15    1    1    2    0    0  0.10938736643E+01  0.48534344404E+00  0.65002805710E+02  0.65038101118E+02  0.17770000000E+01 0. -1.
</event>
<event>
 6    1  0.1045352E-002  0.1881730E+03  0.7546771E-02  0.1064027E+00
        -11   -1    0    0    0    0  0.00000000000E+00  0.00000000000E+00  0.18250000000E+03  0.18250000000E+03  0.00000000000E+00 0.  1.
         11   -1    0    0    0    0 -0.00000000000E+00 -0.00000000000E+00 -0.18250000000E+03  0.18250000000E+03  0.00000000000E+00 0.  1.
        -11    1    1    2    0    0  0.14988139889E+01 -0.63792040377E+01  0.16811941649E+03  0.16824707691E+03  0.00000000000E+00 0.  1.
         11    1    1    2    0    0 -0.38583282430E+01  0.49397452903E+00 -0.17678417716E+03  0.17682696627E+03  0.00000000000E+00 0.  1.
        -15    1    1    2    0    0  0.32263965186E+01 -0.28157232495E+01 -0.27861545432E+01  0.54090958627E+01  0.17770000000E+01 0.  1.
         15    1    1    2    0    0 -0.86688226459E+00  0.87009527582E+01  0.11450915216E+02  0.14516860957E+02  0.17770000000E+01 0. -1.
</event>
<event>
 6    1  0.1045352E-002  0.1863294E+03  0.7546771E-02  0.1065447E+00
        -11   -1    0    0    0    0  0.00000000000E+00  0.00000000000E+00  0.18250000000E+03  0.18250000000E+03  0.00000000000E+00 0.  1.
         11   -1    0    0    0    0 -0.00000000000E+00 -0.00000000000E+00 -0.18250000000E+03  0.18250000000E+03  0.00000000000E+00 0.  1.
        -11    1    1    2    0    0 -0.37801112748E+01  0.36321344694E+01  0.17859366694E+03  0.17867058939E+03  0.00000000000E+00 0.  1.
         11    1    1    2    0    0 -0.43516515237E+01 -0.14167391994E+02 -0.66610450793E+02  0.68239314341E+02  0.00000000000E+00 0.  1.
        -15    1    1    2    0    0 -0.12180249250E+01  0.14843688783E+02 -0.17573813666E+02  0.23104444100E+02  0.17770000000E+01 0. -1.
         15    1    1    2    0    0  0.93497877235E+01 -0.43084312582E+01 -0.94409402486E+02  0.94985652165E+02  0.17770000000E+01 0.  1.
</event>
<event>
 6    1  0.1045352E-002  0.1827833E+03  0.7546771E-02  0.1068230E+00
        -11   -1    0    0    0    0  0.00000000000E+00  0.00000000000E+00  0.18250000000E+03  0.18250000000E+03  0.00000000000E+00 0. -1.
         11   -1    0    0    0    0 -0.00000000000E+00 -0.00000000000E+00 -0.18250000000E+03  0.18250000000E+03  0.00000000000E+00 0. -1.
        -11    1    1    2    0    0 -0.10285798252E+02 -0.67845044793E+01  0.18179965196E+03  0.18221674073E+03  0.00000000000E+00 0. -1.
         11    1    1    2    0    0 -0.71805946657E+00 -0.11202604557E+01 -0.14092472561E+02  0.14155153683E+02  0.00000000000E+00 0. -1.
        -15    1    1    2    0    0 -0.11576559254E+01  0.18379596247E+01 -0.58025646235E+02  0.58093473066E+02  0.17770000000E+01 0. -1.
         15    1    1    2    0    0  0.12161513644E+02  0.60668053103E+01 -0.10968153317E+03  0.11053463253E+03  0.17770000000E+01 0. -1.
</event>
<event>
 6    1  0.1045352E-002  0.1827263E+03  0.7546771E-02  0.1068275E+00
        -11   -1    0    0    0    0  0.00000000000E+00  0.00000000000E+00  0.18250000000E+03  0.18250000000E+03  0.00000000000E+00 0.  1.
         11   -1    0    0    0    0 -0.00000000000E+00 -0.00000000000E+00 -0.18250000000E+03  0.18250000000E+03  0.00000000000E+00 0.  1.
        -11    1    1    2    0    0 -0.66998693132E-01 -0.15368769014E+01  0.10948245362E+03  0.10949326066E+03  0.00000000000E+00 0.  1.
         11    1    1    2    0    0  0.16532397130E+01 -0.52499259867E+01 -0.18219060494E+03  0.18227372672E+03  0.00000000000E+00 0.  1.
        -15    1    1    2    0    0  0.65832845073E+00  0.83523846571E+00  0.21830025531E+02  0.21928036011E+02  0.17770000000E+01 0. -1.
         15    1    1    2    0    0 -0.22445694706E+01  0.59515644223E+01  0.50878125794E+02  0.51304976606E+02  0.17770000000E+01 0.  1.
</event>
<event>
 6    1  0.1045352E-002  0.1844738E+03  0.7546771E-02  0.1066894E+00
        -11   -1    0    0    0    0  0.00000000000E+00  0.00000000000E+00  0.18250000000E+03  0.18250000000E+03  0.00000000000E+00 0.  1.
         11   -1    0    0    0    0 -0.00000000000E+00 -0.00000000000E+00 -0.18250000000E+03  0.18250000000E+03  0.00000000000E+00 0.  1.
        -11    1    1    2    0    0  0.15849344381E+01 -0.35242855112E+01  0.18511783705E+02  0.18910810175E+02  0.00000000000E+00 0.  1.
         11    1    1    2    0    0  0.23213749953E+01 -0.94985380883E+00 -0.18050873390E+03  0.18052615882E+03  0.00000000000E+00 0.  1.
        -15    1    1    2    0    0  0.64851747265E+01 -0.77466272492E+00  0.14334252974E+03  0.14350225140E+03  0.17770000000E+01 0.  1.
         15    1    1    2    0    0 -0.10391484160E+02  0.52488020450E+01  0.18654420446E+02  0.22060779613E+02  0.17770000000E+01 0. -1.
</event>
<event>
 6    1  0.1045352E-002  0.2188476E+03  0.7546771E-02  0.1042719E+00
        -11   -1    0    0    0    0  0.00000000000E+00  0.00000000000E+00  0.18250000000E+03  0.18250000000E+03  0.00000000000E+00 0. -1.
         11   -1    0    0    0    0 -0.00000000000E+00 -0.00000000000E+00 -0.18250000000E+03  0.18250000000E+03  0.00000000000E+00 0. -1.
        -11    1    1    2    0    0  0.17493173032E+01  0.27919688456E+01  0.11837114284E+03  0.11841698635E+03  0.00000000000E+00 0. -1.
         11    1    1    2    0    0 -0.16262032596E+01 -0.18801955498E+01 -0.14613128189E+03  0.14615242461E+03  0.00000000000E+00 0. -1.
        -15    1    1    2    0    0  0.28490329838E+02 -0.49646713817E+01  0.54047373365E+02  0.61323919908E+02  0.17770000000E+01 0.  1.
         15    1    1    2    0    0 -0.28613443882E+02  0.40528980858E+01 -0.26287234311E+02  0.39106669129E+02  0.17770000000E+01 0. -1.
</event>
<event>
 6    1  0.1045352E-002  0.1871137E+03  0.7546771E-02  0.1064841E+00
        -11   -1    0    0    0    0  0.00000000000E+00  0.00000000000E+00  0.18250000000E+03  0.18250000000E+03  0.00000000000E+00 0. -1.
         11   -1    0    0    0    0 -0.00000000000E+00 -0.00000000000E+00 -0.18250000000E+03  0.18250000000E+03  0.00000000000E+00 0.  1.
        -11    1    1    2    0    0  0.11219301231E+02 -0.12244019619E+01  0.13581226657E+03  0.13628038609E+03  0.00000000000E+00 0. -1.
         11    1    1    2    0    0  0.10822169465E+02  0.40439891535E+01 -0.17751077190E+03  0.17788633264E+03  0.00000000000E+00 0.  1.
        -15    1    1    2    0    0 -0.15329772802E+02 -0.19744775010E+01  0.10284736579E+02  0.18650309141E+02  0.17770000000E+01 0. -1.
         15    1    1    2    0    0 -0.67116978936E+01 -0.84510969066E+00  0.31413768751E+02  0.32182972131E+02  0.17770000000E+01 0. -1.
</event>
<event>
 6    1  0.1045352E-002  0.1827207E+03  0.7546771E-02  0.1068279E+00
        -11   -1    0    0    0    0  0.00000000000E+00  0.00000000000E+00  0.18250000000E+03  0.18250000000E+03  0.00000000000E+00 0. -1.
         11   -1    0    0    0    0 -0.00000000000E+00 -0.00000000000E+00 -0.18250000000E+03  0.18250000000E+03  0.00000000000E+00 0. -1.
        -11    1    1    2    0    0 -0.11781538317E+01  0.36071984211E+01  0.18223979847E+03  0.18227930237E+03  0.00000000000E+00 0. -1.
         11    1    1    2    0    0  0.58634226132E+00  0.15711120207E+01 -0.24015956928E+02  0.24074434103E+02  0.00000000000E+00 0. -1.
        -15    1    1    2    0    0  0.27817625661E+01 -0.63911482907E+01 -0.13833420202E+03  0.13852109644E+03  0.17770000000E+01 0. -1.
         15    1    1    2    0    0 -0.21899509957E+01  0.12128378489E+01 -0.19889639521E+02  0.20125167087E+02  0.17770000000E+01 0. -1.
</event>
<event>
 6    1  0.1045352E-002  0.1839612E+03  0.7546771E-02  0.1067298E+00
        -11   -1    0    0    0    0  0.00000000000E+00  0.00000000000E+00  0.18250000000E+03  0.18250000000E+03  0.00000000000E+00 0. -1.
         11   -1    0    0    0    0 -0.00000000000E+00 -0.00000000000E+00 -0.18250000000E+03  0.18250000000E+03  0.00000000000E+00 0.  1.
        -11    1    1    2    0    0 -0.74798613950E+01 -0.57328330660E+01  0.18079336135E+03  0.18103881686E+03  0.00000000000E+00 0. -1.
         11    1    1    2    0    0  0.18831821116E+01 -0.44221989909E+01 -0.14570453462E+03  0.14578379069E+03  0.00000000000E+00 0.  1.
        -15    1    1    2    0    0 -0.90260536845E+00  0.30489790007E+01 -0.18974139296E+02  0.19320627847E+02  0.17770000000E+01 0. -1.
         15    1    1    2    0    0  0.64992846518E+01  0.71060530562E+01 -0.16114687440E+02  0.18856764603E+02  0.17770000000E+01 0.  1.
</event>
<event>
 6    1  0.1045352E-002  0.1858620E+03  0.7546771E-02  0.1065810E+00
        -11   -1    0    0    0    0  0.00000000000E+00  0.00000000000E+00  0.18250000000E+03  0.18250000000E+03  0.00000000000E+00 0. -1.
         11   -1    0    0    0    0 -0.00000000000E+00 -0.00000000000E+00 -0.18250000000E+03  0.18250000000E+03  0.00000000000E+00 0. -1.
        -11    1    1    2    0    0 -0.37477603376E+01 -0.88589872281E+00  0.17332033081E+03  0.17336310910E+03  0.00000000000E+00 0. -1.
         11    1    1    2    0    0 -0.34130533607E+01  0.34055905574E+01 -0.17907313637E+03  0.17913803378E+03  0.00000000000E+00 0. -1.
        -15    1    1    2    0    0  0.70900509678E+01 -0.40341463525E+00  0.63267611440E+01  0.96755982589E+01  0.17770000000E+01 0.  1.
         15    1    1    2    0    0  0.70762730568E-01 -0.21162771993E+01 -0.57395558986E+00  0.28232588559E+01  0.17770000000E+01 0. -1.
</event>
<event>
 6    1  0.1045352E-002  0.1897590E+03  0.7546771E-02  0.1062819E+00
        -11   -1    0    0    0    0  0.00000000000E+00  0.00000000000E+00  0.18250000000E+03  0.18250000000E+03  0.00000000000E+00 0. -1.
         11   -1    0    0    0    0 -0.00000000000E+00 -0.00000000000E+00 -0.18250000000E+03  0.18250000000E+03  0.00000000000E+00 0. -1.
        -11    1    1    2    0    0 -0.31269848849E+01 -0.37136213793E+01  0.16734687449E+03  0.16741727934E+03  0.00000000000E+00 0. -1.
         11    1    1    2    0    0 -0.37410614328E+01  0.81611077773E+01 -0.17501085269E+03  0.17524097061E+03  0.00000000000E+00 0. -1.
        -15    1    1    2    0    0 -0.32519384522E+00 -0.69309722767E+01 -0.40742170508E+01  0.82402124556E+01  0.17770000000E+01 0.  1.
         15    1    1    2    0    0  0.71932401629E+01  0.24834858787E+01  0.11738195245E+02  0.14101537603E+02  0.17770000000E+01 0. -1.
</event>
<event>
 6    1  0.1045352E-002  0.2127281E+03  0.7546771E-02  0.1046654E+00
        -11   -1    0    0    0    0  0.00000000000E+00  0.00000000000E+00  0.18250000000E+03  0.18250000000E+03  0.00000000000E+00 0.  1.
         11   -1    0    0    0    0 -0.00000000000E+00 -0.00000000000E+00 -0.18250000000E+03  0.18250000000E+03  0.00000000000E+00 0. -1.
        -11    1    1    2    0    0 -0.14336536229E+02  0.30871847608E+01  0.11797453178E+03  0.11888253500E+03  0.00000000000E+00 0.  1.
         11    1    1    2    0    0  0.42479749949E+01  0.15623563227E+02 -0.15140869677E+03  0.15227190968E+03  0.00000000000E+00 0. -1.
        -15    1    1    2    0    0  0.35501003225E+01 -0.31743462580E+02 -0.20467712519E+02  0.37978093865E+02  0.17770000000E+01 0.  1.
         15    1    1    2    0    0  0.65384609113E+01  0.13032714592E+02  0.53901877514E+02  0.55867461454E+02  0.17770000000E+01 0. -1.
</event>
<event>
 6    1  0.1045352E-002  0.1838843E+03  0.7546771E-02  0.1067358E+00
        -11   -1    0    0    0    0  0.00000000000E+00  0.00000000000E+00  0.18250000000E+03  0.18250000000E+03  0.00000000000E+00 0. -1.
         11   -1    0    0    0    0 -0.00000000000E+00 -0.00000000000E+00 -0.18250000000E+03  0.18250000000E+03  0.00000000000E+00 0.  1.
        -11    1    1    2    0    0  0.47775743666E+01 -0.12535831866E+01  0.18104834126E+03  0.18111570490E+03  0.00000000000E+00 0. -1.
         11    1    1    2    0    0 -0.17052971622E+01  0.15661215998E+01 -0.17088738760E+03  0.17090307199E+03  0.00000000000E+00 0.  1.
        -15    1    1    2    0    0  0.69648979625E-01 -0.52973630089E+00 -0.89910439121E+01  0.91805267365E+01  0.17770000000E+01 0.  1.
         15    1    1    2    0    0 -0.31419261840E+01  0.21719788769E+00 -0.11699097498E+01  0.38006963692E+01  0.17770000000E+01 0. -1.
</event>
<event>
 6    1  0.1045352E-002  0.1866829E+03  0.7546771E-02  0.1065173E+00
        -11   -1    0    0    0    0  0.00000000000E+00  0.00000000000E+00  0.18250000000E+03  0.18250000000E+03  0.00000000000E+00 0.  1.
         11   -1    0    0    0    0 -0.00000000000E+00 -0.00000000000E+00 -0.18250000000E+03  0.18250000000E+03  0.00000000000E+00 0. -1.
        -11    1    1    2    0    0 -0.30765476927E+01 -0.16214131919E+01  0.17828315271E+03  0.17831706779E+03  0.00000000000E+00 0.  1.
         11    1    1    2    0    0 -0.31979483579E+01 -0.41642625273E+00 -0.16363840894E+03  0.16367018411E+03  0.00000000000E+00 0. -1.
        -15    1    1    2    0    0  0.46184541033E+01  0.20710203885E+01  0.23418637198E+01  0.58533151663E+01  0.17770000000E+01 0. -1.
         15    1    1    2    0    0  0.16560419473E+01 -0.33180943821E-01 -0.16986607485E+02  0.17159432939E+02  0.17770000000E+01 0. -1.
</event>
<event>
 6    1  0.1045352E-002  0.1827202E+03  0.7546771E-02  0.1068280E+00
        -11   -1    0    0    0    0  0.00000000000E+00  0.00000000000E+00  0.18250000000E+03  0.18250000000E+03  0.00000000000E+00 0.  1.
         11   -1    0    0    0    0 -0.00000000000E+00 -0.00000000000E+00 -0.18250000000E+03  0.18250000000E+03  0.00000000000E+00 0. -1.
        -11    1    1    2    0    0 -0.72904042501E+00  0.10330083001E+01  0.80468700925E+01  0.81455953972E+01  0.00000000000E+00 0.  1.
         11    1    1    2    0    0 -0.42880276837E+01  0.20484099131E+00 -0.18222920919E+03  0.18227976800E+03  0.00000000000E+00 0. -1.
        -15    1    1    2    0    0  0.19132076122E+01  0.31390497724E+01  0.29419842021E+02  0.29701832105E+02  0.17770000000E+01 0. -1.
         15    1    1    2    0    0  0.31038604965E+01 -0.43768990639E+01  0.14476249707E+03  0.14487280450E+03  0.17770000000E+01 0.  1.
</event>
<event>
 6    1  0.1045352E-002  0.1829693E+03  0.7546771E-02  0.1068082E+00
        -11   -1    0    0    0    0  0.00000000000E+00  0.00000000000E+00  0.18250000000E+03  0.18250000000E+03  0.00000000000E+00 0.  1.
         11   -1    0    0    0    0 -0.00000000000E+00 -0.00000000000E+00 -0.18250000000E+03  0.18250000000E+03  0.00000000000E+00 0.  1.
        -11    1    1    2    0    0 -0.15475852528E+01 -0.25009413594E+01  0.18200697339E+03  0.18203073392E+03  0.00000000000E+00 0.  1.
         11    1    1    2    0    0  0.17241187870E+01  0.14863829479E+01 -0.16874352873E+03  0.16875888245E+03  0.00000000000E+00 0.  1.
        -15    1    1    2    0    0  0.19992848413E+00 -0.97610766973E+00 -0.84678985850E+01  0.87095231229E+01  0.17770000000E+01 0. -1.
         15    1    1    2    0    0 -0.37646201829E+00  0.19906660812E+01 -0.47955460799E+01  0.55008605057E+01  0.17770000000E+01 0. -1.
</event>
<event>
 6    1  0.1045352E-002  0.1857852E+03  0.7546771E-02  0.1065869E+00
        -11   -1    0    0    0    0  0.00000000000E+00  0.00000000000E+00  0.18250000000E+03  0.18250000000E+03  0.00000000000E+00 0. -1.
         11   -1    0    0    0    0 -0.00000000000E+00 -0.00000000000E+00 -0.18250000000E+03  0.18250000000E+03  0.00000000000E+00 0.  1.
        -11    1    1    2    0    0  0.21556785865E+01 -0.32168700077E+01  0.16811043178E+03  0.16815502513E+03  0.00000000000E+00 0. -1.
         11    1    1    2    0    0 -0.16123767136E+01  0.18813896163E+01 -0.17919771272E+03  0.17921484210E+03  0.00000000000E+00 0.  1.
        -15    1    1    2    0    0  0.18346382342E+01 -0.12193758554E+01 -0.23217986823E+01  0.36607721929E+01  0.17770000000E+01 0.  1.
         15    1    1    2    0    0 -0.23779401071E+01  0.25548562469E+01  0.13409079625E+02  0.13969360579E+02  0.17770000000E+01 0.  1.
</event>
<event>
 6    1  0.1045352E-002  0.1844834E+03  0.7546771E-02  0.1066887E+00
        -11   -1    0    0    0    0  0.00000000000E+00  0.00000000000E+00  0.18250000000E+03  0.18250000000E+03  0.00000000000E+00 0.  1.
         11   -1    0    0    0    0 -0.00000000000E+00 -0.00000000000E+00 -0.18250000000E+03  0.18250000000E+03  0.00000000000E+00 0.  1.
        -11    1    1    2    0    0 -0.14485586426E+01  0.84053850147E+01  0.16695904840E+03  0.16717677070E+03  0.00000000000E+00 0.  1.
         11    1    1    2    0    0 -0.14489682981E+01 -0.41982212734E+01 -0.18046193482E+03  0.18051657678E+03  0.00000000000E+00 0.  1.
        -15    1    1    2    0    0  0.29499219077E+01 -0.26582561373E+01  0.14197105555E+02  0.14848700283E+02  0.17770000000E+01 0.  1.
         15    1    1    2    0    0 -0.52394967026E-01 -0.15489076040E+01 -0.69421913098E+00  0.24579522372E+01  0.17770000000E+01 0. -1.
</event>
<event>
 6    1  0.1045352E-002  0.1827263E+03  0.7546771E-02  0.1068275E+00
        -11   -1    0    0    0    0  0.00000000000E+00  0.00000000000E+00  0.18250000000E+03  0.18250000000E+03  0.00000000000E+00 0.  1.
         11   -1    0    0    0    0 -0.00000000000E+00 -0.00000000000E+00 -0.18250000000E+03  0.18250000000E+03  0.00000000000E+00 0. -1.
        -11    1    1    2    0    0  0.15492957825E+01  0.25674354822E+00  0.10187497812E+03  0.10188708162E+03  0.00000000000E+00 0.  1.
         11    1    1    2    0    0 -0.27836580238E+01  0.30877092294E+01 -0.18222632839E+03  0.18227374320E+03  0.00000000000E+00 0. -1.
        -15    1    1    2    0    0  0.32377546995E+01 -0.26699515366E+01  0.69239014307E+02  0.69388835759E+02  0.17770000000E+01 0. -1.
         15    1    1    2    0    0 -0.20033924581E+01 -0.67450124100E+00  0.11112335968E+02  0.11450339424E+02  0.17770000000E+01 0. -1.
</event>
<event>
 6    1  0.1045352E-002  0.1848047E+03  0.7546771E-02  0.1066635E+00
        -11   -1    0    0    0    0  0.00000000000E+00  0.00000000000E+00  0.18250000000E+03  0.18250000000E+03  0.00000000000E+00 0.  1.
         11   -1    0    0    0    0 -0.00000000000E+00 -0.00000000000E+00 -0.18250000000E+03  0.18250000000E+03  0.00000000000E+00 0.  1.
        -11    1    1    2    0    0  0.36100053106E+01  0.59613828704E+00  0.18015816090E+03  0.18019531197E+03  0.00000000000E+00 0.  1.
         11    1    1    2    0    0  0.66354241144E+01 -0.11318431557E+01 -0.14451504180E+03  0.14467172228E+03  0.00000000000E+00 0.  1.
        -15    1    1    2    0    0 -0.10589382761E+02 -0.17312154737E+01 -0.11546127680E+02  0.15861996333E+02  0.17770000000E+01 0. -1.
         15    1    1    2    0    0  0.34395333569E+00  0.22669203424E+01 -0.24096991422E+02  0.24270969415E+02  0.17770000000E+01 0.  1.
</event>
<event>
 6    1  0.1045352E-002  0.1831492E+03  0.7546771E-02  0.1067939E+00
        -11   -1    0    0    0    0  0.00000000000E+00  0.00000000000E+00  0.18250000000E+03  0.18250000000E+03  0.00000000000E+00 0.  1.
         11   -1    0    0    0    0 -0.00000000000E+00 -0.00000000000E+00 -0.18250000000E+03  0.18250000000E+03  0.00000000000E+00 0. -1.
        -11    1    1    2    0    0 -0.46994302098E+00  0.44095173119E+01  0.18179674544E+03  0.18185082167E+03  0.00000000000E+00 0.  1.
         11    1    1    2    0    0 -0.42125869812E+00  0.36514835090E+01 -0.96719714575E+02  0.96789534445E+02  0.00000000000E+00 0. -1.
        -15    1    1    2    0    0  0.46350471238E+01 -0.74049569828E+01 -0.35382508713E+02  0.36488309108E+02  0.17770000000E+01 0.  1.
         15    1    1    2    0    0 -0.37438454047E+01 -0.65604383807E+00 -0.49694522150E+02  0.49871334779E+02  0.17770000000E+01 0. -1.
</event>
<event>
 6    1  0.1045352E-002  0.1853810E+03  0.7546771E-02  0.1066184E+00
        -11   -1    0    0    0    0  0.00000000000E+00  0.00000000000E+00  0.18250000000E+03  0.18250000000E+03  0.00000000000E+00 0. -1.
         11   -1    0    0    0    0 -0.00000000000E+00 -0.00000000000E+00 -0.18250000000E+03  0.18250000000E+03  0.00000000000E+00 0. -1.
        -11    1    1    2    0    0 -0.40449497884E+01  0.23128536657E+01  0.17955854786E+03  0.17961899404E+03  0.00000000000E+00 0. -1.
         11    1    1    2    0    0  0.34377677409E+01  0.80312864461E+01 -0.15377999957E+03  0.15402794577E+03  0.00000000000E+00 0. -1.
        -15    1    1    2    0    0 -0.25812836290E+01 -0.16730724542E+01  0.36219826995E+00  0.35708700896E+01  0.17770000000E+01 0.  1.
         15    1    1    2    0    0  0.31884656765E+01 -0.86710676576E+01 -0.26140746556E+02  0.27782190108E+02  0.17770000000E+01 0. -1.
</event>
<event>
 6    1  0.1045352E-002  0.1842176E+03  0.7546771E-02  0.1067096E+00
        -11   -1    0    0    0    0  0.00000000000E+00  0.00000000000E+00  0.18250000000E+03  0.18250000000E+03  0.00000000000E+00 0. -1.
         11   -1    0    0    0    0 -0.00000000000E+00 -0.00000000000E+00 -0.18250000000E+03  0.18250000000E+03  0.00000000000E+00 0. -1.
        -11    1    1    2    0    0  0.21759593394E+01 -0.22785660872E+01  0.18075492611E+03  0.18078238292E+03  0.00000000000E+00 0. -1.
         11    1    1    2    0    0  0.47799247907E+01 -0.76278530957E+00 -0.16373097597E+03  0.16380250918E+03  0.00000000000E+00 0. -1.
        -15    1    1    2    0    0 -0.30818653934E+00 -0.95085938380E+00 -0.53573684335E+00  0.21080454160E+01  0.17770000000E+01 0. -1.
         15    1    1    2    0    0 -0.66476975908E+01  0.39922107806E+01 -0.16488213293E+02  0.18307062483E+02  0.17770000000E+01 0. -1.
</event>
<event>
 6    1  0.1045352E-002  0.1716528E+03  0.7546771E-02  0.1077433E+00
        -11   -1    0    0    0    0  0.00000000000E+00  0.00000000000E+00  0.18250000000E+03  0.18250000000E+03  0.00000000000E+00 0.  1.
         11   -1    0    0    0    0 -0.00000000000E+00 -0.00000000000E+00 -0.18250000000E+03  0.18250000000E+03  0.00000000000E+00 0.  1.
        -11    1    1    2    0    0  0.68154449782E+01  0.35599060063E+01  0.17571070038E+03  0.17587886015E+03  0.00000000000E+00 0.  1.
         11    1    1    2    0    0  0.74579460873E+00  0.69174898375E+01 -0.16762066533E+03  0.16776500029E+03  0.00000000000E+00 0.  1.
        -15    1    1    2    0    0 -0.50365113880E+01 -0.11755762980E+02 -0.34019168425E+00  0.12916573446E+02  0.17770000000E+01 0.  1.
         15    1    1    2    0    0 -0.25247281989E+01  0.12783671358E+01 -0.77498433644E+01  0.84395661135E+01  0.17770000000E+01 0. -1.
</event>
<event>
 6    1  0.1045352E-002  0.1836141E+03  0.7546771E-02  0.1067571E+00
        -11   -1    0    0    0    0  0.00000000000E+00  0.00000000000E+00  0.18250000000E+03  0.18250000000E+03  0.00000000000E+00 0.  1.
         11   -1    0    0    0    0 -0.00000000000E+00 -0.00000000000E+00 -0.18250000000E+03  0.18250000000E+03  0.00000000000E+00 0.  1.
        -11    1    1    2    0    0 -0.50456797505E+01  0.10059194573E+01  0.18131290865E+03  0.18138589141E+03  0.00000000000E+00 0.  1.
         11    1    1    2    0    0 -0.23426910537E+01  0.11641892557E+01 -0.13469826207E+03  0.13472366290E+03  0.00000000000E+00 0.  1.
        -15    1    1    2    0    0  0.42027416634E+01  0.25671824084E+01 -0.38261286963E+02  0.38617836191E+02  0.17770000000E+01 0.  1.
         15    1    1    2    0    0  0.31856291407E+01 -0.47372911214E+01 -0.83533596154E+01  0.10272609506E+02  0.17770000000E+01 0. -1.
</event>
<event>
 6    1  0.1045352E-002  0.1828822E+03  0.7546771E-02  0.1068151E+00
        -11   -1    0    0    0    0  0.00000000000E+00  0.00000000000E+00  0.18250000000E+03  0.18250000000E+03  0.00000000000E+00 0.  1.
         11   -1    0    0    0    0 -0.00000000000E+00 -0.00000000000E+00 -0.18250000000E+03  0.18250000000E+03  0.00000000000E+00 0.  1.
        -11    1    1    2    0    0 -0.66844359319E+00  0.19140981426E+01  0.12623703255E+03  0.12625331273E+03  0.00000000000E+00 0.  1.
         11    1    1    2    0    0  0.25354290339E+01 -0.63849437321E+00 -0.18209898909E+03  0.18211775834E+03  0.00000000000E+00 0.  1.
        -15    1    1    2    0    0 -0.40491819566E+01  0.40223367357E+00  0.15201984128E+02  0.15837162526E+02  0.17770000000E+01 0.  1.
         15    1    1    2    0    0  0.21821965159E+01 -0.16778374430E+01  0.40659972420E+02  0.40791766404E+02  0.17770000000E+01 0.  1.
</event>
<event>
 6    1  0.1388351E-002  0.1936286E+03  0.7546771E-02  0.1059926E+00
        -11   -1    0    0    0    0  0.00000000000E+00  0.00000000000E+00  0.18250000000E+03  0.18250000000E+03  0.00000000000E+00 0.  1.
         11   -1    0    0    0    0 -0.00000000000E+00 -0.00000000000E+00 -0.18250000000E+03  0.18250000000E+03  0.00000000000E+00 0. -1.
        -11    1    1    2    0    0  0.17081782210E+01  0.14594715602E+02  0.17074027963E+03  0.17137142902E+03  0.00000000000E+00 0.  1.
         11    1    1    2    0    0  0.60294126509E+01 -0.28245335040E+00 -0.13441587273E+03  0.13455133013E+03  0.00000000000E+00 0. -1.
        -15    1    1    2    0    0 -0.68345099057E+01 -0.16799299387E+02  0.39752531136E+01  0.18651738575E+02  0.17770000000E+01 0.  1.
         15    1    1    2    0    0 -0.90308096623E+00  0.24870371349E+01 -0.40299660010E+02  0.40425502283E+02  0.17770000000E+01 0. -1.
</event>
<event>
 6    1  0.1045352E-002  0.1837754E+03  0.7546771E-02  0.1067444E+00
        -11   -1    0    0    0    0  0.00000000000E+00  0.00000000000E+00  0.18250000000E+03  0.18250000000E+03  0.00000000000E+00 0.  1.
         11   -1    0    0    0    0 -0.00000000000E+00 -0.00000000000E+00 -0.18250000000E+03  0.18250000000E+03  0.00000000000E+00 0. -1.
        -11    1    1    2    0    0 -0.17573054024E+01 -0.32250371103E+01  0.85683790744E+02  0.85762468382E+02  0.00000000000E+00 0.  1.
         11    1    1    2    0    0  0.13170629744E+02 -0.82356523073E+01 -0.18055759896E+03  0.18122455132E+03  0.00000000000E+00 0. -1.
        -15    1    1    2    0    0 -0.94021365147E+01  0.70484792855E+00  0.18511267288E+02  0.20849981469E+02  0.17770000000E+01 0. -1.
         15    1    1    2    0    0 -0.20111878265E+01  0.10755841489E+02  0.76362540930E+02  0.77162998833E+02  0.17770000000E+01 0.  1.
</event>
<event>
 6    1  0.1045352E-002  0.1838274E+03  0.7546771E-02  0.1067403E+00
        -11   -1    0    0    0    0  0.00000000000E+00  0.00000000000E+00  0.18250000000E+03  0.18250000000E+03  0.00000000000E+00 0. -1.
         11   -1    0    0    0    0 -0.00000000000E+00 -0.00000000000E+00 -0.18250000000E+03  0.18250000000E+03  0.00000000000E+00 0.  1.
        -11    1    1    2    0    0  0.96307651644E+00 -0.34319348673E+01  0.18113753516E+03  0.18117260372E+03  0.00000000000E+00 0. -1.
         11    1    1    2    0    0  0.80398232114E+00  0.21085551397E+01 -0.35774237217E+02  0.35845340573E+02  0.00000000000E+00 0.  1.
        -15    1    1    2    0    0  0.22836400072E+00 -0.31502087794E+01 -0.14137163318E+03  0.14141807651E+03  0.17770000000E+01 0.  1.
         15    1    1    2    0    0 -0.19954228383E+01  0.44735885071E+01 -0.39916647618E+01  0.65639792051E+01  0.17770000000E+01 0.  1.
</event>
<event>
 6    1  0.1045352E-002  0.1830818E+03  0.7546771E-02  0.1067993E+00
        -11   -1    0    0    0    0  0.00000000000E+00  0.00000000000E+00  0.18250000000E+03  0.18250000000E+03  0.00000000000E+00 0.  1.
         11   -1    0    0    0    0 -0.00000000000E+00 -0.00000000000E+00 -0.18250000000E+03  0.18250000000E+03  0.00000000000E+00 0.  1.
        -11    1    1    2    0    0  0.26547938176E+01 -0.32269696931E+00  0.18189854609E+03  0.18191820451E+03  0.00000000000E+00 0.  1.
         11    1    1    2    0    0 -0.54172905860E+00  0.23170333800E+01 -0.13379331884E+03  0.13381447710E+03  0.00000000000E+00 0.  1.
        -15    1    1    2    0    0 -0.43741288042E+01  0.15157423855E+01 -0.35993490645E+02  0.36333449817E+02  0.17770000000E+01 0.  1.
         15    1    1    2    0    0  0.22610640452E+01 -0.35100787962E+01 -0.12111736600E+02  0.12933868572E+02  0.17770000000E+01 0. -1.
</event>
<event>
 6    1  0.1045352E-002  0.2176398E+03  0.7546771E-02  0.1043484E+00
        -11   -1    0    0    0    0  0.00000000000E+00  0.00000000000E+00  0.18250000000E+03  0.18250000000E+03  0.00000000000E+00 0. -1.
         11   -1    0    0    0    0 -0.00000000000E+00 -0.00000000000E+00 -0.18250000000E+03  0.18250000000E+03  0.00000000000E+00 0. -1.
        -11    1    1    2    0    0  0.14865179773E+02  0.15043624692E+02  0.14583462175E+03  0.14736017479E+03  0.00000000000E+00 0. -1.
         11    1    1    2    0    0  0.59803077506E+01 -0.18590753587E+02 -0.99878699198E+02  0.10177000910E+03  0.00000000000E+00 0. -1.
        -15    1    1    2    0    0 -0.51120291008E+01  0.18504619517E+02  0.30659924872E+02  0.36217985962E+02  0.17770000000E+01 0.  1.
         15    1    1    2    0    0 -0.15733458423E+02 -0.14957490622E+02 -0.76615847424E+02  0.79651830143E+02  0.17770000000E+01 0. -1.
</event>
<event>
 6    1  0.1045352E-002  0.1883414E+03  0.7546771E-02  0.1063898E+00
        -11   -1    0    0    0    0  0.00000000000E+00  0.00000000000E+00  0.18250000000E+03  0.18250000000E+03  0.00000000000E+00 0.  1.
         11   -1    0    0    0    0 -0.00000000000E+00 -0.00000000000E+00 -0.18250000000E+03  0.18250000000E+03  0.00000000000E+00 0.  1.
        -11    1    1    2    0    0 -0.55245334133E+00 -0.35835362847E+01  0.17662139295E+03  0.17665860688E+03  0.00000000000E+00 0.  1.
         11    1    1    2    0    0 -0.91522972894E+01 -0.33123595205E+01 -0.16373723082E+03  0.16402626933E+03  0.00000000000E+00 0.  1.
        -15    1    1    2    0    0  0.32990535241E+01 -0.48819074498E+00  0.35020158520E+01  0.51520800058E+01  0.17770000000E+01 0. -1.
         15    1    1    2    0    0  0.64056971066E+01  0.73840865502E+01 -0.16386177976E+02  0.19163043789E+02  0.17770000000E+01 0.  1.
</event>
<event>
 6    1  0.1045352E-002  0.1735215E+03  0.7546771E-02  0.1075835E+00
        -11   -1    0    0    0    0  0.00000000000E+00  0.00000000000E+00  0.18250000000E+03  0.18250000000E+03  0.00000000000E+00 0. -1.
         11   -1    0    0    0    0 -0.00000000000E+00 -0.00000000000E+00 -0.18250000000E+03  0.18250000000E+03  0.00000000000E+00 0.  1.
        -11    1    1    2    0    0  0.56496766022E+01 -0.48978449936E+01  0.17370297875E+03  0.17386383338E+03  0.00000000000E+00 0. -1.
         11    1    1    2    0    0 -0.26111642350E+01  0.18126444420E+01 -0.17317732571E+03  0.17320649526E+03  0.00000000000E+00 0.  1.
        -15    1    1    2    0    0  0.23182720664E+01  0.66993008278E+00 -0.78325222033E+01  0.83862580901E+01  0.17770000000E+01 0. -1.
         15    1    1    2    0    0 -0.53567844337E+01  0.24152704689E+01  0.73068691684E+01  0.95434132757E+01  0.17770000000E+01 0.  1.
</event>
<event>
 6    1  0.1045352E-002  0.1609975E+03  0.7546771E-02  0.1086988E+00
        -11   -1    0    0    0    0  0.00000000000E+00  0.00000000000E+00  0.18250000000E+03  0.18250000000E+03  0.00000000000E+00 0. -1.
         11   -1    0    0    0    0 -0.00000000000E+00 -0.00000000000E+00 -0.18250000000E+03  0.18250000000E+03  0.00000000000E+00 0. -1.
        -11    1    1    2    0    0  0.36026271036E+01  0.87233080242E+01  0.17005873313E+03  0.17032042666E+03  0.00000000000E+00 0. -1.
         11    1    1    2    0    0  0.14538158120E+02  0.12364944076E+02 -0.15217608677E+03  0.15336822118E+03  0.00000000000E+00 0. -1.
        -15    1    1    2    0    0  0.42131393121E+01 -0.49412126178E+01 -0.10897195766E+02  0.12809087772E+02  0.17770000000E+01 0. -1.
         15    1    1    2    0    0 -0.22353924536E+02 -0.16147039482E+02 -0.69854505878E+01  0.28502264386E+02  0.17770000000E+01 0.  1.
</event>
<event>
 6    1  0.1045352E-002  0.1893630E+03  0.7546771E-02  0.1063119E+00
        -11   -1    0    0    0    0  0.00000000000E+00  0.00000000000E+00  0.18250000000E+03  0.18250000000E+03  0.00000000000E+00 0. -1.
         11   -1    0    0    0    0 -0.00000000000E+00 -0.00000000000E+00 -0.18250000000E+03  0.18250000000E+03  0.00000000000E+00 0.  1.
        -11    1    1    2    0    0 -0.45810106810E+01 -0.19725051893E+00  0.17557713223E+03  0.17563699476E+03  0.00000000000E+00 0. -1.
         11    1    1    2    0    0  0.10977168778E+01 -0.22810278525E+01 -0.11993349710E+03  0.11996020922E+03  0.00000000000E+00 0.  1.
        -15    1    1    2    0    0 -0.80450854220E+01 -0.82854070712E-01  0.35825458028E+01  0.89845772117E+01  0.17770000000E+01 0. -1.
         15    1    1    2    0    0  0.11528379225E+02  0.25611324422E+01 -0.59226180932E+02  0.60418218806E+02  0.17770000000E+01 0.  1.
</event>
<event>
 6    1  0.1045352E-002  0.1883358E+03  0.7546771E-02  0.1063902E+00
        -11   -1    0    0    0    0  0.00000000000E+00  0.00000000000E+00  0.18250000000E+03  0.18250000000E+03  0.00000000000E+00 0. -1.
         11   -1    0    0    0    0 -0.00000000000E+00 -0.00000000000E+00 -0.18250000000E+03  0.18250000000E+03  0.00000000000E+00 0. -1.
        -11    1    1    2    0    0  0.54353226411E+01 -0.90302152188E+01  0.17634947399E+03  0.17666415736E+03  0.00000000000E+00 0. -1.
         11    1    1    2    0    0  0.58635849626E+01 -0.15205710195E+01 -0.15605741430E+03  0.15617493500E+03  0.00000000000E+00 0. -1.
        -15    1    1    2    0    0 -0.41908405898E+01  0.75819559260E+01  0.15085321272E+01  0.89712094331E+01  0.17770000000E+01 0.  1.
         15    1    1    2    0    0 -0.71080670139E+01  0.29688303123E+01 -0.21800591817E+02  0.23189698202E+02  0.17770000000E+01 0. -1.
</event>
<event>
 6    1  0.1045352E-002  0.1853208E+03  0.7546771E-02  0.1066231E+00
        -11   -1    0    0    0    0  0.00000000000E+00  0.00000000000E+00  0.18250000000E+03  0.18250000000E+03  0.00000000000E+00 0. -1.
         11   -1    0    0    0    0 -0.00000000000E+00 -0.00000000000E+00 -0.18250000000E+03  0.18250000000E+03  0.00000000000E+00 0. -1.
        -11    1    1    2    0    0 -0.23759793154E+01  0.10753374603E+01  0.16836432450E+03  0.16838452243E+03  0.00000000000E+00 0. -1.
         11    1    1    2    0    0  0.19265943919E+01 -0.53089199195E+01 -0.17959046298E+03  0.17967924419E+03  0.00000000000E+00 0. -1.
        -15    1    1    2    0    0 -0.27521530609E+01  0.63943266758E+01  0.10343503190E+02  0.12593948839E+02  0.17770000000E+01 0.  1.
         15    1    1    2    0    0  0.32015379845E+01 -0.21607442165E+01  0.88263529509E+00  0.43422845484E+01  0.17770000000E+01 0. -1.
</event>
<event>
 6    1  0.1045352E-002  0.1832429E+03  0.7546771E-02  0.1067865E+00
        -11   -1    0    0    0    0  0.00000000000E+00  0.00000000000E+00  0.18250000000E+03  0.18250000000E+03  0.00000000000E+00 0.  1.
         11   -1    0    0    0    0 -0.00000000000E+00 -0.00000000000E+00 -0.18250000000E+03  0.18250000000E+03  0.00000000000E+00 0. -1.
        -11    1    1    2    0    0  0.41966209537E+00 -0.28629463602E+01  0.14319173459E+03  0.14322096716E+03  0.00000000000E+00 0.  1.
         11    1    1    2    0    0  0.29879708684E+01  0.10710473223E+01 -0.18172934785E+03  0.18175706584E+03  0.00000000000E+00 0. -1.
        -15    1    1    2    0    0  0.10257770524E-01  0.21106026918E+01  0.33777901022E+02  0.33890397982E+02  0.17770000000E+01 0.  1.
         15    1    1    2    0    0 -0.34178907343E+01 -0.31870365396E+00  0.47597122363E+01  0.61315690213E+01  0.17770000000E+01 0. -1.
</event>
<event>
 6    1  0.1045352E-002  0.1845677E+03  0.7546771E-02  0.1066821E+00
        -11   -1    0    0    0    0  0.00000000000E+00  0.00000000000E+00  0.18250000000E+03  0.18250000000E+03  0.00000000000E+00 0. -1.
         11   -1    0    0    0    0 -0.00000000000E+00 -0.00000000000E+00 -0.18250000000E+03  0.18250000000E+03  0.00000000000E+00 0. -1.
        -11    1    1    2    0    0 -0.19458528441E+01  0.98351978922E+00  0.16143510200E+03  0.16144982445E+03  0.00000000000E+00 0. -1.
         11    1    1    2    0    0  0.64457906293E+01 -0.30697442202E+01 -0.18029096783E+03  0.18043227158E+03  0.00000000000E+00 0. -1.
        -15    1    1    2    0    0  0.49700732061E+00  0.14040644219E+01  0.17430432023E+02  0.17583972893E+02  0.17770000000E+01 0.  1.
         15    1    1    2    0    0 -0.49969451059E+01  0.68216000908E+00  0.14254338043E+01  0.55339310801E+01  0.17770000000E+01 0. -1.
</event>
<event>
 6    1  0.1045352E-002  0.1833704E+03  0.7546771E-02  0.1067764E+00
        -11   -1    0    0    0    0  0.00000000000E+00  0.00000000000E+00  0.18250000000E+03  0.18250000000E+03  0.00000000000E+00 0.  1.
         11   -1    0    0    0    0 -0.00000000000E+00 -0.00000000000E+00 -0.18250000000E+03  0.18250000000E+03  0.00000000000E+00 0. -1.
        -11    1    1    2    0    0  0.40360739304E+01  0.52993343620E+00  0.10054855586E+03  0.10063092371E+03  0.00000000000E+00 0.  1.
         11    1    1    2    0    0 -0.71326949652E+01 -0.10324148735E+01 -0.18148656368E+03  0.18162960666E+03  0.00000000000E+00 0. -1.
        -15    1    1    2    0    0 -0.38972881598E+01 -0.34968446188E+01  0.59695938790E+02  0.59951477166E+02  0.17770000000E+01 0. -1.
         15    1    1    2    0    0  0.69939091946E+01  0.39993260561E+01  0.21242069031E+02  0.22787992462E+02  0.17770000000E+01 0.  1.
</event>
<event>
 6    1  0.1045352E-002  0.1742144E+03  0.7546771E-02  0.1075248E+00
        -11   -1    0    0    0    0  0.00000000000E+00  0.00000000000E+00  0.18250000000E+03  0.18250000000E+03  0.00000000000E+00 0. -1.
         11   -1    0    0    0    0 -0.00000000000E+00 -0.00000000000E+00 -0.18250000000E+03  0.18250000000E+03  0.00000000000E+00 0.  1.
        -11    1    1    2    0    0  0.33438214357E+01  0.79419829159E+00  0.17570273844E+03  0.17573634851E+03  0.00000000000E+00 0. -1.
         11    1    1    2    0    0  0.31746165491E+01 -0.47453752796E+00 -0.17273636892E+03  0.17276619034E+03  0.00000000000E+00 0.  1.
        -15    1    1    2    0    0 -0.55547049172E+01 -0.17163016792E+01 -0.84957097553E+01  0.10446781869E+02  0.17770000000E+01 0.  1.
         15    1    1    2    0    0 -0.96373306755E+00  0.13966409156E+01  0.55293402407E+01  0.60506792817E+01  0.17770000000E+01 0. -1.
</event>
<event>
 6    1  0.1045352E-002  0.1847803E+03  0.7546771E-02  0.1066654E+00
        -11   -1    0    0    0    0  0.00000000000E+00  0.00000000000E+00  0.18250000000E+03  0.18250000000E+03  0.00000000000E+00 0.  1.
         11   -1    0    0    0    0 -0.00000000000E+00 -0.00000000000E+00 -0.18250000000E+03  0.18250000000E+03  0.00000000000E+00 0.  1.
        -11    1    1    2    0    0  0.36994297128E+01  0.28663803643E+00  0.15744726382E+03  0.15749098014E+03  0.00000000000E+00 0.  1.
         11    1    1    2    0    0 -0.33221433307E+01 -0.73388271699E+00 -0.18018758308E+03  0.18021970013E+03  0.00000000000E+00 0.  1.
        -15    1    1    2    0    0  0.31110202976E+01 -0.14919255124E+00 -0.58235226816E+00  0.36328458368E+01  0.17770000000E+01 0.  1.
         15    1    1    2    0    0 -0.34883066797E+01  0.59643723181E+00  0.23322671530E+02  0.23656473895E+02  0.17770000000E+01 0.  1.
</event>
<event>
 6    1  0.1045352E-002  0.1842326E+03  0.7546771E-02  0.1067084E+00
        -11   -1    0    0    0    0  0.00000000000E+00  0.00000000000E+00  0.18250000000E+03  0.18250000000E+03  0.00000000000E+00 0. -1.
         11   -1    0    0    0    0 -0.00000000000E+00 -0.00000000000E+00 -0.18250000000E+03  0.18250000000E+03  0.00000000000E+00 0.  1.
        -11    1    1    2    0    0  0.33772054496E+01 -0.59437869210E+00  0.15195876438E+03  0.15199745022E+03  0.00000000000E+00 0. -1.
         11    1    1    2    0    0 -0.21056207077E+01 -0.12485533189E+01 -0.18075086366E+03  0.18076743965E+03  0.00000000000E+00 0.  1.
        -15    1    1    2    0    0 -0.35865348917E+01 -0.49467706709E+01  0.83510578510E+01  0.10499127051E+02  0.17770000000E+01 0. -1.
         15    1    1    2    0    0  0.23149501497E+01  0.67897026818E+01  0.20441041429E+02  0.21735983079E+02  0.17770000000E+01 0.  1.
</event>
<event>
 6    1  0.1045352E-002  0.1852328E+03  0.7546771E-02  0.1066300E+00
        -11   -1    0    0    0    0  0.00000000000E+00  0.00000000000E+00  0.18250000000E+03  0.18250000000E+03  0.00000000000E+00 0.  1.
         11   -1    0    0    0    0 -0.00000000000E+00 -0.00000000000E+00 -0.18250000000E+03  0.18250000000E+03  0.00000000000E+00 0.  1.
        -11    1    1    2    0    0 -0.89381927855E+01  0.55973455523E+01  0.17945761811E+03  0.17976723357E+03  0.00000000000E+00 0.  1.
         11    1    1    2    0    0  0.71465842586E+00  0.38400580967E+00 -0.51930386424E+02  0.51936723340E+02  0.00000000000E+00 0.  1.
        -15    1    1    2    0    0  0.14449016056E+02 -0.10184635271E+01 -0.16736469998E+02  0.22205370746E+02  0.17770000000E+01 0. -1.
         15    1    1    2    0    0 -0.62254816969E+01 -0.49628878349E+01 -0.11079076169E+03  0.11109067235E+03  0.17770000000E+01 0.  1.
</event>
<event>
 6    1  0.1045352E-002  0.1829584E+03  0.7546771E-02  0.1068090E+00
        -11   -1    0    0    0    0  0.00000000000E+00  0.00000000000E+00  0.18250000000E+03  0.18250000000E+03  0.00000000000E+00 0.  1.
         11   -1    0    0    0    0 -0.00000000000E+00 -0.00000000000E+00 -0.18250000000E+03  0.18250000000E+03  0.00000000000E+00 0. -1.
        -11    1    1    2    0    0  0.64437939632E+01  0.23112627861E+01  0.18191280803E+03  0.18204157256E+03  0.00000000000E+00 0.  1.
         11    1    1    2    0    0  0.24526311641E+00 -0.18431233315E+01 -0.13027217662E+03  0.13028544531E+03  0.00000000000E+00 0. -1.
        -15    1    1    2    0    0 -0.48792750219E+01 -0.23313135503E+01 -0.17838034608E+02  0.18724197053E+02  0.17770000000E+01 0.  1.
         15    1    1    2    0    0 -0.18097820577E+01  0.18631740957E+01 -0.33802596803E+02  0.33948785080E+02  0.17770000000E+01 0. -1.
</event>
<event>
 6    1  0.1045352E-002  0.1884143E+03  0.7546771E-02  0.1063842E+00
        -11   -1    0    0    0    0  0.00000000000E+00  0.00000000000E+00  0.18250000000E+03  0.18250000000E+03  0.00000000000E+00 0. -1.
         11   -1    0    0    0    0 -0.00000000000E+00 -0.00000000000E+00 -0.18250000000E+03  0.18250000000E+03  0.00000000000E+00 0.  1.
        -11    1    1    2    0    0  0.25355893466E+01 -0.19384146798E+01  0.17655689244E+03  0.17658573819E+03  0.00000000000E+00 0. -1.
         11    1    1    2    0    0 -0.61011846137E+01  0.73047747901E+00 -0.16460031190E+03  0.16471496814E+03  0.00000000000E+00 0.  1.
        -15    1    1    2    0    0  0.10395844408E+02 -0.15665039213E+01 -0.14776341893E+01  0.10764229991E+02  0.17770000000E+01 0. -1.
         15    1    1    2    0    0 -0.68302491411E+01  0.27744411221E+01 -0.10478946345E+02  0.12935063679E+02  0.17770000000E+01 0.  1.
</event>
<event>
 6    1  0.1045352E-002  0.1921510E+03  0.7546771E-02  0.1061022E+00
        -11   -1    0    0    0    0  0.00000000000E+00  0.00000000000E+00  0.18250000000E+03  0.18250000000E+03  0.00000000000E+00 0.  1.
         11   -1    0    0    0    0 -0.00000000000E+00 -0.00000000000E+00 -0.18250000000E+03  0.18250000000E+03  0.00000000000E+00 0. -1.
        -11    1    1    2    0    0 -0.79438889742E+01 -0.55230959030E+01  0.16430897606E+03  0.16459358910E+03  0.00000000000E+00 0.  1.
         11    1    1    2    0    0 -0.27378251809E+01 -0.76852660618E+00 -0.17282565373E+03  0.17284904659E+03  0.00000000000E+00 0. -1.
        -15    1    1    2    0    0  0.20366092259E+01  0.21105804667E+01 -0.78116902613E+01  0.85312695880E+01  0.17770000000E+01 0.  1.
         15    1    1    2    0    0  0.86451049292E+01  0.41810420425E+01  0.16328367936E+02  0.19026094719E+02  0.17770000000E+01 0.  1.
</event>
<event>
 6    1  0.1045352E-002  0.1834307E+03  0.7546771E-02  0.1067716E+00
        -11   -1    0    0    0    0  0.00000000000E+00  0.00000000000E+00  0.18250000000E+03  0.18250000000E+03  0.00000000000E+00 0.  1.
         11   -1    0    0    0    0 -0.00000000000E+00 -0.00000000000E+00 -0.18250000000E+03  0.18250000000E+03  0.00000000000E+00 0.  1.
        -11    1    1    2    0    0 -0.31035007323E+01 -0.19249072314E+01  0.18153261464E+03  0.18156934533E+03  0.00000000000E+00 0.  1.
         11    1    1    2    0    0 -0.15581630136E+01  0.17114371876E+01 -0.15707937073E+03  0.15709642135E+03  0.00000000000E+00 0.  1.
        -15    1    1    2    0    0  0.16975490408E+01 -0.23678857274E+01 -0.19365883423E+02  0.19664275357E+02  0.17770000000E+01 0.  1.
         15    1    1    2    0    0  0.29641147052E+01  0.25813557712E+01 -0.50873604841E+01  0.66699579682E+01  0.17770000000E+01 0.  1.
</event>
<event>
 6    1  0.1045352E-002  0.1825743E+03  0.7546771E-02  0.1068396E+00
        -11   -1    0    0    0    0  0.00000000000E+00  0.00000000000E+00  0.18250000000E+03  0.18250000000E+03  0.00000000000E+00 0.  1.
         11   -1    0    0    0    0 -0.00000000000E+00 -0.00000000000E+00 -0.18250000000E+03  0.18250000000E+03  0.00000000000E+00 0. -1.
        -11    1    1    2    0    0 -0.15862236969E+01 -0.35831992230E+01  0.18238364502E+03  0.18242573666E+03  0.00000000000E+00 0.  1.
         11    1    1    2    0    0  0.78901600669E+00 -0.10835109112E-01 -0.39694374660E+02  0.39702217108E+02  0.00000000000E+00 0. -1.
        -15    1    1    2    0    0 -0.11909907697E+01 -0.59052138237E+00 -0.51649290865E+02  0.51696945271E+02  0.17770000000E+01 0. -1.
         15    1    1    2    0    0  0.19881984599E+01  0.41845557145E+01 -0.91039979499E+02  0.91175100964E+02  0.17770000000E+01 0. -1.
</event>
<event>
 6    1  0.1045352E-002  0.1913865E+03  0.7546771E-02  0.1061593E+00
        -11   -1    0    0    0    0  0.00000000000E+00  0.00000000000E+00  0.18250000000E+03  0.18250000000E+03  0.00000000000E+00 0. -1.
         11   -1    0    0    0    0 -0.00000000000E+00 -0.00000000000E+00 -0.18250000000E+03  0.18250000000E+03  0.00000000000E+00 0. -1.
        -11    1    1    2    0    0  0.96635999726E+01 -0.11765523210E+02  0.17294455758E+03  0.17361345771E+03  0.00000000000E+00 0. -1.
         11    1    1    2    0    0 -0.45927176268E+01  0.97526116601E+00 -0.15279279819E+03  0.15286491869E+03  0.00000000000E+00 0. -1.
        -15    1    1    2    0    0 -0.96892309143E+01  0.81280150801E+01  0.42666222199E+01  0.13465051764E+02  0.17770000000E+01 0.  1.
         15    1    1    2    0    0  0.46183485685E+01  0.26622469636E+01 -0.24418381614E+02  0.25056571833E+02  0.17770000000E+01 0. -1.
</event>
<event>
 6    1  0.1045352E-002  0.1909035E+03  0.7546771E-02  0.1061956E+00
        -11   -1    0    0    0    0  0.00000000000E+00  0.00000000000E+00  0.18250000000E+03  0.18250000000E+03  0.00000000000E+00 0.  1.
         11   -1    0    0    0    0 -0.00000000000E+00 -0.00000000000E+00 -0.18250000000E+03  0.18250000000E+03  0.00000000000E+00 0.  1.
        -11    1    1    2    0    0 -0.68939074556E+01 -0.41178163027E+01  0.17391123185E+03  0.17409652189E+03  0.00000000000E+00 0.  1.
         11    1    1    2    0    0  0.11369779311E+01 -0.11860614644E+01 -0.49838518687E+02  0.49865593404E+02  0.00000000000E+00 0.  1.
        -15    1    1    2    0    0  0.62334817027E+01  0.34420943067E+01  0.68796268034E+01  0.10059388714E+02  0.17770000000E+01 0. -1.
         15    1    1    2    0    0 -0.47655217830E+00  0.18617834605E+01 -0.13095233997E+03  0.13097849599E+03  0.17770000000E+01 0. -1.
</event>
<event>
 6    1  0.1045352E-002  0.1888482E+03  0.7546771E-02  0.1063511E+00
        -11   -1    0    0    0    0  0.00000000000E+00  0.00000000000E+00  0.18250000000E+03  0.18250000000E+03  0.00000000000E+00 0.  1.
         11   -1    0    0    0    0 -0.00000000000E+00 -0.00000000000E+00 -0.18250000000E+03  0.18250000000E+03  0.00000000000E+00 0. -1.
        -11    1    1    2    0    0 -0.83708593851E+01  0.79799555712E+00  0.17595096675E+03  0.17615178336E+03  0.00000000000E+00 0.  1.
         11    1    1    2    0    0  0.26172270439E+01 -0.31580801801E+01 -0.14274181331E+03  0.14280073044E+03  0.00000000000E+00 0. -1.
        -15    1    1    2    0    0  0.24935243105E+01  0.46243019201E+01 -0.38670479370E+02  0.39066168682E+02  0.17770000000E+01 0. -1.
         15    1    1    2    0    0  0.32601080308E+01 -0.22642172972E+01  0.54613259298E+01  0.69813175155E+01  0.17770000000E+01 0.  1.
</event>
<event>
 6    1  0.1045352E-002  0.1842551E+03  0.7546771E-02  0.1067066E+00
        -11   -1    0    0    0    0  0.00000000000E+00  0.00000000000E+00  0.18250000000E+03  0.18250000000E+03  0.00000000000E+00 0.  1.
         11   -1    0    0    0    0 -0.00000000000E+00 -0.00000000000E+00 -0.18250000000E+03  0.18250000000E+03  0.00000000000E+00 0. -1.
        -11    1    1    2    0    0 -0.51637402238E+00  0.62129277538E+01  0.14279129825E+03  0.14292733108E+03  0.00000000000E+00 0.  1.
         11    1    1    2    0    0  0.13655254187E+01  0.41377816878E+01 -0.18069237978E+03  0.18074490866E+03  0.00000000000E+00 0. -1.
        -15    1    1    2    0    0  0.28708748871E+01 -0.11555718870E+02  0.25381759408E+02  0.28092134146E+02  0.17770000000E+01 0. -1.
         15    1    1    2    0    0 -0.37200262834E+01  0.12050094286E+01  0.12519322123E+02  0.13235626116E+02  0.17770000000E+01 0.  1.
</event>
<event>
 6    1  0.1045352E-002  0.1828733E+03  0.7546771E-02  0.1068158E+00
        -11   -1    0    0    0    0  0.00000000000E+00  0.00000000000E+00  0.18250000000E+03  0.18250000000E+03  0.00000000000E+00 0. -1.
         11   -1    0    0    0    0 -0.00000000000E+00 -0.00000000000E+00 -0.18250000000E+03  0.18250000000E+03  0.00000000000E+00 0.  1.
        -11    1    1    2    0    0 -0.92752652536E+00 -0.70249718599E+01  0.18198876982E+03  0.18212666712E+03  0.00000000000E+00 0. -1.
         11    1    1    2    0    0  0.73957814581E-01  0.34952103679E+01 -0.10232141653E+03  0.10238112251E+03  0.00000000000E+00 0.  1.
        -15    1    1    2    0    0  0.41373980535E+01  0.51812425988E+01 -0.37116254065E+02  0.37745693560E+02  0.17770000000E+01 0. -1.
         15    1    1    2    0    0 -0.32838293427E+01 -0.16514811068E+01 -0.42551099229E+02  0.42746516813E+02  0.17770000000E+01 0.  1.
</event>
<event>
 6    1  0.1045352E-002  0.1657653E+03  0.7546771E-02  0.1082615E+00
        -11   -1    0    0    0    0  0.00000000000E+00  0.00000000000E+00  0.18250000000E+03  0.18250000000E+03  0.00000000000E+00 0.  1.
         11   -1    0    0    0    0 -0.00000000000E+00 -0.00000000000E+00 -0.18250000000E+03  0.18250000000E+03  0.00000000000E+00 0.  1.
        -11    1    1    2    0    0 -0.83785089524E+01  0.31402391298E+01  0.17242589792E+03  0.17265790103E+03  0.00000000000E+00 0.  1.
         11    1    1    2    0    0 -0.49490237783E+01 -0.18527665347E+02 -0.15862856663E+03  0.15978357040E+03  0.00000000000E+00 0.  1.
        -15    1    1    2    0    0  0.91505205097E+01  0.14440215623E+02 -0.18979028435E+02  0.25604942925E+02  0.17770000000E+01 0. -1.
         15    1    1    2    0    0  0.41770122210E+01  0.94721059374E+00  0.51816971402E+01  0.69535856402E+01  0.17770000000E+01 0.  1.
</event>
<event>
 6    1  0.1045352E-002  0.1964495E+03  0.7546771E-02  0.1057863E+00
        -11   -1    0    0    0    0  0.00000000000E+00  0.00000000000E+00  0.18250000000E+03  0.18250000000E+03  0.00000000000E+00 0. -1.
         11   -1    0    0    0    0 -0.00000000000E+00 -0.00000000000E+00 -0.18250000000E+03  0.18250000000E+03  0.00000000000E+00 0.  1.
        -11    1    1    2    0    0 -0.32567769928E+01  0.65883024975E+01  0.95713377266E+02  0.95995119219E+02  0.00000000000E+00 0. -1.
         11    1    1    2    0    0 -0.72502020248E+01 -0.33467261572E+01 -0.16836119875E+03  0.16855046499E+03  0.00000000000E+00 0.  1.
        -15    1    1    2    0    0  0.34697631061E+02 -0.11024562444E+02  0.63817329506E+02  0.73493372848E+02  0.17770000000E+01 0. -1.
         15    1    1    2    0    0 -0.24190652043E+02  0.77829861034E+01  0.88304919747E+01  0.26961042941E+02  0.17770000000E+01 0.  1.
</event>
<event>
 6    1  0.1045352E-002  0.1602530E+03  0.7546771E-02  0.1087686E+00
        -11   -1    0    0    0    0  0.00000000000E+00  0.00000000000E+00  0.18250000000E+03  0.18250000000E+03  0.00000000000E+00 0.  1.
         11   -1    0    0    0    0 -0.00000000000E+00 -0.00000000000E+00 -0.18250000000E+03  0.18250000000E+03  0.00000000000E+00 0.  1.
        -11    1    1    2    0    0 -0.17986184039E+01  0.45909793395E+01  0.16305189672E+03  0.16312643300E+03  0.00000000000E+00 0.  1.
         11    1    1    2    0    0  0.29682411302E+01 -0.20140213650E+02 -0.15650696165E+03  0.15782543428E+03  0.00000000000E+00 0.  1.
        -15    1    1    2    0    0  0.13071142423E+02 -0.29874589897E+01  0.87022416616E+01  0.16083109600E+02  0.17770000000E+01 0.  1.
         15    1    1    2    0    0 -0.14240765150E+02  0.18536693300E+02 -0.15247176739E+02  0.27965023119E+02  0.17770000000E+01 0. -1.
</event>
<event>
 6    1  0.1045352E-002  0.1834883E+03  0.7546771E-02  0.1067671E+00
        -11   -1    0    0    0    0  0.00000000000E+00  0.00000000000E+00  0.18250000000E+03  0.18250000000E+03  0.00000000000E+00 0. -1.
         11   -1    0    0    0    0 -0.00000000000E+00 -0.00000000000E+00 -0.18250000000E+03  0.18250000000E+03  0.00000000000E+00 0. -1.
        -11    1    1    2    0    0  0.13316706314E+01  0.42335676447E+01  0.18145746793E+03  0.18151173271E+03  0.00000000000E+00 0. -1.
         11    1    1    2    0    0 -0.12823128759E+01 -0.31603656270E+01 -0.16643568229E+03  0.16647062376E+03  0.00000000000E+00 0. -1.
        -15    1    1    2    0    0  0.18754215873E+01  0.15685903853E+01 -0.11514761830E+02  0.11904837291E+02  0.17770000000E+01 0. -1.
         15    1    1    2    0    0 -0.19247793428E+01 -0.26417924030E+01 -0.35070238169E+01  0.51128062423E+01  0.17770000000E+01 0.  1.
</event>
<event>
 6    1  0.1045352E-002  0.1826264E+03  0.7546771E-02  0.1068354E+00
        -11   -1    0    0    0    0  0.00000000000E+00  0.00000000000E+00  0.18250000000E+03  0.18250000000E+03  0.00000000000E+00 0.  1.
         11   -1    0    0    0    0 -0.00000000000E+00 -0.00000000000E+00 -0.18250000000E+03  0.18250000000E+03  0.00000000000E+00 0.  1.
        -11    1    1    2    0    0 -0.30580577949E+01  0.52659632569E+01  0.18227186564E+03  0.18237355919E+03  0.00000000000E+00 0.  1.
         11    1    1    2    0    0 -0.94530097737E+00 -0.19843215572E+00 -0.56138895957E+02  0.56147204815E+02  0.00000000000E+00 0.  1.
        -15    1    1    2    0    0 -0.11300075069E+01 -0.23634575797E+01 -0.34182925545E+02  0.34329185491E+02  0.17770000000E+01 0. -1.
         15    1    1    2    0    0  0.51333662792E+01 -0.27040735215E+01 -0.91950044137E+02  0.92150050508E+02  0.17770000000E+01 0.  1.
</event>
<event>
 6    1  0.1045352E-002  0.1842365E+03  0.7546771E-02  0.1067081E+00
        -11   -1    0    0    0    0  0.00000000000E+00  0.00000000000E+00  0.18250000000E+03  0.18250000000E+03  0.00000000000E+00 0.  1.
         11   -1    0    0    0    0 -0.00000000000E+00 -0.00000000000E+00 -0.18250000000E+03  0.18250000000E+03  0.00000000000E+00 0. -1.
        -11    1    1    2    0    0 -0.17958058168E+00  0.35267845850E+01  0.13249909998E+03  0.13254615028E+03  0.00000000000E+00 0.  1.
         11    1    1    2    0    0  0.30828897446E+01 -0.51526393011E+01 -0.18066372904E+03  0.18076348329E+03  0.00000000000E+00 0. -1.
        -15    1    1    2    0    0 -0.21084357676E+01 -0.30789174775E+01  0.45954127950E+02  0.46139623307E+02  0.17770000000E+01 0.  1.
         15    1    1    2    0    0 -0.79487339528E+00  0.47047721936E+01  0.22105011030E+01  0.55507431245E+01  0.17770000000E+01 0. -1.
</event>
<event>
 6    1  0.1045352E-002  0.1784897E+03  0.7546771E-02  0.1071693E+00
        -11   -1    0    0    0    0  0.00000000000E+00  0.00000000000E+00  0.18250000000E+03  0.18250000000E+03  0.00000000000E+00 0.  1.
         11   -1    0    0    0    0 -0.00000000000E+00 -0.00000000000E+00 -0.18250000000E+03  0.18250000000E+03  0.00000000000E+00 0. -1.
        -11    1    1    2    0    0 -0.94771489043E+00 -0.24545773100E+01  0.17804976503E+03  0.17806920548E+03  0.00000000000E+00 0.  1.
         11    1    1    2    0    0  0.73034095658E+00 -0.25136407923E+01 -0.17892671647E+03  0.17894586236E+03  0.00000000000E+00 0. -1.
        -15    1    1    2    0    0 -0.57773020798E+00  0.10958187276E+00  0.18829403949E+01  0.26549903786E+01  0.17770000000E+01 0. -1.
         15    1    1    2    0    0  0.79510414183E+00  0.48586362295E+01 -0.10059889575E+01  0.53299417811E+01  0.17770000000E+01 0.  1.
</event>
<event>
 6    1  0.1045352E-002  0.1772639E+03  0.7546771E-02  0.1072701E+00
        -11   -1    0    0    0    0  0.00000000000E+00  0.00000000000E+00  0.18250000000E+03  0.18250000000E+03  0.00000000000E+00 0.  1.
         11   -1    0    0    0    0 -0.00000000000E+00 -0.00000000000E+00 -0.18250000000E+03  0.18250000000E+03  0.00000000000E+00 0.  1.
        -11    1    1    2    0    0 -0.50528835889E+01 -0.25916759839E+01  0.17638348527E+03  0.17647487723E+03  0.00000000000E+00 0.  1.
         11    1    1    2    0    0 -0.27021288438E+01 -0.15312385748E+01 -0.17813902408E+03  0.17816609692E+03  0.00000000000E+00 0.  1.
        -15    1    1    2    0    0  0.71065321339E+01  0.31274191211E+01  0.76060066301E+00  0.80012368855E+01  0.17770000000E+01 0.  1.
         15    1    1    2    0    0  0.64848029886E+00  0.99549543757E+00  0.99493814591E+00  0.23577889597E+01  0.17770000000E+01 0. -1.
</event>
<event>
 6    1  0.1045352E-002  0.1936275E+03  0.7546771E-02  0.1059927E+00
        -11   -1    0    0    0    0  0.00000000000E+00  0.00000000000E+00  0.18250000000E+03  0.18250000000E+03  0.00000000000E+00 0. -1.
         11   -1    0    0    0    0 -0.00000000000E+00 -0.00000000000E+00 -0.18250000000E+03  0.18250000000E+03  0.00000000000E+00 0. -1.
        -11    1    1    2    0    0  0.58100787232E+01 -0.11026266874E+02  0.15232845528E+03  0.15283747532E+03  0.00000000000E+00 0. -1.
         11    1    1    2    0    0  0.25649370208E+01 -0.11093247004E+02 -0.17099380548E+03  0.17137246145E+03  0.00000000000E+00 0. -1.
        -15    1    1    2    0    0 -0.16040206925E+01 -0.28764335226E+01 -0.46014754907E+01  0.59311093299E+01  0.17770000000E+01 0. -1.
         15    1    1    2    0    0 -0.67709950516E+01  0.24995947401E+02  0.23266825688E+02  0.34858953901E+02  0.17770000000E+01 0.  1.
</event>
<event>
 6    1  0.1045352E-002  0.2116611E+03  0.7546771E-02  0.1047355E+00
        -11   -1    0    0    0    0  0.00000000000E+00  0.00000000000E+00  0.18250000000E+03  0.18250000000E+03  0.00000000000E+00 0. -1.
         11   -1    0    0    0    0 -0.00000000000E+00 -0.00000000000E+00 -0.18250000000E+03  0.18250000000E+03  0.00000000000E+00 0. -1.
        -11    1    1    2    0    0  0.34197605884E+01 -0.19261107614E+01  0.13771799365E+03  0.13777391059E+03  0.00000000000E+00 0. -1.
         11    1    1    2    0    0  0.10681503068E+02  0.29324496431E+01 -0.15293832192E+03  0.15333891900E+03  0.00000000000E+00 0. -1.
        -15    1    1    2    0    0 -0.57062372138E+01  0.76490162775E+01  0.42719275029E+02  0.43808250149E+02  0.17770000000E+01 0.  1.
         15    1    1    2    0    0 -0.83950264423E+01 -0.86553551592E+01 -0.27498946759E+02  0.30078920256E+02  0.17770000000E+01 0. -1.
</event>
<event>
 6    1  0.1045352E-002  0.1841605E+03  0.7546771E-02  0.1067141E+00
        -11   -1    0    0    0    0  0.00000000000E+00  0.00000000000E+00  0.18250000000E+03  0.18250000000E+03  0.00000000000E+00 0.  1.
         11   -1    0    0    0    0 -0.00000000000E+00 -0.00000000000E+00 -0.18250000000E+03  0.18250000000E+03  0.00000000000E+00 0.  1.
        -11    1    1    2    0    0 -0.25122752954E+01 -0.22550020242E+01  0.18080794298E+03  0.18083945588E+03  0.00000000000E+00 0.  1.
         11    1    1    2    0    0  0.20361563186E+01  0.15668844629E+01 -0.17002078079E+03  0.17004019219E+03  0.00000000000E+00 0.  1.
        -15    1    1    2    0    0  0.20087187313E+01  0.32778529587E+01 -0.20400398053E+01  0.47009320743E+01  0.17770000000E+01 0.  1.
         15    1    1    2    0    0 -0.15325997545E+01 -0.25897353974E+01 -0.87471223800E+01  0.94194198530E+01  0.17770000000E+01 0.  1.
</event>
<event>
 6    1  0.1045352E-002  0.1779786E+03  0.7546771E-02  0.1072112E+00
        -11   -1    0    0    0    0  0.00000000000E+00  0.00000000000E+00  0.18250000000E+03  0.18250000000E+03  0.00000000000E+00 0.  1.
         11   -1    0    0    0    0 -0.00000000000E+00 -0.00000000000E+00 -0.18250000000E+03  0.18250000000E+03  0.00000000000E+00 0.  1.
        -11    1    1    2    0    0 -0.24681432036E+01 -0.37844955688E+01  0.17803330031E+03  0.17809062344E+03  0.00000000000E+00 0.  1.
         11    1    1    2    0    0 -0.18480972401E+01  0.26622736143E+01 -0.17786501604E+03  0.17789453925E+03  0.00000000000E+00 0.  1.
        -15    1    1    2    0    0  0.15703541838E+01  0.29943414725E+01  0.23477661367E+01  0.44835062115E+01  0.17770000000E+01 0. -1.
         15    1    1    2    0    0  0.27458862599E+01 -0.18721195180E+01 -0.25160504047E+01  0.45313310937E+01  0.17770000000E+01 0.  1.
</event>
<event>
 6    1  0.1045352E-002  0.1827843E+03  0.7546771E-02  0.1068229E+00
        -11   -1    0    0    0    0  0.00000000000E+00  0.00000000000E+00  0.18250000000E+03  0.18250000000E+03  0.00000000000E+00 0.  1.
         11   -1    0    0    0    0 -0.00000000000E+00 -0.00000000000E+00 -0.18250000000E+03  0.18250000000E+03  0.00000000000E+00 0.  1.
        -11    1    1    2    0    0  0.46141008998E+00  0.52060912618E+00  0.50397249677E+02  0.50402050635E+02  0.00000000000E+00 0.  1.
         11    1    1    2    0    0  0.26992164069E+01 -0.67717539834E+01 -0.18206984070E+03  0.18221572192E+03  0.00000000000E+00 0.  1.
        -15    1    1    2    0    0 -0.19871024354E+01 -0.30844141091E+01  0.43895670705E+02  0.44084575785E+02  0.17770000000E+01 0.  1.
         15    1    1    2    0    0 -0.11735240614E+01  0.93355589663E+01  0.87776920317E+02  0.88297651664E+02  0.17770000000E+01 0.  1.
</event>
<event>
 6    1  0.1045352E-002  0.1856861E+03  0.7546771E-02  0.1065947E+00
        -11   -1    0    0    0    0  0.00000000000E+00  0.00000000000E+00  0.18250000000E+03  0.18250000000E+03  0.00000000000E+00 0. -1.
         11   -1    0    0    0    0 -0.00000000000E+00 -0.00000000000E+00 -0.18250000000E+03  0.18250000000E+03  0.00000000000E+00 0. -1.
        -11    1    1    2    0    0 -0.13809929717E+01  0.32616840798E+01  0.17379279070E+03  0.17382888087E+03  0.00000000000E+00 0. -1.
         11    1    1    2    0    0  0.53622775259E+00  0.35640542366E+01 -0.17927771055E+03  0.17931393567E+03  0.00000000000E+00 0. -1.
        -15    1    1    2    0    0  0.31007338760E+00 -0.84515590125E+00 -0.14871462775E+01  0.24859137262E+01  0.17770000000E+01 0. -1.
         15    1    1    2    0    0  0.53469183152E+00 -0.59805824151E+01  0.69720661281E+01  0.93712697364E+01  0.17770000000E+01 0.  1.
</event>
<event>
 6    1  0.1045352E-002  0.1963049E+03  0.7546771E-02  0.1057968E+00
        -11   -1    0    0    0    0  0.00000000000E+00  0.00000000000E+00  0.18250000000E+03  0.18250000000E+03  0.00000000000E+00 0.  1.
         11   -1    0    0    0    0 -0.00000000000E+00 -0.00000000000E+00 -0.18250000000E+03  0.18250000000E+03  0.00000000000E+00 0. -1.
        -11    1    1    2    0    0  0.46563050428E-01 -0.42059824912E+01  0.14503463378E+03  0.14509561486E+03  0.00000000000E+00 0.  1.
         11    1    1    2    0    0  0.75050846290E+01 -0.70607026196E+00 -0.16852662911E+03  0.16869513789E+03  0.00000000000E+00 0. -1.
        -15    1    1    2    0    0  0.11844464706E+02  0.74277774288E+01  0.27741058744E+02  0.31115708106E+02  0.17770000000E+01 0. -1.
         15    1    1    2    0    0 -0.19396112386E+02 -0.25157246756E+01 -0.42490634163E+01  0.20093539142E+02  0.17770000000E+01 0.  1.
</event>
<event>
 6    1  0.1045352E-002  0.1861251E+03  0.7546771E-02  0.1065605E+00
        -11   -1    0    0    0    0  0.00000000000E+00  0.00000000000E+00  0.18250000000E+03  0.18250000000E+03  0.00000000000E+00 0. -1.
         11   -1    0    0    0    0 -0.00000000000E+00 -0.00000000000E+00 -0.18250000000E+03  0.18250000000E+03  0.00000000000E+00 0.  1.
        -11    1    1    2    0    0 -0.55173900360E-01 -0.24828037887E+01  0.15842835160E+03  0.15844781459E+03  0.00000000000E+00 0. -1.
         11    1    1    2    0    0 -0.19595177523E+01 -0.44693918750E+01 -0.17880836385E+03  0.17887494558E+03  0.00000000000E+00 0.  1.
        -15    1    1    2    0    0  0.29473279576E+00  0.42436389526E+01 -0.19807937651E+01  0.50176301100E+01  0.17770000000E+01 0. -1.
         15    1    1    2    0    0  0.17199588568E+01  0.27085567112E+01  0.22360806015E+02  0.22659609718E+02  0.17770000000E+01 0.  1.
</event>
<event>
 6    1  0.1045352E-002  0.1848045E+03  0.7546771E-02  0.1066635E+00
        -11   -1    0    0    0    0  0.00000000000E+00  0.00000000000E+00  0.18250000000E+03  0.18250000000E+03  0.00000000000E+00 0. -1.
         11   -1    0    0    0    0 -0.00000000000E+00 -0.00000000000E+00 -0.18250000000E+03  0.18250000000E+03  0.00000000000E+00 0. -1.
        -11    1    1    2    0    0  0.32050037059E+01  0.15906021850E+01  0.17350818979E+03  0.17354507768E+03  0.00000000000E+00 0. -1.
         11    1    1    2    0    0  0.42492903371E+01 -0.26882129792E+01 -0.18012529066E+03  0.18019545858E+03  0.00000000000E+00 0. -1.
        -15    1    1    2    0    0 -0.64331780200E+01  0.90070607073E+00  0.62098992508E+01  0.91606565577E+01  0.17770000000E+01 0.  1.
         15    1    1    2    0    0 -0.10211160231E+01  0.19690472349E+00  0.40720162072E+00  0.20988071761E+01  0.17770000000E+01 0. -1.
</event>
<event>
 6    1  0.1045352E-002  0.1837422E+03  0.7546771E-02  0.1067470E+00
        -11   -1    0    0    0    0  0.00000000000E+00  0.00000000000E+00  0.18250000000E+03  0.18250000000E+03  0.00000000000E+00 0.  1.
         11   -1    0    0    0    0 -0.00000000000E+00 -0.00000000000E+00 -0.18250000000E+03  0.18250000000E+03  0.00000000000E+00 0.  1.
        -11    1    1    2    0    0  0.23103565601E+01  0.12484772321E+01  0.18123874175E+03  0.18125776660E+03  0.00000000000E+00 0.  1.
         11    1    1    2    0    0 -0.19899425361E+01 -0.15402498261E+01 -0.14567514408E+03  0.14569687657E+03  0.00000000000E+00 0.  1.
        -15    1    1    2    0    0  0.35659033073E+00  0.26837458211E+01 -0.34726296751E+02  0.34876970386E+02  0.17770000000E+01 0.  1.
         15    1    1    2    0    0 -0.67700435474E+00 -0.23919732271E+01 -0.83730091446E+00  0.31683864406E+01  0.17770000000E+01 0. -1.
</event>
<event>
 6    1  0.1045352E-002  0.1826107E+03  0.7546771E-02  0.1068367E+00
        -11   -1    0    0    0    0  0.00000000000E+00  0.00000000000E+00  0.18250000000E+03  0.18250000000E+03  0.00000000000E+00 0. -1.
         11   -1    0    0    0    0 -0.00000000000E+00 -0.00000000000E+00 -0.18250000000E+03  0.18250000000E+03  0.00000000000E+00 0. -1.
        -11    1    1    2    0    0  0.25569223632E+01 -0.41544557016E+01  0.18232406945E+03  0.18238931891E+03  0.00000000000E+00 0. -1.
         11    1    1    2    0    0 -0.11345162869E+01 -0.49526750910E+00 -0.83927458029E+02  0.83936586947E+02  0.00000000000E+00 0. -1.
        -15    1    1    2    0    0  0.33837955453E+00  0.39813943410E+01 -0.44238463915E+02  0.44454082154E+02  0.17770000000E+01 0. -1.
         15    1    1    2    0    0 -0.17607856308E+01  0.66832886977E+00 -0.54158147503E+02  0.54220011984E+02  0.17770000000E+01 0.  1.
</event>
<event>
 6    1  0.1045352E-002  0.1840687E+03  0.7546771E-02  0.1067213E+00
        -11   -1    0    0    0    0  0.00000000000E+00  0.00000000000E+00  0.18250000000E+03  0.18250000000E+03  0.00000000000E+00 0.  1.
         11   -1    0    0    0    0 -0.00000000000E+00 -0.00000000000E+00 -0.18250000000E+03  0.18250000000E+03  0.00000000000E+00 0. -1.
        -11    1    1    2    0    0  0.17132018334E+01  0.69942243894E+01  0.15425431861E+03  0.15442230747E+03  0.00000000000E+00 0.  1.
         11    1    1    2    0    0  0.47493167182E+01 -0.82105908371E+01 -0.18068245659E+03  0.18093125747E+03  0.00000000000E+00 0. -1.
        -15    1    1    2    0    0 -0.56793321687E+01  0.22075578621E+01  0.49268950270E+01  0.80349330554E+01  0.17770000000E+01 0. -1.
         15    1    1    2    0    0 -0.78318638288E+00 -0.99119141439E+00  0.21501242951E+02  0.21611502001E+02  0.17770000000E+01 0.  1.
</event>
<event>
 6    1  0.1045352E-002  0.1828191E+03  0.7546771E-02  0.1068201E+00
        -11   -1    0    0    0    0  0.00000000000E+00  0.00000000000E+00  0.18250000000E+03  0.18250000000E+03  0.00000000000E+00 0. -1.
         11   -1    0    0    0    0 -0.00000000000E+00 -0.00000000000E+00 -0.18250000000E+03  0.18250000000E+03  0.00000000000E+00 0.  1.
        -11    1    1    2    0    0 -0.16598477464E+02  0.22949087587E+02  0.17996583510E+03  0.18218087682E+03  0.00000000000E+00 0. -1.
         11    1    1    2    0    0  0.32661896453E+00 -0.10073730811E+01 -0.25453348800E+02  0.25475369391E+02  0.00000000000E+00 0.  1.
        -15    1    1    2    0    0  0.16938722754E+02 -0.17204267999E+02 -0.13613655407E+03  0.13827229025E+03  0.17770000000E+01 0.  1.
         15    1    1    2    0    0 -0.66686425460E+00 -0.47374465073E+01 -0.18375932229E+02  0.19071463542E+02  0.17770000000E+01 0. -1.
</event>
<event>
 6    1  0.1045352E-002  0.1875651E+03  0.7546771E-02  0.1064493E+00
        -11   -1    0    0    0    0  0.00000000000E+00  0.00000000000E+00  0.18250000000E+03  0.18250000000E+03  0.00000000000E+00 0. -1.
         11   -1    0    0    0    0 -0.00000000000E+00 -0.00000000000E+00 -0.18250000000E+03  0.18250000000E+03  0.00000000000E+00 0. -1.
        -11    1    1    2    0    0 -0.43230341463E+01 -0.88240302058E+00  0.17738008120E+03  0.17743494714E+03  0.00000000000E+00 0. -1.
         11    1    1    2    0    0  0.27811052843E+01  0.15465714704E+01 -0.17243452609E+03  0.17246388670E+03  0.00000000000E+00 0. -1.
        -15    1    1    2    0    0 -0.17085956155E+01 -0.24223954258E+00 -0.91513352554E+01  0.94806458077E+01  0.17770000000E+01 0.  1.
         15    1    1    2    0    0  0.32505244776E+01 -0.42192890728E+00  0.42057801414E+01  0.56205203478E+01  0.17770000000E+01 0. -1.
</event>
<event>
 6    1  0.1045352E-002  0.1832859E+03  0.7546771E-02  0.1067831E+00
        -11   -1    0    0    0    0  0.00000000000E+00  0.00000000000E+00  0.18250000000E+03  0.18250000000E+03  0.00000000000E+00 0.  1.
         11   -1    0    0    0    0 -0.00000000000E+00 -0.00000000000E+00 -0.18250000000E+03  0.18250000000E+03  0.00000000000E+00 0. -1.
        -11    1    1    2    0    0  0.63338788740E+01 -0.28701310932E+01  0.18158098387E+03  0.18171408690E+03  0.00000000000E+00 0.  1.
         11    1    1    2    0    0  0.30003131467E+01  0.14947068053E+01 -0.92068058369E+02  0.92129058387E+02  0.00000000000E+00 0. -1.
        -15    1    1    2    0    0 -0.10008175345E+02  0.62970040963E+01 -0.62556631076E+02  0.63689132942E+02  0.17770000000E+01 0. -1.
         15    1    1    2    0    0  0.67398332416E+00 -0.49215798085E+01 -0.26956294424E+02  0.27467721773E+02  0.17770000000E+01 0.  1.
</event>
<event>
 6    1  0.1045352E-002  0.1842608E+03  0.7546771E-02  0.1067062E+00
        -11   -1    0    0    0    0  0.00000000000E+00  0.00000000000E+00  0.18250000000E+03  0.18250000000E+03  0.00000000000E+00 0.  1.
         11   -1    0    0    0    0 -0.00000000000E+00 -0.00000000000E+00 -0.18250000000E+03  0.18250000000E+03  0.00000000000E+00 0. -1.
        -11    1    1    2    0    0 -0.43871185900E+01  0.11544808380E+01  0.16288291290E+03  0.16294607375E+03  0.00000000000E+00 0.  1.
         11    1    1    2    0    0  0.30329793549E+01  0.57075549042E+01 -0.18062358247E+03  0.18073918692E+03  0.00000000000E+00 0. -1.
        -15    1    1    2    0    0  0.37092708313E+01 -0.31884632843E+01  0.14970139121E+02  0.15848904774E+02  0.17770000000E+01 0.  1.
         15    1    1    2    0    0 -0.23551315962E+01 -0.36735724580E+01  0.27705304433E+01  0.54658345545E+01  0.17770000000E+01 0. -1.
</event>
<event>
 6    1  0.1045352E-002  0.1830109E+03  0.7546771E-02  0.1068049E+00
        -11   -1    0    0    0    0  0.00000000000E+00  0.00000000000E+00  0.18250000000E+03  0.18250000000E+03  0.00000000000E+00 0.  1.
         11   -1    0    0    0    0 -0.00000000000E+00 -0.00000000000E+00 -0.18250000000E+03  0.18250000000E+03  0.00000000000E+00 0. -1.
        -11    1    1    2    0    0  0.19404036360E+01 -0.23175838599E+01  0.18196399017E+03  0.18198909330E+03  0.00000000000E+00 0.  1.
         11    1    1    2    0    0 -0.65406222695E+01  0.15975603599E+01 -0.14362577341E+03  0.14378349949E+03  0.00000000000E+00 0. -1.
        -15    1    1    2    0    0  0.41110082900E+01 -0.12992465446E+01 -0.14463805593E+02  0.15196967855E+02  0.17770000000E+01 0. -1.
         15    1    1    2    0    0  0.48921034359E+00  0.20192700446E+01 -0.23874411168E+02  0.24030439361E+02  0.17770000000E+01 0.  1.
</event>
<event>
 6    1  0.1045352E-002  0.1276356E+03  0.7546771E-02  0.1123113E+00
        -11   -1    0    0    0    0  0.00000000000E+00  0.00000000000E+00  0.18250000000E+03  0.18250000000E+03  0.00000000000E+00 0. -1.
         11   -1    0    0    0    0 -0.00000000000E+00 -0.00000000000E+00 -0.18250000000E+03  0.18250000000E+03  0.00000000000E+00 0.  1.
        -11    1    1    2    0    0  0.21515082132E+02  0.32391128812E+01  0.15834086575E+03  0.15982872201E+03  0.00000000000E+00 0. -1.
         11    1    1    2    0    0  0.14667666297E+02  0.16729595950E+02 -0.13375486795E+02  0.25960035867E+02  0.00000000000E+00 0.  1.
        -15    1    1    2    0    0  0.29916264264E+02  0.88864038126E+01 -0.60739693350E+02  0.68311193208E+02  0.17770000000E+01 0. -1.
         15    1    1    2    0    0 -0.66099012693E+02 -0.28855112643E+02 -0.84225685608E+02  0.11090004892E+03  0.17770000000E+01 0.  1.
</event>
<event>
 6    1  0.1045352E-002  0.1529955E+03  0.7546771E-02  0.1094715E+00
        -11   -1    0    0    0    0  0.00000000000E+00  0.00000000000E+00  0.18250000000E+03  0.18250000000E+03  0.00000000000E+00 0.  1.
         11   -1    0    0    0    0 -0.00000000000E+00 -0.00000000000E+00 -0.18250000000E+03  0.18250000000E+03  0.00000000000E+00 0.  1.
        -11    1    1    2    0    0  0.19205770024E+01 -0.73742135737E+01  0.34488848095E+02  0.35320649552E+02  0.00000000000E+00 0.  1.
         11    1    1    2    0    0 -0.10524538002E+02 -0.12207849463E+01 -0.16193027737E+03  0.16227652616E+03  0.00000000000E+00 0.  1.
        -15    1    1    2    0    0 -0.51356087653E+01  0.24683340619E+01  0.14448048848E+03  0.14460372205E+03  0.17770000000E+01 0.  1.
         15    1    1    2    0    0  0.13739569764E+02  0.61266644581E+01 -0.17039059213E+02  0.22799102231E+02  0.17770000000E+01 0. -1.
</event>
<event>
 6    1  0.1045352E-002  0.1832699E+03  0.7546771E-02  0.1067844E+00
        -11   -1    0    0    0    0  0.00000000000E+00  0.00000000000E+00  0.18250000000E+03  0.18250000000E+03  0.00000000000E+00 0.  1.
         11   -1    0    0    0    0 -0.00000000000E+00 -0.00000000000E+00 -0.18250000000E+03  0.18250000000E+03  0.00000000000E+00 0. -1.
        -11    1    1    2    0    0 -0.78305731720E+00 -0.11827032214E+01  0.61176851881E+02  0.61193293519E+02  0.00000000000E+00 0.  1.
         11    1    1    2    0    0 -0.39901825815E+00 -0.71376156005E+01 -0.18158946606E+03  0.18173012671E+03  0.00000000000E+00 0. -1.
        -15    1    1    2    0    0 -0.21634687094E+01 -0.27229272339E+01  0.77671407771E+02  0.77769532876E+02  0.17770000000E+01 0.  1.
         15    1    1    2    0    0  0.33455442847E+01  0.11043246056E+02  0.42741206408E+02  0.44307046891E+02  0.17770000000E+01 0. -1.
</event>
<event>
 6    1  0.1045352E-002  0.1848942E+03  0.7546771E-02  0.1066565E+00
        -11   -1    0    0    0    0  0.00000000000E+00  0.00000000000E+00  0.18250000000E+03  0.18250000000E+03  0.00000000000E+00 0. -1.
         11   -1    0    0    0    0 -0.00000000000E+00 -0.00000000000E+00 -0.18250000000E+03  0.18250000000E+03  0.00000000000E+00 0.  1.
        -11    1    1    2    0    0  0.69079269185E+00  0.33823485673E+01  0.18007270177E+03  0.18010578946E+03  0.00000000000E+00 0. -1.
         11    1    1    2    0    0  0.40518665348E+01 -0.27969056293E+01 -0.17145169622E+03  0.17152237300E+03  0.00000000000E+00 0.  1.
        -15    1    1    2    0    0 -0.15114824427E+01 -0.20637369723E+01 -0.88602640169E+01  0.93917834789E+01  0.17770000000E+01 0.  1.
         15    1    1    2    0    0 -0.32311767839E+01  0.14782940342E+01  0.23925847116E+00  0.39800540545E+01  0.17770000000E+01 0. -1.
</event>
<event>
 6    1  0.1045352E-002  0.1845991E+03  0.7546771E-02  0.1066796E+00
        -11   -1    0    0    0    0  0.00000000000E+00  0.00000000000E+00  0.18250000000E+03  0.18250000000E+03  0.00000000000E+00 0.  1.
         11   -1    0    0    0    0 -0.00000000000E+00 -0.00000000000E+00 -0.18250000000E+03  0.18250000000E+03  0.00000000000E+00 0.  1.
        -11    1    1    2    0    0 -0.54939803411E+01  0.29124745710E+01  0.18029369111E+03  0.18040089075E+03  0.00000000000E+00 0.  1.
         11    1    1    2    0    0 -0.61440663792E+01  0.18513486780E+01 -0.13513760519E+03  0.13528987169E+03  0.00000000000E+00 0.  1.
        -15    1    1    2    0    0  0.13601135056E+02 -0.39927558653E+01 -0.44099687846E+02  0.46355939979E+02  0.17770000000E+01 0. -1.
         15    1    1    2    0    0 -0.19630883361E+01 -0.77106738368E+00 -0.10563980774E+01  0.29532975847E+01  0.17770000000E+01 0. -1.
</event>
<event>
 6    1  0.1045352E-002  0.1827634E+03  0.7546771E-02  0.1068245E+00
        -11   -1    0    0    0    0  0.00000000000E+00  0.00000000000E+00  0.18250000000E+03  0.18250000000E+03  0.00000000000E+00 0.  1.
         11   -1    0    0    0    0 -0.00000000000E+00 -0.00000000000E+00 -0.18250000000E+03  0.18250000000E+03  0.00000000000E+00 0. -1.
        -11    1    1    2    0    0  0.50729112454E+01 -0.16952527083E+01  0.18215811137E+03  0.18223662050E+03  0.00000000000E+00 0.  1.
         11    1    1    2    0    0 -0.16547541103E+01 -0.80740397629E+00 -0.45124902866E+02  0.45162450897E+02  0.00000000000E+00 0. -1.
        -15    1    1    2    0    0  0.75648220411E+00 -0.60623424497E+00 -0.42874849182E+01  0.47413121821E+01  0.17770000000E+01 0. -1.
         15    1    1    2    0    0 -0.41746393393E+01  0.31088909295E+01 -0.13274572359E+03  0.13285961643E+03  0.17770000000E+01 0. -1.
</event>
<event>
 6    1  0.1045352E-002  0.1852098E+03  0.7546771E-02  0.1066318E+00
        -11   -1    0    0    0    0  0.00000000000E+00  0.00000000000E+00  0.18250000000E+03  0.18250000000E+03  0.00000000000E+00 0. -1.
         11   -1    0    0    0    0 -0.00000000000E+00 -0.00000000000E+00 -0.18250000000E+03  0.18250000000E+03  0.00000000000E+00 0.  1.
        -11    1    1    2    0    0  0.14292230569E+00 -0.45807230025E+01  0.17973181563E+03  0.17979023611E+03  0.00000000000E+00 0. -1.
         11    1    1    2    0    0 -0.10491915178E+02 -0.54933073301E+01 -0.15567411086E+03  0.15612394275E+03  0.00000000000E+00 0.  1.
        -15    1    1    2    0    0  0.46183268113E+01  0.41060654168E+00 -0.69322829599E+01  0.85271223929E+01  0.17770000000E+01 0.  1.
         15    1    1    2    0    0  0.57306660614E+01  0.96634237910E+01 -0.17125421811E+02  0.20558698745E+02  0.17770000000E+01 0. -1.
</event>
<event>
 6    1  0.1045352E-002  0.1854476E+03  0.7546771E-02  0.1066132E+00
        -11   -1    0    0    0    0  0.00000000000E+00  0.00000000000E+00  0.18250000000E+03  0.18250000000E+03  0.00000000000E+00 0.  1.
         11   -1    0    0    0    0 -0.00000000000E+00 -0.00000000000E+00 -0.18250000000E+03  0.18250000000E+03  0.00000000000E+00 0.  1.
        -11    1    1    2    0    0 -0.44436468786E+01 -0.54359817677E+01  0.17941510175E+03  0.17955242865E+03  0.00000000000E+00 0.  1.
         11    1    1    2    0    0  0.20887207516E+00 -0.82685742691E+00 -0.33001091090E+02  0.33012108898E+02  0.00000000000E+00 0.  1.
        -15    1    1    2    0    0  0.16252022115E+02  0.15657955490E+02 -0.11785372139E+03  0.12000815458E+03  0.17770000000E+01 0.  1.
         15    1    1    2    0    0 -0.12017247311E+02 -0.93951162956E+01 -0.28560289278E+02  0.32427307872E+02  0.17770000000E+01 0. -1.
</event>
<event>
 6    1  0.1045352E-002  0.1875947E+03  0.7546771E-02  0.1064470E+00
        -11   -1    0    0    0    0  0.00000000000E+00  0.00000000000E+00  0.18250000000E+03  0.18250000000E+03  0.00000000000E+00 0. -1.
         11   -1    0    0    0    0 -0.00000000000E+00 -0.00000000000E+00 -0.18250000000E+03  0.18250000000E+03  0.00000000000E+00 0.  1.
        -11    1    1    2    0    0  0.42374002380E+01  0.26521149923E+01  0.17472425776E+03  0.17479575374E+03  0.00000000000E+00 0. -1.
         11    1    1    2    0    0 -0.57072733177E+01 -0.37366811631E+01 -0.17727414116E+03  0.17740534625E+03  0.00000000000E+00 0.  1.
        -15    1    1    2    0    0 -0.50826192411E+01  0.63695289592E+00 -0.28199808963E+00  0.54291785073E+01  0.17770000000E+01 0.  1.
         15    1    1    2    0    0  0.65524923208E+01  0.44761327493E+00  0.28318814836E+01  0.73697215005E+01  0.17770000000E+01 0. -1.
</event>
<event>
 6    1  0.1045352E-002  0.1830185E+03  0.7546771E-02  0.1068043E+00
        -11   -1    0    0    0    0  0.00000000000E+00  0.00000000000E+00  0.18250000000E+03  0.18250000000E+03  0.00000000000E+00 0. -1.
         11   -1    0    0    0    0 -0.00000000000E+00 -0.00000000000E+00 -0.18250000000E+03  0.18250000000E+03  0.00000000000E+00 0. -1.
        -11    1    1    2    0    0 -0.80719079104E+00  0.21086049498E+01  0.14843714954E+03  0.14845432003E+03  0.00000000000E+00 0. -1.
         11    1    1    2    0    0 -0.40760719317E+01 -0.14922741054E+01 -0.18192975127E+03  0.18198152555E+03  0.00000000000E+00 0. -1.
        -15    1    1    2    0    0  0.30271390064E+01 -0.11566670497E+00  0.60388961336E+01  0.69859104534E+01  0.17770000000E+01 0. -1.
         15    1    1    2    0    0  0.18561237164E+01 -0.50066413945E+00  0.27453705605E+02  0.27578243967E+02  0.17770000000E+01 0.  1.
</event>
<event>
 6    1  0.1045352E-002  0.1856332E+03  0.7546771E-02  0.1065988E+00
        -11   -1    0    0    0    0  0.00000000000E+00  0.00000000000E+00  0.18250000000E+03  0.18250000000E+03  0.00000000000E+00 0.  1.
         11   -1    0    0    0    0 -0.00000000000E+00 -0.00000000000E+00 -0.18250000000E+03  0.18250000000E+03  0.00000000000E+00 0.  1.
        -11    1    1    2    0    0  0.80330137211E+00  0.91575012920E+01  0.17913107154E+03  0.17936679156E+03  0.00000000000E+00 0.  1.
         11    1    1    2    0    0 -0.30396708890E+01 -0.10583086744E+01 -0.15705449349E+03  0.15708747099E+03  0.00000000000E+00 0.  1.
        -15    1    1    2    0    0  0.25701451900E+00 -0.89513400647E+01 -0.35273065551E+01  0.97873472377E+01  0.17770000000E+01 0. -1.
         15    1    1    2    0    0  0.19793549978E+01  0.85214744710E+00 -0.18549271493E+02  0.18758390214E+02  0.17770000000E+01 0.  1.
</event>
<event>
 6    1  0.1045352E-002  0.1833468E+03  0.7546771E-02  0.1067783E+00
        -11   -1    0    0    0    0  0.00000000000E+00  0.00000000000E+00  0.18250000000E+03  0.18250000000E+03  0.00000000000E+00 0. -1.
         11   -1    0    0    0    0 -0.00000000000E+00 -0.00000000000E+00 -0.18250000000E+03  0.18250000000E+03  0.00000000000E+00 0.  1.
        -11    1    1    2    0    0  0.16229376774E+01 -0.28972301170E-01  0.38632737124E+02  0.38666822262E+02  0.00000000000E+00 0. -1.
         11    1    1    2    0    0  0.43097840866E+01  0.29179191911E+01 -0.18157864701E+03  0.18165322332E+03  0.00000000000E+00 0.  1.
        -15    1    1    2    0    0 -0.40818253975E+01 -0.57688747524E+01  0.15003808783E+02  0.16679724862E+02  0.17770000000E+01 0.  1.
         15    1    1    2    0    0 -0.18508963666E+01  0.28799278625E+01  0.12794210111E+03  0.12800022956E+03  0.17770000000E+01 0. -1.
</event>
<event>
 6    1  0.1045352E-002  0.1866385E+03  0.7546771E-02  0.1065207E+00
        -11   -1    0    0    0    0  0.00000000000E+00  0.00000000000E+00  0.18250000000E+03  0.18250000000E+03  0.00000000000E+00 0.  1.
         11   -1    0    0    0    0 -0.00000000000E+00 -0.00000000000E+00 -0.18250000000E+03  0.18250000000E+03  0.00000000000E+00 0.  1.
        -11    1    1    2    0    0  0.44797465412E+01 -0.11151374415E+02  0.17795613817E+03  0.17836145434E+03  0.00000000000E+00 0.  1.
         11    1    1    2    0    0 -0.53428767492E+01 -0.67057541503E+00 -0.15107899823E+03  0.15117493083E+03  0.00000000000E+00 0.  1.
        -15    1    1    2    0    0  0.10212734596E+02  0.63867722753E+01 -0.13989667791E+02  0.18546140891E+02  0.17770000000E+01 0. -1.
         15    1    1    2    0    0 -0.93496043884E+01  0.54351775542E+01 -0.12887472150E+02  0.16917473945E+02  0.17770000000E+01 0.  1.
</event>
<event>
 6    1  0.1045352E-002  0.1872895E+03  0.7546771E-02  0.1064705E+00
        -11   -1    0    0    0    0  0.00000000000E+00  0.00000000000E+00  0.18250000000E+03  0.18250000000E+03  0.00000000000E+00 0.  1.
         11   -1    0    0    0    0 -0.00000000000E+00 -0.00000000000E+00 -0.18250000000E+03  0.18250000000E+03  0.00000000000E+00 0.  1.
        -11    1    1    2    0    0  0.27727293398E+01  0.13558654074E+01  0.15462535321E+03  0.15465615492E+03  0.00000000000E+00 0.  1.
         11    1    1    2    0    0 -0.15022270525E+01  0.10761357571E+02 -0.17737801891E+03  0.17771050924E+03  0.00000000000E+00 0.  1.
        -15    1    1    2    0    0  0.19653892965E+01 -0.80636546017E+00 -0.31103674499E+01  0.41647442918E+01  0.17770000000E+01 0. -1.
         15    1    1    2    0    0 -0.32358915839E+01 -0.11310857519E+02  0.25863033143E+02  0.28468591544E+02  0.17770000000E+01 0.  1.
</event>
<event>
 6    1  0.1045352E-002  0.2185282E+03  0.7546771E-02  0.1042920E+00
        -11   -1    0    0    0    0  0.00000000000E+00  0.00000000000E+00  0.18250000000E+03  0.18250000000E+03  0.00000000000E+00 0.  1.
         11   -1    0    0    0    0 -0.00000000000E+00 -0.00000000000E+00 -0.18250000000E+03  0.18250000000E+03  0.00000000000E+00 0.  1.
        -11    1    1    2    0    0  0.30484279638E+01 -0.62854646262E+00  0.14643870608E+03  0.14647178097E+03  0.00000000000E+00 0.  1.
         11    1    1    2    0    0 -0.49722027590E+01  0.79140045878E+01 -0.13236048835E+03  0.13269006423E+03  0.00000000000E+00 0.  1.
        -15    1    1    2    0    0  0.12828962844E+02  0.63742331084E+01 -0.46648854521E+02  0.48831204086E+02  0.17770000000E+01 0. -1.
         15    1    1    2    0    0 -0.10905188049E+02 -0.13659691234E+02  0.32570636793E+02  0.37006950713E+02  0.17770000000E+01 0.  1.
</event>
<event>
 6    1  0.1045352E-002  0.1835613E+03  0.7546771E-02  0.1067613E+00
        -11   -1    0    0    0    0  0.00000000000E+00  0.00000000000E+00  0.18250000000E+03  0.18250000000E+03  0.00000000000E+00 0.  1.
         11   -1    0    0    0    0 -0.00000000000E+00 -0.00000000000E+00 -0.18250000000E+03  0.18250000000E+03  0.00000000000E+00 0.  1.
        -11    1    1    2    0    0 -0.66841535328E+00 -0.25925931555E+00  0.22219105793E+02  0.22230669282E+02  0.00000000000E+00 0.  1.
         11    1    1    2    0    0 -0.62105236207E+01 -0.84999960377E+01 -0.18113303983E+03  0.18143869118E+03  0.00000000000E+00 0.  1.
        -15    1    1    2    0    0  0.42272820182E+01 -0.17489926220E+01  0.13416122909E+03  0.13425096651E+03  0.17770000000E+01 0.  1.
         15    1    1    2    0    0  0.26516569557E+01  0.10508247975E+02  0.24752704949E+02  0.27079673030E+02  0.17770000000E+01 0.  1.
</event>
<event>
 6    1  0.1045352E-002  0.1720204E+03  0.7546771E-02  0.1077117E+00
        -11   -1    0    0    0    0  0.00000000000E+00  0.00000000000E+00  0.18250000000E+03  0.18250000000E+03  0.00000000000E+00 0. -1.
         11   -1    0    0    0    0 -0.00000000000E+00 -0.00000000000E+00 -0.18250000000E+03  0.18250000000E+03  0.00000000000E+00 0. -1.
        -11    1    1    2    0    0  0.38329785542E+01  0.71614405352E+01  0.17403166879E+03  0.17422112299E+03  0.00000000000E+00 0. -1.
         11    1    1    2    0    0  0.44459109069E+01  0.41776057406E+01 -0.17002001790E+03  0.17012943602E+03  0.00000000000E+00 0. -1.
        -15    1    1    2    0    0 -0.24665967976E+01 -0.93355139228E+01 -0.83742430049E+01  0.12904324658E+02  0.17770000000E+01 0. -1.
         15    1    1    2    0    0 -0.58122926635E+01 -0.20035323530E+01  0.43625921179E+01  0.77451163247E+01  0.17770000000E+01 0.  1.
</event>
<event>
 6    1  0.1045352E-002  0.1883929E+03  0.7546771E-02  0.1063858E+00
        -11   -1    0    0    0    0  0.00000000000E+00  0.00000000000E+00  0.18250000000E+03  0.18250000000E+03  0.00000000000E+00 0.  1.
         11   -1    0    0    0    0 -0.00000000000E+00 -0.00000000000E+00 -0.18250000000E+03  0.18250000000E+03  0.00000000000E+00 0.  1.
        -11    1    1    2    0    0 -0.33097674566E+01 -0.12767073378E+01  0.17113460832E+03  0.17117137234E+03  0.00000000000E+00 0.  1.
         11    1    1    2    0    0 -0.95874809655E+00  0.35866680688E+01 -0.17656807202E+03  0.17660709907E+03  0.00000000000E+00 0.  1.
        -15    1    1    2    0    0  0.52748491148E+01  0.66660134799E-02  0.10154594002E+02  0.11580051207E+02  0.17770000000E+01 0. -1.
         15    1    1    2    0    0 -0.10063335617E+01 -0.23166267445E+01 -0.47211303024E+01  0.56414773812E+01  0.17770000000E+01 0. -1.
</event>
<event>
 6    1  0.1740673E-002  0.1825837E+03  0.7546771E-02  0.1068388E+00
        -11   -1    0    0    0    0  0.00000000000E+00  0.00000000000E+00  0.18250000000E+03  0.18250000000E+03  0.00000000000E+00 0.  1.
         11   -1    0    0    0    0 -0.00000000000E+00 -0.00000000000E+00 -0.18250000000E+03  0.18250000000E+03  0.00000000000E+00 0.  1.
        -11    1    1    2    0    0  0.53828258351E+00  0.37553176143E+01  0.18237687134E+03  0.18241632426E+03  0.00000000000E+00 0.  1.
         11    1    1    2    0    0  0.78403941647E+00 -0.22646535816E+00 -0.44737098584E+02  0.44744541500E+02  0.00000000000E+00 0.  1.
        -15    1    1    2    0    0 -0.21680015520E+00 -0.77561891360E+00 -0.10472583764E+03  0.10474400883E+03  0.17770000000E+01 0.  1.
         15    1    1    2    0    0 -0.11055218448E+01 -0.27532333426E+01 -0.32913935112E+02  0.33095125411E+02  0.17770000000E+01 0. -1.
</event>
<event>
 6    1  0.1045352E-002  0.1633770E+03  0.7546771E-02  0.1084786E+00
        -11   -1    0    0    0    0  0.00000000000E+00  0.00000000000E+00  0.18250000000E+03  0.18250000000E+03  0.00000000000E+00 0.  1.
         11   -1    0    0    0    0 -0.00000000000E+00 -0.00000000000E+00 -0.18250000000E+03  0.18250000000E+03  0.00000000000E+00 0. -1.
        -11    1    1    2    0    0  0.17263341324E+02 -0.11927772749E+02  0.16453920084E+03  0.16587176773E+03  0.00000000000E+00 0.  1.
         11    1    1    2    0    0  0.49072337092E+01  0.10627860957E+01 -0.16174765079E+03  0.16182556348E+03  0.00000000000E+00 0. -1.
        -15    1    1    2    0    0 -0.26457863543E+02  0.12247639031E+02 -0.79050693845E+01  0.30260057106E+02  0.17770000000E+01 0.  1.
         15    1    1    2    0    0  0.42872885097E+01 -0.13826523780E+01  0.51135193381E+01  0.70426116878E+01  0.17770000000E+01 0. -1.
</event>
<event>
 6    1  0.1045352E-002  0.1848376E+03  0.7546771E-02  0.1066609E+00
        -11   -1    0    0    0    0  0.00000000000E+00  0.00000000000E+00  0.18250000000E+03  0.18250000000E+03  0.00000000000E+00 0. -1.
         11   -1    0    0    0    0 -0.00000000000E+00 -0.00000000000E+00 -0.18250000000E+03  0.18250000000E+03  0.00000000000E+00 0. -1.
        -11    1    1    2    0    0 -0.60788211289E+01 -0.52446637987E+01  0.16754515245E+03  0.16773740392E+03  0.00000000000E+00 0. -1.
         11    1    1    2    0    0  0.15336039492E+01  0.19944160317E+01 -0.18014485831E+03  0.18016242564E+03  0.00000000000E+00 0. -1.
        -15    1    1    2    0    0 -0.17702362614E+01  0.13380130178E+00 -0.51341341555E-01  0.25123702241E+01  0.17770000000E+01 0. -1.
         15    1    1    2    0    0  0.63154534411E+01  0.31164464652E+01  0.12651047200E+02  0.14587800211E+02  0.17770000000E+01 0.  1.
</event>
<event>
 6    1  0.1045352E-002  0.1830814E+03  0.7546771E-02  0.1067993E+00
        -11   -1    0    0    0    0  0.00000000000E+00  0.00000000000E+00  0.18250000000E+03  0.18250000000E+03  0.00000000000E+00 0. -1.
         11   -1    0    0    0    0 -0.00000000000E+00 -0.00000000000E+00 -0.18250000000E+03  0.18250000000E+03  0.00000000000E+00 0.  1.
        -11    1    1    2    0    0 -0.38483910082E+01  0.29064261327E+01  0.50447733726E+02  0.50677719604E+02  0.00000000000E+00 0. -1.
         11    1    1    2    0    0 -0.44893572879E+01 -0.18936490401E+01 -0.18185331899E+03  0.18191858032E+03  0.00000000000E+00 0.  1.
        -15    1    1    2    0    0  0.67963585409E+01 -0.51324718978E+01  0.11492720849E+03  0.11525603558E+03  0.17770000000E+01 0.  1.
         15    1    1    2    0    0  0.15413897552E+01  0.41196948051E+01  0.16478376772E+02  0.17147664497E+02  0.17770000000E+01 0. -1.
</event>
<event>
 6    1  0.1045352E-002  0.1834258E+03  0.7546771E-02  0.1067720E+00
        -11   -1    0    0    0    0  0.00000000000E+00  0.00000000000E+00  0.18250000000E+03  0.18250000000E+03  0.00000000000E+00 0.  1.
         11   -1    0    0    0    0 -0.00000000000E+00 -0.00000000000E+00 -0.18250000000E+03  0.18250000000E+03  0.00000000000E+00 0. -1.
        -11    1    1    2    0    0  0.11654180447E+02 -0.52954942248E+01  0.18112242502E+03  0.18157421355E+03  0.00000000000E+00 0.  1.
         11    1    1    2    0    0 -0.13141951339E+01  0.78595490687E+00 -0.54473777381E+02  0.54495295725E+02  0.00000000000E+00 0. -1.
        -15    1    1    2    0    0 -0.95010052703E+01  0.27349312445E+01 -0.21313687229E+02  0.23562256733E+02  0.17770000000E+01 0.  1.
         15    1    1    2    0    0 -0.83898004244E+00  0.17746080735E+01 -0.10533496041E+03  0.10536823399E+03  0.17770000000E+01 0. -1.
</event>
<event>
 6    1  0.1045352E-002  0.1858707E+03  0.7546771E-02  0.1065803E+00
        -11   -1    0    0    0    0  0.00000000000E+00  0.00000000000E+00  0.18250000000E+03  0.18250000000E+03  0.00000000000E+00 0. -1.
         11   -1    0    0    0    0 -0.00000000000E+00 -0.00000000000E+00 -0.18250000000E+03  0.18250000000E+03  0.00000000000E+00 0.  1.
        -11    1    1    2    0    0  0.23731274828E+00  0.45610337146E+01  0.17907109154E+03  0.17912932527E+03  0.00000000000E+00 0. -1.
         11    1    1    2    0    0  0.15933612262E+01  0.75249650539E+01 -0.15519600103E+03  0.15538649437E+03  0.00000000000E+00 0.  1.
        -15    1    1    2    0    0 -0.91697449899E+00 -0.11668818316E+02 -0.25341684208E+02  0.27970714160E+02  0.17770000000E+01 0. -1.
         15    1    1    2    0    0 -0.91369947546E+00 -0.41718045283E+00  0.14665936891E+01  0.25134661944E+01  0.17770000000E+01 0.  1.
</event>
<event>
 6    1  0.1045352E-002  0.1842758E+03  0.7546771E-02  0.1067050E+00
        -11   -1    0    0    0    0  0.00000000000E+00  0.00000000000E+00  0.18250000000E+03  0.18250000000E+03  0.00000000000E+00 0. -1.
         11   -1    0    0    0    0 -0.00000000000E+00 -0.00000000000E+00 -0.18250000000E+03  0.18250000000E+03  0.00000000000E+00 0.  1.
        -11    1    1    2    0    0  0.44243289260E+01 -0.12325794907E+01  0.18066579040E+03  0.18072415932E+03  0.00000000000E+00 0. -1.
         11    1    1    2    0    0 -0.58059998487E+01  0.83536249486E+01 -0.12903303457E+03  0.12943344504E+03  0.00000000000E+00 0.  1.
        -15    1    1    2    0    0  0.43045144417E+01 -0.11793273450E+02 -0.36500497651E+02  0.38640059537E+02  0.17770000000E+01 0.  1.
         15    1    1    2    0    0 -0.29228435190E+01  0.46722279919E+01 -0.15132258179E+02  0.16202336105E+02  0.17770000000E+01 0. -1.
</event>
<event>
 6    1  0.1045352E-002  0.1906415E+03  0.7546771E-02  0.1062153E+00
        -11   -1    0    0    0    0  0.00000000000E+00  0.00000000000E+00  0.18250000000E+03  0.18250000000E+03  0.00000000000E+00 0.  1.
         11   -1    0    0    0    0 -0.00000000000E+00 -0.00000000000E+00 -0.18250000000E+03  0.18250000000E+03  0.00000000000E+00 0. -1.
        -11    1    1    2    0    0 -0.18723953365E+01 -0.39599357611E+01  0.15124475376E+03  0.15130817061E+03  0.00000000000E+00 0.  1.
         11    1    1    2    0    0  0.45213801608E+01  0.33681002848E+01 -0.17426731878E+03  0.17435849670E+03  0.00000000000E+00 0. -1.
        -15    1    1    2    0    0 -0.15527479120E+02 -0.47291861542E+01  0.63202469321E+01  0.17509170734E+02  0.17770000000E+01 0.  1.
         15    1    1    2    0    0  0.12878494296E+02  0.53210216306E+01  0.16702318086E+02  0.21824161954E+02  0.17770000000E+01 0. -1.
</event>
<event>
 6    1  0.1045352E-002  0.1872617E+03  0.7546771E-02  0.1064726E+00
        -11   -1    0    0    0    0  0.00000000000E+00  0.00000000000E+00  0.18250000000E+03  0.18250000000E+03  0.00000000000E+00 0. -1.
         11   -1    0    0    0    0 -0.00000000000E+00 -0.00000000000E+00 -0.18250000000E+03  0.18250000000E+03  0.00000000000E+00 0.  1.
        -11    1    1    2    0    0 -0.18774846864E+01 -0.13507130955E+02  0.17721440293E+03  0.17773832491E+03  0.00000000000E+00 0. -1.
         11    1    1    2    0    0 -0.64804836812E+01 -0.14517381394E+02 -0.94985658452E+02  0.96306938186E+02  0.00000000000E+00 0.  1.
        -15    1    1    2    0    0  0.15446608688E+02  0.26180081983E+02 -0.56986488609E+02  0.64611237610E+02  0.17770000000E+01 0.  1.
         15    1    1    2    0    0 -0.70886403199E+01  0.18444303656E+01 -0.25242255867E+02  0.26343499297E+02  0.17770000000E+01 0. -1.
</event>
<event>
 6    1  0.1045352E-002  0.1836613E+03  0.7546771E-02  0.1067534E+00
        -11   -1    0    0    0    0  0.00000000000E+00  0.00000000000E+00  0.18250000000E+03  0.18250000000E+03  0.00000000000E+00 0.  1.
         11   -1    0    0    0    0 -0.00000000000E+00 -0.00000000000E+00 -0.18250000000E+03  0.18250000000E+03  0.00000000000E+00 0.  1.
        -11    1    1    2    0    0  0.88641004408E+01 -0.18200097842E+01  0.18111281238E+03  0.18133873144E+03  0.00000000000E+00 0.  1.
         11    1    1    2    0    0  0.48077125194E+00  0.36061114343E+01 -0.63568176130E+02  0.63672193280E+02  0.00000000000E+00 0.  1.
        -15    1    1    2    0    0 -0.79324811598E+01 -0.26354391384E+01 -0.13904605430E+02  0.16320710094E+02  0.17770000000E+01 0. -1.
         15    1    1    2    0    0 -0.14123905329E+01  0.84933748837E+00 -0.10364003082E+03  0.10366836518E+03  0.17770000000E+01 0.  1.
</event>
<event>
 6    1  0.1045352E-002  0.1851479E+03  0.7546771E-02  0.1066366E+00
        -11   -1    0    0    0    0  0.00000000000E+00  0.00000000000E+00  0.18250000000E+03  0.18250000000E+03  0.00000000000E+00 0.  1.
         11   -1    0    0    0    0 -0.00000000000E+00 -0.00000000000E+00 -0.18250000000E+03  0.18250000000E+03  0.00000000000E+00 0.  1.
        -11    1    1    2    0    0 -0.22659306278E+01  0.21592182956E+01  0.17856514929E+03  0.17859257882E+03  0.00000000000E+00 0.  1.
         11    1    1    2    0    0  0.31629237073E+01 -0.28549003022E+01 -0.17980161215E+03  0.17985208999E+03  0.00000000000E+00 0.  1.
        -15    1    1    2    0    0  0.25564521177E+00  0.14382730746E+01  0.29432783658E+01  0.37355856904E+01  0.17770000000E+01 0. -1.
         15    1    1    2    0    0 -0.11526382913E+01 -0.74259106801E+00 -0.17068155137E+01  0.28197455067E+01  0.17770000000E+01 0.  1.
</event>
<event>
 6    1  0.1045352E-002  0.1857630E+03  0.7546771E-02  0.1065887E+00
        -11   -1    0    0    0    0  0.00000000000E+00  0.00000000000E+00  0.18250000000E+03  0.18250000000E+03  0.00000000000E+00 0. -1.
         11   -1    0    0    0    0 -0.00000000000E+00 -0.00000000000E+00 -0.18250000000E+03  0.18250000000E+03  0.00000000000E+00 0. -1.
        -11    1    1    2    0    0 -0.16205307637E+01  0.23004841325E+01  0.17921486949E+03  0.17923695990E+03  0.00000000000E+00 0. -1.
         11    1    1    2    0    0 -0.96297745365E+01 -0.71740805538E+01 -0.10221361606E+03  0.10291658417E+03  0.00000000000E+00 0. -1.
        -15    1    1    2    0    0  0.32807400482E+01  0.22022771633E+01 -0.73405392020E+02  0.73533139376E+02  0.17770000000E+01 0. -1.
         15    1    1    2    0    0  0.79695652519E+01  0.26713192580E+01 -0.35958614123E+01  0.93133165510E+01  0.17770000000E+01 0.  1.
</event>
<event>
 6    1  0.1045352E-002  0.1845472E+03  0.7546771E-02  0.1066837E+00
        -11   -1    0    0    0    0  0.00000000000E+00  0.00000000000E+00  0.18250000000E+03  0.18250000000E+03  0.00000000000E+00 0. -1.
         11   -1    0    0    0    0 -0.00000000000E+00 -0.00000000000E+00 -0.18250000000E+03  0.18250000000E+03  0.00000000000E+00 0. -1.
        -11    1    1    2    0    0 -0.10130796027E+02  0.38521805208E+01  0.18012697308E+03  0.18045276045E+03  0.00000000000E+00 0. -1.
         11    1    1    2    0    0  0.16242113232E+01  0.47990021040E+01 -0.11513173188E+03  0.11524315238E+03  0.00000000000E+00 0. -1.
        -15    1    1    2    0    0  0.30459276354E+01 -0.91320352604E+01 -0.62078057234E+02  0.62845164191E+02  0.17770000000E+01 0. -1.
         15    1    1    2    0    0  0.54606570679E+01  0.48085263566E+00 -0.29171839609E+01  0.64589229855E+01  0.17770000000E+01 0.  1.
</event>
<event>
 6    1  0.1045352E-002  0.1917034E+03  0.7546771E-02  0.1061356E+00
        -11   -1    0    0    0    0  0.00000000000E+00  0.00000000000E+00  0.18250000000E+03  0.18250000000E+03  0.00000000000E+00 0. -1.
         11   -1    0    0    0    0 -0.00000000000E+00 -0.00000000000E+00 -0.18250000000E+03  0.18250000000E+03  0.00000000000E+00 0. -1.
        -11    1    1    2    0    0 -0.75602434950E+01 -0.28070197308E+01  0.13781704562E+03  0.13805279680E+03  0.00000000000E+00 0. -1.
         11    1    1    2    0    0 -0.27836819127E+01  0.77312478737E+00 -0.17327247491E+03  0.17329655844E+03  0.00000000000E+00 0. -1.
        -15    1    1    2    0    0  0.18080486736E+01  0.25414983836E+00 -0.84638096920E+01  0.88389725449E+01  0.17770000000E+01 0.  1.
         15    1    1    2    0    0  0.85358767341E+01  0.17797451051E+01  0.43919238985E+02  0.44811672210E+02  0.17770000000E+01 0.  1.
</event>
<event>
 6    1  0.1045352E-002  0.1867335E+03  0.7546771E-02  0.1065134E+00
        -11   -1    0    0    0    0  0.00000000000E+00  0.00000000000E+00  0.18250000000E+03  0.18250000000E+03  0.00000000000E+00 0.  1.
         11   -1    0    0    0    0 -0.00000000000E+00 -0.00000000000E+00 -0.18250000000E+03  0.18250000000E+03  0.00000000000E+00 0. -1.
        -11    1    1    2    0    0 -0.18823773070E+01  0.32011182937E+01  0.40348423471E+02  0.40518955802E+02  0.00000000000E+00 0.  1.
         11    1    1    2    0    0  0.71874061525E+01  0.24695115129E+01 -0.17810438578E+03  0.17826645655E+03  0.00000000000E+00 0. -1.
        -15    1    1    2    0    0 -0.49420758308E+01 -0.67790993545E+01  0.14158001507E+03  0.14183948215E+03  0.17770000000E+01 0. -1.
         15    1    1    2    0    0 -0.36295301468E+00  0.11084695479E+01 -0.38240527587E+01  0.43751054994E+01  0.17770000000E+01 0.  1.
</event>
<event>
 6    1  0.1045352E-002  0.1874140E+03  0.7546771E-02  0.1064609E+00
        -11   -1    0    0    0    0  0.00000000000E+00  0.00000000000E+00  0.18250000000E+03  0.18250000000E+03  0.00000000000E+00 0. -1.
         11   -1    0    0    0    0 -0.00000000000E+00 -0.00000000000E+00 -0.18250000000E+03  0.18250000000E+03  0.00000000000E+00 0.  1.
        -11    1    1    2    0    0 -0.38497251237E+01 -0.20791433132E+01  0.14490384297E+03  0.14496988283E+03  0.00000000000E+00 0. -1.
         11    1    1    2    0    0  0.95260235104E+01 -0.15242355791E+02 -0.17667401047E+03  0.17758598061E+03  0.00000000000E+00 0.  1.
        -15    1    1    2    0    0 -0.27117413829E+01  0.55987508173E+01 -0.18024757489E+01  0.67161149385E+01  0.17770000000E+01 0.  1.
         15    1    1    2    0    0 -0.29645570037E+01  0.11722748286E+02  0.33572643250E+02  0.35728021628E+02  0.17770000000E+01 0. -1.
</event>
<event>
 6    1  0.1045352E-002  0.1877437E+03  0.7546771E-02  0.1064356E+00
        -11   -1    0    0    0    0  0.00000000000E+00  0.00000000000E+00  0.18250000000E+03  0.18250000000E+03  0.00000000000E+00 0.  1.
         11   -1    0    0    0    0 -0.00000000000E+00 -0.00000000000E+00 -0.18250000000E+03  0.18250000000E+03  0.00000000000E+00 0.  1.
        -11    1    1    2    0    0 -0.14577989217E+01 -0.50446835487E+01  0.68325900472E+02  0.68527386388E+02  0.00000000000E+00 0.  1.
         11    1    1    2    0    0 -0.19926921001E+01  0.24243987410E+01 -0.17722852181E+03  0.17725630447E+03  0.00000000000E+00 0.  1.
        -15    1    1    2    0    0  0.15668379944E+01 -0.13636770390E+01 -0.47414234867E+01  0.54729719575E+01  0.17770000000E+01 0.  1.
         15    1    1    2    0    0  0.18836530274E+01  0.39839618467E+01  0.11364404483E+03  0.11374333719E+03  0.17770000000E+01 0.  1.
</event>
<event>
 6    1  0.1045352E-002  0.1850108E+03  0.7546771E-02  0.1066474E+00
        -11   -1    0    0    0    0  0.00000000000E+00  0.00000000000E+00  0.18250000000E+03  0.18250000000E+03  0.00000000000E+00 0. -1.
         11   -1    0    0    0    0 -0.00000000000E+00 -0.00000000000E+00 -0.18250000000E+03  0.18250000000E+03  0.00000000000E+00 0.  1.
        -11    1    1    2    0    0 -0.14716885453E+01 -0.28391638173E+01  0.14286910523E+03  0.14290489127E+03  0.00000000000E+00 0. -1.
         11    1    1    2    0    0  0.21352066462E+01  0.66187186711E+01 -0.17985474615E+03  0.17998915594E+03  0.00000000000E+00 0.  1.
        -15    1    1    2    0    0 -0.39977787139E+00 -0.14465913192E+01  0.38652485864E+02  0.38722407483E+02  0.17770000000E+01 0. -1.
         15    1    1    2    0    0 -0.26374022954E+00 -0.23329635346E+01 -0.16668449460E+01  0.33835453058E+01  0.17770000000E+01 0.  1.
</event>
<event>
 6    1  0.1045352E-002  0.1826070E+03  0.7546771E-02  0.1068370E+00
        -11   -1    0    0    0    0  0.00000000000E+00  0.00000000000E+00  0.18250000000E+03  0.18250000000E+03  0.00000000000E+00 0.  1.
         11   -1    0    0    0    0 -0.00000000000E+00 -0.00000000000E+00 -0.18250000000E+03  0.18250000000E+03  0.00000000000E+00 0.  1.
        -11    1    1    2    0    0  0.23003788361E+01  0.18722079488E+01  0.18236890114E+03  0.18239301799E+03  0.00000000000E+00 0.  1.
         11    1    1    2    0    0 -0.17663029101E+01  0.43166155956E+00 -0.11229931759E+03  0.11231403692E+03  0.00000000000E+00 0.  1.
        -15    1    1    2    0    0 -0.17907827230E+01 -0.62286594308E+00 -0.44522915503E+02  0.44598683821E+02  0.17770000000E+01 0.  1.
         15    1    1    2    0    0  0.12567067971E+01 -0.16810035652E+01 -0.25546668052E+02  0.25694261276E+02  0.17770000000E+01 0.  1.
</event>
<event>
 6    1  0.1045352E-002  0.1835735E+03  0.7546771E-02  0.1067603E+00
        -11   -1    0    0    0    0  0.00000000000E+00  0.00000000000E+00  0.18250000000E+03  0.18250000000E+03  0.00000000000E+00 0.  1.
         11   -1    0    0    0    0 -0.00000000000E+00 -0.00000000000E+00 -0.18250000000E+03  0.18250000000E+03  0.00000000000E+00 0. -1.
        -11    1    1    2    0    0 -0.12530830332E+01 -0.64408401157E+00  0.10006151477E+03  0.10007143349E+03  0.00000000000E+00 0.  1.
         11    1    1    2    0    0  0.88650923974E+00  0.37727322271E+01 -0.18138507948E+03  0.18142647675E+03  0.00000000000E+00 0. -1.
        -15    1    1    2    0    0  0.12322025413E+01 -0.58443657036E+00  0.79979990799E+02  0.80011352610E+02  0.17770000000E+01 0.  1.
         15    1    1    2    0    0 -0.86562874786E+00 -0.25442116451E+01  0.13435739113E+01  0.34907371542E+01  0.17770000000E+01 0.  1.
</event>
<event>
 6    1  0.1045352E-002  0.1871588E+03  0.7546771E-02  0.1064806E+00
        -11   -1    0    0    0    0  0.00000000000E+00  0.00000000000E+00  0.18250000000E+03  0.18250000000E+03  0.00000000000E+00 0. -1.
         11   -1    0    0    0    0 -0.00000000000E+00 -0.00000000000E+00 -0.18250000000E+03  0.18250000000E+03  0.00000000000E+00 0. -1.
        -11    1    1    2    0    0 -0.11323786305E+02  0.10947385822E+00  0.17748032563E+03  0.17784123848E+03  0.00000000000E+00 0. -1.
         11    1    1    2    0    0  0.49537619695E+01  0.66829735895E+01 -0.17198254087E+03  0.17218361204E+03  0.00000000000E+00 0. -1.
        -15    1    1    2    0    0  0.28620979010E+01 -0.27417839206E+01 -0.77603005333E+01  0.88931983465E+01  0.17770000000E+01 0.  1.
         15    1    1    2    0    0  0.35079264348E+01 -0.40506635270E+01  0.22625157726E+01  0.60819511263E+01  0.17770000000E+01 0. -1.
</event>
<event>
 6    1  0.1045352E-002  0.1672418E+03  0.7546771E-02  0.1081294E+00
        -11   -1    0    0    0    0  0.00000000000E+00  0.00000000000E+00  0.18250000000E+03  0.18250000000E+03  0.00000000000E+00 0.  1.
         11   -1    0    0    0    0 -0.00000000000E+00 -0.00000000000E+00 -0.18250000000E+03  0.18250000000E+03  0.00000000000E+00 0. -1.
        -11    1    1    2    0    0  0.48161705308E+01  0.18854566997E+02  0.17093192119E+03  0.17203607725E+03  0.00000000000E+00 0.  1.
         11    1    1    2    0    0  0.32518791430E+01  0.29916248386E+01 -0.16328460074E+03  0.16334437663E+03  0.00000000000E+00 0. -1.
        -15    1    1    2    0    0 -0.86606261640E+01 -0.22192822100E+02 -0.23668894224E+01  0.24005992853E+02  0.17770000000E+01 0. -1.
         15    1    1    2    0    0  0.59257649012E+00  0.34663026454E+00 -0.52804310250E+01  0.56135532639E+01  0.17770000000E+01 0. -1.
</event>
<event>
 6    1  0.1045352E-002  0.1937615E+03  0.7546771E-02  0.1059828E+00
        -11   -1    0    0    0    0  0.00000000000E+00  0.00000000000E+00  0.18250000000E+03  0.18250000000E+03  0.00000000000E+00 0. -1.
         11   -1    0    0    0    0 -0.00000000000E+00 -0.00000000000E+00 -0.18250000000E+03  0.18250000000E+03  0.00000000000E+00 0. -1.
        -11    1    1    2    0    0  0.88613218393E+00 -0.52436453649E+01  0.17115592722E+03  0.17123852508E+03  0.00000000000E+00 0. -1.
         11    1    1    2    0    0 -0.26664297016E+01  0.50562937762E+01 -0.14127106414E+03  0.14138666669E+03  0.00000000000E+00 0. -1.
        -15    1    1    2    0    0  0.45785352552E+01  0.56984779234E+01  0.96975275229E+01  0.12273361593E+02  0.17770000000E+01 0. -1.
         15    1    1    2    0    0 -0.27982377375E+01 -0.55111263347E+01 -0.39582390603E+02  0.40101446641E+02  0.17770000000E+01 0.  1.
</event>
<event>
 6    1  0.1045352E-002  0.1740030E+03  0.7546771E-02  0.1075427E+00
        -11   -1    0    0    0    0  0.00000000000E+00  0.00000000000E+00  0.18250000000E+03  0.18250000000E+03  0.00000000000E+00 0.  1.
         11   -1    0    0    0    0 -0.00000000000E+00 -0.00000000000E+00 -0.18250000000E+03  0.18250000000E+03  0.00000000000E+00 0. -1.
        -11    1    1    2    0    0  0.17452496753E+01 -0.34748100472E+01  0.17343827837E+03  0.17348186246E+03  0.00000000000E+00 0.  1.
         11    1    1    2    0    0 -0.39803589240E+01 -0.26654393695E+01 -0.17452152616E+03  0.17458725875E+03  0.00000000000E+00 0. -1.
        -15    1    1    2    0    0 -0.15254822064E+01  0.43670105540E+01  0.75555762995E+01  0.90356150514E+01  0.17770000000E+01 0. -1.
         15    1    1    2    0    0  0.37605914551E+01  0.17732388628E+01 -0.64723285017E+01  0.78952637316E+01  0.17770000000E+01 0. -1.
</event>
<event>
 6    1  0.1045352E-002  0.1613589E+03  0.7546771E-02  0.1086651E+00
        -11   -1    0    0    0    0  0.00000000000E+00  0.00000000000E+00  0.18250000000E+03  0.18250000000E+03  0.00000000000E+00 0. -1.
         11   -1    0    0    0    0 -0.00000000000E+00 -0.00000000000E+00 -0.18250000000E+03  0.18250000000E+03  0.00000000000E+00 0.  1.
        -11    1    1    2    0    0  0.61804616458E+01  0.17710465541E+02  0.15875984638E+03  0.15986415332E+03  0.00000000000E+00 0. -1.
         11    1    1    2    0    0  0.12365083576E+02 -0.65587849912E+00 -0.16340045273E+03  0.16386895198E+03  0.00000000000E+00 0.  1.
        -15    1    1    2    0    0  0.38697512529E+01 -0.18002452558E+02  0.21759339478E+01  0.18626746641E+02  0.17770000000E+01 0.  1.
         15    1    1    2    0    0 -0.22415296475E+02  0.94786551666E+00  0.24646724075E+01  0.22640148059E+02  0.17770000000E+01 0. -1.
</event>
<event>
 6    1  0.1045352E-002  0.1845227E+03  0.7546771E-02  0.1066856E+00
        -11   -1    0    0    0    0  0.00000000000E+00  0.00000000000E+00  0.18250000000E+03  0.18250000000E+03  0.00000000000E+00 0.  1.
         11   -1    0    0    0    0 -0.00000000000E+00 -0.00000000000E+00 -0.18250000000E+03  0.18250000000E+03  0.00000000000E+00 0.  1.
        -11    1    1    2    0    0 -0.87459481740E+01 -0.46899588895E+00  0.13919025212E+03  0.13946554361E+03  0.00000000000E+00 0.  1.
         11    1    1    2    0    0 -0.32806424198E+01 -0.87877327886E+01 -0.18023333911E+03  0.18047726557E+03  0.00000000000E+00 0.  1.
        -15    1    1    2    0    0 -0.32238364303E+00  0.17102076569E+01  0.14836669142E+01  0.28961591730E+01  0.17770000000E+01 0. -1.
         15    1    1    2    0    0  0.12348974237E+02  0.75465210207E+01  0.39559420071E+02  0.42161031648E+02  0.17770000000E+01 0.  1.
</event>
<event>
 6    1  0.1045352E-002  0.1830386E+03  0.7546771E-02  0.1068027E+00
        -11   -1    0    0    0    0  0.00000000000E+00  0.00000000000E+00  0.18250000000E+03  0.18250000000E+03  0.00000000000E+00 0. -1.
         11   -1    0    0    0    0 -0.00000000000E+00 -0.00000000000E+00 -0.18250000000E+03  0.18250000000E+03  0.00000000000E+00 0. -1.
        -11    1    1    2    0    0  0.27122625824E+01  0.59485269103E+00  0.14220325632E+03  0.14223036359E+03  0.00000000000E+00 0. -1.
         11    1    1    2    0    0 -0.27067415036E+01  0.45360313489E+01 -0.18188473506E+03  0.18196142140E+03  0.00000000000E+00 0. -1.
        -15    1    1    2    0    0 -0.29229108626E+01 -0.15365285060E+00  0.12192168359E+02  0.12663874423E+02  0.17770000000E+01 0. -1.
         15    1    1    2    0    0  0.29173897837E+01 -0.49772311893E+01  0.27489310374E+02  0.28144340591E+02  0.17770000000E+01 0.  1.
</event>
<event>
 6    1  0.1045352E-002  0.1279268E+03  0.7546771E-02  0.1122746E+00
        -11   -1    0    0    0    0  0.00000000000E+00  0.00000000000E+00  0.18250000000E+03  0.18250000000E+03  0.00000000000E+00 0. -1.
         11   -1    0    0    0    0 -0.00000000000E+00 -0.00000000000E+00 -0.18250000000E+03  0.18250000000E+03  0.00000000000E+00 0. -1.
        -11    1    1    2    0    0  0.77325000446E+00 -0.26220429003E+00  0.37272167589E+02  0.37281109739E+02  0.00000000000E+00 0. -1.
         11    1    1    2    0    0 -0.56160787442E+01 -0.29674341508E+00 -0.15616805283E+03  0.15626928400E+03  0.00000000000E+00 0. -1.
        -15    1    1    2    0    0  0.50205732255E+02  0.25230520634E+02  0.19636951217E+02  0.59547983214E+02  0.17770000000E+01 0. -1.
         15    1    1    2    0    0 -0.45362903516E+02 -0.24671572928E+02  0.99258934029E+02  0.11190162304E+03  0.17770000000E+01 0.  1.
</event>
<event>
 6    1  0.1045352E-002  0.1837425E+03  0.7546771E-02  0.1067470E+00
        -11   -1    0    0    0    0  0.00000000000E+00  0.00000000000E+00  0.18250000000E+03  0.18250000000E+03  0.00000000000E+00 0. -1.
         11   -1    0    0    0    0 -0.00000000000E+00 -0.00000000000E+00 -0.18250000000E+03  0.18250000000E+03  0.00000000000E+00 0.  1.
        -11    1    1    2    0    0 -0.18818887053E+01 -0.25863569389E+01  0.17260050238E+03  0.17263013691E+03  0.00000000000E+00 0. -1.
         11    1    1    2    0    0 -0.25904821220E+01  0.31071700118E+01 -0.18121231949E+03  0.18125746837E+03  0.00000000000E+00 0.  1.
        -15    1    1    2    0    0  0.15753967395E+01 -0.17486138500E+01  0.19556819065E+01  0.35386361783E+01  0.17770000000E+01 0. -1.
         15    1    1    2    0    0  0.28969740878E+01  0.12278007771E+01  0.66561352072E+01  0.75737585458E+01  0.17770000000E+01 0.  1.
</event>
<event>
 6    1  0.1045352E-002  0.1851140E+03  0.7546771E-02  0.1066393E+00
        -11   -1    0    0    0    0  0.00000000000E+00  0.00000000000E+00  0.18250000000E+03  0.18250000000E+03  0.00000000000E+00 0. -1.
         11   -1    0    0    0    0 -0.00000000000E+00 -0.00000000000E+00 -0.18250000000E+03  0.18250000000E+03  0.00000000000E+00 0. -1.
        -11    1    1    2    0    0 -0.23133552298E+01  0.76321614550E+00  0.17986954142E+03  0.17988603627E+03  0.00000000000E+00 0. -1.
         11    1    1    2    0    0 -0.39310727570E+00  0.56876639432E+00 -0.30700248938E+02  0.30708033369E+02  0.00000000000E+00 0. -1.
        -15    1    1    2    0    0  0.17630205101E+02 -0.92541989313E+01 -0.51010135008E+02  0.54787370189E+02  0.17770000000E+01 0.  1.
         15    1    1    2    0    0 -0.14923742596E+02  0.79222163915E+01 -0.98159157478E+02  0.99618560175E+02  0.17770000000E+01 0. -1.
</event>
<event>
 6    1  0.1045352E-002  0.1829405E+03  0.7546771E-02  0.1068105E+00
        -11   -1    0    0    0    0  0.00000000000E+00  0.00000000000E+00  0.18250000000E+03  0.18250000000E+03  0.00000000000E+00 0.  1.
         11   -1    0    0    0    0 -0.00000000000E+00 -0.00000000000E+00 -0.18250000000E+03  0.18250000000E+03  0.00000000000E+00 0. -1.
        -11    1    1    2    0    0 -0.21877367225E+01  0.14936924359E+01  0.74199779871E+02  0.74247051403E+02  0.00000000000E+00 0.  1.
         11    1    1    2    0    0  0.19591656948E+01  0.18412963595E+01 -0.18203968807E+03  0.18205954173E+03  0.00000000000E+00 0. -1.
        -15    1    1    2    0    0  0.28988462700E+01 -0.16277470291E+01  0.99792890814E+02  0.99864065890E+02  0.17770000000E+01 0. -1.
         15    1    1    2    0    0 -0.26702752422E+01 -0.17072417664E+01  0.80470173842E+01  0.88293409777E+01  0.17770000000E+01 0.  1.
</event>
<event>
 6    1  0.1045352E-002  0.1825793E+03  0.7546771E-02  0.1068392E+00
        -11   -1    0    0    0    0  0.00000000000E+00  0.00000000000E+00  0.18250000000E+03  0.18250000000E+03  0.00000000000E+00 0.  1.
         11   -1    0    0    0    0 -0.00000000000E+00 -0.00000000000E+00 -0.18250000000E+03  0.18250000000E+03  0.00000000000E+00 0.  1.
        -11    1    1    2    0    0 -0.20259500638E+01 -0.24487742355E+01  0.18239298069E+03  0.18242066872E+03  0.00000000000E+00 0.  1.
         11    1    1    2    0    0 -0.50895610486E+00  0.14367229723E+01 -0.89031917945E+02  0.89044964047E+02  0.00000000000E+00 0.  1.
        -15    1    1    2    0    0 -0.33864103912E+00  0.36792910024E+00 -0.17894465504E+02  0.17989432294E+02  0.17770000000E+01 0.  1.
         15    1    1    2    0    0  0.28735472078E+01  0.64412216296E+00 -0.75466597244E+02  0.75544934942E+02  0.17770000000E+01 0.  1.
</event>
<event>
 6    1  0.1045352E-002  0.1840467E+03  0.7546771E-02  0.1067230E+00
        -11   -1    0    0    0    0  0.00000000000E+00  0.00000000000E+00  0.18250000000E+03  0.18250000000E+03  0.00000000000E+00 0. -1.
         11   -1    0    0    0    0 -0.00000000000E+00 -0.00000000000E+00 -0.18250000000E+03  0.18250000000E+03  0.00000000000E+00 0.  1.
        -11    1    1    2    0    0  0.30601949086E+01 -0.54098410652E+01  0.18084650569E+03  0.18095328069E+03  0.00000000000E+00 0. -1.
         11    1    1    2    0    0 -0.22521851447E+01  0.93557325365E-01 -0.12792926288E+03  0.12794912032E+03  0.00000000000E+00 0.  1.
        -15    1    1    2    0    0 -0.93554478940E+00  0.11437799305E+02 -0.40600166038E+02  0.42228304587E+02  0.17770000000E+01 0.  1.
         15    1    1    2    0    0  0.12753502547E+00 -0.61215155654E+01 -0.12317076769E+02  0.13869294399E+02  0.17770000000E+01 0. -1.
</event>
<event>
 6    1  0.1045352E-002  0.1841378E+03  0.7546771E-02  0.1067159E+00
        -11   -1    0    0    0    0  0.00000000000E+00  0.00000000000E+00  0.18250000000E+03  0.18250000000E+03  0.00000000000E+00 0.  1.
         11   -1    0    0    0    0 -0.00000000000E+00 -0.00000000000E+00 -0.18250000000E+03  0.18250000000E+03  0.00000000000E+00 0.  1.
        -11    1    1    2    0    0  0.18594151444E+00  0.42805620065E+01  0.16612845168E+03  0.16618369427E+03  0.00000000000E+00 0.  1.
         11    1    1    2    0    0 -0.29081007889E+01 -0.15906926933E+01 -0.18083178555E+03  0.18086216304E+03  0.00000000000E+00 0.  1.
        -15    1    1    2    0    0 -0.37256303592E+00  0.24924209554E+01  0.17307420904E+01  0.35361225400E+01  0.17770000000E+01 0.  1.
         15    1    1    2    0    0  0.30947223104E+01 -0.51822902686E+01  0.12972591778E+02  0.14418020150E+02  0.17770000000E+01 0. -1.
</event>
<event>
 6    1  0.1045352E-002  0.2022262E+03  0.7546771E-02  0.1053754E+00
        -11   -1    0    0    0    0  0.00000000000E+00  0.00000000000E+00  0.18250000000E+03  0.18250000000E+03  0.00000000000E+00 0.  1.
         11   -1    0    0    0    0 -0.00000000000E+00 -0.00000000000E+00 -0.18250000000E+03  0.18250000000E+03  0.00000000000E+00 0.  1.
        -11    1    1    2    0    0  0.38743845326E+01  0.35505382485E+01  0.12950092965E+03  0.12960751505E+03  0.00000000000E+00 0.  1.
         11    1    1    2    0    0  0.15282466647E+01 -0.18143533694E+01 -0.16275652601E+03  0.16277381292E+03  0.00000000000E+00 0.  1.
        -15    1    1    2    0    0  0.72475454258E+00 -0.80212672900E+01  0.51573443173E+02  0.52228763797E+02  0.17770000000E+01 0. -1.
         15    1    1    2    0    0 -0.61273857399E+01  0.62850824108E+01 -0.18317846812E+02  0.20389908233E+02  0.17770000000E+01 0.  1.
</event>
<event>
 6    1  0.1045352E-002  0.8871629E+02  0.7546771E-02  0.1184911E+00
        -11   -1    0    0    0    0  0.00000000000E+00  0.00000000000E+00  0.18250000000E+03  0.18250000000E+03  0.00000000000E+00 0. -1.
         11   -1    0    0    0    0 -0.00000000000E+00 -0.00000000000E+00 -0.18250000000E+03  0.18250000000E+03  0.00000000000E+00 0. -1.
        -11    1    1    2    0    0  0.33238532729E+02  0.15600828981E+02  0.11892358595E+03  0.12446286682E+03  0.00000000000E+00 0. -1.
         11    1    1    2    0    0 -0.42257793717E+01  0.11590813003E+01 -0.10650665008E+03  0.10659675038E+03  0.00000000000E+00 0. -1.
        -15    1    1    2    0    0  0.13937287224E+02 -0.24179589441E+02 -0.61930439157E+02  0.67951729513E+02  0.17770000000E+01 0. -1.
         15    1    1    2    0    0 -0.42950040581E+02  0.74196791592E+01  0.49513503289E+02  0.65988653280E+02  0.17770000000E+01 0.  1.
</event>
<event>
 6    1  0.1045352E-002  0.1769017E+03  0.7546771E-02  0.1073000E+00
        -11   -1    0    0    0    0  0.00000000000E+00  0.00000000000E+00  0.18250000000E+03  0.18250000000E+03  0.00000000000E+00 0. -1.
         11   -1    0    0    0    0 -0.00000000000E+00 -0.00000000000E+00 -0.18250000000E+03  0.18250000000E+03  0.00000000000E+00 0.  1.
        -11    1    1    2    0    0 -0.20566223903E+01 -0.12498508840E+01  0.17713343554E+03  0.17714978354E+03  0.00000000000E+00 0. -1.
         11    1    1    2    0    0 -0.48029987541E+00  0.33087285502E+01 -0.17663735334E+03  0.17666899266E+03  0.00000000000E+00 0.  1.
        -15    1    1    2    0    0  0.64401581045E+01 -0.11072081817E+01 -0.46817404180E+00  0.67881118363E+01  0.17770000000E+01 0. -1.
         15    1    1    2    0    0 -0.39032358388E+01 -0.95166948445E+00 -0.27908158965E-01  0.43931119592E+01  0.17770000000E+01 0.  1.
</event>
<event>
 6    1  0.1045352E-002  0.1857121E+03  0.7546771E-02  0.1065926E+00
        -11   -1    0    0    0    0  0.00000000000E+00  0.00000000000E+00  0.18250000000E+03  0.18250000000E+03  0.00000000000E+00 0.  1.
         11   -1    0    0    0    0 -0.00000000000E+00 -0.00000000000E+00 -0.18250000000E+03  0.18250000000E+03  0.00000000000E+00 0.  1.
        -11    1    1    2    0    0 -0.18362958477E+01 -0.13556973044E+01  0.16363935805E+03  0.16365527612E+03  0.00000000000E+00 0.  1.
         11    1    1    2    0    0 -0.27140101949E+01 -0.39821481939E+00 -0.17926687690E+03  0.17928786233E+03  0.00000000000E+00 0.  1.
        -15    1    1    2    0    0  0.27462727063E+01  0.19917971597E+01  0.18105381323E+02  0.18505994476E+02  0.17770000000E+01 0. -1.
         15    1    1    2    0    0  0.18040333363E+01 -0.23788503594E+00 -0.24778624742E+01  0.35508670786E+01  0.17770000000E+01 0.  1.
</event>
<event>
 6    1  0.1045352E-002  0.1869531E+03  0.7546771E-02  0.1064964E+00
        -11   -1    0    0    0    0  0.00000000000E+00  0.00000000000E+00  0.18250000000E+03  0.18250000000E+03  0.00000000000E+00 0. -1.
         11   -1    0    0    0    0 -0.00000000000E+00 -0.00000000000E+00 -0.18250000000E+03  0.18250000000E+03  0.00000000000E+00 0.  1.
        -11    1    1    2    0    0  0.59370324994E+01  0.59819662918E+01  0.17784727117E+03  0.17804685939E+03  0.00000000000E+00 0. -1.
         11    1    1    2    0    0 -0.13338624096E+01  0.16417809923E+01 -0.15060835824E+03  0.15062321271E+03  0.00000000000E+00 0.  1.
        -15    1    1    2    0    0 -0.50744318043E+01  0.34918194874E+01  0.45988837821E+00  0.64274324415E+01  0.17770000000E+01 0. -1.
         15    1    1    2    0    0  0.47126171463E+00 -0.11115566771E+02 -0.27698801305E+02  0.29902495464E+02  0.17770000000E+01 0. -1.
</event>
<event>
 6    1  0.1045352E-002  0.1842117E+03  0.7546771E-02  0.1067100E+00
        -11   -1    0    0    0    0  0.00000000000E+00  0.00000000000E+00  0.18250000000E+03  0.18250000000E+03  0.00000000000E+00 0.  1.
         11   -1    0    0    0    0 -0.00000000000E+00 -0.00000000000E+00 -0.18250000000E+03  0.18250000000E+03  0.00000000000E+00 0.  1.
        -11    1    1    2    0    0 -0.11592392008E+01  0.17424281001E+01  0.51541482122E+02  0.51583953615E+02  0.00000000000E+00 0.  1.
         11    1    1    2    0    0  0.24023691342E+01 -0.61913476747E+01 -0.18066631116E+03  0.18078832969E+03  0.00000000000E+00 0.  1.
        -15    1    1    2    0    0 -0.13926010705E+02  0.72303651730E+01  0.89765077654E+02  0.91143506899E+02  0.17770000000E+01 0. -1.
         15    1    1    2    0    0  0.12682880772E+02 -0.27814455984E+01  0.39359751386E+02  0.41484209796E+02  0.17770000000E+01 0.  1.
</event>
<event>
 6    1  0.1045352E-002  0.1896122E+03  0.7546771E-02  0.1062930E+00
        -11   -1    0    0    0    0  0.00000000000E+00  0.00000000000E+00  0.18250000000E+03  0.18250000000E+03  0.00000000000E+00 0.  1.
         11   -1    0    0    0    0 -0.00000000000E+00 -0.00000000000E+00 -0.18250000000E+03  0.18250000000E+03  0.00000000000E+00 0. -1.
        -11    1    1    2    0    0  0.34824624493E+01 -0.20531198038E+01  0.17534122368E+03  0.17538782047E+03  0.00000000000E+00 0.  1.
         11    1    1    2    0    0  0.29172929701E+01 -0.56121798972E+00 -0.16955158495E+03  0.16957760914E+03  0.00000000000E+00 0. -1.
        -15    1    1    2    0    0 -0.44491979137E+01  0.22440324229E+01 -0.12088421199E+02  0.13195404491E+02  0.17770000000E+01 0.  1.
         15    1    1    2    0    0 -0.19505575056E+01  0.37030537069E+00  0.62987824675E+01  0.68391659011E+01  0.17770000000E+01 0. -1.
</event>
<event>
 6    1  0.1045352E-002  0.1843985E+03  0.7546771E-02  0.1066954E+00
        -11   -1    0    0    0    0  0.00000000000E+00  0.00000000000E+00  0.18250000000E+03  0.18250000000E+03  0.00000000000E+00 0. -1.
         11   -1    0    0    0    0 -0.00000000000E+00 -0.00000000000E+00 -0.18250000000E+03  0.18250000000E+03  0.00000000000E+00 0.  1.
        -11    1    1    2    0    0 -0.31354973664E+01 -0.60084182296E+01  0.18047428768E+03  0.18060149763E+03  0.00000000000E+00 0. -1.
         11    1    1    2    0    0  0.24078390388E+01  0.26240410117E+01 -0.16856493187E+03  0.16860254902E+03  0.00000000000E+00 0.  1.
        -15    1    1    2    0    0  0.72171501845E+00  0.54369669605E+01 -0.11735790568E+02  0.13075472899E+02  0.17770000000E+01 0. -1.
         15    1    1    2    0    0  0.59433091312E-02 -0.20525897426E+01 -0.17356523925E+00  0.27204804477E+01  0.17770000000E+01 0. -1.
</event>
<event>
 6    1  0.1045352E-002  0.1986284E+03  0.7546771E-02  0.1056295E+00
        -11   -1    0    0    0    0  0.00000000000E+00  0.00000000000E+00  0.18250000000E+03  0.18250000000E+03  0.00000000000E+00 0. -1.
         11   -1    0    0    0    0 -0.00000000000E+00 -0.00000000000E+00 -0.18250000000E+03  0.18250000000E+03  0.00000000000E+00 0.  1.
        -11    1    1    2    0    0  0.55117535564E+00  0.21768732175E+01  0.16635641642E+03  0.16637157166E+03  0.00000000000E+00 0. -1.
         11    1    1    2    0    0 -0.53638743115E+01  0.21280493677E+01 -0.14179406526E+03  0.14191143958E+03  0.00000000000E+00 0.  1.
        -15    1    1    2    0    0  0.81550032701E+01 -0.76423340765E+01 -0.39427052654E+02  0.41019014597E+02  0.17770000000E+01 0.  1.
         15    1    1    2    0    0 -0.33423043142E+01  0.33374114912E+01  0.14864701489E+02  0.15697974167E+02  0.17770000000E+01 0. -1.
</event>
<event>
 6    1  0.1045352E-002  0.1827012E+03  0.7546771E-02  0.1068295E+00
        -11   -1    0    0    0    0  0.00000000000E+00  0.00000000000E+00  0.18250000000E+03  0.18250000000E+03  0.00000000000E+00 0.  1.
         11   -1    0    0    0    0 -0.00000000000E+00 -0.00000000000E+00 -0.18250000000E+03  0.18250000000E+03  0.00000000000E+00 0. -1.
        -11    1    1    2    0    0  0.25656901843E+00  0.47349654682E+01  0.18223708113E+03  0.18229876430E+03  0.00000000000E+00 0.  1.
         11    1    1    2    0    0  0.10510402279E+01 -0.26694287648E+01 -0.12191172685E+03  0.12194547830E+03  0.00000000000E+00 0. -1.
        -15    1    1    2    0    0  0.40638530762E+00 -0.34342775879E+01 -0.23228700589E+02  0.23551850705E+02  0.17770000000E+01 0. -1.
         15    1    1    2    0    0 -0.17139945539E+01  0.13687408846E+01 -0.37096653695E+02  0.37203906694E+02  0.17770000000E+01 0. -1.
</event>
<event>
 6    1  0.1045352E-002  0.1830061E+03  0.7546771E-02  0.1068053E+00
        -11   -1    0    0    0    0  0.00000000000E+00  0.00000000000E+00  0.18250000000E+03  0.18250000000E+03  0.00000000000E+00 0. -1.
         11   -1    0    0    0    0 -0.00000000000E+00 -0.00000000000E+00 -0.18250000000E+03  0.18250000000E+03  0.00000000000E+00 0. -1.
        -11    1    1    2    0    0  0.30204403988E+01 -0.85442515351E+00  0.18196677947E+03  0.18199385136E+03  0.00000000000E+00 0. -1.
         11    1    1    2    0    0 -0.41651013411E+00  0.20907141298E+01 -0.14232890797E+03  0.14234487209E+03  0.00000000000E+00 0. -1.
        -15    1    1    2    0    0 -0.16264049554E+01 -0.14997612270E+01 -0.36882892542E+01  0.46535667439E+01  0.17770000000E+01 0.  1.
         15    1    1    2    0    0 -0.97752530937E+00  0.26347225062E+00 -0.35949582242E+02  0.36007709810E+02  0.17770000000E+01 0. -1.
</event>
<event>
 6    1  0.1045352E-002  0.1871870E+03  0.7546771E-02  0.1064784E+00
        -11   -1    0    0    0    0  0.00000000000E+00  0.00000000000E+00  0.18250000000E+03  0.18250000000E+03  0.00000000000E+00 0.  1.
         11   -1    0    0    0    0 -0.00000000000E+00 -0.00000000000E+00 -0.18250000000E+03  0.18250000000E+03  0.00000000000E+00 0.  1.
        -11    1    1    2    0    0 -0.30818524388E+01  0.45363273883E+00  0.17778569744E+03  0.17781298550E+03  0.00000000000E+00 0.  1.
         11    1    1    2    0    0  0.66923107203E+01 -0.17667324911E+01 -0.17046297011E+03  0.17060343650E+03  0.00000000000E+00 0.  1.
        -15    1    1    2    0    0 -0.85240989631E+01 -0.15187918886E+01 -0.34406878503E+01  0.94848855457E+01  0.17770000000E+01 0. -1.
         15    1    1    2    0    0  0.49136406816E+01  0.28318916409E+01 -0.38820394814E+01  0.70986924535E+01  0.17770000000E+01 0.  1.
</event>
<event>
 6    1  0.1045352E-002  0.1844861E+03  0.7546771E-02  0.1066885E+00
        -11   -1    0    0    0    0  0.00000000000E+00  0.00000000000E+00  0.18250000000E+03  0.18250000000E+03  0.00000000000E+00 0.  1.
         11   -1    0    0    0    0 -0.00000000000E+00 -0.00000000000E+00 -0.18250000000E+03  0.18250000000E+03  0.00000000000E+00 0.  1.
        -11    1    1    2    0    0  0.33928350177E+01 -0.19651231601E+02  0.17940903602E+03  0.18051394528E+03  0.00000000000E+00 0.  1.
         11    1    1    2    0    0  0.47600613672E+00  0.46191982433E+01 -0.11234862779E+03  0.11244455407E+03  0.00000000000E+00 0.  1.
        -15    1    1    2    0    0  0.35403025382E+01  0.17418466108E+02 -0.39571960316E+02  0.43416983726E+02  0.17770000000E+01 0. -1.
         15    1    1    2    0    0 -0.74091436926E+01 -0.23864327501E+01 -0.27488447916E+02  0.28624516928E+02  0.17770000000E+01 0.  1.
</event>
<event>
 6    1  0.1045352E-002  0.1838031E+03  0.7546771E-02  0.1067422E+00
        -11   -1    0    0    0    0  0.00000000000E+00  0.00000000000E+00  0.18250000000E+03  0.18250000000E+03  0.00000000000E+00 0.  1.
         11   -1    0    0    0    0 -0.00000000000E+00 -0.00000000000E+00 -0.18250000000E+03  0.18250000000E+03  0.00000000000E+00 0. -1.
        -11    1    1    2    0    0  0.33339523653E+01 -0.10791111389E+01  0.18116301841E+03  0.18119690660E+03  0.00000000000E+00 0.  1.
         11    1    1    2    0    0 -0.32716963822E+01 -0.91120822387E+00 -0.17427668946E+03  0.17430977823E+03  0.00000000000E+00 0. -1.
        -15    1    1    2    0    0 -0.17970890778E+01 -0.92083056563E+00 -0.31954906754E+01  0.41768825385E+01  0.17770000000E+01 0.  1.
         15    1    1    2    0    0  0.17348330947E+01  0.29111499284E+01 -0.36908382817E+01  0.53164326380E+01  0.17770000000E+01 0. -1.
</event>
<event>
 6    1  0.1045352E-002  0.1882005E+03  0.7546771E-02  0.1064006E+00
        -11   -1    0    0    0    0  0.00000000000E+00  0.00000000000E+00  0.18250000000E+03  0.18250000000E+03  0.00000000000E+00 0.  1.
         11   -1    0    0    0    0 -0.00000000000E+00 -0.00000000000E+00 -0.18250000000E+03  0.18250000000E+03  0.00000000000E+00 0.  1.
        -11    1    1    2    0    0 -0.66424235788E+01 -0.45715490049E+01  0.17045529747E+03  0.17064591788E+03  0.00000000000E+00 0.  1.
         11    1    1    2    0    0  0.66151326847E+01 -0.82617625730E+00 -0.17667381654E+03  0.17679954750E+03  0.00000000000E+00 0.  1.
        -15    1    1    2    0    0 -0.71664602678E+01  0.25851407688E+01  0.61331314234E+00  0.78469731473E+01  0.17770000000E+01 0.  1.
         15    1    1    2    0    0  0.71937511619E+01  0.28125844934E+01  0.56052059225E+01  0.97075614727E+01  0.17770000000E+01 0. -1.
</event>
<event>
 6    1  0.1045352E-002  0.1839205E+03  0.7546771E-02  0.1067330E+00
        -11   -1    0    0    0    0  0.00000000000E+00  0.00000000000E+00  0.18250000000E+03  0.18250000000E+03  0.00000000000E+00 0.  1.
         11   -1    0    0    0    0 -0.00000000000E+00 -0.00000000000E+00 -0.18250000000E+03  0.18250000000E+03  0.00000000000E+00 0.  1.
        -11    1    1    2    0    0 -0.72682731193E+01  0.76202238678E+01  0.18077302047E+03  0.18107948679E+03  0.00000000000E+00 0.  1.
         11    1    1    2    0    0  0.39759107305E+01  0.12950035651E+01 -0.11309412897E+03  0.11317140500E+03  0.00000000000E+00 0.  1.
        -15    1    1    2    0    0 -0.41794857612E+01 -0.68023830043E+01 -0.56110754477E+02  0.56703747784E+02  0.17770000000E+01 0.  1.
         15    1    1    2    0    0  0.74718481499E+01 -0.21128444285E+01 -0.11568137023E+02  0.14045360427E+02  0.17770000000E+01 0. -1.
</event>
<event>
 6    1  0.1045352E-002  0.1831503E+03  0.7546771E-02  0.1067938E+00
        -11   -1    0    0    0    0  0.00000000000E+00  0.00000000000E+00  0.18250000000E+03  0.18250000000E+03  0.00000000000E+00 0. -1.
         11   -1    0    0    0    0 -0.00000000000E+00 -0.00000000000E+00 -0.18250000000E+03  0.18250000000E+03  0.00000000000E+00 0.  1.
        -11    1    1    2    0    0  0.88395905957E+00 -0.55493593492E+01  0.18176281461E+03  0.18184965645E+03  0.00000000000E+00 0. -1.
         11    1    1    2    0    0 -0.69653730265E+00  0.14193631577E+01 -0.87751689130E+02  0.87765931324E+02  0.00000000000E+00 0.  1.
        -15    1    1    2    0    0  0.14838796434E+01 -0.99854731530E+00 -0.82597111317E+02  0.82635582665E+02  0.17770000000E+01 0.  1.
         15    1    1    2    0    0 -0.16713014003E+01  0.51285435068E+01 -0.11414014167E+02  0.12748829565E+02  0.17770000000E+01 0.  1.
</event>
<event>
 6    1  0.1045352E-002  0.1922577E+03  0.7546771E-02  0.1060943E+00
        -11   -1    0    0    0    0  0.00000000000E+00  0.00000000000E+00  0.18250000000E+03  0.18250000000E+03  0.00000000000E+00 0. -1.
         11   -1    0    0    0    0 -0.00000000000E+00 -0.00000000000E+00 -0.18250000000E+03  0.18250000000E+03  0.00000000000E+00 0.  1.
        -11    1    1    2    0    0 -0.16281219669E+01  0.36027593611E+01  0.16526396077E+03  0.16531124397E+03  0.00000000000E+00 0. -1.
         11    1    1    2    0    0  0.71280196264E+01 -0.70246595979E+01 -0.17245215858E+03  0.17274229797E+03  0.00000000000E+00 0.  1.
        -15    1    1    2    0    0  0.79366722512E+01  0.19126202984E+01  0.99909929400E+01  0.13024075850E+02  0.17770000000E+01 0.  1.
         15    1    1    2    0    0 -0.13436569911E+02  0.15092799384E+01 -0.28027951227E+01  0.13922382210E+02  0.17770000000E+01 0. -1.
</event>
<event>
 6    1  0.1045352E-002  0.1796545E+03  0.7546771E-02  0.1070743E+00
        -11   -1    0    0    0    0  0.00000000000E+00  0.00000000000E+00  0.18250000000E+03  0.18250000000E+03  0.00000000000E+00 0.  1.
         11   -1    0    0    0    0 -0.00000000000E+00 -0.00000000000E+00 -0.18250000000E+03  0.18250000000E+03  0.00000000000E+00 0. -1.
        -11    1    1    2    0    0  0.27075423250E+01 -0.18302024408E+01  0.17960482568E+03  0.17963455634E+03  0.00000000000E+00 0.  1.
         11    1    1    2    0    0 -0.22370948720E+01 -0.14639913953E+01 -0.17966990640E+03  0.17968979696E+03  0.00000000000E+00 0. -1.
        -15    1    1    2    0    0 -0.13323595970E+01  0.54282377182E+00 -0.48583371170E-01  0.22869038211E+01  0.17770000000E+01 0.  1.
         15    1    1    2    0    0  0.86191214402E+00  0.27513700643E+01  0.11366409370E+00  0.33887428791E+01  0.17770000000E+01 0. -1.
</event>
<event>
 6    1  0.1045352E-002  0.1827150E+03  0.7546771E-02  0.1068284E+00
        -11   -1    0    0    0    0  0.00000000000E+00  0.00000000000E+00  0.18250000000E+03  0.18250000000E+03  0.00000000000E+00 0. -1.
         11   -1    0    0    0    0 -0.00000000000E+00 -0.00000000000E+00 -0.18250000000E+03  0.18250000000E+03  0.00000000000E+00 0.  1.
        -11    1    1    2    0    0  0.87709534701E+00  0.86307468173E+00  0.10930797213E+02  0.10999841902E+02  0.00000000000E+00 0. -1.
         11    1    1    2    0    0  0.69060243374E+01  0.71578163343E+00 -0.18215269085E+03  0.18228496455E+03  0.00000000000E+00 0.  1.
        -15    1    1    2    0    0 -0.45148822436E+01 -0.22854300724E+01  0.15348172172E+03  0.15357540163E+03  0.17770000000E+01 0. -1.
         15    1    1    2    0    0 -0.32682374408E+01  0.70657375723E+00  0.17740171916E+02  0.18139791924E+02  0.17770000000E+01 0.  1.
</event>
<event>
 6    1  0.1045352E-002  0.1911183E+03  0.7546771E-02  0.1061794E+00
        -11   -1    0    0    0    0  0.00000000000E+00  0.00000000000E+00  0.18250000000E+03  0.18250000000E+03  0.00000000000E+00 0.  1.
         11   -1    0    0    0    0 -0.00000000000E+00 -0.00000000000E+00 -0.18250000000E+03  0.18250000000E+03  0.00000000000E+00 0. -1.
        -11    1    1    2    0    0  0.12631019691E+01  0.21547574027E+01  0.11315707663E+03  0.11318463853E+03  0.00000000000E+00 0.  1.
         11    1    1    2    0    0  0.44265674022E+01 -0.49564166594E+01 -0.17375467093E+03  0.17388170184E+03  0.00000000000E+00 0. -1.
        -15    1    1    2    0    0 -0.13883074031E+02 -0.64129267052E+01 -0.67215549308E+00  0.15410220488E+02  0.17770000000E+01 0.  1.
         15    1    1    2    0    0  0.81934046595E+01  0.92145859618E+01  0.61269749789E+02  0.62523439146E+02  0.17770000000E+01 0. -1.
</event>
<event>
 6    1  0.1045352E-002  0.1828621E+03  0.7546771E-02  0.1068167E+00
        -11   -1    0    0    0    0  0.00000000000E+00  0.00000000000E+00  0.18250000000E+03  0.18250000000E+03  0.00000000000E+00 0. -1.
         11   -1    0    0    0    0 -0.00000000000E+00 -0.00000000000E+00 -0.18250000000E+03  0.18250000000E+03  0.00000000000E+00 0.  1.
        -11    1    1    2    0    0 -0.85328190799E+01  0.65565352378E+00  0.18193671439E+03  0.18213787889E+03  0.00000000000E+00 0. -1.
         11    1    1    2    0    0 -0.19736935538E+00  0.11862098141E+01 -0.67959024720E+02  0.67969663007E+02  0.00000000000E+00 0.  1.
        -15    1    1    2    0    0  0.89104522490E+00  0.26570682173E+01 -0.10650369511E+02  0.11155360721E+02  0.17770000000E+01 0. -1.
         15    1    1    2    0    0  0.78391432104E+01 -0.44989315551E+01 -0.10332732016E+03  0.10373709738E+03  0.17770000000E+01 0.  1.
</event>
<event>
 6    1  0.1045352E-002  0.1909314E+03  0.7546771E-02  0.1061935E+00
        -11   -1    0    0    0    0  0.00000000000E+00  0.00000000000E+00  0.18250000000E+03  0.18250000000E+03  0.00000000000E+00 0.  1.
         11   -1    0    0    0    0 -0.00000000000E+00 -0.00000000000E+00 -0.18250000000E+03  0.18250000000E+03  0.00000000000E+00 0.  1.
        -11    1    1    2    0    0  0.10242446503E+01  0.19039425732E+01 -0.22922041128E+01  0.31509163938E+01  0.00000000000E+00 0.  1.
         11    1    1    2    0    0 -0.20642173480E+01 -0.20212312223E+01 -0.17089330019E+03  0.17091771827E+03  0.00000000000E+00 0.  1.
        -15    1    1    2    0    0 -0.31116203011E+01  0.22450195723E+02  0.78774669360E+01  0.24060458916E+02  0.17770000000E+01 0. -1.
         15    1    1    2    0    0  0.41515929988E+01 -0.22332907074E+02  0.16530803737E+03  0.16687090642E+03  0.17770000000E+01 0.  1.
</event>
<event>
 6    1  0.1045352E-002  0.1994202E+03  0.7546771E-02  0.1055731E+00
        -11   -1    0    0    0    0  0.00000000000E+00  0.00000000000E+00  0.18250000000E+03  0.18250000000E+03  0.00000000000E+00 0.  1.
         11   -1    0    0    0    0 -0.00000000000E+00 -0.00000000000E+00 -0.18250000000E+03  0.18250000000E+03  0.00000000000E+00 0.  1.
        -11    1    1    2    0    0  0.55679798164E+01  0.74377243545E+01  0.16531889428E+03  0.16557976612E+03  0.00000000000E+00 0.  1.
         11    1    1    2    0    0  0.54890312345E+01 -0.51095935500E+01 -0.95199192102E+02  0.95494102368E+02  0.00000000000E+00 0.  1.
        -15    1    1    2    0    0 -0.29341293961E+02 -0.30780774634E+02 -0.34638966490E+02  0.54876072626E+02  0.17770000000E+01 0. -1.
         15    1    1    2    0    0  0.18284282910E+02  0.28452643830E+02 -0.35480735689E+02  0.49050058884E+02  0.17770000000E+01 0.  1.
</event>
<event>
 6    1  0.1045352E-002  0.1836008E+03  0.7546771E-02  0.1067582E+00
        -11   -1    0    0    0    0  0.00000000000E+00  0.00000000000E+00  0.18250000000E+03  0.18250000000E+03  0.00000000000E+00 0.  1.
         11   -1    0    0    0    0 -0.00000000000E+00 -0.00000000000E+00 -0.18250000000E+03  0.18250000000E+03  0.00000000000E+00 0. -1.
        -11    1    1    2    0    0 -0.33354517586E+01 -0.32506145537E+01  0.13954425515E+03  0.13962195701E+03  0.00000000000E+00 0.  1.
         11    1    1    2    0    0 -0.19499432960E+01  0.26308359774E+01 -0.18136964391E+03  0.18139920427E+03  0.00000000000E+00 0. -1.
        -15    1    1    2    0    0  0.41377986063E+00 -0.23917687389E+01  0.17977039637E+01  0.35044600176E+01  0.17770000000E+01 0. -1.
         15    1    1    2    0    0  0.48716151939E+01  0.30115473152E+01  0.40027684804E+02  0.40474378705E+02  0.17770000000E+01 0.  1.
</event>
<event>
 6    1  0.1045352E-002  0.1870806E+03  0.7546771E-02  0.1064866E+00
        -11   -1    0    0    0    0  0.00000000000E+00  0.00000000000E+00  0.18250000000E+03  0.18250000000E+03  0.00000000000E+00 0.  1.
         11   -1    0    0    0    0 -0.00000000000E+00 -0.00000000000E+00 -0.18250000000E+03  0.18250000000E+03  0.00000000000E+00 0.  1.
        -11    1    1    2    0    0 -0.19375877499E+01  0.20627273454E+01  0.17501445110E+03  0.17503733083E+03  0.00000000000E+00 0.  1.
         11    1    1    2    0    0  0.37605864719E+01 -0.36412887761E-01 -0.17787961545E+03  0.17791936636E+03  0.00000000000E+00 0.  1.
        -15    1    1    2    0    0 -0.43298418011E+01  0.25499526069E+01 -0.84828967054E+00  0.53969540192E+01  0.17770000000E+01 0. -1.
         15    1    1    2    0    0  0.25068430791E+01 -0.45762670645E+01  0.37134540202E+01  0.66463487893E+01  0.17770000000E+01 0.  1.
</event>
<event>
 6    1  0.1045352E-002  0.1827835E+03  0.7546771E-02  0.1068229E+00
        -11   -1    0    0    0    0  0.00000000000E+00  0.00000000000E+00  0.18250000000E+03  0.18250000000E+03  0.00000000000E+00 0. -1.
         11   -1    0    0    0    0 -0.00000000000E+00 -0.00000000000E+00 -0.18250000000E+03  0.18250000000E+03  0.00000000000E+00 0.  1.
        -11    1    1    2    0    0  0.34979155999E+01 -0.10948380142E+02  0.18185360520E+03  0.18221645416E+03  0.00000000000E+00 0. -1.
         11    1    1    2    0    0  0.16056009421E+01  0.29609791002E+01 -0.55266252315E+02  0.55368799847E+02  0.00000000000E+00 0.  1.
        -15    1    1    2    0    0 -0.20073966221E+01  0.93503241441E+01 -0.66690803118E+02  0.67396432786E+02  0.17770000000E+01 0.  1.
         15    1    1    2    0    0 -0.30961199199E+01 -0.13629231022E+01 -0.59896549765E+02  0.60018313211E+02  0.17770000000E+01 0. -1.
</event>
<event>
 6    1  0.1045352E-002  0.1856640E+03  0.7546771E-02  0.1065964E+00
        -11   -1    0    0    0    0  0.00000000000E+00  0.00000000000E+00  0.18250000000E+03  0.18250000000E+03  0.00000000000E+00 0.  1.
         11   -1    0    0    0    0 -0.00000000000E+00 -0.00000000000E+00 -0.18250000000E+03  0.18250000000E+03  0.00000000000E+00 0. -1.
        -11    1    1    2    0    0  0.21298417847E+01  0.28706124761E+01  0.17930033862E+03  0.17933596424E+03  0.00000000000E+00 0.  1.
         11    1    1    2    0    0 -0.35183435678E+01  0.18139840597E+01 -0.17411818193E+03  0.17416317222E+03  0.00000000000E+00 0. -1.
        -15    1    1    2    0    0  0.42608064903E+01 -0.22924040751E+01 -0.52556320714E+01  0.73613168565E+01  0.17770000000E+01 0. -1.
         15    1    1    2    0    0 -0.28723047072E+01 -0.23921924607E+01  0.73475375653E-01  0.41395466818E+01  0.17770000000E+01 0. -1.
</event>
<event>
 6    1  0.1045352E-002  0.1873441E+03  0.7546771E-02  0.1064663E+00
        -11   -1    0    0    0    0  0.00000000000E+00  0.00000000000E+00  0.18250000000E+03  0.18250000000E+03  0.00000000000E+00 0.  1.
         11   -1    0    0    0    0 -0.00000000000E+00 -0.00000000000E+00 -0.18250000000E+03  0.18250000000E+03  0.00000000000E+00 0. -1.
        -11    1    1    2    0    0  0.73028134036E+00  0.35932231895E+01  0.17761800803E+03  0.17765585085E+03  0.00000000000E+00 0.  1.
         11    1    1    2    0    0 -0.38272405665E+01  0.13380214092E+01 -0.13893540646E+03  0.13899455112E+03  0.00000000000E+00 0. -1.
        -15    1    1    2    0    0  0.36747615469E+01 -0.44204332946E+01 -0.43104287698E+02  0.43522194911E+02  0.17770000000E+01 0.  1.
         15    1    1    2    0    0 -0.57780232069E+00 -0.51081130400E+00  0.44216861269E+01  0.48274031233E+01  0.17770000000E+01 0. -1.
</event>
<event>
 6    1  0.1045352E-002  0.1851150E+03  0.7546771E-02  0.1066392E+00
        -11   -1    0    0    0    0  0.00000000000E+00  0.00000000000E+00  0.18250000000E+03  0.18250000000E+03  0.00000000000E+00 0. -1.
         11   -1    0    0    0    0 -0.00000000000E+00 -0.00000000000E+00 -0.18250000000E+03  0.18250000000E+03  0.00000000000E+00 0.  1.
        -11    1    1    2    0    0  0.76123871126E+00 -0.24713263526E+01  0.17986638191E+03  0.17988496957E+03  0.00000000000E+00 0. -1.
         11    1    1    2    0    0  0.64707641127E+01  0.66904757823E+00 -0.17205318880E+03  0.17217612549E+03  0.00000000000E+00 0.  1.
        -15    1    1    2    0    0 -0.52896383568E+01 -0.17846737064E+01 -0.46513949204E+01  0.74805439568E+01  0.17770000000E+01 0. -1.
         15    1    1    2    0    0 -0.19423644671E+01  0.35869524807E+01 -0.31617981887E+01  0.54583609818E+01  0.17770000000E+01 0.  1.
</event>
<event>
 6    1  0.1045352E-002  0.1834000E+03  0.7546771E-02  0.1067741E+00
        -11   -1    0    0    0    0  0.00000000000E+00  0.00000000000E+00  0.18250000000E+03  0.18250000000E+03  0.00000000000E+00 0.  1.
         11   -1    0    0    0    0 -0.00000000000E+00 -0.00000000000E+00 -0.18250000000E+03  0.18250000000E+03  0.00000000000E+00 0.  1.
        -11    1    1    2    0    0 -0.25044207547E+01 -0.33576617132E+01  0.16581785886E+03  0.16587075792E+03  0.00000000000E+00 0.  1.
         11    1    1    2    0    0  0.52359915651E+01  0.34120352282E+01 -0.18149246300E+03  0.18160003226E+03  0.00000000000E+00 0.  1.
        -15    1    1    2    0    0  0.12647324255E+01  0.20384856144E+01  0.64761078548E+01  0.71311060612E+01  0.17770000000E+01 0.  1.
         15    1    1    2    0    0 -0.39963032359E+01 -0.20928591294E+01  0.91984962798E+01  0.10398103755E+02  0.17770000000E+01 0.  1.
</event>
<event>
 6    1  0.1045352E-002  0.1867879E+03  0.7546771E-02  0.1065092E+00
        -11   -1    0    0    0    0  0.00000000000E+00  0.00000000000E+00  0.18250000000E+03  0.18250000000E+03  0.00000000000E+00 0.  1.
         11   -1    0    0    0    0 -0.00000000000E+00 -0.00000000000E+00 -0.18250000000E+03  0.18250000000E+03  0.00000000000E+00 0. -1.
        -11    1    1    2    0    0  0.22023318839E+01 -0.52502515070E+01  0.17812111686E+03  0.17821208623E+03  0.00000000000E+00 0.  1.
         11    1    1    2    0    0  0.15865735007E+01  0.83878612566E-01 -0.11267891734E+03  0.11269011787E+03  0.00000000000E+00 0. -1.
        -15    1    1    2    0    0  0.14135547899E+01 -0.35893010230E+01  0.27933531181E+01  0.50834800698E+01  0.17770000000E+01 0. -1.
         15    1    1    2    0    0 -0.52024601745E+01  0.87556739175E+01 -0.68235552634E+02  0.69014315833E+02  0.17770000000E+01 0.  1.
</event>
<event>
 6    1  0.1045352E-002  0.1848129E+03  0.7546771E-02  0.1066628E+00
        -11   -1    0    0    0    0  0.00000000000E+00  0.00000000000E+00  0.18250000000E+03  0.18250000000E+03  0.00000000000E+00 0.  1.
         11   -1    0    0    0    0 -0.00000000000E+00 -0.00000000000E+00 -0.18250000000E+03  0.18250000000E+03  0.00000000000E+00 0.  1.
        -11    1    1    2    0    0 -0.83008343707E+00  0.45894752395E+01  0.18012668569E+03  0.18018705619E+03  0.00000000000E+00 0.  1.
         11    1    1    2    0    0  0.47426416943E+01 -0.11584920982E+01 -0.16705700045E+03  0.16712832242E+03  0.00000000000E+00 0.  1.
        -15    1    1    2    0    0 -0.18367818299E+01 -0.93680291264E+00  0.11768958668E+01  0.29654982834E+01  0.17770000000E+01 0.  1.
         15    1    1    2    0    0 -0.20757764274E+01 -0.24941802287E+01 -0.14246581104E+02  0.14719123104E+02  0.17770000000E+01 0.  1.
</event>
<event>
 6    1  0.1045352E-002  0.1853220E+03  0.7546771E-02  0.1066230E+00
        -11   -1    0    0    0    0  0.00000000000E+00  0.00000000000E+00  0.18250000000E+03  0.18250000000E+03  0.00000000000E+00 0. -1.
         11   -1    0    0    0    0 -0.00000000000E+00 -0.00000000000E+00 -0.18250000000E+03  0.18250000000E+03  0.00000000000E+00 0. -1.
        -11    1    1    2    0    0 -0.35843567643E+01  0.39505426628E+01  0.17959876618E+03  0.17967796530E+03  0.00000000000E+00 0. -1.
         11    1    1    2    0    0 -0.19403320188E+01 -0.19131075117E+01 -0.17143374372E+03  0.17145539756E+03  0.00000000000E+00 0. -1.
        -15    1    1    2    0    0 -0.15078298131E+01 -0.30069668688E+01 -0.36237618549E+01  0.52540250739E+01  0.17770000000E+01 0. -1.
         15    1    1    2    0    0  0.70325185962E+01  0.96953171770E+00 -0.45412606101E+01  0.86126120595E+01  0.17770000000E+01 0.  1.
</event>
<event>
 6    1  0.1045352E-002  0.1585949E+03  0.7546771E-02  0.1089255E+00
        -11   -1    0    0    0    0  0.00000000000E+00  0.00000000000E+00  0.18250000000E+03  0.18250000000E+03  0.00000000000E+00 0.  1.
         11   -1    0    0    0    0 -0.00000000000E+00 -0.00000000000E+00 -0.18250000000E+03  0.18250000000E+03  0.00000000000E+00 0.  1.
        -11    1    1    2    0    0  0.12346502226E+02  0.15292729658E+01  0.15815854686E+03  0.15864709496E+03  0.00000000000E+00 0.  1.
         11    1    1    2    0    0  0.21067335963E+01 -0.48513579905E+00 -0.15885968702E+03  0.15887439644E+03  0.00000000000E+00 0.  1.
        -15    1    1    2    0    0 -0.18245048862E+02 -0.12929511643E+02  0.16076938938E+02  0.27598546591E+02  0.17770000000E+01 0. -1.
         15    1    1    2    0    0  0.37918130402E+01  0.11885374476E+02 -0.15375798780E+02  0.19879962014E+02  0.17770000000E+01 0.  1.
</event>
<event>
 6    1  0.1045352E-002  0.1830159E+03  0.7546771E-02  0.1068045E+00
        -11   -1    0    0    0    0  0.00000000000E+00  0.00000000000E+00  0.18250000000E+03  0.18250000000E+03  0.00000000000E+00 0.  1.
         11   -1    0    0    0    0 -0.00000000000E+00 -0.00000000000E+00 -0.18250000000E+03  0.18250000000E+03  0.00000000000E+00 0. -1.
        -11    1    1    2    0    0  0.31027434480E+01  0.16102231967E+01  0.18195052540E+03  0.18198410241E+03  0.00000000000E+00 0.  1.
         11    1    1    2    0    0 -0.18514976052E+01 -0.79734313043E+00 -0.13437356061E+03  0.13438868104E+03  0.00000000000E+00 0. -1.
        -15    1    1    2    0    0 -0.26528318945E-01  0.10705305557E+01 -0.43980690006E+02  0.44029598702E+02  0.17770000000E+01 0.  1.
         15    1    1    2    0    0 -0.12247175239E+01 -0.18834106219E+01 -0.35962747869E+01  0.45976178535E+01  0.17770000000E+01 0. -1.
</event>
<event>
 6    1  0.1045352E-002  0.1863338E+03  0.7546771E-02  0.1065443E+00
        -11   -1    0    0    0    0  0.00000000000E+00  0.00000000000E+00  0.18250000000E+03  0.18250000000E+03  0.00000000000E+00 0.  1.
         11   -1    0    0    0    0 -0.00000000000E+00 -0.00000000000E+00 -0.18250000000E+03  0.18250000000E+03  0.00000000000E+00 0. -1.
        -11    1    1    2    0    0 -0.19527289055E+01  0.10573211370E+01  0.15564489367E+03  0.15566073366E+03  0.00000000000E+00 0.  1.
         11    1    1    2    0    0  0.27467907060E-01  0.39241599716E+01 -0.17862306618E+03  0.17866616791E+03  0.00000000000E+00 0. -1.
        -15    1    1    2    0    0 -0.80355075005E+00 -0.18019853195E+01  0.25385814269E+02  0.25524304887E+02  0.17770000000E+01 0.  1.
         15    1    1    2    0    0  0.27288117485E+01 -0.31794957892E+01 -0.24076417636E+01  0.51487935377E+01  0.17770000000E+01 0. -1.
</event>
<event>
 6    1  0.1045352E-002  0.1827391E+03  0.7546771E-02  0.1068265E+00
        -11   -1    0    0    0    0  0.00000000000E+00  0.00000000000E+00  0.18250000000E+03  0.18250000000E+03  0.00000000000E+00 0. -1.
         11   -1    0    0    0    0 -0.00000000000E+00 -0.00000000000E+00 -0.18250000000E+03  0.18250000000E+03  0.00000000000E+00 0. -1.
        -11    1    1    2    0    0  0.25199974511E+01 -0.11997648995E+01  0.18223957787E+03  0.18226094909E+03  0.00000000000E+00 0. -1.
         11    1    1    2    0    0  0.21957699747E+01  0.13655474129E+01 -0.11541911769E+03  0.11544807861E+03  0.00000000000E+00 0. -1.
        -15    1    1    2    0    0 -0.33500935995E+01 -0.24890257539E+01 -0.45802212623E+02  0.46026283649E+02  0.17770000000E+01 0.  1.
         15    1    1    2    0    0 -0.13656738262E+01  0.23232432405E+01 -0.21018247555E+02  0.21264688651E+02  0.17770000000E+01 0. -1.
</event>
<event>
 6    1  0.1045352E-002  0.1905248E+03  0.7546771E-02  0.1062241E+00
        -11   -1    0    0    0    0  0.00000000000E+00  0.00000000000E+00  0.18250000000E+03  0.18250000000E+03  0.00000000000E+00 0.  1.
         11   -1    0    0    0    0 -0.00000000000E+00 -0.00000000000E+00 -0.18250000000E+03  0.18250000000E+03  0.00000000000E+00 0.  1.
        -11    1    1    2    0    0  0.14299860337E+01  0.17917493254E+02  0.17354688966E+03  0.17447522557E+03  0.00000000000E+00 0.  1.
         11    1    1    2    0    0  0.97483767225E+01 -0.81931022665E+01 -0.86873588086E+02  0.87801925266E+02  0.00000000000E+00 0.  1.
        -15    1    1    2    0    0 -0.98384597522E+01  0.18380683664E+01 -0.89932686289E+02  0.90505356624E+02  0.17770000000E+01 0.  1.
         15    1    1    2    0    0 -0.13399030040E+01 -0.11562459354E+02  0.32593847120E+01  0.12217492545E+02  0.17770000000E+01 0. -1.
</event>
<event>
 6    1  0.1045352E-002  0.1853005E+03  0.7546771E-02  0.1066247E+00
        -11   -1    0    0    0    0  0.00000000000E+00  0.00000000000E+00  0.18250000000E+03  0.18250000000E+03  0.00000000000E+00 0.  1.
         11   -1    0    0    0    0 -0.00000000000E+00 -0.00000000000E+00 -0.18250000000E+03  0.18250000000E+03  0.00000000000E+00 0. -1.
        -11    1    1    2    0    0  0.10202789438E+02 -0.35112279171E+00  0.17940928435E+03  0.17969950336E+03  0.00000000000E+00 0.  1.
         11    1    1    2    0    0 -0.27906132025E+01 -0.15636935283E+01 -0.10276980363E+03  0.10281957594E+03  0.00000000000E+00 0. -1.
        -15    1    1    2    0    0  0.22622656673E+00  0.22402134705E+01 -0.74208562334E+02  0.74263976379E+02  0.17770000000E+01 0. -1.
         15    1    1    2    0    0 -0.76384028024E+01 -0.32539715049E+00 -0.24309183867E+01  0.82169443152E+01  0.17770000000E+01 0.  1.
</event>
<event>
 6    1  0.1045352E-002  0.1831071E+03  0.7546771E-02  0.1067973E+00
        -11   -1    0    0    0    0  0.00000000000E+00  0.00000000000E+00  0.18250000000E+03  0.18250000000E+03  0.00000000000E+00 0. -1.
         11   -1    0    0    0    0 -0.00000000000E+00 -0.00000000000E+00 -0.18250000000E+03  0.18250000000E+03  0.00000000000E+00 0.  1.
        -11    1    1    2    0    0  0.10426660808E+01 -0.24934350954E+01  0.15923694326E+03  0.15925987715E+03  0.00000000000E+00 0. -1.
         11    1    1    2    0    0  0.12642429549E+01  0.30740451040E+01 -0.18186257084E+03  0.18189294307E+03  0.00000000000E+00 0.  1.
        -15    1    1    2    0    0 -0.35384111056E+01  0.15996514765E+01  0.15719301830E+02  0.16289058199E+02  0.17770000000E+01 0. -1.
         15    1    1    2    0    0  0.12315020700E+01 -0.21802614851E+01  0.69063257508E+01  0.75581215833E+01  0.17770000000E+01 0.  1.
</event>
<event>
 6    1  0.1045352E-002  0.1762580E+03  0.7546771E-02  0.1073535E+00
        -11   -1    0    0    0    0  0.00000000000E+00  0.00000000000E+00  0.18250000000E+03  0.18250000000E+03  0.00000000000E+00 0.  1.
         11   -1    0    0    0    0 -0.00000000000E+00 -0.00000000000E+00 -0.18250000000E+03  0.18250000000E+03  0.00000000000E+00 0.  1.
        -11    1    1    2    0    0  0.82537501365E+00 -0.37784364089E+01  0.17741572275E+03  0.17745787248E+03  0.00000000000E+00 0.  1.
         11    1    1    2    0    0 -0.29344000364E+01 -0.20583605459E+01 -0.17508369173E+03  0.17512037763E+03  0.00000000000E+00 0.  1.
        -15    1    1    2    0    0  0.22926455878E+01  0.27337344881E+01 -0.60596473941E+01  0.72530396100E+01  0.17770000000E+01 0.  1.
         15    1    1    2    0    0 -0.18362056500E+00  0.31030624667E+01  0.37276163723E+01  0.51687102843E+01  0.17770000000E+01 0. -1.
</event>
<event>
 6    1  0.1286824E-002  0.1827253E+03  0.7546771E-02  0.1068276E+00
        -11   -1    0    0    0    0  0.00000000000E+00  0.00000000000E+00  0.18250000000E+03  0.18250000000E+03  0.00000000000E+00 0. -1.
         11   -1    0    0    0    0 -0.00000000000E+00 -0.00000000000E+00 -0.18250000000E+03  0.18250000000E+03  0.00000000000E+00 0. -1.
        -11    1    1    2    0    0 -0.29491348485E+01  0.15433720587E+01  0.18224433856E+03  0.18227473311E+03  0.00000000000E+00 0. -1.
         11    1    1    2    0    0  0.11325765785E+01 -0.14641213298E+01 -0.11502279030E+02  0.11650270549E+02  0.00000000000E+00 0. -1.
        -15    1    1    2    0    0 -0.61653244367E+00 -0.34505681116E+01 -0.29503740869E+02  0.29764324061E+02  0.17770000000E+01 0.  1.
         15    1    1    2    0    0  0.24330907137E+01  0.33713173826E+01 -0.14123831866E+03  0.14131067228E+03  0.17770000000E+01 0. -1.
</event>
<event>
 6    1  0.1045352E-002  0.1177441E+03  0.7546771E-02  0.1136243E+00
        -11   -1    0    0    0    0  0.00000000000E+00  0.00000000000E+00  0.18250000000E+03  0.18250000000E+03  0.00000000000E+00 0.  1.
         11   -1    0    0    0    0 -0.00000000000E+00 -0.00000000000E+00 -0.18250000000E+03  0.18250000000E+03  0.00000000000E+00 0. -1.
        -11    1    1    2    0    0  0.80169105209E+01 -0.10427325971E+02  0.65769948831E+02  0.67072245754E+02  0.00000000000E+00 0.  1.
         11    1    1    2    0    0 -0.15655931489E+02  0.16132222929E+02 -0.12305607862E+03  0.12509258689E+03  0.00000000000E+00 0. -1.
        -15    1    1    2    0    0 -0.18961674126E+02 -0.22633328347E+02 -0.51591618549E+02  0.59469870281E+02  0.17770000000E+01 0. -1.
         15    1    1    2    0    0  0.26600695094E+02  0.16928431389E+02  0.10887774834E+03  0.11336529708E+03  0.17770000000E+01 0.  1.
</event>
<event>
 6    1  0.1045352E-002  0.1831457E+03  0.7546771E-02  0.1067942E+00
        -11   -1    0    0    0    0  0.00000000000E+00  0.00000000000E+00  0.18250000000E+03  0.18250000000E+03  0.00000000000E+00 0. -1.
         11   -1    0    0    0    0 -0.00000000000E+00 -0.00000000000E+00 -0.18250000000E+03  0.18250000000E+03  0.00000000000E+00 0.  1.
        -11    1    1    2    0    0 -0.21731192031E+01  0.11330232143E+01  0.12802938161E+03  0.12805283575E+03  0.00000000000E+00 0. -1.
         11    1    1    2    0    0 -0.54799399003E+00 -0.52791775849E+01 -0.18177685947E+03  0.18185432811E+03  0.00000000000E+00 0.  1.
        -15    1    1    2    0    0  0.96946140472E+00 -0.33873468219E+01  0.23095261650E+02  0.23429955476E+02  0.17770000000E+01 0.  1.
         15    1    1    2    0    0  0.17516517884E+01  0.75335011925E+01  0.30652216210E+02  0.31662880661E+02  0.17770000000E+01 0. -1.
</event>
<event>
 6    1  0.1045352E-002  0.1826232E+03  0.7546771E-02  0.1068357E+00
        -11   -1    0    0    0    0  0.00000000000E+00  0.00000000000E+00  0.18250000000E+03  0.18250000000E+03  0.00000000000E+00 0. -1.
         11   -1    0    0    0    0 -0.00000000000E+00 -0.00000000000E+00 -0.18250000000E+03  0.18250000000E+03  0.00000000000E+00 0. -1.
        -11    1    1    2    0    0  0.25332004810E+01 -0.16476060513E+01  0.18235172728E+03  0.18237676429E+03  0.00000000000E+00 0. -1.
         11    1    1    2    0    0 -0.84427259653E-02 -0.22505832951E+01 -0.55365216232E+02  0.55410940841E+02  0.00000000000E+00 0. -1.
        -15    1    1    2    0    0 -0.77358841140E+00 -0.83958086063E+00 -0.26983370594E+02  0.27065907571E+02  0.17770000000E+01 0. -1.
         15    1    1    2    0    0 -0.17511693436E+01  0.47377702069E+01 -0.10000314045E+03  0.10014638730E+03  0.17770000000E+01 0. -1.
</event>
<event>
 6    1  0.1045352E-002  0.1853627E+03  0.7546771E-02  0.1066199E+00
        -11   -1    0    0    0    0  0.00000000000E+00  0.00000000000E+00  0.18250000000E+03  0.18250000000E+03  0.00000000000E+00 0.  1.
         11   -1    0    0    0    0 -0.00000000000E+00 -0.00000000000E+00 -0.18250000000E+03  0.18250000000E+03  0.00000000000E+00 0. -1.
        -11    1    1    2    0    0  0.23193005875E+01 -0.12677637179E+00  0.87940592859E+02  0.87971262920E+02  0.00000000000E+00 0.  1.
         11    1    1    2    0    0  0.24125416226E+01 -0.10393224949E+01 -0.17961811199E+03  0.17963731991E+03  0.00000000000E+00 0. -1.
        -15    1    1    2    0    0 -0.17916337878E+01 -0.55075367283E+00 -0.22258107419E+01  0.34095811614E+01  0.17770000000E+01 0.  1.
         15    1    1    2    0    0 -0.29402084222E+01  0.17168525395E+01  0.93903329878E+02  0.93981836007E+02  0.17770000000E+01 0.  1.
</event>
<event>
 6    1  0.1045352E-002  0.1970905E+03  0.7546771E-02  0.1057400E+00
        -11   -1    0    0    0    0  0.00000000000E+00  0.00000000000E+00  0.18250000000E+03  0.18250000000E+03  0.00000000000E+00 0. -1.
         11   -1    0    0    0    0 -0.00000000000E+00 -0.00000000000E+00 -0.18250000000E+03  0.18250000000E+03  0.00000000000E+00 0.  1.
        -11    1    1    2    0    0  0.20289515248E+00 -0.20832287002E+01  0.10137897309E+03  0.10140057788E+03  0.00000000000E+00 0. -1.
         11    1    1    2    0    0 -0.14107891012E+02  0.20827883633E+02 -0.16601436566E+03  0.16790950816E+03  0.00000000000E+00 0.  1.
        -15    1    1    2    0    0 -0.12268022520E+02 -0.34508367413E+02  0.49347045032E+02  0.61478617262E+02  0.17770000000E+01 0.  1.
         15    1    1    2    0    0  0.26173018379E+02  0.15763712480E+02  0.15288347536E+02  0.34211296696E+02  0.17770000000E+01 0. -1.
</event>
<event>
 6    1  0.1045352E-002  0.1978305E+03  0.7546771E-02  0.1056867E+00
        -11   -1    0    0    0    0  0.00000000000E+00  0.00000000000E+00  0.18250000000E+03  0.18250000000E+03  0.00000000000E+00 0.  1.
         11   -1    0    0    0    0 -0.00000000000E+00 -0.00000000000E+00 -0.18250000000E+03  0.18250000000E+03  0.00000000000E+00 0.  1.
        -11    1    1    2    0    0  0.43121950365E+01  0.34090699633E+01  0.11521302309E+03  0.11534408296E+03  0.00000000000E+00 0.  1.
         11    1    1    2    0    0 -0.95294445775E+00  0.17349276924E+02 -0.16626401427E+03  0.16716945880E+03  0.00000000000E+00 0.  1.
        -15    1    1    2    0    0 -0.40297566057E+01  0.15835778034E+02  0.41473853851E+02  0.44612207819E+02  0.17770000000E+01 0. -1.
         15    1    1    2    0    0  0.67050602698E+00 -0.36594124921E+02  0.95771373297E+01  0.37874250428E+02  0.17770000000E+01 0.  1.
</event>
<event>
 6    1  0.1045352E-002  0.1860245E+03  0.7546771E-02  0.1065683E+00
        -11   -1    0    0    0    0  0.00000000000E+00  0.00000000000E+00  0.18250000000E+03  0.18250000000E+03  0.00000000000E+00 0. -1.
         11   -1    0    0    0    0 -0.00000000000E+00 -0.00000000000E+00 -0.18250000000E+03  0.18250000000E+03  0.00000000000E+00 0. -1.
        -11    1    1    2    0    0 -0.20524386277E+02 -0.57918912353E+01  0.49165739748E+02  0.53591663541E+02  0.00000000000E+00 0. -1.
         11    1    1    2    0    0  0.82319927826E+01  0.17005413804E+02 -0.17797555237E+03  0.17897554874E+03  0.00000000000E+00 0. -1.
        -15    1    1    2    0    0  0.11366625999E+02 -0.17791164431E+02  0.11575380414E+03  0.11767678879E+03  0.17770000000E+01 0. -1.
         15    1    1    2    0    0  0.92576749467E+00  0.65776418619E+01  0.13056008480E+02  0.14755998927E+02  0.17770000000E+01 0.  1.
</event>
<event>
 6    1  0.1045352E-002  0.1858607E+03  0.7546771E-02  0.1065811E+00
        -11   -1    0    0    0    0  0.00000000000E+00  0.00000000000E+00  0.18250000000E+03  0.18250000000E+03  0.00000000000E+00 0.  1.
         11   -1    0    0    0    0 -0.00000000000E+00 -0.00000000000E+00 -0.18250000000E+03  0.18250000000E+03  0.00000000000E+00 0. -1.
        -11    1    1    2    0    0  0.11681518008E+01  0.92817350151E+01  0.15872942099E+03  0.15900485612E+03  0.00000000000E+00 0.  1.
         11    1    1    2    0    0 -0.46199942994E+01  0.25455314234E+01 -0.17906163400E+03  0.17913931129E+03  0.00000000000E+00 0. -1.
        -15    1    1    2    0    0  0.69519217347E+00 -0.13108123615E+02  0.12260064188E+02  0.18049185571E+02  0.17770000000E+01 0. -1.
         15    1    1    2    0    0  0.27566503251E+01  0.12808571767E+01  0.80721488254E+01  0.88066470227E+01  0.17770000000E+01 0.  1.
</event>
<event>
 6    1  0.1045352E-002  0.1884575E+03  0.7546771E-02  0.1063809E+00
        -11   -1    0    0    0    0  0.00000000000E+00  0.00000000000E+00  0.18250000000E+03  0.18250000000E+03  0.00000000000E+00 0.  1.
         11   -1    0    0    0    0 -0.00000000000E+00 -0.00000000000E+00 -0.18250000000E+03  0.18250000000E+03  0.00000000000E+00 0. -1.
        -11    1    1    2    0    0 -0.22052834018E+01 -0.68153559868E+01  0.17639712403E+03  0.17654250966E+03  0.00000000000E+00 0.  1.
         11    1    1    2    0    0 -0.24127380807E+02  0.10626066852E+02 -0.11022278617E+03  0.11333184191E+03  0.00000000000E+00 0. -1.
        -15    1    1    2    0    0  0.27975990775E+01  0.26608673848E+01  0.32823355504E+00  0.42628912846E+01  0.17770000000E+01 0.  1.
         15    1    1    2    0    0  0.23535065131E+02 -0.64715782501E+01 -0.66502571415E+02  0.70862757141E+02  0.17770000000E+01 0. -1.
</event>
<event>
 6    1  0.1045352E-002  0.1778190E+03  0.7546771E-02  0.1072243E+00
        -11   -1    0    0    0    0  0.00000000000E+00  0.00000000000E+00  0.18250000000E+03  0.18250000000E+03  0.00000000000E+00 0. -1.
         11   -1    0    0    0    0 -0.00000000000E+00 -0.00000000000E+00 -0.18250000000E+03  0.18250000000E+03  0.00000000000E+00 0. -1.
        -11    1    1    2    0    0  0.20960678018E+01  0.15604666261E+01  0.17697662369E+03  0.17699591490E+03  0.00000000000E+00 0. -1.
         11    1    1    2    0    0 -0.45388981918E+01 -0.45106390333E+01 -0.17855157920E+03  0.17866620804E+03  0.00000000000E+00 0. -1.
        -15    1    1    2    0    0 -0.26977299647E+01  0.13933307356E+01  0.24750663250E+00  0.35267699151E+01  0.17770000000E+01 0.  1.
         15    1    1    2    0    0  0.51405603547E+01  0.15568416716E+01  0.13274488745E+01  0.58111071462E+01  0.17770000000E+01 0. -1.
</event>
<event>
 6    1  0.1045352E-002  0.1953109E+03  0.7546771E-02  0.1058691E+00
        -11   -1    0    0    0    0  0.00000000000E+00  0.00000000000E+00  0.18250000000E+03  0.18250000000E+03  0.00000000000E+00 0.  1.
         11   -1    0    0    0    0 -0.00000000000E+00 -0.00000000000E+00 -0.18250000000E+03  0.18250000000E+03  0.00000000000E+00 0. -1.
        -11    1    1    2    0    0 -0.16759209542E+02  0.95315446248E+01  0.15708501184E+03  0.15826377473E+03  0.00000000000E+00 0.  1.
         11    1    1    2    0    0  0.12186934494E+02  0.50698499376E+00 -0.16925012533E+03  0.16968907841E+03  0.00000000000E+00 0. -1.
        -15    1    1    2    0    0  0.99061127288E+01 -0.51661677006E+01  0.21986475499E+02  0.24726164118E+02  0.17770000000E+01 0. -1.
         15    1    1    2    0    0 -0.53338376802E+01 -0.48723619180E+01 -0.98213620085E+01  0.12320982743E+02  0.17770000000E+01 0.  1.
</event>
<event>
 6    1  0.1045352E-002  0.1879338E+03  0.7546771E-02  0.1064210E+00
        -11   -1    0    0    0    0  0.00000000000E+00  0.00000000000E+00  0.18250000000E+03  0.18250000000E+03  0.00000000000E+00 0.  1.
         11   -1    0    0    0    0 -0.00000000000E+00 -0.00000000000E+00 -0.18250000000E+03  0.18250000000E+03  0.00000000000E+00 0.  1.
        -11    1    1    2    0    0  0.12236896442E+01 -0.10840203882E+02  0.17672985521E+03  0.17706622818E+03  0.00000000000E+00 0.  1.
         11    1    1    2    0    0  0.23177178243E+01 -0.10492636997E+02 -0.14753411537E+03  0.14792492165E+03  0.00000000000E+00 0.  1.
        -15    1    1    2    0    0  0.57262234183E-01  0.31204737996E+01  0.16588705758E+01  0.39560354251E+01  0.17770000000E+01 0. -1.
         15    1    1    2    0    0 -0.35986697026E+01  0.18212367080E+02 -0.30854610416E+02  0.36052814747E+02  0.17770000000E+01 0.  1.
</event>
<event>
 6    1  0.1045352E-002  0.1836192E+03  0.7546771E-02  0.1067567E+00
        -11   -1    0    0    0    0  0.00000000000E+00  0.00000000000E+00  0.18250000000E+03  0.18250000000E+03  0.00000000000E+00 0.  1.
         11   -1    0    0    0    0 -0.00000000000E+00 -0.00000000000E+00 -0.18250000000E+03  0.18250000000E+03  0.00000000000E+00 0.  1.
        -11    1    1    2    0    0 -0.31954358922E+01  0.52405815434E-01  0.18135262924E+03  0.18138078644E+03  0.00000000000E+00 0.  1.
         11    1    1    2    0    0 -0.22418380484E+01 -0.19285298324E+01 -0.15414296363E+03  0.15417132776E+03  0.00000000000E+00 0.  1.
        -15    1    1    2    0    0  0.47561198507E+01 -0.26835775130E+01 -0.19166220063E+02  0.20008097981E+02  0.17770000000E+01 0. -1.
         15    1    1    2    0    0  0.68115408989E+00  0.45597015300E+01 -0.80434455427E+01  0.94397878226E+01  0.17770000000E+01 0.  1.
</event>
<event>
 6    1  0.1045352E-002  0.1829796E+03  0.7546771E-02  0.1068074E+00
        -11   -1    0    0    0    0  0.00000000000E+00  0.00000000000E+00  0.18250000000E+03  0.18250000000E+03  0.00000000000E+00 0.  1.
         11   -1    0    0    0    0 -0.00000000000E+00 -0.00000000000E+00 -0.18250000000E+03  0.18250000000E+03  0.00000000000E+00 0. -1.
        -11    1    1    2    0    0 -0.24367688893E+01  0.99957915496E+00  0.16142372778E+03  0.16144521328E+03  0.00000000000E+00 0.  1.
         11    1    1    2    0    0  0.23282711279E+01  0.21186543442E+01 -0.18199322000E+03  0.18202044299E+03  0.00000000000E+00 0. -1.
        -15    1    1    2    0    0  0.13075930715E+00  0.55296225302E+00  0.10597451255E+02  0.10760416691E+02  0.17770000000E+01 0.  1.
         15    1    1    2    0    0 -0.22261545750E-01 -0.36711957522E+01  0.99720409623E+01  0.10773927036E+02  0.17770000000E+01 0.  1.
</event>
<event>
 6    1  0.1045352E-002  0.1835609E+03  0.7546771E-02  0.1067613E+00
        -11   -1    0    0    0    0  0.00000000000E+00  0.00000000000E+00  0.18250000000E+03  0.18250000000E+03  0.00000000000E+00 0. -1.
         11   -1    0    0    0    0 -0.00000000000E+00 -0.00000000000E+00 -0.18250000000E+03  0.18250000000E+03  0.00000000000E+00 0.  1.
        -11    1    1    2    0    0  0.41090840508E+00  0.20643997529E+01  0.65216180705E+02  0.65250140366E+02  0.00000000000E+00 0. -1.
         11    1    1    2    0    0 -0.40365915805E+01 -0.13992379947E+02 -0.18085370277E+03  0.18143908777E+03  0.00000000000E+00 0.  1.
        -15    1    1    2    0    0  0.72461251852E+01  0.14710066956E+02  0.53607628096E+02  0.56087680636E+02  0.17770000000E+01 0.  1.
         15    1    1    2    0    0 -0.36204420098E+01 -0.27820867622E+01  0.62029893965E+02  0.62223091223E+02  0.17770000000E+01 0. -1.
</event>
<event>
 6    1  0.1045352E-002  0.1831462E+03  0.7546771E-02  0.1067942E+00
        -11   -1    0    0    0    0  0.00000000000E+00  0.00000000000E+00  0.18250000000E+03  0.18250000000E+03  0.00000000000E+00 0.  1.
         11   -1    0    0    0    0 -0.00000000000E+00 -0.00000000000E+00 -0.18250000000E+03  0.18250000000E+03  0.00000000000E+00 0.  1.
        -11    1    1    2    0    0  0.25129609539E+01 -0.36096591861E+01  0.15208621953E+03  0.15214980376E+03  0.00000000000E+00 0.  1.
         11    1    1    2    0    0 -0.29094450177E+01 -0.18592588511E+01 -0.18182105154E+03  0.18185383278E+03  0.00000000000E+00 0.  1.
        -15    1    1    2    0    0 -0.10820574873E+01  0.14557446909E+01  0.20586569198E+02  0.20742579429E+02  0.17770000000E+01 0.  1.
         15    1    1    2    0    0  0.14785415511E+01  0.40131733463E+01  0.91482628140E+01  0.10253784030E+02  0.17770000000E+01 0. -1.
</event>
<event>
 6    1  0.1045352E-002  0.1849152E+03  0.7546771E-02  0.1066548E+00
        -11   -1    0    0    0    0  0.00000000000E+00  0.00000000000E+00  0.18250000000E+03  0.18250000000E+03  0.00000000000E+00 0. -1.
         11   -1    0    0    0    0 -0.00000000000E+00 -0.00000000000E+00 -0.18250000000E+03  0.18250000000E+03  0.00000000000E+00 0.  1.
        -11    1    1    2    0    0  0.19371021443E+01  0.20265212541E+01  0.16495538235E+03  0.16497920268E+03  0.00000000000E+00 0. -1.
         11    1    1    2    0    0 -0.25706809322E+01  0.22041121948E+01 -0.18005300556E+03  0.18008484479E+03  0.00000000000E+00 0.  1.
        -15    1    1    2    0    0 -0.69348219460E+00  0.23489456839E+01  0.11923577851E+02  0.12301540601E+02  0.17770000000E+01 0.  1.
         15    1    1    2    0    0  0.13270609825E+01 -0.65795791328E+01  0.31740453671E+01  0.76344119229E+01  0.17770000000E+01 0. -1.
</event>
<event>
 6    1  0.1045352E-002  0.1850722E+03  0.7546771E-02  0.1066426E+00
        -11   -1    0    0    0    0  0.00000000000E+00  0.00000000000E+00  0.18250000000E+03  0.18250000000E+03  0.00000000000E+00 0. -1.
         11   -1    0    0    0    0 -0.00000000000E+00 -0.00000000000E+00 -0.18250000000E+03  0.18250000000E+03  0.00000000000E+00 0.  1.
        -11    1    1    2    0    0  0.91768843287E+01 -0.21090580801E+01  0.17968127867E+03  0.17992783341E+03  0.00000000000E+00 0. -1.
         11    1    1    2    0    0 -0.39231484682E+00  0.30679391743E+01 -0.13529470197E+03  0.13533005040E+03  0.00000000000E+00 0.  1.
        -15    1    1    2    0    0 -0.66368109790E+01 -0.39639841685E+01 -0.35328381262E+01  0.86832657845E+01  0.17770000000E+01 0. -1.
         15    1    1    2    0    0 -0.21477585029E+01  0.30051030743E+01 -0.40853738581E+02  0.41058850399E+02  0.17770000000E+01 0.  1.
</event>
<event>
 6    1  0.1045352E-002  0.1855017E+03  0.7546771E-02  0.1066090E+00
        -11   -1    0    0    0    0  0.00000000000E+00  0.00000000000E+00  0.18250000000E+03  0.18250000000E+03  0.00000000000E+00 0. -1.
         11   -1    0    0    0    0 -0.00000000000E+00 -0.00000000000E+00 -0.18250000000E+03  0.18250000000E+03  0.00000000000E+00 0. -1.
        -11    1    1    2    0    0 -0.95415939257E+01  0.72986856222E+01  0.17909586280E+03  0.17949830333E+03  0.00000000000E+00 0. -1.
         11    1    1    2    0    0  0.27628740064E+01  0.87571364597E+01 -0.46834262332E+02  0.47725978669E+02  0.00000000000E+00 0. -1.
        -15    1    1    2    0    0  0.25923592159E+01 -0.14939599504E+02 -0.13221411294E+03  0.13309260442E+03  0.17770000000E+01 0. -1.
         15    1    1    2    0    0  0.41863607033E+01 -0.11162225782E+01 -0.47487525036E-01  0.46831135847E+01  0.17770000000E+01 0.  1.
</event>
<event>
 6    1  0.1045352E-002  0.1836123E+03  0.7546771E-02  0.1067573E+00
        -11   -1    0    0    0    0  0.00000000000E+00  0.00000000000E+00  0.18250000000E+03  0.18250000000E+03  0.00000000000E+00 0.  1.
         11   -1    0    0    0    0 -0.00000000000E+00 -0.00000000000E+00 -0.18250000000E+03  0.18250000000E+03  0.00000000000E+00 0.  1.
        -11    1    1    2    0    0  0.21633194884E+01  0.57051562571E+01  0.18128501247E+03  0.18138766360E+03  0.00000000000E+00 0.  1.
         11    1    1    2    0    0 -0.18184378803E+01  0.10393288525E+01 -0.63474882998E+02  0.63509429948E+02  0.00000000000E+00 0.  1.
        -15    1    1    2    0    0 -0.98469084562E+01 -0.89458641359E+01 -0.65326156970E+02  0.66690738523E+02  0.17770000000E+01 0.  1.
         15    1    1    2    0    0  0.95020268481E+01  0.22013790262E+01 -0.52483972506E+02  0.53412167928E+02  0.17770000000E+01 0.  1.
</event>
<event>
 6    1  0.1045352E-002  0.1894239E+03  0.7546771E-02  0.1063073E+00
        -11   -1    0    0    0    0  0.00000000000E+00  0.00000000000E+00  0.18250000000E+03  0.18250000000E+03  0.00000000000E+00 0.  1.
         11   -1    0    0    0    0 -0.00000000000E+00 -0.00000000000E+00 -0.18250000000E+03  0.18250000000E+03  0.00000000000E+00 0.  1.
        -11    1    1    2    0    0 -0.70280893209E+00  0.36949042982E+01  0.17553581686E+03  0.17557610674E+03  0.00000000000E+00 0.  1.
         11    1    1    2    0    0  0.75425931115E+00 -0.20821636187E+01 -0.15636252400E+03  0.15637820572E+03  0.00000000000E+00 0.  1.
        -15    1    1    2    0    0  0.21647102751E+01 -0.17246861581E+01  0.64632413045E+01  0.72520155874E+01  0.17770000000E+01 0. -1.
         15    1    1    2    0    0 -0.22161606542E+01  0.11194547864E+00 -0.25636534164E+02  0.25793671952E+02  0.17770000000E+01 0.  1.
</event>
<event>
 6    1  0.1045352E-002  0.1948021E+03  0.7546771E-02  0.1059063E+00
        -11   -1    0    0    0    0  0.00000000000E+00  0.00000000000E+00  0.18250000000E+03  0.18250000000E+03  0.00000000000E+00 0. -1.
         11   -1    0    0    0    0 -0.00000000000E+00 -0.00000000000E+00 -0.18250000000E+03  0.18250000000E+03  0.00000000000E+00 0. -1.
        -11    1    1    2    0    0  0.21136651082E+01 -0.19841439346E+01  0.17017317113E+03  0.17019786303E+03  0.00000000000E+00 0. -1.
         11    1    1    2    0    0 -0.71058015843E+01 -0.21399175982E+02 -0.10201167367E+03  0.10447391403E+03  0.00000000000E+00 0. -1.
        -15    1    1    2    0    0  0.16908012439E+02  0.25228565140E+02 -0.11745993428E+02  0.32611155673E+02  0.17770000000E+01 0.  1.
         15    1    1    2    0    0 -0.11915875963E+02 -0.18452452235E+01 -0.56415504031E+02  0.57717067268E+02  0.17770000000E+01 0. -1.
</event>
<event>
 6    1  0.1292239E-002  0.1850801E+03  0.7546771E-02  0.1066419E+00
        -11   -1    0    0    0    0  0.00000000000E+00  0.00000000000E+00  0.18250000000E+03  0.18250000000E+03  0.00000000000E+00 0.  1.
         11   -1    0    0    0    0 -0.00000000000E+00 -0.00000000000E+00 -0.18250000000E+03  0.18250000000E+03  0.00000000000E+00 0. -1.
        -11    1    1    2    0    0 -0.14418917803E+01 -0.24363413032E+01  0.17989759553E+03  0.17991987019E+03  0.00000000000E+00 0.  1.
         11    1    1    2    0    0 -0.33442558498E+01  0.32315286333E+01 -0.12434555424E+03  0.12443248645E+03  0.00000000000E+00 0. -1.
        -15    1    1    2    0    0  0.35076061736E+01 -0.32010455381E+01 -0.56900850468E+02  0.57126303106E+02  0.17770000000E+01 0.  1.
         15    1    1    2    0    0  0.12785414564E+01  0.24058582080E+01  0.13488091856E+01  0.35213402550E+01  0.17770000000E+01 0.  1.
</event>
<event>
 6    1  0.1045352E-002  0.1845960E+03  0.7546771E-02  0.1066799E+00
        -11   -1    0    0    0    0  0.00000000000E+00  0.00000000000E+00  0.18250000000E+03  0.18250000000E+03  0.00000000000E+00 0.  1.
         11   -1    0    0    0    0 -0.00000000000E+00 -0.00000000000E+00 -0.18250000000E+03  0.18250000000E+03  0.00000000000E+00 0.  1.
        -11    1    1    2    0    0 -0.14118965340E+01 -0.18347029832E+01  0.14400845452E+03  0.14402706191E+03  0.00000000000E+00 0.  1.
         11    1    1    2    0    0 -0.64810380688E+01 -0.20597213697E+01 -0.18027577849E+03  0.18040399834E+03  0.00000000000E+00 0.  1.
        -15    1    1    2    0    0 -0.16733949435E+01  0.30643872266E+01  0.10974629636E+01  0.40685222953E+01  0.17770000000E+01 0. -1.
         15    1    1    2    0    0  0.95663295463E+01  0.83003712639E+00  0.35169861004E+02  0.36500417459E+02  0.17770000000E+01 0.  1.
</event>
<event>
 6    1  0.1045352E-002  0.1826839E+03  0.7546771E-02  0.1068309E+00
        -11   -1    0    0    0    0  0.00000000000E+00  0.00000000000E+00  0.18250000000E+03  0.18250000000E+03  0.00000000000E+00 0.  1.
         11   -1    0    0    0    0 -0.00000000000E+00 -0.00000000000E+00 -0.18250000000E+03  0.18250000000E+03  0.00000000000E+00 0.  1.
        -11    1    1    2    0    0 -0.14888114744E+01 -0.12089904893E+01  0.71033282241E+02  0.71059168328E+02  0.00000000000E+00 0.  1.
         11    1    1    2    0    0 -0.15302802684E+01 -0.30332980663E+01 -0.18228444306E+03  0.18231610142E+03  0.00000000000E+00 0.  1.
        -15    1    1    2    0    0 -0.35165578791E+00 -0.13988266047E+01  0.31993245421E+02  0.32075003651E+02  0.17770000000E+01 0. -1.
         15    1    1    2    0    0  0.33707475306E+01  0.56411151603E+01  0.79257915402E+02  0.79549726599E+02  0.17770000000E+01 0. -1.
</event>
<event>
 6    1  0.1045352E-002  0.1835366E+03  0.7546771E-02  0.1067633E+00
        -11   -1    0    0    0    0  0.00000000000E+00  0.00000000000E+00  0.18250000000E+03  0.18250000000E+03  0.00000000000E+00 0. -1.
         11   -1    0    0    0    0 -0.00000000000E+00 -0.00000000000E+00 -0.18250000000E+03  0.18250000000E+03  0.00000000000E+00 0.  1.
        -11    1    1    2    0    0  0.28659180043E+01  0.46654009986E+00  0.15588430910E+03  0.15591134971E+03  0.00000000000E+00 0. -1.
         11    1    1    2    0    0 -0.33885135827E+01 -0.10415812373E+01 -0.18142875572E+03  0.18146338562E+03  0.00000000000E+00 0.  1.
        -15    1    1    2    0    0 -0.41155433534E+01  0.18133749690E+01  0.16906477150E+02  0.17584445527E+02  0.17770000000E+01 0.  1.
         15    1    1    2    0    0  0.46381389319E+01 -0.12383338316E+01  0.86379694781E+01  0.10040819147E+02  0.17770000000E+01 0. -1.
</event>
<event>
 6    1  0.1045352E-002  0.1881753E+03  0.7546771E-02  0.1064025E+00
        -11   -1    0    0    0    0  0.00000000000E+00  0.00000000000E+00  0.18250000000E+03  0.18250000000E+03  0.00000000000E+00 0. -1.
         11   -1    0    0    0    0 -0.00000000000E+00 -0.00000000000E+00 -0.18250000000E+03  0.18250000000E+03  0.00000000000E+00 0.  1.
        -11    1    1    2    0    0  0.26468081744E+01 -0.12112342762E+01  0.17680078076E+03  0.17682474023E+03  0.00000000000E+00 0. -1.
         11    1    1    2    0    0 -0.51863060950E+01  0.49913396154E+01 -0.14722339449E+03  0.14739925077E+03  0.00000000000E+00 0.  1.
        -15    1    1    2    0    0 -0.16826792144E+01  0.92389097203E-01 -0.33512612732E+02  0.33601977415E+02  0.17770000000E+01 0. -1.
         15    1    1    2    0    0  0.42221771350E+01 -0.38724944364E+01  0.39352264623E+01  0.71740315882E+01  0.17770000000E+01 0.  1.
</event>
<event>
 6    1  0.1045352E-002  0.1875205E+03  0.7546771E-02  0.1064527E+00
        -11   -1    0    0    0    0  0.00000000000E+00  0.00000000000E+00  0.18250000000E+03  0.18250000000E+03  0.00000000000E+00 0.  1.
         11   -1    0    0    0    0 -0.00000000000E+00 -0.00000000000E+00 -0.18250000000E+03  0.18250000000E+03  0.00000000000E+00 0.  1.
        -11    1    1    2    0    0 -0.17590601560E+01 -0.72378701009E+01  0.17732313483E+03  0.17747950643E+03  0.00000000000E+00 0.  1.
         11    1    1    2    0    0 -0.77395752982E+01  0.16050395831E+01 -0.16627757064E+03  0.16646533476E+03  0.00000000000E+00 0.  1.
        -15    1    1    2    0    0  0.71201161827E+01 -0.36378094197E+01 -0.50836292166E+01  0.96400584460E+01  0.17770000000E+01 0.  1.
         15    1    1    2    0    0  0.23785192716E+01  0.92706399375E+01 -0.59619349742E+01  0.11415100368E+02  0.17770000000E+01 0. -1.
</event>
<event>
 6    1  0.1045352E-002  0.9946410E+02  0.7546771E-02  0.1164746E+00
        -11   -1    0    0    0    0  0.00000000000E+00  0.00000000000E+00  0.18250000000E+03  0.18250000000E+03  0.00000000000E+00 0.  1.
         11   -1    0    0    0    0 -0.00000000000E+00 -0.00000000000E+00 -0.18250000000E+03  0.18250000000E+03  0.00000000000E+00 0. -1.
        -11    1    1    2    0    0  0.97631667679E+01  0.63038503353E+00  0.11001870684E+03  0.11045285268E+03  0.00000000000E+00 0.  1.
         11    1    1    2    0    0  0.36600958628E+02  0.45703161895E+02  0.82144604341E+01  0.59126022527E+02  0.00000000000E+00 0. -1.
        -15    1    1    2    0    0 -0.68663042898E+02 -0.68887659069E+02 -0.30242438525E+02  0.10187190903E+03  0.17770000000E+01 0.  1.
         15    1    1    2    0    0  0.22298917503E+02  0.22554112141E+02 -0.87990728746E+02  0.93549215767E+02  0.17770000000E+01 0. -1.
</event>
<event>
 6    1  0.1045352E-002  0.1843881E+03  0.7546771E-02  0.1066962E+00
        -11   -1    0    0    0    0  0.00000000000E+00  0.00000000000E+00  0.18250000000E+03  0.18250000000E+03  0.00000000000E+00 0.  1.
         11   -1    0    0    0    0 -0.00000000000E+00 -0.00000000000E+00 -0.18250000000E+03  0.18250000000E+03  0.00000000000E+00 0. -1.
        -11    1    1    2    0    0 -0.12282225500E+02  0.68388325314E+01  0.56606573999E+02  0.58326039755E+02  0.00000000000E+00 0.  1.
         11    1    1    2    0    0  0.12947361190E+01  0.40439290012E+01 -0.18056194757E+03  0.18061186731E+03  0.00000000000E+00 0. -1.
        -15    1    1    2    0    0  0.69311760711E+01  0.28932707081E+01  0.59741052696E+02  0.60237557415E+02  0.17770000000E+01 0.  1.
         15    1    1    2    0    0  0.40563133100E+01 -0.13776032241E+02  0.64214320875E+02  0.65824535519E+02  0.17770000000E+01 0. -1.
</event>
<event>
 6    1  0.1045352E-002  0.1841141E+03  0.7546771E-02  0.1067177E+00
        -11   -1    0    0    0    0  0.00000000000E+00  0.00000000000E+00  0.18250000000E+03  0.18250000000E+03  0.00000000000E+00 0.  1.
         11   -1    0    0    0    0 -0.00000000000E+00 -0.00000000000E+00 -0.18250000000E+03  0.18250000000E+03  0.00000000000E+00 0.  1.
        -11    1    1    2    0    0  0.55423527525E+01  0.45136500870E+00  0.11314769982E+03  0.11328425919E+03  0.00000000000E+00 0.  1.
         11    1    1    2    0    0  0.29188679889E+01 -0.46458442964E+01 -0.18080266629E+03  0.18088589718E+03  0.00000000000E+00 0.  1.
        -15    1    1    2    0    0 -0.11187872241E+02  0.48618062166E+00  0.63113676201E+02  0.64124088372E+02  0.17770000000E+01 0. -1.
         15    1    1    2    0    0  0.27266514993E+01  0.37082986660E+01  0.45412902640E+01  0.67057552637E+01  0.17770000000E+01 0.  1.
</event>
<event>
 6    1  0.1045352E-002  0.1879545E+03  0.7546771E-02  0.1064194E+00
        -11   -1    0    0    0    0  0.00000000000E+00  0.00000000000E+00  0.18250000000E+03  0.18250000000E+03  0.00000000000E+00 0. -1.
         11   -1    0    0    0    0 -0.00000000000E+00 -0.00000000000E+00 -0.18250000000E+03  0.18250000000E+03  0.00000000000E+00 0.  1.
        -11    1    1    2    0    0  0.57009635384E+01  0.16692199722E+02  0.12423939831E+03  0.12548529240E+03  0.00000000000E+00 0. -1.
         11    1    1    2    0    0 -0.12636512116E+02 -0.27836430019E+01 -0.17657206406E+03  0.17704554192E+03  0.00000000000E+00 0.  1.
        -15    1    1    2    0    0  0.23228861574E+01 -0.97315862006E+01  0.43638021585E+00  0.10170925561E+02  0.17770000000E+01 0. -1.
         15    1    1    2    0    0  0.46126624206E+01 -0.41769705197E+01  0.51896285540E+02  0.52298240116E+02  0.17770000000E+01 0.  1.
</event>
<event>
 6    1  0.1045352E-002  0.1832302E+03  0.7546771E-02  0.1067875E+00
        -11   -1    0    0    0    0  0.00000000000E+00  0.00000000000E+00  0.18250000000E+03  0.18250000000E+03  0.00000000000E+00 0. -1.
         11   -1    0    0    0    0 -0.00000000000E+00 -0.00000000000E+00 -0.18250000000E+03  0.18250000000E+03  0.00000000000E+00 0.  1.
        -11    1    1    2    0    0  0.31373576793E+01  0.11836791799E+01  0.97537814850E+02  0.97595437574E+02  0.00000000000E+00 0. -1.
         11    1    1    2    0    0  0.50223169347E+01 -0.62625772082E+01 -0.18159245491E+03  0.18176980833E+03  0.00000000000E+00 0.  1.
        -15    1    1    2    0    0 -0.38652416222E+01  0.74725337035E+01  0.71780633066E+02  0.72293816230E+02  0.17770000000E+01 0. -1.
         15    1    1    2    0    0 -0.42944329917E+01 -0.23936356752E+01  0.12274006993E+02  0.13340937866E+02  0.17770000000E+01 0.  1.
</event>
<event>
 6    1  0.1045352E-002  0.1833708E+03  0.7546771E-02  0.1067764E+00
        -11   -1    0    0    0    0  0.00000000000E+00  0.00000000000E+00  0.18250000000E+03  0.18250000000E+03  0.00000000000E+00 0.  1.
         11   -1    0    0    0    0 -0.00000000000E+00 -0.00000000000E+00 -0.18250000000E+03  0.18250000000E+03  0.00000000000E+00 0.  1.
        -11    1    1    2    0    0  0.18728992144E+01 -0.22118764238E+01  0.18160608516E+03  0.18162921108E+03  0.00000000000E+00 0.  1.
         11    1    1    2    0    0  0.35787238703E+00 -0.33595128264E+01 -0.14912222059E+03  0.14916048764E+03  0.00000000000E+00 0.  1.
        -15    1    1    2    0    0  0.28993405116E+01  0.15111883365E+01 -0.83371216798E+01  0.91299064888E+01  0.17770000000E+01 0. -1.
         15    1    1    2    0    0 -0.51301121130E+01  0.40602009136E+01 -0.24146742890E+02  0.25080394792E+02  0.17770000000E+01 0.  1.
</event>
<event>
 6    1  0.1045352E-002  0.1833961E+03  0.7546771E-02  0.1067744E+00
        -11   -1    0    0    0    0  0.00000000000E+00  0.00000000000E+00  0.18250000000E+03  0.18250000000E+03  0.00000000000E+00 0.  1.
         11   -1    0    0    0    0 -0.00000000000E+00 -0.00000000000E+00 -0.18250000000E+03  0.18250000000E+03  0.00000000000E+00 0.  1.
        -11    1    1    2    0    0  0.13793572874E+01 -0.13885691885E+02  0.18106703419E+03  0.18160392600E+03  0.00000000000E+00 0.  1.
         11    1    1    2    0    0  0.20989028722E+01 -0.14136892404E+01 -0.91200564106E+02  0.91235666292E+02  0.00000000000E+00 0.  1.
        -15    1    1    2    0    0 -0.75670068754E+00 -0.19821167360E+01 -0.96390690428E+01  0.10028497579E+02  0.17770000000E+01 0. -1.
         15    1    1    2    0    0 -0.27215594720E+01  0.17281497862E+02 -0.80227401046E+02  0.82131910131E+02  0.17770000000E+01 0.  1.
</event>
<event>
 6    1  0.1195660E-002  0.1845402E+03  0.7546771E-02  0.1066842E+00
        -11   -1    0    0    0    0  0.00000000000E+00  0.00000000000E+00  0.18250000000E+03  0.18250000000E+03  0.00000000000E+00 0. -1.
         11   -1    0    0    0    0 -0.00000000000E+00 -0.00000000000E+00 -0.18250000000E+03  0.18250000000E+03  0.00000000000E+00 0. -1.
        -11    1    1    2    0    0 -0.21178851250E+01  0.22771477031E+01  0.18043297009E+03  0.18045976708E+03  0.00000000000E+00 0. -1.
         11    1    1    2    0    0 -0.14036846862E+01 -0.38359409175E+01 -0.16122419591E+03  0.16127593162E+03  0.00000000000E+00 0. -1.
        -15    1    1    2    0    0  0.10460078207E+01  0.30159874943E+01 -0.19532287330E+02  0.19871041500E+02  0.17770000000E+01 0. -1.
         15    1    1    2    0    0  0.24755619905E+01 -0.14571942798E+01  0.32351314550E+00  0.33932598034E+01  0.17770000000E+01 0. -1.
</event>
<event>
 6    1  0.1045352E-002  0.1903093E+03  0.7546771E-02  0.1062403E+00
        -11   -1    0    0    0    0  0.00000000000E+00  0.00000000000E+00  0.18250000000E+03  0.18250000000E+03  0.00000000000E+00 0. -1.
         11   -1    0    0    0    0 -0.00000000000E+00 -0.00000000000E+00 -0.18250000000E+03  0.18250000000E+03  0.00000000000E+00 0. -1.
        -11    1    1    2    0    0 -0.24892425175E+01 -0.14964364204E+01  0.17466654968E+03  0.17469069588E+03  0.00000000000E+00 0. -1.
         11    1    1    2    0    0  0.29327066544E+01  0.40763947771E+01 -0.17146923407E+03  0.17154275267E+03  0.00000000000E+00 0. -1.
        -15    1    1    2    0    0 -0.19263663653E+01 -0.20876037707E+01  0.72859976407E+01  0.80195054397E+01  0.17770000000E+01 0.  1.
         15    1    1    2    0    0  0.14829022284E+01 -0.49235458597E+00 -0.10483313253E+02  0.10747046004E+02  0.17770000000E+01 0. -1.
</event>
<event>
 6    1  0.1130063E-002  0.1825757E+03  0.7546771E-02  0.1068395E+00
        -11   -1    0    0    0    0  0.00000000000E+00  0.00000000000E+00  0.18250000000E+03  0.18250000000E+03  0.00000000000E+00 0. -1.
         11   -1    0    0    0    0 -0.00000000000E+00 -0.00000000000E+00 -0.18250000000E+03  0.18250000000E+03  0.00000000000E+00 0.  1.
        -11    1    1    2    0    0 -0.27985676607E+01  0.92606375295E-01  0.18240285107E+03  0.18242434223E+03  0.00000000000E+00 0. -1.
         11    1    1    2    0    0  0.32282502505E+00  0.20396110605E+01 -0.44400596647E+02  0.44448590663E+02  0.00000000000E+00 0.  1.
        -15    1    1    2    0    0  0.16911570674E+01  0.20633479537E+00 -0.38655757954E+02  0.38734066895E+02  0.17770000000E+01 0. -1.
         15    1    1    2    0    0  0.78458556828E+00 -0.23385522311E+01 -0.99346496474E+02  0.99393000214E+02  0.17770000000E+01 0.  1.
</event>
<event>
 6    1  0.1045352E-002  0.1875914E+03  0.7546771E-02  0.1064473E+00
        -11   -1    0    0    0    0  0.00000000000E+00  0.00000000000E+00  0.18250000000E+03  0.18250000000E+03  0.00000000000E+00 0. -1.
         11   -1    0    0    0    0 -0.00000000000E+00 -0.00000000000E+00 -0.18250000000E+03  0.18250000000E+03  0.00000000000E+00 0. -1.
        -11    1    1    2    0    0  0.85083451549E+00 -0.37531559961E+01  0.17736689719E+03  0.17740864217E+03  0.00000000000E+00 0. -1.
         11    1    1    2    0    0  0.71385543256E+01 -0.97288100095E+01 -0.15284414268E+03  0.15331973341E+03  0.00000000000E+00 0. -1.
        -15    1    1    2    0    0 -0.62163716181E+01  0.31699299383E+00 -0.17090197145E+00  0.64753916589E+01  0.17770000000E+01 0. -1.
         15    1    1    2    0    0 -0.17730172230E+01  0.13164973012E+02 -0.24351852541E+02  0.27796232760E+02  0.17770000000E+01 0.  1.
</event>
<event>
 6    1  0.1045352E-002  0.1836086E+03  0.7546771E-02  0.1067576E+00
        -11   -1    0    0    0    0  0.00000000000E+00  0.00000000000E+00  0.18250000000E+03  0.18250000000E+03  0.00000000000E+00 0.  1.
         11   -1    0    0    0    0 -0.00000000000E+00 -0.00000000000E+00 -0.18250000000E+03  0.18250000000E+03  0.00000000000E+00 0. -1.
        -11    1    1    2    0    0 -0.35654621569E+01 -0.34914931934E+01  0.16594216737E+03  0.16601718573E+03  0.00000000000E+00 0.  1.
         11    1    1    2    0    0  0.43813544010E+01  0.19484657283E+00 -0.18133836576E+03  0.18139139210E+03  0.00000000000E+00 0. -1.
        -15    1    1    2    0    0 -0.16823845964E+01  0.47217338576E+01  0.13480249702E+02  0.14491378457E+02  0.17770000000E+01 0.  1.
         15    1    1    2    0    0  0.86649235240E+00 -0.14250872370E+01  0.19159486873E+01  0.31000437098E+01  0.17770000000E+01 0.  1.
</event>
<event>
 6    1  0.1045352E-002  0.1829745E+03  0.7546771E-02  0.1068078E+00
        -11   -1    0    0    0    0  0.00000000000E+00  0.00000000000E+00  0.18250000000E+03  0.18250000000E+03  0.00000000000E+00 0.  1.
         11   -1    0    0    0    0 -0.00000000000E+00 -0.00000000000E+00 -0.18250000000E+03  0.18250000000E+03  0.00000000000E+00 0. -1.
        -11    1    1    2    0    0 -0.12212329680E+01  0.35977458668E+01  0.18198585830E+03  0.18202551417E+03  0.00000000000E+00 0.  1.
         11    1    1    2    0    0 -0.22167467133E+01 -0.52644231982E-01 -0.10622778829E+03  0.10625092819E+03  0.00000000000E+00 0. -1.
        -15    1    1    2    0    0  0.79500282554E+00 -0.26954218713E+01 -0.70074402032E+02  0.70153238541E+02  0.17770000000E+01 0. -1.
         15    1    1    2    0    0  0.26429768557E+01 -0.84967976346E+00 -0.56836679812E+01  0.65703191004E+01  0.17770000000E+01 0.  1.
</event>
<event>
 6    1  0.1045352E-002  0.1848395E+03  0.7546771E-02  0.1066608E+00
        -11   -1    0    0    0    0  0.00000000000E+00  0.00000000000E+00  0.18250000000E+03  0.18250000000E+03  0.00000000000E+00 0. -1.
         11   -1    0    0    0    0 -0.00000000000E+00 -0.00000000000E+00 -0.18250000000E+03  0.18250000000E+03  0.00000000000E+00 0.  1.
        -11    1    1    2    0    0  0.67508608602E+01  0.62887289712E+01  0.16260126588E+03  0.16286280699E+03  0.00000000000E+00 0. -1.
         11    1    1    2    0    0  0.38360889040E+00 -0.34706309572E+01 -0.18012665964E+03  0.18016050052E+03  0.00000000000E+00 0.  1.
        -15    1    1    2    0    0 -0.64756847501E+01 -0.47166079422E+01  0.17461265856E+02  0.19293377562E+02  0.17770000000E+01 0. -1.
         15    1    1    2    0    0 -0.65878500046E+00  0.18985099283E+01  0.64127908171E-01  0.26833149299E+01  0.17770000000E+01 0.  1.
</event>
<event>
 6    1  0.1045352E-002  0.1833043E+03  0.7546771E-02  0.1067816E+00
        -11   -1    0    0    0    0  0.00000000000E+00  0.00000000000E+00  0.18250000000E+03  0.18250000000E+03  0.00000000000E+00 0.  1.
         11   -1    0    0    0    0 -0.00000000000E+00 -0.00000000000E+00 -0.18250000000E+03  0.18250000000E+03  0.00000000000E+00 0.  1.
        -11    1    1    2    0    0 -0.19327120948E+01 -0.27385263062E+01  0.18166477205E+03  0.18169569149E+03  0.00000000000E+00 0.  1.
         11    1    1    2    0    0 -0.42564326641E+00  0.82060362032E+00 -0.63522153696E+02  0.63528879831E+02  0.00000000000E+00 0.  1.
        -15    1    1    2    0    0  0.89950507420E+01 -0.37290354963E+01 -0.79985386173E+02  0.80595510879E+02  0.17770000000E+01 0.  1.
         15    1    1    2    0    0 -0.66366953807E+01  0.56469581822E+01 -0.38157232179E+02  0.39179917801E+02  0.17770000000E+01 0. -1.
</event>
<event>
 6    1  0.1045352E-002  0.1757604E+03  0.7546771E-02  0.1073950E+00
        -11   -1    0    0    0    0  0.00000000000E+00  0.00000000000E+00  0.18250000000E+03  0.18250000000E+03  0.00000000000E+00 0.  1.
         11   -1    0    0    0    0 -0.00000000000E+00 -0.00000000000E+00 -0.18250000000E+03  0.18250000000E+03  0.00000000000E+00 0.  1.
        -11    1    1    2    0    0  0.79788825799E+01  0.13031913742E+01  0.17559435002E+03  0.17578036476E+03  0.00000000000E+00 0.  1.
         11    1    1    2    0    0 -0.26420711510E+01  0.10960700947E+01 -0.17576597142E+03  0.17578924489E+03  0.00000000000E+00 0.  1.
        -15    1    1    2    0    0  0.70277162364E+00 -0.19999957078E+01 -0.47043842135E+01  0.54573648050E+01  0.17770000000E+01 0.  1.
         15    1    1    2    0    0 -0.60395830525E+01 -0.39926576102E+00  0.48760056150E+01  0.79730255458E+01  0.17770000000E+01 0. -1.
</event>
<event>
 6    1  0.1045352E-002  0.1826867E+03  0.7546771E-02  0.1068306E+00
        -11   -1    0    0    0    0  0.00000000000E+00  0.00000000000E+00  0.18250000000E+03  0.18250000000E+03  0.00000000000E+00 0. -1.
         11   -1    0    0    0    0 -0.00000000000E+00 -0.00000000000E+00 -0.18250000000E+03  0.18250000000E+03  0.00000000000E+00 0.  1.
        -11    1    1    2    0    0 -0.62077651278E+00  0.27540505045E+01  0.18229147211E+03  0.18231333183E+03  0.00000000000E+00 0. -1.
         11    1    1    2    0    0  0.13387032068E+01  0.86571452357E+00 -0.11637132581E+03  0.11638224546E+03  0.00000000000E+00 0.  1.
        -15    1    1    2    0    0  0.54406580157E+00  0.78983691002E+00 -0.26856687472E+02  0.26932494146E+02  0.17770000000E+01 0. -1.
         15    1    1    2    0    0 -0.12619924956E+01 -0.44096019381E+01 -0.39063458831E+02  0.39371928568E+02  0.17770000000E+01 0. -1.
</event>
<event>
 6    1  0.1045352E-002  0.1835871E+03  0.7546771E-02  0.1067593E+00
        -11   -1    0    0    0    0  0.00000000000E+00  0.00000000000E+00  0.18250000000E+03  0.18250000000E+03  0.00000000000E+00 0. -1.
         11   -1    0    0    0    0 -0.00000000000E+00 -0.00000000000E+00 -0.18250000000E+03  0.18250000000E+03  0.00000000000E+00 0. -1.
        -11    1    1    2    0    0  0.72649833240E+00  0.25916462323E+01  0.17234779685E+03  0.17236881246E+03  0.00000000000E+00 0. -1.
         11    1    1    2    0    0 -0.26270205893E+01  0.17954575048E+01 -0.18138497063E+03  0.18141287847E+03  0.00000000000E+00 0. -1.
        -15    1    1    2    0    0  0.23904930686E+01 -0.27064581728E+01  0.66038938719E+01  0.77335965904E+01  0.17770000000E+01 0. -1.
         15    1    1    2    0    0 -0.48997081164E+00 -0.16806455643E+01  0.24332799081E+01  0.34847124731E+01  0.17770000000E+01 0.  1.
</event>
<event>
 6    1  0.1045352E-002  0.1826404E+03  0.7546771E-02  0.1068343E+00
        -11   -1    0    0    0    0  0.00000000000E+00  0.00000000000E+00  0.18250000000E+03  0.18250000000E+03  0.00000000000E+00 0. -1.
         11   -1    0    0    0    0 -0.00000000000E+00 -0.00000000000E+00 -0.18250000000E+03  0.18250000000E+03  0.00000000000E+00 0. -1.
        -11    1    1    2    0    0 -0.24320762066E+01 -0.33737659954E+00  0.81806470745E+02  0.81843310499E+02  0.00000000000E+00 0. -1.
         11    1    1    2    0    0  0.22707031061E+01  0.19312995839E+01 -0.18233518887E+03  0.18235955449E+03  0.00000000000E+00 0. -1.
        -15    1    1    2    0    0  0.23118475864E+01  0.51566497873E+00  0.71046939272E+02  0.71108620143E+02  0.17770000000E+01 0.  1.
         15    1    1    2    0    0 -0.21504744859E+01 -0.21095879631E+01  0.29481778856E+02  0.29688514873E+02  0.17770000000E+01 0. -1.
</event>
<event>
 6    1  0.1045352E-002  0.1918339E+03  0.7546771E-02  0.1061259E+00
        -11   -1    0    0    0    0  0.00000000000E+00  0.00000000000E+00  0.18250000000E+03  0.18250000000E+03  0.00000000000E+00 0.  1.
         11   -1    0    0    0    0 -0.00000000000E+00 -0.00000000000E+00 -0.18250000000E+03  0.18250000000E+03  0.00000000000E+00 0.  1.
        -11    1    1    2    0    0  0.75879165764E-01 -0.46010060071E+01  0.15257837431E+03  0.15264774915E+03  0.00000000000E+00 0.  1.
         11    1    1    2    0    0  0.44851381155E+01 -0.72274131330E+01 -0.17295710294E+03  0.17316613821E+03  0.00000000000E+00 0.  1.
        -15    1    1    2    0    0 -0.43701752656E+01  0.61272824352E+00 -0.76135427747E+01  0.89776182997E+01  0.17770000000E+01 0. -1.
         15    1    1    2    0    0 -0.19084201563E+00  0.11215690897E+02  0.27992271404E+02  0.30208494341E+02  0.17770000000E+01 0.  1.
</event>
<event>
 6    1  0.1045352E-002  0.1849717E+03  0.7546771E-02  0.1066504E+00
        -11   -1    0    0    0    0  0.00000000000E+00  0.00000000000E+00  0.18250000000E+03  0.18250000000E+03  0.00000000000E+00 0.  1.
         11   -1    0    0    0    0 -0.00000000000E+00 -0.00000000000E+00 -0.18250000000E+03  0.18250000000E+03  0.00000000000E+00 0.  1.
        -11    1    1    2    0    0 -0.39584698662E+01 -0.18444872053E+01  0.17533153782E+03  0.17538591669E+03  0.00000000000E+00 0.  1.
         11    1    1    2    0    0 -0.83347662986E+00  0.26531510464E+01 -0.18000683007E+03  0.18002831101E+03  0.00000000000E+00 0.  1.
        -15    1    1    2    0    0  0.23881591953E+01  0.10935729971E+01  0.51119684479E+01  0.60157424025E+01  0.17770000000E+01 0. -1.
         15    1    1    2    0    0  0.24037873008E+01 -0.19022368381E+01 -0.43667620184E+00  0.35700298992E+01  0.17770000000E+01 0.  1.
</event>
<event>
 6    1  0.1045352E-002  0.1928719E+03  0.7546771E-02  0.1060486E+00
        -11   -1    0    0    0    0  0.00000000000E+00  0.00000000000E+00  0.18250000000E+03  0.18250000000E+03  0.00000000000E+00 0.  1.
         11   -1    0    0    0    0 -0.00000000000E+00 -0.00000000000E+00 -0.18250000000E+03  0.18250000000E+03  0.00000000000E+00 0.  1.
        -11    1    1    2    0    0  0.10330205914E+02 -0.32993428475E+02  0.75501047366E+02  0.83040277156E+02  0.00000000000E+00 0.  1.
         11    1    1    2    0    0 -0.43617739835E+01 -0.31992758163E+00 -0.17207251376E+03  0.17212808434E+03  0.00000000000E+00 0.  1.
        -15    1    1    2    0    0 -0.22101083910E+01  0.27111112915E+02  0.98431965190E+02  0.10213670507E+03  0.17770000000E+01 0. -1.
         15    1    1    2    0    0 -0.37583235399E+01  0.62022431414E+01 -0.18604987968E+01  0.76949334362E+01  0.17770000000E+01 0.  1.
</event>
<event>
 6    1  0.1045352E-002  0.1826890E+03  0.7546771E-02  0.1068304E+00
        -11   -1    0    0    0    0  0.00000000000E+00  0.00000000000E+00  0.18250000000E+03  0.18250000000E+03  0.00000000000E+00 0.  1.
         11   -1    0    0    0    0 -0.00000000000E+00 -0.00000000000E+00 -0.18250000000E+03  0.18250000000E+03  0.00000000000E+00 0. -1.
        -11    1    1    2    0    0  0.38554118322E+01 -0.96277478514E+00  0.18226765124E+03  0.18231096463E+03  0.00000000000E+00 0.  1.
         11    1    1    2    0    0 -0.11279812840E+01 -0.79705947017E+00 -0.66888176602E+02  0.66902435043E+02  0.00000000000E+00 0. -1.
        -15    1    1    2    0    0  0.14292725946E+01  0.36118620948E+01 -0.73327516050E+02  0.73451825757E+02  0.17770000000E+01 0.  1.
         15    1    1    2    0    0 -0.41567031429E+01 -0.18520278395E+01 -0.42051958586E+02  0.42334774572E+02  0.17770000000E+01 0. -1.
</event>
<event>
 6    1  0.1045352E-002  0.1777869E+03  0.7546771E-02  0.1072270E+00
        -11   -1    0    0    0    0  0.00000000000E+00  0.00000000000E+00  0.18250000000E+03  0.18250000000E+03  0.00000000000E+00 0.  1.
         11   -1    0    0    0    0 -0.00000000000E+00 -0.00000000000E+00 -0.18250000000E+03  0.18250000000E+03  0.00000000000E+00 0. -1.
        -11    1    1    2    0    0 -0.34179687048E+01 -0.98407346033E+00  0.17691728300E+03  0.17695303313E+03  0.00000000000E+00 0.  1.
         11    1    1    2    0    0  0.21620380951E+01 -0.16929759234E+01 -0.17861596153E+03  0.17863706863E+03  0.00000000000E+00 0. -1.
        -15    1    1    2    0    0  0.28888247955E+01  0.32590592724E+00 -0.23527027684E+01  0.41405872396E+01  0.17770000000E+01 0. -1.
         15    1    1    2    0    0 -0.16328941858E+01  0.23511434565E+01  0.40513812964E+01  0.52693109970E+01  0.17770000000E+01 0.  1.
</event>
<event>
 6    1  0.1045352E-002  0.1827487E+03  0.7546771E-02  0.1068257E+00
        -11   -1    0    0    0    0  0.00000000000E+00  0.00000000000E+00  0.18250000000E+03  0.18250000000E+03  0.00000000000E+00 0.  1.
         11   -1    0    0    0    0 -0.00000000000E+00 -0.00000000000E+00 -0.18250000000E+03  0.18250000000E+03  0.00000000000E+00 0.  1.
        -11    1    1    2    0    0 -0.31213883513E+01  0.11488573523E+01  0.81105555587E+02  0.81173727804E+02  0.00000000000E+00 0.  1.
         11    1    1    2    0    0  0.34222549670E+01  0.14426092769E+01 -0.18221345060E+03  0.18225129501E+03  0.00000000000E+00 0.  1.
        -15    1    1    2    0    0 -0.38343079480E+01 -0.18410719270E+01  0.29887286001E+02  0.30240685455E+02  0.17770000000E+01 0.  1.
         15    1    1    2    0    0  0.35334413324E+01 -0.75039470214E+00  0.71220609016E+02  0.71334291736E+02  0.17770000000E+01 0. -1.
</event>
<event>
 6    1  0.1045352E-002  0.1839468E+03  0.7546771E-02  0.1067309E+00
        -11   -1    0    0    0    0  0.00000000000E+00  0.00000000000E+00  0.18250000000E+03  0.18250000000E+03  0.00000000000E+00 0.  1.
         11   -1    0    0    0    0 -0.00000000000E+00 -0.00000000000E+00 -0.18250000000E+03  0.18250000000E+03  0.00000000000E+00 0.  1.
        -11    1    1    2    0    0  0.70935308326E+00 -0.28572875685E+01  0.18102928435E+03  0.18105322164E+03  0.00000000000E+00 0.  1.
         11    1    1    2    0    0  0.60911646360E-01  0.61191006539E+01 -0.17018896204E+03  0.17029894276E+03  0.00000000000E+00 0.  1.
        -15    1    1    2    0    0  0.44436103826E+00 -0.50588226788E+01 -0.81230262070E+01  0.97432246915E+01  0.17770000000E+01 0. -1.
         15    1    1    2    0    0 -0.12146257679E+01  0.17970095934E+01 -0.27172961013E+01  0.39046109072E+01  0.17770000000E+01 0.  1.
</event>
<event>
 6    1  0.1045352E-002  0.1879973E+03  0.7546771E-02  0.1064161E+00
        -11   -1    0    0    0    0  0.00000000000E+00  0.00000000000E+00  0.18250000000E+03  0.18250000000E+03  0.00000000000E+00 0. -1.
         11   -1    0    0    0    0 -0.00000000000E+00 -0.00000000000E+00 -0.18250000000E+03  0.18250000000E+03  0.00000000000E+00 0. -1.
        -11    1    1    2    0    0  0.55229820788E+01  0.41791388418E+01  0.16403692546E+03  0.16418307296E+03  0.00000000000E+00 0. -1.
         11    1    1    2    0    0  0.80498687097E+01 -0.17825009424E+01 -0.17681057982E+03  0.17700270854E+03  0.00000000000E+00 0. -1.
        -15    1    1    2    0    0 -0.11704926577E+02  0.35640733205E+01  0.41983927456E+01  0.13057264471E+02  0.17770000000E+01 0.  1.
         15    1    1    2    0    0 -0.18679242110E+01 -0.59607112199E+01  0.85752616135E+01  0.10756954023E+02  0.17770000000E+01 0.  1.
</event>
<event>
 6    1  0.1045352E-002  0.1826110E+03  0.7546771E-02  0.1068367E+00
        -11   -1    0    0    0    0  0.00000000000E+00  0.00000000000E+00  0.18250000000E+03  0.18250000000E+03  0.00000000000E+00 0. -1.
         11   -1    0    0    0    0 -0.00000000000E+00 -0.00000000000E+00 -0.18250000000E+03  0.18250000000E+03  0.00000000000E+00 0. -1.
        -11    1    1    2    0    0  0.17155871761E+01 -0.85597042475E+00  0.88614725103E+02  0.88635463726E+02  0.00000000000E+00 0. -1.
         11    1    1    2    0    0  0.38876329531E+00  0.39380121963E+01 -0.18234609952E+03  0.18238903226E+03  0.00000000000E+00 0. -1.
        -15    1    1    2    0    0  0.98149608049E+00 -0.23890304078E+01  0.41385906819E+02  0.41504479434E+02  0.17770000000E+01 0.  1.
         15    1    1    2    0    0 -0.30858465519E+01 -0.69301136374E+00  0.52345467599E+02  0.52471024584E+02  0.17770000000E+01 0. -1.
</event>
<event>
 6    1  0.1045352E-002  0.1827924E+03  0.7546771E-02  0.1068222E+00
        -11   -1    0    0    0    0  0.00000000000E+00  0.00000000000E+00  0.18250000000E+03  0.18250000000E+03  0.00000000000E+00 0.  1.
         11   -1    0    0    0    0 -0.00000000000E+00 -0.00000000000E+00 -0.18250000000E+03  0.18250000000E+03  0.00000000000E+00 0.  1.
        -11    1    1    2    0    0  0.11200772789E+01 -0.27789689884E+00  0.71930892749E+02  0.71940149648E+02  0.00000000000E+00 0.  1.
         11    1    1    2    0    0  0.66274035533E+00  0.62332202610E+01 -0.18209975671E+03  0.18220761140E+03  0.00000000000E+00 0.  1.
        -15    1    1    2    0    0 -0.96940843274E+00  0.98982540632E+00  0.70281315908E+02  0.70317427441E+02  0.17770000000E+01 0.  1.
         15    1    1    2    0    0 -0.81340920144E+00 -0.69451487685E+01  0.39887548049E+02  0.40534811512E+02  0.17770000000E+01 0.  1.
</event>
<event>
 6    1  0.1045352E-002  0.1848426E+03  0.7546771E-02  0.1066605E+00
        -11   -1    0    0    0    0  0.00000000000E+00  0.00000000000E+00  0.18250000000E+03  0.18250000000E+03  0.00000000000E+00 0. -1.
         11   -1    0    0    0    0 -0.00000000000E+00 -0.00000000000E+00 -0.18250000000E+03  0.18250000000E+03  0.00000000000E+00 0.  1.
        -11    1    1    2    0    0  0.41191774205E+01  0.24464329697E+01  0.18009367220E+03  0.18015738514E+03  0.00000000000E+00 0. -1.
         11    1    1    2    0    0  0.52032803877E+00 -0.28227312816E+01 -0.17023538253E+03  0.17025957834E+03  0.00000000000E+00 0.  1.
        -15    1    1    2    0    0 -0.45378953426E+00 -0.24754597825E+01  0.29841464235E+00  0.30952554620E+01  0.17770000000E+01 0.  1.
         15    1    1    2    0    0 -0.41857159250E+01  0.28517580943E+01 -0.10156704308E+02  0.11487781049E+02  0.17770000000E+01 0. -1.
</event>
<event>
 6    1  0.1045352E-002  0.1829759E+03  0.7546771E-02  0.1068077E+00
        -11   -1    0    0    0    0  0.00000000000E+00  0.00000000000E+00  0.18250000000E+03  0.18250000000E+03  0.00000000000E+00 0.  1.
         11   -1    0    0    0    0 -0.00000000000E+00 -0.00000000000E+00 -0.18250000000E+03  0.18250000000E+03  0.00000000000E+00 0. -1.
        -11    1    1    2    0    0 -0.35372003117E+00 -0.67786695096E+00  0.34806952583E+02  0.34815349626E+02  0.00000000000E+00 0.  1.
         11    1    1    2    0    0  0.15817456675E+01  0.29764858948E+01 -0.18199289880E+03  0.18202410994E+03  0.00000000000E+00 0. -1.
        -15    1    1    2    0    0  0.17892372780E+01 -0.37522473612E+01  0.10623085850E+02  0.11545060081E+02  0.17770000000E+01 0.  1.
         15    1    1    2    0    0 -0.30172629144E+01  0.14536284174E+01  0.13656286037E+03  0.13661548035E+03  0.17770000000E+01 0.  1.
</event>
<event>
 6    1  0.1045352E-002  0.1828223E+03  0.7546771E-02  0.1068199E+00
        -11   -1    0    0    0    0  0.00000000000E+00  0.00000000000E+00  0.18250000000E+03  0.18250000000E+03  0.00000000000E+00 0.  1.
         11   -1    0    0    0    0 -0.00000000000E+00 -0.00000000000E+00 -0.18250000000E+03  0.18250000000E+03  0.00000000000E+00 0.  1.
        -11    1    1    2    0    0 -0.17601669819E+01 -0.20714730858E+01  0.18215745056E+03  0.18217773186E+03  0.00000000000E+00 0.  1.
         11    1    1    2    0    0  0.38414443113E+01 -0.25486143172E+00 -0.12783677555E+03  0.12789473340E+03  0.00000000000E+00 0.  1.
        -15    1    1    2    0    0 -0.42655401348E+01  0.24935183672E+01 -0.31744100927E+02  0.32175427568E+02  0.17770000000E+01 0. -1.
         15    1    1    2    0    0  0.21842628053E+01 -0.16718384972E+00 -0.22576574084E+02  0.22752107173E+02  0.17770000000E+01 0.  1.
</event>
<event>
 6    1  0.1045352E-002  0.1904148E+03  0.7546771E-02  0.1062324E+00
        -11   -1    0    0    0    0  0.00000000000E+00  0.00000000000E+00  0.18250000000E+03  0.18250000000E+03  0.00000000000E+00 0.  1.
         11   -1    0    0    0    0 -0.00000000000E+00 -0.00000000000E+00 -0.18250000000E+03  0.18250000000E+03  0.00000000000E+00 0. -1.
        -11    1    1    2    0    0  0.10972935896E+02  0.84120132525E+01  0.14519620411E+03  0.14585302526E+03  0.00000000000E+00 0.  1.
         11    1    1    2    0    0  0.15070086409E+02  0.10753515062E+02 -0.17360083283E+03  0.17458520771E+03  0.00000000000E+00 0. -1.
        -15    1    1    2    0    0 -0.78786661737E+01 -0.10177825929E+02  0.60397847654E+01  0.14328232631E+02  0.17770000000E+01 0. -1.
         15    1    1    2    0    0 -0.18164356132E+02 -0.89877023856E+01  0.22364843954E+02  0.30233534394E+02  0.17770000000E+01 0.  1.
</event>
<event>
 6    1  0.1045352E-002  0.1831015E+03  0.7546771E-02  0.1067977E+00
        -11   -1    0    0    0    0  0.00000000000E+00  0.00000000000E+00  0.18250000000E+03  0.18250000000E+03  0.00000000000E+00 0. -1.
         11   -1    0    0    0    0 -0.00000000000E+00 -0.00000000000E+00 -0.18250000000E+03  0.18250000000E+03  0.00000000000E+00 0. -1.
        -11    1    1    2    0    0  0.12051826890E+01 -0.35606625424E+01  0.18185962041E+03  0.18189846706E+03  0.00000000000E+00 0. -1.
         11    1    1    2    0    0  0.20097011013E+01  0.29370137511E+01 -0.15164894261E+03  0.15169069432E+03  0.00000000000E+00 0. -1.
        -15    1    1    2    0    0 -0.46898363531E+01 -0.15909521179E+01 -0.21395126709E+02  0.22032586538E+02  0.17770000000E+01 0.  1.
         15    1    1    2    0    0  0.14749525628E+01  0.22146009092E+01 -0.88155510850E+01  0.93782520857E+01  0.17770000000E+01 0. -1.
</event>
<event>
 6    1  0.1045352E-002  0.1845944E+03  0.7546771E-02  0.1066800E+00
        -11   -1    0    0    0    0  0.00000000000E+00  0.00000000000E+00  0.18250000000E+03  0.18250000000E+03  0.00000000000E+00 0.  1.
         11   -1    0    0    0    0 -0.00000000000E+00 -0.00000000000E+00 -0.18250000000E+03  0.18250000000E+03  0.00000000000E+00 0.  1.
        -11    1    1    2    0    0  0.53056218742E+01 -0.41439653307E+01  0.18027992845E+03  0.18040558382E+03  0.00000000000E+00 0.  1.
         11    1    1    2    0    0  0.13554389569E+01  0.14163585154E+01 -0.11651006205E+03  0.11652655425E+03  0.00000000000E+00 0.  1.
        -15    1    1    2    0    0 -0.51338755112E+01  0.73014525674E+01 -0.81671531586E+01  0.12228164501E+02  0.17770000000E+01 0.  1.
         15    1    1    2    0    0 -0.15271853199E+01 -0.45738457522E+01 -0.55602713238E+02  0.55839697424E+02  0.17770000000E+01 0.  1.
</event>
<event>
 6    1  0.1045352E-002  0.1834239E+03  0.7546771E-02  0.1067722E+00
        -11   -1    0    0    0    0  0.00000000000E+00  0.00000000000E+00  0.18250000000E+03  0.18250000000E+03  0.00000000000E+00 0.  1.
         11   -1    0    0    0    0 -0.00000000000E+00 -0.00000000000E+00 -0.18250000000E+03  0.18250000000E+03  0.00000000000E+00 0. -1.
        -11    1    1    2    0    0 -0.42357872386E+01 -0.78536265632E+01  0.18135667406E+03  0.18157605726E+03  0.00000000000E+00 0.  1.
         11    1    1    2    0    0 -0.68138200623E+00  0.50504076232E+00 -0.58035662502E+02  0.58041859633E+02  0.00000000000E+00 0. -1.
        -15    1    1    2    0    0 -0.65883343322E+01  0.66168060579E+01 -0.78284710593E+02  0.78859634245E+02  0.17770000000E+01 0. -1.
         15    1    1    2    0    0  0.11505503577E+02  0.73177974299E+00 -0.45036300967E+02  0.46522448861E+02  0.17770000000E+01 0.  1.
</event>
<event>
 6    1  0.1045352E-002  0.1869931E+03  0.7546771E-02  0.1064933E+00
        -11   -1    0    0    0    0  0.00000000000E+00  0.00000000000E+00  0.18250000000E+03  0.18250000000E+03  0.00000000000E+00 0. -1.
         11   -1    0    0    0    0 -0.00000000000E+00 -0.00000000000E+00 -0.18250000000E+03  0.18250000000E+03  0.00000000000E+00 0.  1.
        -11    1    1    2    0    0 -0.73717034920E+01 -0.39177937603E+01  0.17781101285E+03  0.17800687462E+03  0.00000000000E+00 0. -1.
         11    1    1    2    0    0  0.17755426451E+01 -0.53815333691E+01 -0.46241150424E+02  0.46587095269E+02  0.00000000000E+00 0.  1.
        -15    1    1    2    0    0 -0.82350188324E+01  0.23718025922E+02 -0.45179881235E+02  0.51717885554E+02  0.17770000000E+01 0. -1.
         15    1    1    2    0    0  0.13831179679E+02 -0.14418698793E+02 -0.86389981191E+02  0.88688144559E+02  0.17770000000E+01 0.  1.
</event>
<event>
 6    1  0.1045352E-002  0.1829847E+03  0.7546771E-02  0.1068070E+00
        -11   -1    0    0    0    0  0.00000000000E+00  0.00000000000E+00  0.18250000000E+03  0.18250000000E+03  0.00000000000E+00 0. -1.
         11   -1    0    0    0    0 -0.00000000000E+00 -0.00000000000E+00 -0.18250000000E+03  0.18250000000E+03  0.00000000000E+00 0.  1.
        -11    1    1    2    0    0 -0.60479563755E+01 -0.44130771703E+01  0.18186125550E+03  0.18201529957E+03  0.00000000000E+00 0. -1.
         11    1    1    2    0    0 -0.21219607285E+01  0.14003234614E+01 -0.11465409371E+03  0.11468227774E+03  0.00000000000E+00 0.  1.
        -15    1    1    2    0    0  0.31862929269E+00 -0.84683801744E+00 -0.28902732976E+02  0.28971440449E+02  0.17770000000E+01 0.  1.
         15    1    1    2    0    0  0.78512878113E+01  0.38595917264E+01 -0.38304428815E+02  0.39330982246E+02  0.17770000000E+01 0.  1.
</event>
<event>
 6    1  0.1045352E-002  0.1836555E+03  0.7546771E-02  0.1067539E+00
        -11   -1    0    0    0    0  0.00000000000E+00  0.00000000000E+00  0.18250000000E+03  0.18250000000E+03  0.00000000000E+00 0. -1.
         11   -1    0    0    0    0 -0.00000000000E+00 -0.00000000000E+00 -0.18250000000E+03  0.18250000000E+03  0.00000000000E+00 0.  1.
        -11    1    1    2    0    0 -0.27336526734E+01 -0.57141197005E+01  0.18123381053E+03  0.18134447359E+03  0.00000000000E+00 0. -1.
         11    1    1    2    0    0 -0.19022570151E+01 -0.44899067690E+00 -0.13782221181E+03  0.13783607018E+03  0.00000000000E+00 0.  1.
        -15    1    1    2    0    0 -0.14154786637E+01 -0.13803949850E+01 -0.23106374147E+02  0.23258790282E+02  0.17770000000E+01 0. -1.
         15    1    1    2    0    0  0.60513883522E+01  0.75435053624E+01 -0.20305224577E+02  0.22560665953E+02  0.17770000000E+01 0. -1.
</event>
<event>
 6    1  0.1045352E-002  0.1829128E+03  0.7546771E-02  0.1068127E+00
        -11   -1    0    0    0    0  0.00000000000E+00  0.00000000000E+00  0.18250000000E+03  0.18250000000E+03  0.00000000000E+00 0.  1.
         11   -1    0    0    0    0 -0.00000000000E+00 -0.00000000000E+00 -0.18250000000E+03  0.18250000000E+03  0.00000000000E+00 0. -1.
        -11    1    1    2    0    0  0.29163750677E+01  0.57202493744E+00  0.18206291334E+03  0.18208716833E+03  0.00000000000E+00 0.  1.
         11    1    1    2    0    0  0.16357497096E+01  0.88233722811E+00 -0.11638449676E+03  0.11639933540E+03  0.00000000000E+00 0. -1.
        -15    1    1    2    0    0 -0.21246398681E+01 -0.82943264314E+00 -0.51419646475E+01  0.58991170962E+01  0.17770000000E+01 0.  1.
         15    1    1    2    0    0 -0.24274849092E+01 -0.62492952241E+00 -0.60536451937E+02  0.60614379169E+02  0.17770000000E+01 0.  1.
</event>
<event>
 6    1  0.1045352E-002  0.1774959E+03  0.7546771E-02  0.1072509E+00
        -11   -1    0    0    0    0  0.00000000000E+00  0.00000000000E+00  0.18250000000E+03  0.18250000000E+03  0.00000000000E+00 0.  1.
         11   -1    0    0    0    0 -0.00000000000E+00 -0.00000000000E+00 -0.18250000000E+03  0.18250000000E+03  0.00000000000E+00 0.  1.
        -11    1    1    2    0    0  0.25723509634E+01  0.16187599644E+01  0.17633637216E+03  0.17636256269E+03  0.00000000000E+00 0.  1.
         11    1    1    2    0    0  0.27581411674E+01 -0.97990954885E+00 -0.17865346488E+03  0.17867744144E+03  0.00000000000E+00 0.  1.
        -15    1    1    2    0    0 -0.20422366896E+00  0.27120226200E+01  0.25839131914E+00  0.32590288541E+01  0.17770000000E+01 0. -1.
         15    1    1    2    0    0 -0.51262684618E+01 -0.33508730355E+01  0.20587014069E+01  0.67009670142E+01  0.17770000000E+01 0.  1.
</event>
<event>
 6    1  0.1045352E-002  0.1838880E+03  0.7546771E-02  0.1067355E+00
        -11   -1    0    0    0    0  0.00000000000E+00  0.00000000000E+00  0.18250000000E+03  0.18250000000E+03  0.00000000000E+00 0. -1.
         11   -1    0    0    0    0 -0.00000000000E+00 -0.00000000000E+00 -0.18250000000E+03  0.18250000000E+03  0.00000000000E+00 0.  1.
        -11    1    1    2    0    0 -0.49898246352E+01  0.17122254018E+01  0.89636816258E+02  0.89791919985E+02  0.00000000000E+00 0. -1.
         11    1    1    2    0    0 -0.20161617254E+01  0.18021457133E+01 -0.18109185203E+03  0.18111204131E+03  0.00000000000E+00 0.  1.
        -15    1    1    2    0    0  0.15536159899E+01 -0.50679463367E+01  0.51953583148E+01  0.76319905486E+01  0.17770000000E+01 0.  1.
         15    1    1    2    0    0  0.54523703708E+01  0.15535752215E+01  0.86259677458E+02  0.86464048152E+02  0.17770000000E+01 0. -1.
</event>
<event>
 6    1  0.1045352E-002  0.1828503E+03  0.7546771E-02  0.1068176E+00
        -11   -1    0    0    0    0  0.00000000000E+00  0.00000000000E+00  0.18250000000E+03  0.18250000000E+03  0.00000000000E+00 0. -1.
         11   -1    0    0    0    0 -0.00000000000E+00 -0.00000000000E+00 -0.18250000000E+03  0.18250000000E+03  0.00000000000E+00 0.  1.
        -11    1    1    2    0    0 -0.24097610141E+01 -0.24228262240E+01  0.18211759908E+03  0.18214965531E+03  0.00000000000E+00 0. -1.
         11    1    1    2    0    0  0.68025125587E+00  0.13491807580E+00 -0.43376760517E+02  0.43382303968E+02  0.00000000000E+00 0.  1.
        -15    1    1    2    0    0 -0.25932468189E+01  0.54844225558E+01 -0.34556645465E+02  0.35130091013E+02  0.17770000000E+01 0. -1.
         15    1    1    2    0    0  0.43227565771E+01 -0.31965144076E+01 -0.10418419310E+03  0.10433794971E+03  0.17770000000E+01 0.  1.
</event>
<event>
 6    1  0.1045352E-002  0.1827014E+03  0.7546771E-02  0.1068295E+00
        -11   -1    0    0    0    0  0.00000000000E+00  0.00000000000E+00  0.18250000000E+03  0.18250000000E+03  0.00000000000E+00 0. -1.
         11   -1    0    0    0    0 -0.00000000000E+00 -0.00000000000E+00 -0.18250000000E+03  0.18250000000E+03  0.00000000000E+00 0. -1.
        -11    1    1    2    0    0  0.17784734582E+01 -0.16953017968E+01  0.10406752077E+03  0.10409652202E+03  0.00000000000E+00 0. -1.
         11    1    1    2    0    0  0.92760875415E+00  0.53713023927E+01 -0.18221704371E+03  0.18229855284E+03  0.00000000000E+00 0. -1.
        -15    1    1    2    0    0 -0.21262909708E+01 -0.31705858098E+01  0.72695919894E+02  0.72817774107E+02  0.17770000000E+01 0. -1.
         15    1    1    2    0    0 -0.57979124146E+00 -0.50541478612E+00  0.54536030452E+01  0.57871510404E+01  0.17770000000E+01 0. -1.
</event>
<event>
 6    1  0.1045352E-002  0.1768770E+03  0.7546771E-02  0.1073021E+00
        -11   -1    0    0    0    0  0.00000000000E+00  0.00000000000E+00  0.18250000000E+03  0.18250000000E+03  0.00000000000E+00 0. -1.
         11   -1    0    0    0    0 -0.00000000000E+00 -0.00000000000E+00 -0.18250000000E+03  0.18250000000E+03  0.00000000000E+00 0.  1.
        -11    1    1    2    0    0 -0.22273752579E+01  0.28728985209E+01  0.17442734886E+03  0.17446522512E+03  0.00000000000E+00 0. -1.
         11    1    1    2    0    0 -0.23319394190E+01  0.42134300390E+01 -0.17935881847E+03  0.17942345638E+03  0.00000000000E+00 0.  1.
        -15    1    1    2    0    0  0.16057891256E+01 -0.86726637538E+00  0.25714242185E+01  0.36194835534E+01  0.17770000000E+01 0.  1.
         15    1    1    2    0    0  0.29535255513E+01 -0.62190621845E+01  0.23600454005E+01  0.74918349508E+01  0.17770000000E+01 0.  1.
</event>
<event>
 6    1  0.1045352E-002  0.1862181E+03  0.7546771E-02  0.1065533E+00
        -11   -1    0    0    0    0  0.00000000000E+00  0.00000000000E+00  0.18250000000E+03  0.18250000000E+03  0.00000000000E+00 0. -1.
         11   -1    0    0    0    0 -0.00000000000E+00 -0.00000000000E+00 -0.18250000000E+03  0.18250000000E+03  0.00000000000E+00 0. -1.
        -11    1    1    2    0    0 -0.25373212146E+01  0.31998004615E+01  0.16341841232E+03  0.16346942897E+03  0.00000000000E+00 0. -1.
         11    1    1    2    0    0  0.14513417680E+02  0.16228763360E+01 -0.17818440168E+03  0.17878186156E+03  0.00000000000E+00 0. -1.
        -15    1    1    2    0    0 -0.11550996312E+02 -0.25404005091E+01  0.57493872405E+01  0.13269978643E+02  0.17770000000E+01 0.  1.
         15    1    1    2    0    0 -0.42510015425E+00 -0.22822762884E+01  0.90166021233E+01  0.94787308247E+01  0.17770000000E+01 0. -1.
</event>
<event>
 6    1  0.1045352E-002  0.1837517E+03  0.7546771E-02  0.1067463E+00
        -11   -1    0    0    0    0  0.00000000000E+00  0.00000000000E+00  0.18250000000E+03  0.18250000000E+03  0.00000000000E+00 0. -1.
         11   -1    0    0    0    0 -0.00000000000E+00 -0.00000000000E+00 -0.18250000000E+03  0.18250000000E+03  0.00000000000E+00 0.  1.
        -11    1    1    2    0    0  0.25011440616E+01 -0.83051864354E+01  0.12846967063E+03  0.12876213774E+03  0.00000000000E+00 0. -1.
         11    1    1    2    0    0 -0.22999766635E+01 -0.24623581325E+01 -0.18121701606E+03  0.18124833796E+03  0.00000000000E+00 0.  1.
        -15    1    1    2    0    0  0.95363499345E-01  0.27611413333E+01  0.26392027936E+01  0.42138006651E+01  0.17770000000E+01 0.  1.
         15    1    1    2    0    0 -0.29653089744E+00  0.80064032346E+01  0.50108142638E+02  0.50775723638E+02  0.17770000000E+01 0. -1.
</event>
<event>
 6    1  0.1045352E-002  0.1827626E+03  0.7546771E-02  0.1068246E+00
        -11   -1    0    0    0    0  0.00000000000E+00  0.00000000000E+00  0.18250000000E+03  0.18250000000E+03  0.00000000000E+00 0. -1.
         11   -1    0    0    0    0 -0.00000000000E+00 -0.00000000000E+00 -0.18250000000E+03  0.18250000000E+03  0.00000000000E+00 0. -1.
        -11    1    1    2    0    0  0.24169521095E+01 -0.43201593485E+01  0.18217011318E+03  0.18223736053E+03  0.00000000000E+00 0. -1.
         11    1    1    2    0    0  0.24364444140E+00 -0.11453943155E+01 -0.56481218393E+02  0.56493356440E+02  0.00000000000E+00 0. -1.
        -15    1    1    2    0    0 -0.57408458399E+01  0.45788095766E+01 -0.10389826189E+03  0.10417259410E+03  0.17770000000E+01 0. -1.
         15    1    1    2    0    0  0.30802492890E+01  0.88674408733E+00 -0.21790632903E+02  0.22096688939E+02  0.17770000000E+01 0.  1.
</event>
<event>
 6    1  0.1045352E-002  0.1871343E+03  0.7546771E-02  0.1064825E+00
        -11   -1    0    0    0    0  0.00000000000E+00  0.00000000000E+00  0.18250000000E+03  0.18250000000E+03  0.00000000000E+00 0. -1.
         11   -1    0    0    0    0 -0.00000000000E+00 -0.00000000000E+00 -0.18250000000E+03  0.18250000000E+03  0.00000000000E+00 0.  1.
        -11    1    1    2    0    0 -0.31184825660E+01  0.27053767900E+01  0.11667710305E+03  0.11675011938E+03  0.00000000000E+00 0. -1.
         11    1    1    2    0    0  0.29760409419E+01  0.62840896805E+00 -0.17783968370E+03  0.17786569320E+03  0.00000000000E+00 0.  1.
        -15    1    1    2    0    0  0.14315588413E+02  0.62994761133E+00  0.49380857382E+02  0.51448612327E+02  0.17770000000E+01 0. -1.
         15    1    1    2    0    0 -0.14173146789E+02 -0.39637333694E+01  0.11781723267E+02  0.18935575097E+02  0.17770000000E+01 0.  1.
</event>
<event>
 6    1  0.1045352E-002  0.1886340E+03  0.7546771E-02  0.1063674E+00
        -11   -1    0    0    0    0  0.00000000000E+00  0.00000000000E+00  0.18250000000E+03  0.18250000000E+03  0.00000000000E+00 0. -1.
         11   -1    0    0    0    0 -0.00000000000E+00 -0.00000000000E+00 -0.18250000000E+03  0.18250000000E+03  0.00000000000E+00 0.  1.
        -11    1    1    2    0    0 -0.29364315602E+01  0.61642141963E+01  0.16862970118E+03  0.16876787694E+03  0.00000000000E+00 0. -1.
         11    1    1    2    0    0  0.38899696821E+01  0.91891288558E+00 -0.17632065568E+03  0.17636595444E+03  0.00000000000E+00 0.  1.
        -15    1    1    2    0    0 -0.51607815057E+01 -0.39965056045E+01  0.11376062118E+02  0.13235491721E+02  0.17770000000E+01 0. -1.
         15    1    1    2    0    0  0.42072433838E+01 -0.30866214773E+01 -0.36851076188E+01  0.66306769034E+01  0.17770000000E+01 0.  1.
</event>
<event>
 6    1  0.1045352E-002  0.1825943E+03  0.7546771E-02  0.1068380E+00
        -11   -1    0    0    0    0  0.00000000000E+00  0.00000000000E+00  0.18250000000E+03  0.18250000000E+03  0.00000000000E+00 0.  1.
         11   -1    0    0    0    0 -0.00000000000E+00 -0.00000000000E+00 -0.18250000000E+03  0.18250000000E+03  0.00000000000E+00 0.  1.
        -11    1    1    2    0    0  0.13959923169E+01 -0.40235005859E+01  0.18235599595E+03  0.18240571978E+03  0.00000000000E+00 0.  1.
         11    1    1    2    0    0 -0.10892980407E+01 -0.42220228119E+00 -0.20049585997E+02  0.20083593394E+02  0.00000000000E+00 0.  1.
        -15    1    1    2    0    0 -0.27717250356E+01  0.37707410183E+01 -0.93518363337E+02  0.93652244809E+02  0.17770000000E+01 0.  1.
         15    1    1    2    0    0  0.24650307594E+01  0.67496184877E+00 -0.68788046616E+02  0.68858442012E+02  0.17770000000E+01 0. -1.
</event>
<event>
 6    1  0.1045352E-002  0.1837134E+03  0.7546771E-02  0.1067493E+00
        -11   -1    0    0    0    0  0.00000000000E+00  0.00000000000E+00  0.18250000000E+03  0.18250000000E+03  0.00000000000E+00 0.  1.
         11   -1    0    0    0    0 -0.00000000000E+00 -0.00000000000E+00 -0.18250000000E+03  0.18250000000E+03  0.00000000000E+00 0.  1.
        -11    1    1    2    0    0 -0.10325754133E+01  0.27048110336E+01  0.18126347150E+03  0.18128659165E+03  0.00000000000E+00 0.  1.
         11    1    1    2    0    0  0.14578811916E+01  0.53975551106E+01 -0.10745597836E+03  0.10760133040E+03  0.00000000000E+00 0.  1.
        -15    1    1    2    0    0 -0.75369358504E+01 -0.25225381959E+00 -0.34875829353E+02  0.35726044226E+02  0.17770000000E+01 0.  1.
         15    1    1    2    0    0  0.71116300720E+01 -0.78501123246E+01 -0.38931663784E+02  0.40386033722E+02  0.17770000000E+01 0. -1.
</event>
<event>
 6    1  0.1045352E-002  0.1839865E+03  0.7546771E-02  0.1067278E+00
        -11   -1    0    0    0    0  0.00000000000E+00  0.00000000000E+00  0.18250000000E+03  0.18250000000E+03  0.00000000000E+00 0. -1.
         11   -1    0    0    0    0 -0.00000000000E+00 -0.00000000000E+00 -0.18250000000E+03  0.18250000000E+03  0.00000000000E+00 0. -1.
        -11    1    1    2    0    0  0.57076907555E+00  0.48297046657E+01  0.16130914375E+03  0.16138243920E+03  0.00000000000E+00 0. -1.
         11    1    1    2    0    0 -0.47414514997E+01  0.11655254748E+01 -0.18094766201E+03  0.18101352491E+03  0.00000000000E+00 0. -1.
        -15    1    1    2    0    0  0.13408100438E+01 -0.53267436485E+01  0.17839840182E+02  0.18750722551E+02  0.17770000000E+01 0.  1.
         15    1    1    2    0    0  0.28298723803E+01 -0.66848649204E+00  0.17986780816E+01  0.38533133431E+01  0.17770000000E+01 0.  1.
</event>
<event>
 6    1  0.1045352E-002  0.1930972E+03  0.7546771E-02  0.1060319E+00
        -11   -1    0    0    0    0  0.00000000000E+00  0.00000000000E+00  0.18250000000E+03  0.18250000000E+03  0.00000000000E+00 0.  1.
         11   -1    0    0    0    0 -0.00000000000E+00 -0.00000000000E+00 -0.18250000000E+03  0.18250000000E+03  0.00000000000E+00 0. -1.
        -11    1    1    2    0    0 -0.26710385622E+01 -0.54227993108E-01  0.17188206761E+03  0.17190282881E+03  0.00000000000E+00 0.  1.
         11    1    1    2    0    0 -0.39930461862E+01 -0.10688452248E+02 -0.15887205883E+03  0.15928125598E+03  0.00000000000E+00 0. -1.
        -15    1    1    2    0    0  0.44866921888E+01  0.96870149562E+01 -0.21902434689E+02  0.24430371259E+02  0.17770000000E+01 0. -1.
         15    1    1    2    0    0  0.21773925596E+01  0.10556652845E+01  0.88924259157E+01  0.93855439489E+01  0.17770000000E+01 0.  1.
</event>
<event>
 6    1  0.1045352E-002  0.1978632E+03  0.7546771E-02  0.1056844E+00
        -11   -1    0    0    0    0  0.00000000000E+00  0.00000000000E+00  0.18250000000E+03  0.18250000000E+03  0.00000000000E+00 0. -1.
         11   -1    0    0    0    0 -0.00000000000E+00 -0.00000000000E+00 -0.18250000000E+03  0.18250000000E+03  0.00000000000E+00 0.  1.
        -11    1    1    2    0    0  0.29996552008E+01  0.86727650618E+01  0.16688470842E+03  0.16713683223E+03  0.00000000000E+00 0. -1.
         11    1    1    2    0    0  0.12813629068E+01 -0.18306948967E+01 -0.89009250313E+02  0.89037295421E+02  0.00000000000E+00 0.  1.
        -15    1    1    2    0    0 -0.10183402233E+02  0.85149013597E+01 -0.88272590639E+02  0.89282771089E+02  0.17770000000E+01 0.  1.
         15    1    1    2    0    0  0.59023841254E+01 -0.15356971525E+02  0.10397132533E+02  0.19543101255E+02  0.17770000000E+01 0. -1.
</event>
<event>
 6    1  0.1045352E-002  0.1842108E+03  0.7546771E-02  0.1067101E+00
        -11   -1    0    0    0    0  0.00000000000E+00  0.00000000000E+00  0.18250000000E+03  0.18250000000E+03  0.00000000000E+00 0. -1.
         11   -1    0    0    0    0 -0.00000000000E+00 -0.00000000000E+00 -0.18250000000E+03  0.18250000000E+03  0.00000000000E+00 0.  1.
        -11    1    1    2    0    0 -0.25109784939E+01  0.32846610501E+01  0.17348966873E+03  0.17353892695E+03  0.00000000000E+00 0. -1.
         11    1    1    2    0    0  0.37848645531E+01 -0.13396369613E+01 -0.18074458113E+03  0.18078916847E+03  0.00000000000E+00 0.  1.
        -15    1    1    2    0    0  0.16549406811E+01 -0.32144758329E+01  0.27781948585E+01  0.48936468212E+01  0.17770000000E+01 0. -1.
         15    1    1    2    0    0 -0.29288267403E+01  0.12694517441E+01  0.44767175458E+01  0.57782577643E+01  0.17770000000E+01 0.  1.
</event>
<event>
 6    1  0.1045352E-002  0.1672966E+03  0.7546771E-02  0.1081245E+00
        -11   -1    0    0    0    0  0.00000000000E+00  0.00000000000E+00  0.18250000000E+03  0.18250000000E+03  0.00000000000E+00 0. -1.
         11   -1    0    0    0    0 -0.00000000000E+00 -0.00000000000E+00 -0.18250000000E+03  0.18250000000E+03  0.00000000000E+00 0. -1.
        -11    1    1    2    0    0  0.61276591076E+01 -0.32472537148E+01  0.16446147394E+03  0.16460762216E+03  0.00000000000E+00 0. -1.
         11    1    1    2    0    0  0.68236176530E+01  0.30971266590E+00 -0.17016047410E+03  0.17029751796E+03  0.00000000000E+00 0. -1.
        -15    1    1    2    0    0 -0.20571892765E+01  0.62408941785E+01  0.14219435917E+02  0.15764862025E+02  0.17770000000E+01 0.  1.
         15    1    1    2    0    0 -0.10894087484E+02 -0.33033531296E+01 -0.85204357560E+01  0.14329997854E+02  0.17770000000E+01 0. -1.
</event>
<event>
 6    1  0.1045352E-002  0.1679966E+03  0.7546771E-02  0.1080624E+00
        -11   -1    0    0    0    0  0.00000000000E+00  0.00000000000E+00  0.18250000000E+03  0.18250000000E+03  0.00000000000E+00 0.  1.
         11   -1    0    0    0    0 -0.00000000000E+00 -0.00000000000E+00 -0.18250000000E+03  0.18250000000E+03  0.00000000000E+00 0.  1.
        -11    1    1    2    0    0  0.37224663737E+01  0.47950372913E+01  0.16706964120E+03  0.16717988560E+03  0.00000000000E+00 0.  1.
         11    1    1    2    0    0 -0.83867257238E+00 -0.23059264922E+01 -0.16882169073E+03  0.16883952124E+03  0.00000000000E+00 0.  1.
        -15    1    1    2    0    0 -0.56515907294E+01  0.57669326851E+01  0.12529553763E+02  0.15011510146E+02  0.17770000000E+01 0. -1.
         15    1    1    2    0    0  0.27677969280E+01 -0.82560434842E+01 -0.10777504231E+02  0.13969083016E+02  0.17770000000E+01 0.  1.
</event>
<event>
 6    1  0.1045352E-002  0.1937472E+03  0.7546771E-02  0.1059839E+00
        -11   -1    0    0    0    0  0.00000000000E+00  0.00000000000E+00  0.18250000000E+03  0.18250000000E+03  0.00000000000E+00 0.  1.
         11   -1    0    0    0    0 -0.00000000000E+00 -0.00000000000E+00 -0.18250000000E+03  0.18250000000E+03  0.00000000000E+00 0.  1.
        -11    1    1    2    0    0  0.28877829891E+01  0.55585816288E+01  0.16463699885E+03  0.16475611828E+03  0.00000000000E+00 0.  1.
         11    1    1    2    0    0  0.29671262111E+01 -0.68137378233E+00 -0.17122574284E+03  0.17125280471E+03  0.00000000000E+00 0.  1.
        -15    1    1    2    0    0  0.63947643861E+00  0.99267715863E+01  0.76787515742E+01  0.12691362377E+02  0.17770000000E+01 0.  1.
         15    1    1    2    0    0 -0.64943856388E+01 -0.14803979433E+02 -0.10900075779E+01  0.16299714641E+02  0.17770000000E+01 0. -1.
</event>
<event>
 6    1  0.1045352E-002  0.1843930E+03  0.7546771E-02  0.1066958E+00
        -11   -1    0    0    0    0  0.00000000000E+00  0.00000000000E+00  0.18250000000E+03  0.18250000000E+03  0.00000000000E+00 0.  1.
         11   -1    0    0    0    0 -0.00000000000E+00 -0.00000000000E+00 -0.18250000000E+03  0.18250000000E+03  0.00000000000E+00 0. -1.
        -11    1    1    2    0    0  0.29013750171E+01 -0.33371748383E+01  0.15993812916E+03  0.15999924960E+03  0.00000000000E+00 0.  1.
         11    1    1    2    0    0 -0.88784121513E-01 -0.39542372353E+01 -0.18056366768E+03  0.18060698203E+03  0.00000000000E+00 0. -1.
        -15    1    1    2    0    0 -0.15909786628E+01 -0.15109598165E+01  0.14267410328E+01  0.31634682940E+01  0.17770000000E+01 0. -1.
         15    1    1    2    0    0 -0.12216122328E+01  0.88023718901E+01  0.19198797487E+02  0.21230300075E+02  0.17770000000E+01 0.  1.
</event>
<event>
 6    1  0.1045352E-002  0.1858043E+03  0.7546771E-02  0.1065855E+00
        -11   -1    0    0    0    0  0.00000000000E+00  0.00000000000E+00  0.18250000000E+03  0.18250000000E+03  0.00000000000E+00 0.  1.
         11   -1    0    0    0    0 -0.00000000000E+00 -0.00000000000E+00 -0.18250000000E+03  0.18250000000E+03  0.00000000000E+00 0.  1.
        -11    1    1    2    0    0  0.26066390533E+01  0.35576155880E+01  0.17914144074E+03  0.17919572257E+03  0.00000000000E+00 0.  1.
         11    1    1    2    0    0 -0.23368129877E+01  0.56838841088E+01 -0.16164040033E+03  0.16175718300E+03  0.00000000000E+00 0.  1.
        -15    1    1    2    0    0 -0.42636208647E+01 -0.99431602799E+01 -0.80219188393E+01  0.13585058340E+02  0.17770000000E+01 0. -1.
         15    1    1    2    0    0  0.39937947992E+01  0.70166058313E+00 -0.94791215666E+01  0.10462036090E+02  0.17770000000E+01 0.  1.
</event>
<event>
 6    1  0.1045352E-002  0.1874944E+03  0.7546771E-02  0.1064547E+00
        -11   -1    0    0    0    0  0.00000000000E+00  0.00000000000E+00  0.18250000000E+03  0.18250000000E+03  0.00000000000E+00 0.  1.
         11   -1    0    0    0    0 -0.00000000000E+00 -0.00000000000E+00 -0.18250000000E+03  0.18250000000E+03  0.00000000000E+00 0. -1.
        -11    1    1    2    0    0  0.78988870387E+00 -0.16386132140E+02  0.17674586567E+03  0.17750557817E+03  0.00000000000E+00 0.  1.
         11    1    1    2    0    0 -0.22922035811E+01  0.10998516222E+01 -0.16169083915E+03  0.16171082628E+03  0.00000000000E+00 0. -1.
        -15    1    1    2    0    0 -0.15606759660E+01  0.14918092239E+02 -0.63616207453E+01  0.16389421375E+02  0.17770000000E+01 0. -1.
         15    1    1    2    0    0  0.30629908432E+01  0.36818827937E+00 -0.86934057718E+01  0.93941741748E+01  0.17770000000E+01 0. -1.
</event>
<event>
 6    1  0.1045352E-002  0.1850944E+03  0.7546771E-02  0.1066408E+00
        -11   -1    0    0    0    0  0.00000000000E+00  0.00000000000E+00  0.18250000000E+03  0.18250000000E+03  0.00000000000E+00 0. -1.
         11   -1    0    0    0    0 -0.00000000000E+00 -0.00000000000E+00 -0.18250000000E+03  0.18250000000E+03  0.00000000000E+00 0. -1.
        -11    1    1    2    0    0 -0.15680649233E+00  0.16084429002E+01  0.45629647709E+02  0.45658256941E+02  0.00000000000E+00 0. -1.
         11    1    1    2    0    0 -0.63300112988E+01  0.12339994950E+02 -0.17937022605E+03  0.17990559333E+03  0.00000000000E+00 0. -1.
        -15    1    1    2    0    0 -0.13352756991E+02 -0.11544484236E+02  0.43232116701E+02  0.46730556159E+02  0.17770000000E+01 0.  1.
         15    1    1    2    0    0  0.19839574782E+02 -0.24039536143E+01  0.90508461643E+02  0.92705593566E+02  0.17770000000E+01 0. -1.
</event>
<event>
 6    1  0.1045352E-002  0.1753803E+03  0.7546771E-02  0.1074268E+00
        -11   -1    0    0    0    0  0.00000000000E+00  0.00000000000E+00  0.18250000000E+03  0.18250000000E+03  0.00000000000E+00 0. -1.
         11   -1    0    0    0    0 -0.00000000000E+00 -0.00000000000E+00 -0.18250000000E+03  0.18250000000E+03  0.00000000000E+00 0.  1.
        -11    1    1    2    0    0 -0.47766983737E+01  0.59622737605E+01  0.17759542768E+03  0.17775967340E+03  0.00000000000E+00 0. -1.
         11    1    1    2    0    0 -0.30900025068E+01 -0.87425808295E+00 -0.17312470961E+03  0.17315449033E+03  0.00000000000E+00 0.  1.
        -15    1    1    2    0    0  0.60666517914E+01 -0.64583825837E+01 -0.32928811305E+00  0.90432919458E+01  0.17770000000E+01 0. -1.
         15    1    1    2    0    0  0.18000490891E+01  0.13703669061E+01 -0.41414299564E+01  0.50425443245E+01  0.17770000000E+01 0.  1.
</event>
<event>
 6    1  0.1045352E-002  0.1851282E+03  0.7546771E-02  0.1066382E+00
        -11   -1    0    0    0    0  0.00000000000E+00  0.00000000000E+00  0.18250000000E+03  0.18250000000E+03  0.00000000000E+00 0.  1.
         11   -1    0    0    0    0 -0.00000000000E+00 -0.00000000000E+00 -0.18250000000E+03  0.18250000000E+03  0.00000000000E+00 0.  1.
        -11    1    1    2    0    0  0.19088055285E+00  0.32773087908E+01  0.17984185877E+03  0.17987181923E+03  0.00000000000E+00 0.  1.
         11    1    1    2    0    0  0.12706964945E+02 -0.25856942611E+01 -0.66083120823E+02  0.67343385945E+02  0.00000000000E+00 0.  1.
        -15    1    1    2    0    0 -0.16659173468E+02  0.82397397955E+01 -0.92340480690E+02  0.94209041369E+02  0.17770000000E+01 0.  1.
         15    1    1    2    0    0  0.37613279705E+01 -0.89313543251E+01 -0.21418257255E+02  0.23575753456E+02  0.17770000000E+01 0.  1.
</event>
<event>
 6    1  0.1045352E-002  0.1888552E+03  0.7546771E-02  0.1063506E+00
        -11   -1    0    0    0    0  0.00000000000E+00  0.00000000000E+00  0.18250000000E+03  0.18250000000E+03  0.00000000000E+00 0.  1.
         11   -1    0    0    0    0 -0.00000000000E+00 -0.00000000000E+00 -0.18250000000E+03  0.18250000000E+03  0.00000000000E+00 0. -1.
        -11    1    1    2    0    0 -0.15101142973E+01  0.39308847776E+01  0.15588510864E+03  0.15594197445E+03  0.00000000000E+00 0.  1.
         11    1    1    2    0    0  0.29027433804E+01  0.27229996835E+01 -0.17609987929E+03  0.17614484986E+03  0.00000000000E+00 0. -1.
        -15    1    1    2    0    0 -0.36652454332E+01 -0.24709253318E+01 -0.51667725386E+01  0.70279985448E+01  0.17770000000E+01 0. -1.
         15    1    1    2    0    0  0.22726163501E+01 -0.41829591293E+01  0.25381543191E+02  0.25885177146E+02  0.17770000000E+01 0. -1.
</event>
<event>
 6    1  0.1045352E-002  0.1843739E+03  0.7546771E-02  0.1066973E+00
        -11   -1    0    0    0    0  0.00000000000E+00  0.00000000000E+00  0.18250000000E+03  0.18250000000E+03  0.00000000000E+00 0.  1.
         11   -1    0    0    0    0 -0.00000000000E+00 -0.00000000000E+00 -0.18250000000E+03  0.18250000000E+03  0.00000000000E+00 0. -1.
        -11    1    1    2    0    0  0.54560169628E+00 -0.31722476669E+01  0.18059742453E+03  0.18062610715E+03  0.00000000000E+00 0.  1.
         11    1    1    2    0    0  0.35853737825E+01  0.21193779322E+01 -0.13434294343E+03  0.13440748907E+03  0.00000000000E+00 0. -1.
        -15    1    1    2    0    0 -0.81246015037E+01  0.22619810958E+01 -0.44119987640E+02  0.44953940277E+02  0.17770000000E+01 0. -1.
         15    1    1    2    0    0  0.39936260249E+01 -0.12091113611E+01 -0.21344934559E+01  0.50124635085E+01  0.17770000000E+01 0.  1.
</event>
<event>
 6    1  0.1045352E-002  0.1850752E+03  0.7546771E-02  0.1066423E+00
        -11   -1    0    0    0    0  0.00000000000E+00  0.00000000000E+00  0.18250000000E+03  0.18250000000E+03  0.00000000000E+00 0.  1.
         11   -1    0    0    0    0 -0.00000000000E+00 -0.00000000000E+00 -0.18250000000E+03  0.18250000000E+03  0.00000000000E+00 0. -1.
        -11    1    1    2    0    0  0.20902179830E+01  0.41117346987E+01  0.17986568172E+03  0.17992481439E+03  0.00000000000E+00 0.  1.
         11    1    1    2    0    0  0.23298402286E+01 -0.14056293930E+01 -0.17653755455E+03  0.17655852321E+03  0.00000000000E+00 0. -1.
        -15    1    1    2    0    0  0.59448872221E+00 -0.17195349420E+00 -0.12897052596E+01  0.22812394661E+01  0.17770000000E+01 0.  1.
         15    1    1    2    0    0 -0.50145469338E+01 -0.25341518115E+01 -0.20384219019E+01  0.62354229372E+01  0.17770000000E+01 0.  1.
</event>
<event>
 6    1  0.1045352E-002  0.1826296E+03  0.7546771E-02  0.1068352E+00
        -11   -1    0    0    0    0  0.00000000000E+00  0.00000000000E+00  0.18250000000E+03  0.18250000000E+03  0.00000000000E+00 0.  1.
         11   -1    0    0    0    0 -0.00000000000E+00 -0.00000000000E+00 -0.18250000000E+03  0.18250000000E+03  0.00000000000E+00 0.  1.
        -11    1    1    2    0    0 -0.37821327655E+01 -0.28587597374E+01  0.18230875240E+03  0.18237038750E+03  0.00000000000E+00 0.  1.
         11    1    1    2    0    0 -0.10901677106E+00 -0.14432084575E+01 -0.88433196050E+02  0.88445038859E+02  0.00000000000E+00 0.  1.
        -15    1    1    2    0    0 -0.19116247807E+00  0.14220602684E+01 -0.32681699027E+02  0.32761409903E+02  0.17770000000E+01 0.  1.
         15    1    1    2    0    0  0.40823120147E+01  0.28799079264E+01 -0.61193857320E+02  0.61423163740E+02  0.17770000000E+01 0.  1.
</event>
<event>
 6    1  0.1045352E-002  0.1830426E+03  0.7546771E-02  0.1068024E+00
        -11   -1    0    0    0    0  0.00000000000E+00  0.00000000000E+00  0.18250000000E+03  0.18250000000E+03  0.00000000000E+00 0.  1.
         11   -1    0    0    0    0 -0.00000000000E+00 -0.00000000000E+00 -0.18250000000E+03  0.18250000000E+03  0.00000000000E+00 0. -1.
        -11    1    1    2    0    0  0.22988698685E+01  0.12902373255E+01  0.15066226415E+03  0.15068532561E+03  0.00000000000E+00 0.  1.
         11    1    1    2    0    0 -0.22326630198E+01 -0.20333676302E+01 -0.18193236021E+03  0.18195742101E+03  0.00000000000E+00 0. -1.
        -15    1    1    2    0    0  0.33862521469E+01  0.15589471784E+01  0.12239320316E+02  0.12917264056E+02  0.17770000000E+01 0. -1.
         15    1    1    2    0    0 -0.34524589956E+01 -0.81581687374E+00  0.19030775752E+02  0.19439989326E+02  0.17770000000E+01 0.  1.
</event>
<event>
 6    1  0.1045352E-002  0.1902633E+03  0.7546771E-02  0.1062438E+00
        -11   -1    0    0    0    0  0.00000000000E+00  0.00000000000E+00  0.18250000000E+03  0.18250000000E+03  0.00000000000E+00 0. -1.
         11   -1    0    0    0    0 -0.00000000000E+00 -0.00000000000E+00 -0.18250000000E+03  0.18250000000E+03  0.00000000000E+00 0.  1.
        -11    1    1    2    0    0 -0.10637765932E+01 -0.26814391355E+01  0.17471286922E+03  0.17473668306E+03  0.00000000000E+00 0. -1.
         11    1    1    2    0    0 -0.98607889052E+01  0.30458993173E+01 -0.42505907059E+02  0.43740882426E+02  0.00000000000E+00 0.  1.
        -15    1    1    2    0    0  0.15057790538E+02  0.17551434109E+02 -0.12427239662E+03  0.12641825891E+03  0.17770000000E+01 0.  1.
         15    1    1    2    0    0 -0.41332250394E+01 -0.17915894291E+02 -0.79345655366E+01  0.20104175604E+02  0.17770000000E+01 0. -1.
</event>
<event>
 6    1  0.1045352E-002  0.1724951E+03  0.7546771E-02  0.1076710E+00
        -11   -1    0    0    0    0  0.00000000000E+00  0.00000000000E+00  0.18250000000E+03  0.18250000000E+03  0.00000000000E+00 0. -1.
         11   -1    0    0    0    0 -0.00000000000E+00 -0.00000000000E+00 -0.18250000000E+03  0.18250000000E+03  0.00000000000E+00 0.  1.
        -11    1    1    2    0    0  0.14346527229E+01  0.35976036671E+01  0.17244769541E+03  0.17249118422E+03  0.00000000000E+00 0. -1.
         11    1    1    2    0    0  0.16254324580E+01 -0.23413833968E+01 -0.17249130909E+03  0.17251485681E+03  0.00000000000E+00 0.  1.
        -15    1    1    2    0    0 -0.43892384743E+00 -0.61003661758E+01  0.79557467644E+01  0.10191111676E+02  0.17770000000E+01 0. -1.
         15    1    1    2    0    0 -0.26211613336E+01  0.48441459055E+01 -0.79121330799E+01  0.98028472988E+01  0.17770000000E+01 0. -1.
</event>
<event>
 6    1  0.1045352E-002  0.1828837E+03  0.7546771E-02  0.1068150E+00
        -11   -1    0    0    0    0  0.00000000000E+00  0.00000000000E+00  0.18250000000E+03  0.18250000000E+03  0.00000000000E+00 0. -1.
         11   -1    0    0    0    0 -0.00000000000E+00 -0.00000000000E+00 -0.18250000000E+03  0.18250000000E+03  0.00000000000E+00 0. -1.
        -11    1    1    2    0    0  0.29096654057E+01 -0.10308947488E+01  0.13071143077E+03  0.13074787582E+03  0.00000000000E+00 0. -1.
         11    1    1    2    0    0  0.24430440350E+01  0.81400280840E+00 -0.18209807404E+03  0.18211628053E+03  0.00000000000E+00 0. -1.
        -15    1    1    2    0    0 -0.14281435619E+01 -0.25317387427E+01  0.27391798261E+02  0.27602855578E+02  0.17770000000E+01 0. -1.
         15    1    1    2    0    0 -0.39245658787E+01  0.27486306831E+01  0.23994845004E+02  0.24532988072E+02  0.17770000000E+01 0.  1.
</event>
<event>
 6    1  0.1045352E-002  0.1855215E+03  0.7546771E-02  0.1066075E+00
        -11   -1    0    0    0    0  0.00000000000E+00  0.00000000000E+00  0.18250000000E+03  0.18250000000E+03  0.00000000000E+00 0. -1.
         11   -1    0    0    0    0 -0.00000000000E+00 -0.00000000000E+00 -0.18250000000E+03  0.18250000000E+03  0.00000000000E+00 0. -1.
        -11    1    1    2    0    0 -0.76755069687E+01 -0.18022579130E+01  0.17930522046E+03  0.17947847677E+03  0.00000000000E+00 0. -1.
         11    1    1    2    0    0 -0.26120613537E+01  0.23842875546E+01 -0.15663718393E+03  0.15667710452E+03  0.00000000000E+00 0. -1.
        -15    1    1    2    0    0  0.69983797950E+01  0.19142028209E+01 -0.20556942874E+01  0.77475867338E+01  0.17770000000E+01 0. -1.
         15    1    1    2    0    0  0.32891885274E+01 -0.24962324625E+01 -0.20612342243E+02  0.21096831976E+02  0.17770000000E+01 0. -1.
</event>
<event>
 6    1  0.1045352E-002  0.1974501E+03  0.7546771E-02  0.1057140E+00
        -11   -1    0    0    0    0  0.00000000000E+00  0.00000000000E+00  0.18250000000E+03  0.18250000000E+03  0.00000000000E+00 0.  1.
         11   -1    0    0    0    0 -0.00000000000E+00 -0.00000000000E+00 -0.18250000000E+03  0.18250000000E+03  0.00000000000E+00 0.  1.
        -11    1    1    2    0    0  0.27567301906E+00  0.24764955660E+01  0.16753133178E+03  0.16754986169E+03  0.00000000000E+00 0.  1.
         11    1    1    2    0    0  0.20105824306E+01 -0.14585675263E+01 -0.13702971369E+03  0.13705222470E+03  0.00000000000E+00 0.  1.
        -15    1    1    2    0    0  0.30626427953E+00 -0.54338693537E+01  0.14230279900E+02  0.15338817718E+02  0.17770000000E+01 0. -1.
         15    1    1    2    0    0 -0.25925197292E+01  0.44159413139E+01 -0.44731897985E+02  0.45059095892E+02  0.17770000000E+01 0.  1.
</event>
<event>
 6    1  0.1045352E-002  0.1828186E+03  0.7546771E-02  0.1068202E+00
        -11   -1    0    0    0    0  0.00000000000E+00  0.00000000000E+00  0.18250000000E+03  0.18250000000E+03  0.00000000000E+00 0.  1.
         11   -1    0    0    0    0 -0.00000000000E+00 -0.00000000000E+00 -0.18250000000E+03  0.18250000000E+03  0.00000000000E+00 0. -1.
        -11    1    1    2    0    0 -0.19242244853E+00  0.37489828294E+01  0.18214274580E+03  0.18218142536E+03  0.00000000000E+00 0.  1.
         11    1    1    2    0    0 -0.23970750842E+00 -0.26938660559E+01 -0.15412129587E+03  0.15414502332E+03  0.00000000000E+00 0. -1.
        -15    1    1    2    0    0 -0.12419960292E+01  0.11034160038E+01 -0.72304649589E+01  0.76287242404E+01  0.17770000000E+01 0. -1.
         15    1    1    2    0    0  0.16741259862E+01 -0.21585327773E+01 -0.20790984971E+02  0.21044827076E+02  0.17770000000E+01 0. -1.
</event>
<event>
 6    1  0.1045352E-002  0.1842433E+03  0.7546771E-02  0.1067076E+00
        -11   -1    0    0    0    0  0.00000000000E+00  0.00000000000E+00  0.18250000000E+03  0.18250000000E+03  0.00000000000E+00 0.  1.
         11   -1    0    0    0    0 -0.00000000000E+00 -0.00000000000E+00 -0.18250000000E+03  0.18250000000E+03  0.00000000000E+00 0. -1.
        -11    1    1    2    0    0  0.46997289454E+01 -0.23273183839E+01  0.18068057713E+03  0.18075667295E+03  0.00000000000E+00 0.  1.
         11    1    1    2    0    0 -0.16130947831E+01 -0.34597619049E+01 -0.16930725144E+03  0.16935028024E+03  0.00000000000E+00 0. -1.
        -15    1    1    2    0    0 -0.34839092216E+01  0.65016807852E+01 -0.97281984758E+01  0.12337141123E+02  0.17770000000E+01 0.  1.
         15    1    1    2    0    0  0.39727505929E+00 -0.71460049643E+00 -0.16451272099E+01  0.25559056866E+01  0.17770000000E+01 0.  1.
</event>
<event>
 6    1  0.1045352E-002  0.1959333E+03  0.7546771E-02  0.1058238E+00
        -11   -1    0    0    0    0  0.00000000000E+00  0.00000000000E+00  0.18250000000E+03  0.18250000000E+03  0.00000000000E+00 0.  1.
         11   -1    0    0    0    0 -0.00000000000E+00 -0.00000000000E+00 -0.18250000000E+03  0.18250000000E+03  0.00000000000E+00 0.  1.
        -11    1    1    2    0    0 -0.47553300026E+01  0.21582652103E+02  0.16761595638E+03  0.16906665215E+03  0.00000000000E+00 0.  1.
         11    1    1    2    0    0 -0.21290272419E+01 -0.55228187987E+00 -0.12965703481E+03  0.12967568950E+03  0.00000000000E+00 0.  1.
        -15    1    1    2    0    0  0.25606335597E+02 -0.88393968450E+01 -0.69952119984E+01  0.28034087807E+02  0.17770000000E+01 0.  1.
         15    1    1    2    0    0 -0.18721978353E+02 -0.12190973378E+02 -0.30963709573E+02  0.38223570541E+02  0.17770000000E+01 0. -1.
</event>
<event>
 6    1  0.1045352E-002  0.1854152E+03  0.7546771E-02  0.1066158E+00
        -11   -1    0    0    0    0  0.00000000000E+00  0.00000000000E+00  0.18250000000E+03  0.18250000000E+03  0.00000000000E+00 0. -1.
         11   -1    0    0    0    0 -0.00000000000E+00 -0.00000000000E+00 -0.18250000000E+03  0.18250000000E+03  0.00000000000E+00 0.  1.
        -11    1    1    2    0    0 -0.83643084755E+00 -0.57878658447E+01  0.15150669220E+03  0.15161951322E+03  0.00000000000E+00 0. -1.
         11    1    1    2    0    0  0.82525896066E+01 -0.43607055435E+01 -0.17934209340E+03  0.17958481966E+03  0.00000000000E+00 0.  1.
        -15    1    1    2    0    0 -0.22510208285E+01  0.70564113571E+00  0.20355490808E+02  0.20568635327E+02  0.17770000000E+01 0.  1.
         15    1    1    2    0    0 -0.51651379305E+01  0.94429302525E+01  0.74799103904E+01  0.13227031793E+02  0.17770000000E+01 0. -1.
</event>
<event>
 6    1  0.1045352E-002  0.1841858E+03  0.7546771E-02  0.1067121E+00
        -11   -1    0    0    0    0  0.00000000000E+00  0.00000000000E+00  0.18250000000E+03  0.18250000000E+03  0.00000000000E+00 0.  1.
         11   -1    0    0    0    0 -0.00000000000E+00 -0.00000000000E+00 -0.18250000000E+03  0.18250000000E+03  0.00000000000E+00 0. -1.
        -11    1    1    2    0    0 -0.15020711609E+01  0.36314019904E+01  0.16377568888E+03  0.16382282981E+03  0.00000000000E+00 0.  1.
         11    1    1    2    0    0  0.25355052300E+01  0.11140544150E+01 -0.18079294704E+03  0.18081415764E+03  0.00000000000E+00 0. -1.
        -15    1    1    2    0    0 -0.45674119271E+01 -0.36946990680E+01  0.13975067272E+02  0.15263429732E+02  0.17770000000E+01 0. -1.
         15    1    1    2    0    0  0.35339778579E+01 -0.10507573374E+01  0.30421908911E+01  0.50995828163E+01  0.17770000000E+01 0. -1.
</event>
<event>
 6    1  0.1045352E-002  0.1832945E+03  0.7546771E-02  0.1067824E+00
        -11   -1    0    0    0    0  0.00000000000E+00  0.00000000000E+00  0.18250000000E+03  0.18250000000E+03  0.00000000000E+00 0. -1.
         11   -1    0    0    0    0 -0.00000000000E+00 -0.00000000000E+00 -0.18250000000E+03  0.18250000000E+03  0.00000000000E+00 0.  1.
        -11    1    1    2    0    0  0.25236516111E+01  0.12499679121E+01  0.18168369833E+03  0.18170552406E+03  0.00000000000E+00 0. -1.
         11    1    1    2    0    0  0.57706600379E+00  0.22308501462E+01 -0.12506968695E+03  0.12509091211E+03  0.00000000000E+00 0.  1.
        -15    1    1    2    0    0 -0.15122651016E+00 -0.15211980723E+01 -0.11730229025E+01  0.26211876625E+01  0.17770000000E+01 0. -1.
         15    1    1    2    0    0 -0.29494911047E+01 -0.19596199860E+01 -0.55440988476E+02  0.55582376167E+02  0.17770000000E+01 0.  1.
</event>
<event>
 6    1  0.1045352E-002  0.1904813E+03  0.7546771E-02  0.1062273E+00
        -11   -1    0    0    0    0  0.00000000000E+00  0.00000000000E+00  0.18250000000E+03  0.18250000000E+03  0.00000000000E+00 0.  1.
         11   -1    0    0    0    0 -0.00000000000E+00 -0.00000000000E+00 -0.18250000000E+03  0.18250000000E+03  0.00000000000E+00 0. -1.
        -11    1    1    2    0    0 -0.25139340540E+01 -0.15699285618E+01  0.17449349861E+03  0.17451866833E+03  0.00000000000E+00 0.  1.
         11    1    1    2    0    0  0.23238779341E+01  0.12840066493E+01 -0.17086138132E+03  0.17088200814E+03  0.00000000000E+00 0. -1.
        -15    1    1    2    0    0 -0.67006834054E+00  0.62540554881E+01  0.54799012882E+01  0.85293170159E+01  0.17770000000E+01 0.  1.
         15    1    1    2    0    0  0.86012446044E+00 -0.59681335756E+01 -0.91120185787E+01  0.11070006506E+02  0.17770000000E+01 0. -1.
</event>
<event>
 6    1  0.1045352E-002  0.1173543E+03  0.7546771E-02  0.1136789E+00
        -11   -1    0    0    0    0  0.00000000000E+00  0.00000000000E+00  0.18250000000E+03  0.18250000000E+03  0.00000000000E+00 0.  1.
         11   -1    0    0    0    0 -0.00000000000E+00 -0.00000000000E+00 -0.18250000000E+03  0.18250000000E+03  0.00000000000E+00 0. -1.
        -11    1    1    2    0    0 -0.52918987527E+01  0.31808554402E+00  0.55314254549E+02  0.55567725589E+02  0.00000000000E+00 0.  1.
         11    1    1    2    0    0 -0.17745798188E+01 -0.88319600012E+00 -0.73858980906E+02  0.73885575244E+02  0.00000000000E+00 0. -1.
        -15    1    1    2    0    0  0.32315963667E+01  0.14118401760E+01 -0.10842846923E+03  0.10850035565E+03  0.17770000000E+01 0. -1.
         15    1    1    2    0    0  0.38348822048E+01 -0.84672971993E+00  0.12697319559E+03  0.12704634351E+03  0.17770000000E+01 0. -1.
</event>
<event>
 6    1  0.1045352E-002  0.1845132E+03  0.7546771E-02  0.1066863E+00
        -11   -1    0    0    0    0  0.00000000000E+00  0.00000000000E+00  0.18250000000E+03  0.18250000000E+03  0.00000000000E+00 0. -1.
         11   -1    0    0    0    0 -0.00000000000E+00 -0.00000000000E+00 -0.18250000000E+03  0.18250000000E+03  0.00000000000E+00 0.  1.
        -11    1    1    2    0    0 -0.45820693364E+01  0.26910097313E-01  0.17513930312E+03  0.17519923396E+03  0.00000000000E+00 0. -1.
         11    1    1    2    0    0  0.12035062571E+00 -0.24759963196E+01 -0.18046975649E+03  0.18048678082E+03  0.00000000000E+00 0.  1.
        -15    1    1    2    0    0  0.18316157080E+01  0.31911423893E+01  0.42105338774E+01  0.58672421446E+01  0.17770000000E+01 0.  1.
         15    1    1    2    0    0  0.26301030027E+01 -0.74205616698E+00  0.11199194999E+01  0.34467430780E+01  0.17770000000E+01 0. -1.
</event>
<event>
 6    1  0.1045352E-002  0.1843721E+03  0.7546771E-02  0.1066974E+00
        -11   -1    0    0    0    0  0.00000000000E+00  0.00000000000E+00  0.18250000000E+03  0.18250000000E+03  0.00000000000E+00 0. -1.
         11   -1    0    0    0    0 -0.00000000000E+00 -0.00000000000E+00 -0.18250000000E+03  0.18250000000E+03  0.00000000000E+00 0. -1.
        -11    1    1    2    0    0 -0.36671420643E+01 -0.95674265804E+00  0.17138028465E+03  0.17142218425E+03  0.00000000000E+00 0. -1.
         11    1    1    2    0    0 -0.30027015739E+01  0.10555875754E-01 -0.18060289964E+03  0.18062785966E+03  0.00000000000E+00 0. -1.
        -15    1    1    2    0    0 -0.82940766893E-01  0.10906439161E+01  0.24950145794E+01  0.32525697647E+01  0.17770000000E+01 0.  1.
         15    1    1    2    0    0  0.67527844051E+01 -0.14445713383E+00  0.67276004123E+01  0.96973863175E+01  0.17770000000E+01 0. -1.
</event>
<event>
 6    1  0.1045352E-002  0.1978366E+03  0.7546771E-02  0.1056863E+00
        -11   -1    0    0    0    0  0.00000000000E+00  0.00000000000E+00  0.18250000000E+03  0.18250000000E+03  0.00000000000E+00 0. -1.
         11   -1    0    0    0    0 -0.00000000000E+00 -0.00000000000E+00 -0.18250000000E+03  0.18250000000E+03  0.00000000000E+00 0. -1.
        -11    1    1    2    0    0  0.34643078057E+00 -0.86015016458E+01  0.98685311853E+02  0.99060065720E+02  0.00000000000E+00 0. -1.
         11    1    1    2    0    0 -0.46263701582E+00 -0.79706317075E+01 -0.16697258358E+03  0.16716335923E+03  0.00000000000E+00 0. -1.
        -15    1    1    2    0    0 -0.40873297843E+01  0.13447263963E+02  0.82405095357E+02  0.83613950048E+02  0.17770000000E+01 0. -1.
         15    1    1    2    0    0  0.42035360195E+01  0.31248693904E+01 -0.14117823631E+02  0.15162624999E+02  0.17770000000E+01 0.  1.
</event>
<event>
 6    1  0.1045352E-002  0.1862297E+03  0.7546771E-02  0.1065524E+00
        -11   -1    0    0    0    0  0.00000000000E+00  0.00000000000E+00  0.18250000000E+03  0.18250000000E+03  0.00000000000E+00 0. -1.
         11   -1    0    0    0    0 -0.00000000000E+00 -0.00000000000E+00 -0.18250000000E+03  0.18250000000E+03  0.00000000000E+00 0. -1.
        -11    1    1    2    0    0  0.22646271620E+01  0.89279215139E+00  0.17363140571E+03  0.17364846864E+03  0.00000000000E+00 0. -1.
         11    1    1    2    0    0  0.20888163435E+01 -0.20479546465E+01 -0.17874636119E+03  0.17877029650E+03  0.00000000000E+00 0. -1.
        -15    1    1    2    0    0 -0.61115529311E+00 -0.79099480066E+00  0.72495829479E+01  0.75308276760E+01  0.17770000000E+01 0. -1.
         15    1    1    2    0    0 -0.37422882124E+01  0.19461572958E+01 -0.21346274701E+01  0.50504071837E+01  0.17770000000E+01 0. -1.
</event>
<event>
 6    1  0.1045352E-002  0.1859909E+03  0.7546771E-02  0.1065710E+00
        -11   -1    0    0    0    0  0.00000000000E+00  0.00000000000E+00  0.18250000000E+03  0.18250000000E+03  0.00000000000E+00 0.  1.
         11   -1    0    0    0    0 -0.00000000000E+00 -0.00000000000E+00 -0.18250000000E+03  0.18250000000E+03  0.00000000000E+00 0. -1.
        -11    1    1    2    0    0  0.77234297523E+01  0.18771982125E+01  0.17883256033E+03  0.17900910557E+03  0.00000000000E+00 0.  1.
         11    1    1    2    0    0 -0.16315713601E+00  0.52309188559E+01 -0.17242598377E+03  0.17250538835E+03  0.00000000000E+00 0. -1.
        -15    1    1    2    0    0 -0.47013282481E+00 -0.25395616684E+01 -0.91771170728E+00  0.32665459002E+01  0.17770000000E+01 0. -1.
         15    1    1    2    0    0 -0.70901397915E+01 -0.45685553999E+01 -0.54888648585E+01  0.10218960179E+02  0.17770000000E+01 0.  1.
</event>
<event>
 6    1  0.1045352E-002  0.1833318E+03  0.7546771E-02  0.1067795E+00
        -11   -1    0    0    0    0  0.00000000000E+00  0.00000000000E+00  0.18250000000E+03  0.18250000000E+03  0.00000000000E+00 0. -1.
         11   -1    0    0    0    0 -0.00000000000E+00 -0.00000000000E+00 -0.18250000000E+03  0.18250000000E+03  0.00000000000E+00 0. -1.
        -11    1    1    2    0    0  0.19683750205E+01 -0.29730139382E+01  0.15097190607E+03  0.15101400509E+03  0.00000000000E+00 0. -1.
         11    1    1    2    0    0  0.37526838063E+01 -0.30662581851E+01 -0.18160351677E+03  0.18166816419E+03  0.00000000000E+00 0. -1.
        -15    1    1    2    0    0 -0.61518007899E+01  0.40818195707E+01  0.21508976101E+02  0.22810078603E+02  0.17770000000E+01 0. -1.
         15    1    1    2    0    0  0.43074196319E+00  0.19574525526E+01  0.91226346045E+01  0.95077521140E+01  0.17770000000E+01 0. -1.
</event>
<event>
 6    1  0.1045352E-002  0.1698437E+03  0.7546771E-02  0.1079001E+00
        -11   -1    0    0    0    0  0.00000000000E+00  0.00000000000E+00  0.18250000000E+03  0.18250000000E+03  0.00000000000E+00 0. -1.
         11   -1    0    0    0    0 -0.00000000000E+00 -0.00000000000E+00 -0.18250000000E+03  0.18250000000E+03  0.00000000000E+00 0. -1.
        -11    1    1    2    0    0 -0.32721667454E+01 -0.56337943797E+01  0.16813295637E+03  0.16825913863E+03  0.00000000000E+00 0. -1.
         11    1    1    2    0    0 -0.30401355216E+01  0.17501235062E+02 -0.17078308112E+03  0.17170438680E+03  0.00000000000E+00 0. -1.
        -15    1    1    2    0    0  0.11320821836E+01 -0.15437799727E+02 -0.36005654043E+01  0.15991531219E+02  0.17770000000E+01 0.  1.
         15    1    1    2    0    0  0.51802200834E+01  0.35703590451E+01  0.62506901483E+01  0.90449433472E+01  0.17770000000E+01 0. -1.
</event>
<event>
 6    1  0.1045352E-002  0.1827329E+03  0.7546771E-02  0.1068270E+00
        -11   -1    0    0    0    0  0.00000000000E+00  0.00000000000E+00  0.18250000000E+03  0.18250000000E+03  0.00000000000E+00 0.  1.
         11   -1    0    0    0    0 -0.00000000000E+00 -0.00000000000E+00 -0.18250000000E+03  0.18250000000E+03  0.00000000000E+00 0.  1.
        -11    1    1    2    0    0  0.40288395241E+00  0.10727958852E+01  0.41682850306E+02  0.41698599691E+02  0.00000000000E+00 0.  1.
         11    1    1    2    0    0  0.66874899261E+01  0.56224673096E+01 -0.18205754591E+03  0.18226706967E+03  0.00000000000E+00 0.  1.
        -15    1    1    2    0    0 -0.28311058423E+01 -0.30724071267E+01  0.19671582006E+02  0.20188702619E+02  0.17770000000E+01 0. -1.
         15    1    1    2    0    0 -0.42592680363E+01 -0.36228560682E+01  0.12070311360E+03  0.12084562802E+03  0.17770000000E+01 0.  1.
</event>
<event>
 6    1  0.1045352E-002  0.1836894E+03  0.7546771E-02  0.1067512E+00
        -11   -1    0    0    0    0  0.00000000000E+00  0.00000000000E+00  0.18250000000E+03  0.18250000000E+03  0.00000000000E+00 0. -1.
         11   -1    0    0    0    0 -0.00000000000E+00 -0.00000000000E+00 -0.18250000000E+03  0.18250000000E+03  0.00000000000E+00 0. -1.
        -11    1    1    2    0    0 -0.26983680402E+01  0.36380170547E+01  0.15090570388E+03  0.15097366599E+03  0.00000000000E+00 0. -1.
         11    1    1    2    0    0 -0.24473050403E+01  0.27990614593E+01 -0.18127247193E+03  0.18131059849E+03  0.00000000000E+00 0. -1.
        -15    1    1    2    0    0  0.56958266970E+01 -0.34794807092E+01  0.10663031775E+02  0.12704613469E+02  0.17770000000E+01 0.  1.
         15    1    1    2    0    0 -0.55015361642E+00 -0.29575978048E+01  0.19703736271E+02  0.20011122052E+02  0.17770000000E+01 0. -1.
</event>
<event>
 6    1  0.1045352E-002  0.1841981E+03  0.7546771E-02  0.1067111E+00
        -11   -1    0    0    0    0  0.00000000000E+00  0.00000000000E+00  0.18250000000E+03  0.18250000000E+03  0.00000000000E+00 0. -1.
         11   -1    0    0    0    0 -0.00000000000E+00 -0.00000000000E+00 -0.18250000000E+03  0.18250000000E+03  0.00000000000E+00 0. -1.
        -11    1    1    2    0    0  0.35102702207E+01 -0.54752073037E+01  0.11682322582E+03  0.11700412806E+03  0.00000000000E+00 0. -1.
         11    1    1    2    0    0 -0.60511825376E+01  0.44538596095E+01 -0.18064573865E+03  0.18080192634E+03  0.00000000000E+00 0. -1.
        -15    1    1    2    0    0  0.39562336210E+01 -0.92202356814E+01  0.25468320378E+02  0.27430960654E+02  0.17770000000E+01 0.  1.
         15    1    1    2    0    0 -0.14153213041E+01  0.10241583376E+02  0.38354192449E+02  0.39762984947E+02  0.17770000000E+01 0. -1.
</event>
<event>
 6    1  0.1045352E-002  0.1790945E+03  0.7546771E-02  0.1071198E+00
        -11   -1    0    0    0    0  0.00000000000E+00  0.00000000000E+00  0.18250000000E+03  0.18250000000E+03  0.00000000000E+00 0. -1.
         11   -1    0    0    0    0 -0.00000000000E+00 -0.00000000000E+00 -0.18250000000E+03  0.18250000000E+03  0.00000000000E+00 0. -1.
        -11    1    1    2    0    0 -0.11639043896E+02  0.22107301737E+01  0.17625344869E+03  0.17665116146E+03  0.00000000000E+00 0. -1.
         11    1    1    2    0    0 -0.34595831749E+00  0.78650357207E+00 -0.45330378967E+00  0.97147277474E+00  0.00000000000E+00 0. -1.
        -15    1    1    2    0    0 -0.18073879687E+01  0.49788139921E+00  0.52020699847E+01  0.58080804301E+01  0.17770000000E+01 0.  1.
         15    1    1    2    0    0  0.13792390182E+02 -0.34951151450E+01 -0.18100221488E+03  0.18156928534E+03  0.17770000000E+01 0. -1.
</event>
<event>
 6    1  0.1045352E-002  0.1830695E+03  0.7546771E-02  0.1068002E+00
        -11   -1    0    0    0    0  0.00000000000E+00  0.00000000000E+00  0.18250000000E+03  0.18250000000E+03  0.00000000000E+00 0. -1.
         11   -1    0    0    0    0 -0.00000000000E+00 -0.00000000000E+00 -0.18250000000E+03  0.18250000000E+03  0.00000000000E+00 0. -1.
        -11    1    1    2    0    0 -0.26168599707E+01  0.20764761900E+01  0.15240263679E+03  0.15243924498E+03  0.00000000000E+00 0. -1.
         11    1    1    2    0    0 -0.16179758290E+01 -0.26628551299E+01 -0.18190384325E+03  0.18193052749E+03  0.00000000000E+00 0. -1.
        -15    1    1    2    0    0  0.20936037858E+01  0.85114207726E+00  0.25960506479E+02  0.26119212187E+02  0.17770000000E+01 0.  1.
         15    1    1    2    0    0  0.21412320138E+01 -0.26476313730E+00  0.35406999869E+01  0.45110153461E+01  0.17770000000E+01 0. -1.
</event>
<event>
 6    1  0.1045352E-002  0.1833200E+03  0.7546771E-02  0.1067804E+00
        -11   -1    0    0    0    0  0.00000000000E+00  0.00000000000E+00  0.18250000000E+03  0.18250000000E+03  0.00000000000E+00 0. -1.
         11   -1    0    0    0    0 -0.00000000000E+00 -0.00000000000E+00 -0.18250000000E+03  0.18250000000E+03  0.00000000000E+00 0.  1.
        -11    1    1    2    0    0 -0.13200436275E+01  0.28386171444E+01  0.12763740065E+03  0.12767578590E+03  0.00000000000E+00 0. -1.
         11    1    1    2    0    0  0.27206259066E+01  0.19399778862E+00 -0.18165952995E+03  0.18168000512E+03  0.00000000000E+00 0.  1.
        -15    1    1    2    0    0  0.25362687117E+01 -0.21415001619E+01  0.48166920643E+02  0.48313855726E+02  0.17770000000E+01 0. -1.
         15    1    1    2    0    0 -0.39368509908E+01 -0.89111477114E+00  0.58552086606E+01  0.73303532465E+01  0.17770000000E+01 0. -1.
</event>
<event>
 6    1  0.1045352E-002  0.1827308E+03  0.7546771E-02  0.1068271E+00
        -11   -1    0    0    0    0  0.00000000000E+00  0.00000000000E+00  0.18250000000E+03  0.18250000000E+03  0.00000000000E+00 0. -1.
         11   -1    0    0    0    0 -0.00000000000E+00 -0.00000000000E+00 -0.18250000000E+03  0.18250000000E+03  0.00000000000E+00 0.  1.
        -11    1    1    2    0    0 -0.21221963620E+01 -0.23370066397E+01  0.18224183094E+03  0.18226916981E+03  0.00000000000E+00 0. -1.
         11    1    1    2    0    0  0.74394099708E+00 -0.13714562676E+01 -0.82529633385E+02  0.82544380348E+02  0.00000000000E+00 0.  1.
        -15    1    1    2    0    0  0.14864638648E+01 -0.24198388449E+01 -0.35856047138E+02  0.36012206822E+02  0.17770000000E+01 0. -1.
         15    1    1    2    0    0 -0.10820849987E+00  0.61283017521E+01 -0.63856150421E+02  0.64174243019E+02  0.17770000000E+01 0. -1.
</event>
<event>
 6    1  0.1045352E-002  0.1826236E+03  0.7546771E-02  0.1068356E+00
        -11   -1    0    0    0    0  0.00000000000E+00  0.00000000000E+00  0.18250000000E+03  0.18250000000E+03  0.00000000000E+00 0.  1.
         11   -1    0    0    0    0 -0.00000000000E+00 -0.00000000000E+00 -0.18250000000E+03  0.18250000000E+03  0.00000000000E+00 0. -1.
        -11    1    1    2    0    0 -0.20388031094E+00 -0.19001157067E+01  0.44071020967E+02  0.44112434709E+02  0.00000000000E+00 0.  1.
         11    1    1    2    0    0 -0.27284377509E+01  0.15385184731E+00 -0.18235588610E+03  0.18237636152E+03  0.00000000000E+00 0. -1.
        -15    1    1    2    0    0 -0.10074488979E+01  0.12399443017E+01  0.89708378969E+02  0.89740199473E+02  0.17770000000E+01 0.  1.
         15    1    1    2    0    0  0.39397669598E+01  0.50631955776E+00  0.48576486168E+02  0.48771004302E+02  0.17770000000E+01 0.  1.
</event>
<event>
 6    1  0.1045352E-002  0.1826996E+03  0.7546771E-02  0.1068296E+00
        -11   -1    0    0    0    0  0.00000000000E+00  0.00000000000E+00  0.18250000000E+03  0.18250000000E+03  0.00000000000E+00 0.  1.
         11   -1    0    0    0    0 -0.00000000000E+00 -0.00000000000E+00 -0.18250000000E+03  0.18250000000E+03  0.00000000000E+00 0.  1.
        -11    1    1    2    0    0 -0.20073654349E+01  0.33361306046E+00  0.11619319128E+03  0.11621100857E+03  0.00000000000E+00 0.  1.
         11    1    1    2    0    0 -0.14223475981E+01 -0.57320859041E+01 -0.18220472978E+03  0.18230042084E+03  0.00000000000E+00 0.  1.
        -15    1    1    2    0    0  0.26053032040E+01  0.50177602480E+01  0.46835150023E+02  0.47208627701E+02  0.17770000000E+01 0. -1.
         15    1    1    2    0    0  0.82440982899E+00  0.38071259567E+00  0.19176388485E+02  0.19279942894E+02  0.17770000000E+01 0.  1.
</event>
<event>
 6    1  0.1045352E-002  0.1735768E+03  0.7546771E-02  0.1075788E+00
        -11   -1    0    0    0    0  0.00000000000E+00  0.00000000000E+00  0.18250000000E+03  0.18250000000E+03  0.00000000000E+00 0.  1.
         11   -1    0    0    0    0 -0.00000000000E+00 -0.00000000000E+00 -0.18250000000E+03  0.18250000000E+03  0.00000000000E+00 0.  1.
        -11    1    1    2    0    0 -0.54795677453E+01 -0.85064750942E+01  0.17470674965E+03  0.17499952616E+03  0.00000000000E+00 0.  1.
         11    1    1    2    0    0  0.21714010205E+01  0.12164917001E+01 -0.17223725467E+03  0.17225523716E+03  0.00000000000E+00 0.  1.
        -15    1    1    2    0    0 -0.19946233580E+01 -0.39913123987E+01  0.43712389222E+00  0.48226448451E+01  0.17770000000E+01 0.  1.
         15    1    1    2    0    0  0.53027900828E+01  0.11281295793E+02 -0.29066188747E+01  0.12922591834E+02  0.17770000000E+01 0. -1.
</event>
<event>
 6    1  0.1045352E-002  0.1842837E+03  0.7546771E-02  0.1067044E+00
        -11   -1    0    0    0    0  0.00000000000E+00  0.00000000000E+00  0.18250000000E+03  0.18250000000E+03  0.00000000000E+00 0. -1.
         11   -1    0    0    0    0 -0.00000000000E+00 -0.00000000000E+00 -0.18250000000E+03  0.18250000000E+03  0.00000000000E+00 0. -1.
        -11    1    1    2    0    0  0.23303244884E+01 -0.20946836847E+01  0.17677589771E+03  0.17680366547E+03  0.00000000000E+00 0. -1.
         11    1    1    2    0    0  0.21051878747E+01  0.32066843678E+01 -0.18067555060E+03  0.18071626718E+03  0.00000000000E+00 0. -1.
        -15    1    1    2    0    0 -0.28945342449E+01 -0.10958432437E+01  0.92311053959E+00  0.36863346264E+01  0.17770000000E+01 0.  1.
         15    1    1    2    0    0 -0.15409781182E+01 -0.16157439430E-01  0.29765423472E+01  0.37937327223E+01  0.17770000000E+01 0. -1.
</event>
<event>
 6    1  0.1045352E-002  0.1885784E+03  0.7546771E-02  0.1063717E+00
        -11   -1    0    0    0    0  0.00000000000E+00  0.00000000000E+00  0.18250000000E+03  0.18250000000E+03  0.00000000000E+00 0.  1.
         11   -1    0    0    0    0 -0.00000000000E+00 -0.00000000000E+00 -0.18250000000E+03  0.18250000000E+03  0.00000000000E+00 0. -1.
        -11    1    1    2    0    0  0.19633286109E+01 -0.39946115537E+01  0.17636544101E+03  0.17642159835E+03  0.00000000000E+00 0.  1.
         11    1    1    2    0    0 -0.85909953045E+00  0.21910677466E+01 -0.17404555599E+03  0.17406146727E+03  0.00000000000E+00 0. -1.
        -15    1    1    2    0    0 -0.53020158931E+01  0.30365415613E+01 -0.58323045275E+01  0.86316546668E+01  0.17770000000E+01 0.  1.
         15    1    1    2    0    0  0.41977868127E+01 -0.12329977542E+01  0.35124195048E+01  0.58852797184E+01  0.17770000000E+01 0.  1.
</event>
<event>
 6    1  0.1045352E-002  0.1832033E+03  0.7546771E-02  0.1067896E+00
        -11   -1    0    0    0    0  0.00000000000E+00  0.00000000000E+00  0.18250000000E+03  0.18250000000E+03  0.00000000000E+00 0. -1.
         11   -1    0    0    0    0 -0.00000000000E+00 -0.00000000000E+00 -0.18250000000E+03  0.18250000000E+03  0.00000000000E+00 0. -1.
        -11    1    1    2    0    0 -0.20102953556E+01 -0.76492190259E+00  0.15952872313E+03  0.15954322266E+03  0.00000000000E+00 0. -1.
         11    1    1    2    0    0  0.43025868793E+01  0.12661342565E+01 -0.18174132388E+03  0.18179665606E+03  0.00000000000E+00 0. -1.
        -15    1    1    2    0    0  0.89974980508E+00 -0.16335670774E+01  0.25346347122E+01  0.36138889347E+01  0.17770000000E+01 0.  1.
         15    1    1    2    0    0 -0.31920413288E+01  0.11323547235E+01  0.19677966034E+02  0.20046232346E+02  0.17770000000E+01 0. -1.
</event>
<event>
 6    1  0.1045352E-002  0.1841583E+03  0.7546771E-02  0.1067142E+00
        -11   -1    0    0    0    0  0.00000000000E+00  0.00000000000E+00  0.18250000000E+03  0.18250000000E+03  0.00000000000E+00 0. -1.
         11   -1    0    0    0    0 -0.00000000000E+00 -0.00000000000E+00 -0.18250000000E+03  0.18250000000E+03  0.00000000000E+00 0.  1.
        -11    1    1    2    0    0 -0.85694676646E+01  0.12576511667E+02  0.18020021853E+03  0.18084170752E+03  0.00000000000E+00 0. -1.
         11    1    1    2    0    0 -0.65874520582E+00 -0.14312076154E+01 -0.41014827649E+02  0.41045077507E+02  0.00000000000E+00 0.  1.
        -15    1    1    2    0    0  0.98236536018E+01 -0.87253693734E+01 -0.20661293316E+02  0.24549603078E+02  0.17770000000E+01 0. -1.
         15    1    1    2    0    0 -0.59544073142E+00 -0.24199346778E+01 -0.11852409756E+03  0.11856361189E+03  0.17770000000E+01 0.  1.
</event>
<event>
 6    1  0.1045352E-002  0.1835474E+03  0.7546771E-02  0.1067624E+00
        -11   -1    0    0    0    0  0.00000000000E+00  0.00000000000E+00  0.18250000000E+03  0.18250000000E+03  0.00000000000E+00 0.  1.
         11   -1    0    0    0    0 -0.00000000000E+00 -0.00000000000E+00 -0.18250000000E+03  0.18250000000E+03  0.00000000000E+00 0. -1.
        -11    1    1    2    0    0  0.15230221977E+01  0.24223225500E+01  0.15475415850E+03  0.15478060866E+03  0.00000000000E+00 0.  1.
         11    1    1    2    0    0  0.67020131927E+00 -0.27680068018E+01 -0.18143029584E+03  0.18145264749E+03  0.00000000000E+00 0. -1.
        -15    1    1    2    0    0  0.13264753823E+01  0.23433419484E+01  0.22244236639E+01  0.39187470017E+01  0.17770000000E+01 0. -1.
         15    1    1    2    0    0 -0.35196988992E+01 -0.19976576966E+01  0.24451713676E+02  0.24847996847E+02  0.17770000000E+01 0.  1.
</event>
<event>
 6    1  0.1045352E-002  0.1918759E+03  0.7546771E-02  0.1061227E+00
        -11   -1    0    0    0    0  0.00000000000E+00  0.00000000000E+00  0.18250000000E+03  0.18250000000E+03  0.00000000000E+00 0.  1.
         11   -1    0    0    0    0 -0.00000000000E+00 -0.00000000000E+00 -0.18250000000E+03  0.18250000000E+03  0.00000000000E+00 0.  1.
        -11    1    1    2    0    0 -0.16747260701E+01  0.57190606585E+01  0.17302148644E+03  0.17312408016E+03  0.00000000000E+00 0.  1.
         11    1    1    2    0    0 -0.23467903709E+00  0.52860294684E+01 -0.16276948287E+03  0.16285546272E+03  0.00000000000E+00 0.  1.
        -15    1    1    2    0    0 -0.19577633159E+00 -0.38559971563E+01  0.80922615620E+01  0.91405398434E+01  0.17770000000E+01 0.  1.
         15    1    1    2    0    0  0.21051814388E+01 -0.71490929706E+01 -0.18344265125E+02  0.19879917282E+02  0.17770000000E+01 0. -1.
</event>
<event>
 6    1  0.1045352E-002  0.1880801E+03  0.7546771E-02  0.1064098E+00
        -11   -1    0    0    0    0  0.00000000000E+00  0.00000000000E+00  0.18250000000E+03  0.18250000000E+03  0.00000000000E+00 0.  1.
         11   -1    0    0    0    0 -0.00000000000E+00 -0.00000000000E+00 -0.18250000000E+03  0.18250000000E+03  0.00000000000E+00 0.  1.
        -11    1    1    2    0    0 -0.74437221668E+01  0.98441837851E+01  0.17648886894E+03  0.17691986269E+03  0.00000000000E+00 0.  1.
         11    1    1    2    0    0  0.14920537996E+01 -0.39132674401E+01 -0.14351617793E+03  0.14357727262E+03  0.00000000000E+00 0.  1.
        -15    1    1    2    0    0  0.96459769743E+01 -0.15852374125E+02 -0.16818492724E+02  0.25107012242E+02  0.17770000000E+01 0.  1.
         15    1    1    2    0    0 -0.36943086071E+01  0.99214577804E+01 -0.16154198294E+02  0.19395852446E+02  0.17770000000E+01 0. -1.
</event>
<event>
 6    1  0.1045352E-002  0.2007614E+03  0.7546771E-02  0.1054782E+00
        -11   -1    0    0    0    0  0.00000000000E+00  0.00000000000E+00  0.18250000000E+03  0.18250000000E+03  0.00000000000E+00 0. -1.
         11   -1    0    0    0    0 -0.00000000000E+00 -0.00000000000E+00 -0.18250000000E+03  0.18250000000E+03  0.00000000000E+00 0. -1.
        -11    1    1    2    0    0 -0.29744961336E+02 -0.66666716413E+01  0.16138494804E+03  0.16423857248E+03  0.00000000000E+00 0. -1.
         11    1    1    2    0    0 -0.13166676730E+02 -0.17331580618E+01 -0.12289913624E+03  0.12361457398E+03  0.00000000000E+00 0. -1.
        -15    1    1    2    0    0 -0.62129565463E+01  0.15001532916E+02 -0.15362420538E+02  0.22423392087E+02  0.17770000000E+01 0. -1.
         15    1    1    2    0    0  0.49124594612E+02 -0.66017032132E+01 -0.23123391261E+02  0.54723461454E+02  0.17770000000E+01 0.  1.
</event>
<event>
 6    1  0.1045352E-002  0.1891288E+03  0.7546771E-02  0.1063297E+00
        -11   -1    0    0    0    0  0.00000000000E+00  0.00000000000E+00  0.18250000000E+03  0.18250000000E+03  0.00000000000E+00 0.  1.
         11   -1    0    0    0    0 -0.00000000000E+00 -0.00000000000E+00 -0.18250000000E+03  0.18250000000E+03  0.00000000000E+00 0.  1.
        -11    1    1    2    0    0 -0.61780702655E+01  0.19621652840E+01  0.13301920966E+03  0.13317705802E+03  0.00000000000E+00 0.  1.
         11    1    1    2    0    0 -0.14124203566E+02  0.57755915387E+01 -0.17520799306E+03  0.17587123533E+03  0.00000000000E+00 0.  1.
        -15    1    1    2    0    0 -0.27686820096E+01 -0.55734028142E+01  0.27965120879E+02  0.28704252886E+02  0.17770000000E+01 0.  1.
         15    1    1    2    0    0  0.23070955841E+02 -0.21643540085E+01  0.14223662525E+02  0.27247453758E+02  0.17770000000E+01 0. -1.
</event>
<event>
 6    1  0.1045352E-002  0.1849113E+03  0.7546771E-02  0.1066551E+00
        -11   -1    0    0    0    0  0.00000000000E+00  0.00000000000E+00  0.18250000000E+03  0.18250000000E+03  0.00000000000E+00 0. -1.
         11   -1    0    0    0    0 -0.00000000000E+00 -0.00000000000E+00 -0.18250000000E+03  0.18250000000E+03  0.00000000000E+00 0. -1.
        -11    1    1    2    0    0 -0.84647354431E+01 -0.10246926102E+01  0.17988674366E+03  0.18008870671E+03  0.00000000000E+00 0. -1.
         11    1    1    2    0    0  0.69675485669E+01  0.23730604790E+01 -0.86925060911E+02  0.87236141384E+02  0.00000000000E+00 0. -1.
        -15    1    1    2    0    0  0.26800212368E+01 -0.36950442037E+01 -0.24524777894E+00  0.49044613333E+01  0.17770000000E+01 0.  1.
         15    1    1    2    0    0 -0.11828343606E+01  0.23466763348E+01 -0.92716434968E+02  0.92770690572E+02  0.17770000000E+01 0. -1.
</event>
<event>
 6    1  0.1045352E-002  0.1771647E+03  0.7546771E-02  0.1072783E+00
        -11   -1    0    0    0    0  0.00000000000E+00  0.00000000000E+00  0.18250000000E+03  0.18250000000E+03  0.00000000000E+00 0. -1.
         11   -1    0    0    0    0 -0.00000000000E+00 -0.00000000000E+00 -0.18250000000E+03  0.18250000000E+03  0.00000000000E+00 0.  1.
        -11    1    1    2    0    0  0.46951813603E+01 -0.38392586106E+01  0.17801701182E+03  0.17812029961E+03  0.00000000000E+00 0. -1.
         11    1    1    2    0    0  0.31844804098E+00 -0.39243777930E+01 -0.17628991136E+03  0.17633387365E+03  0.00000000000E+00 0.  1.
        -15    1    1    2    0    0 -0.20777501066E+01  0.20163126971E+01  0.61826141944E+00  0.34529029208E+01  0.17770000000E+01 0.  1.
         15    1    1    2    0    0 -0.29358792947E+01  0.57473237066E+01 -0.23453618830E+01  0.70929238247E+01  0.17770000000E+01 0. -1.
</event>
<event>
 6    1  0.1045352E-002  0.1830483E+03  0.7546771E-02  0.1068019E+00
        -11   -1    0    0    0    0  0.00000000000E+00  0.00000000000E+00  0.18250000000E+03  0.18250000000E+03  0.00000000000E+00 0.  1.
         11   -1    0    0    0    0 -0.00000000000E+00 -0.00000000000E+00 -0.18250000000E+03  0.18250000000E+03  0.00000000000E+00 0. -1.
        -11    1    1    2    0    0 -0.15496222934E+01  0.94265747693E+00  0.93996283077E+02  0.94013781780E+02  0.00000000000E+00 0.  1.
         11    1    1    2    0    0  0.96340957475E+00 -0.41974788529E+01 -0.18190073353E+03  0.18195170746E+03  0.00000000000E+00 0. -1.
        -15    1    1    2    0    0 -0.52854049024E+01  0.41212360348E+01  0.29574346764E+02  0.30376303379E+02  0.17770000000E+01 0. -1.
         15    1    1    2    0    0  0.58716176210E+01 -0.86641465882E+00  0.58330103691E+02  0.58658207384E+02  0.17770000000E+01 0.  1.
</event>
<event>
 6    1  0.1045352E-002  0.1837209E+03  0.7546771E-02  0.1067487E+00
        -11   -1    0    0    0    0  0.00000000000E+00  0.00000000000E+00  0.18250000000E+03  0.18250000000E+03  0.00000000000E+00 0. -1.
         11   -1    0    0    0    0 -0.00000000000E+00 -0.00000000000E+00 -0.18250000000E+03  0.18250000000E+03  0.00000000000E+00 0.  1.
        -11    1    1    2    0    0  0.30197308517E+01 -0.94527929482E+00  0.18125152389E+03  0.18127914176E+03  0.00000000000E+00 0. -1.
         11    1    1    2    0    0 -0.27033046161E+01  0.34810413394E+01 -0.17210718440E+03  0.17216360948E+03  0.00000000000E+00 0.  1.
        -15    1    1    2    0    0  0.11471568252E+00  0.16821061961E+01 -0.27642194440E+01  0.36934102233E+01  0.17770000000E+01 0.  1.
         15    1    1    2    0    0 -0.43114191811E+00 -0.42178682407E+01 -0.63801200387E+01  0.78638385384E+01  0.17770000000E+01 0. -1.
</event>
<event>
 6    1  0.1045352E-002  0.1844439E+03  0.7546771E-02  0.1066918E+00
        -11   -1    0    0    0    0  0.00000000000E+00  0.00000000000E+00  0.18250000000E+03  0.18250000000E+03  0.00000000000E+00 0. -1.
         11   -1    0    0    0    0 -0.00000000000E+00 -0.00000000000E+00 -0.18250000000E+03  0.18250000000E+03  0.00000000000E+00 0. -1.
        -11    1    1    2    0    0 -0.82318947914E+01 -0.41605645716E+00  0.18036785792E+03  0.18055608925E+03  0.00000000000E+00 0. -1.
         11    1    1    2    0    0 -0.10208995020E+01  0.20146995833E+01 -0.90888051986E+02  0.90916111026E+02  0.00000000000E+00 0. -1.
        -15    1    1    2    0    0  0.65343750348E+00 -0.11647038468E+01 -0.81869702858E+02  0.81899874790E+02  0.17770000000E+01 0. -1.
         15    1    1    2    0    0  0.85993567899E+01 -0.43393927932E+00 -0.76101030739E+01  0.11627924935E+02  0.17770000000E+01 0. -1.
</event>
<event>
 6    1  0.1045352E-002  0.1827778E+03  0.7546771E-02  0.1068234E+00
        -11   -1    0    0    0    0  0.00000000000E+00  0.00000000000E+00  0.18250000000E+03  0.18250000000E+03  0.00000000000E+00 0. -1.
         11   -1    0    0    0    0 -0.00000000000E+00 -0.00000000000E+00 -0.18250000000E+03  0.18250000000E+03  0.00000000000E+00 0. -1.
        -11    1    1    2    0    0  0.62507779943E+00 -0.16675031647E+01  0.12301285394E+03  0.12302574333E+03  0.00000000000E+00 0. -1.
         11    1    1    2    0    0 -0.25272266797E+01 -0.49394954382E+01 -0.18213769498E+03  0.18222218697E+03  0.00000000000E+00 0. -1.
        -15    1    1    2    0    0  0.40447594936E+00  0.30276575931E+01  0.40052968369E+02  0.40208560226E+02  0.17770000000E+01 0. -1.
         15    1    1    2    0    0  0.14976729309E+01  0.35793410099E+01  0.19071872676E+02  0.19543509476E+02  0.17770000000E+01 0.  1.
</event>
<event>
 6    1  0.1045352E-002  0.1762840E+03  0.7546771E-02  0.1073513E+00
        -11   -1    0    0    0    0  0.00000000000E+00  0.00000000000E+00  0.18250000000E+03  0.18250000000E+03  0.00000000000E+00 0.  1.
         11   -1    0    0    0    0 -0.00000000000E+00 -0.00000000000E+00 -0.18250000000E+03  0.18250000000E+03  0.00000000000E+00 0.  1.
        -11    1    1    2    0    0 -0.25289465451E+01  0.10409814130E+01  0.17803851240E+03  0.17805951564E+03  0.00000000000E+00 0.  1.
         11    1    1    2    0    0 -0.37239750014E+01  0.56960029620E+01 -0.17451332374E+03  0.17464596360E+03  0.00000000000E+00 0.  1.
        -15    1    1    2    0    0  0.57804250447E+01 -0.33228736941E+01  0.21967921445E+00  0.69036795437E+01  0.17770000000E+01 0.  1.
         15    1    1    2    0    0  0.47249650178E+00 -0.34141106809E+01 -0.37448678744E+01  0.53908412221E+01  0.17770000000E+01 0. -1.
</event>
<event>
 6    1  0.1045352E-002  0.1769445E+03  0.7546771E-02  0.1072965E+00
        -11   -1    0    0    0    0  0.00000000000E+00  0.00000000000E+00  0.18250000000E+03  0.18250000000E+03  0.00000000000E+00 0. -1.
         11   -1    0    0    0    0 -0.00000000000E+00 -0.00000000000E+00 -0.18250000000E+03  0.18250000000E+03  0.00000000000E+00 0. -1.
        -11    1    1    2    0    0  0.25850337600E+01 -0.41825068484E+01  0.23976357722E+02  0.24475324159E+02  0.00000000000E+00 0. -1.
         11    1    1    2    0    0  0.77670912277E+01 -0.36745440753E+02 -0.16960135148E+03  0.17371002719E+03  0.00000000000E+00 0. -1.
        -15    1    1    2    0    0 -0.59696295096E+00  0.41742008290E+02  0.31679607828E+02  0.52435740692E+02  0.17770000000E+01 0.  1.
         15    1    1    2    0    0 -0.97551620367E+01 -0.81406068809E+00  0.11394538593E+03  0.11437890796E+03  0.17770000000E+01 0. -1.
</event>
<event>
 6    1  0.1045352E-002  0.1834305E+03  0.7546771E-02  0.1067717E+00
        -11   -1    0    0    0    0  0.00000000000E+00  0.00000000000E+00  0.18250000000E+03  0.18250000000E+03  0.00000000000E+00 0.  1.
         11   -1    0    0    0    0 -0.00000000000E+00 -0.00000000000E+00 -0.18250000000E+03  0.18250000000E+03  0.00000000000E+00 0. -1.
        -11    1    1    2    0    0  0.71894351417E+01  0.83375197006E+00  0.18142516409E+03  0.18156947234E+03  0.00000000000E+00 0.  1.
         11    1    1    2    0    0 -0.12314196375E+01  0.29407292226E+01 -0.13150936310E+03  0.13154800213E+03  0.00000000000E+00 0. -1.
        -15    1    1    2    0    0 -0.18430362272E+01 -0.71561100613E+00 -0.12898436722E+01  0.29547093504E+01  0.17770000000E+01 0. -1.
         15    1    1    2    0    0 -0.41149792770E+01 -0.30588701865E+01 -0.48625957322E+02  0.48927816176E+02  0.17770000000E+01 0.  1.
</event>
<event>
 6    1  0.1045352E-002  0.1873972E+03  0.7546771E-02  0.1064622E+00
        -11   -1    0    0    0    0  0.00000000000E+00  0.00000000000E+00  0.18250000000E+03  0.18250000000E+03  0.00000000000E+00 0. -1.
         11   -1    0    0    0    0 -0.00000000000E+00 -0.00000000000E+00 -0.18250000000E+03  0.18250000000E+03  0.00000000000E+00 0. -1.
        -11    1    1    2    0    0 -0.26361112559E+01  0.24566177746E+01  0.17756621794E+03  0.17760277533E+03  0.00000000000E+00 0. -1.
         11    1    1    2    0    0  0.57173320978E+01  0.12159498567E+02 -0.11072319367E+03  0.11153549618E+03  0.00000000000E+00 0. -1.
        -15    1    1    2    0    0  0.73917578177E+00 -0.63053518922E+01  0.16027968816E+01  0.67845803234E+01  0.17770000000E+01 0.  1.
         15    1    1    2    0    0 -0.38203966237E+01 -0.83107644496E+01 -0.68445821154E+02  0.69077148165E+02  0.17770000000E+01 0. -1.
</event>
<event>
 6    1  0.1045352E-002  0.1907468E+03  0.7546771E-02  0.1062073E+00
        -11   -1    0    0    0    0  0.00000000000E+00  0.00000000000E+00  0.18250000000E+03  0.18250000000E+03  0.00000000000E+00 0. -1.
         11   -1    0    0    0    0 -0.00000000000E+00 -0.00000000000E+00 -0.18250000000E+03  0.18250000000E+03  0.00000000000E+00 0.  1.
        -11    1    1    2    0    0  0.21361950499E+00  0.11815178394E+01  0.76249401303E+02  0.76258854022E+02  0.00000000000E+00 0. -1.
         11    1    1    2    0    0 -0.26315434811E+01  0.19792647252E+01 -0.17422207250E+03  0.17425318665E+03  0.00000000000E+00 0.  1.
        -15    1    1    2    0    0  0.14017053679E+01 -0.98439205137E+00  0.10594520383E+03  0.10597394844E+03  0.17770000000E+01 0.  1.
         15    1    1    2    0    0  0.10162186083E+01 -0.21763905133E+01 -0.79725326267E+01  0.85140108885E+01  0.17770000000E+01 0.  1.
</event>
<event>
 6    1  0.1045352E-002  0.1856479E+03  0.7546771E-02  0.1065976E+00
        -11   -1    0    0    0    0  0.00000000000E+00  0.00000000000E+00  0.18250000000E+03  0.18250000000E+03  0.00000000000E+00 0. -1.
         11   -1    0    0    0    0 -0.00000000000E+00 -0.00000000000E+00 -0.18250000000E+03  0.18250000000E+03  0.00000000000E+00 0. -1.
        -11    1    1    2    0    0 -0.28005375888E+00  0.36494034525E+01  0.11095009851E+03  0.11101045417E+03  0.00000000000E+00 0. -1.
         11    1    1    2    0    0 -0.47244618997E+01 -0.14937059393E+01 -0.17928365308E+03  0.17935211166E+03  0.00000000000E+00 0. -1.
        -15    1    1    2    0    0  0.23682189090E+01  0.48823186153E+00 -0.23633644835E+01  0.38196926360E+01  0.17770000000E+01 0. -1.
         15    1    1    2    0    0  0.26362967496E+01 -0.26439293747E+01  0.70696919055E+02  0.70817741534E+02  0.17770000000E+01 0. -1.
</event>
<event>
 6    1  0.1045352E-002  0.1832523E+03  0.7546771E-02  0.1067858E+00
        -11   -1    0    0    0    0  0.00000000000E+00  0.00000000000E+00  0.18250000000E+03  0.18250000000E+03  0.00000000000E+00 0.  1.
         11   -1    0    0    0    0 -0.00000000000E+00 -0.00000000000E+00 -0.18250000000E+03  0.18250000000E+03  0.00000000000E+00 0. -1.
        -11    1    1    2    0    0  0.10621428126E+01 -0.68916376908E+01  0.14028674548E+03  0.14045993655E+03  0.00000000000E+00 0.  1.
         11    1    1    2    0    0 -0.32788096281E+01  0.79859779360E+00 -0.18171638186E+03  0.18174771467E+03  0.00000000000E+00 0. -1.
        -15    1    1    2    0    0  0.15339191425E+00  0.45433476288E+01  0.37251875446E+02  0.37570274021E+02  0.17770000000E+01 0. -1.
         15    1    1    2    0    0  0.20632749013E+01  0.15496922685E+01  0.41777609332E+01  0.52220747658E+01  0.17770000000E+01 0.  1.
</event>
<event>
 6    1  0.1045352E-002  0.1841411E+03  0.7546771E-02  0.1067156E+00
        -11   -1    0    0    0    0  0.00000000000E+00  0.00000000000E+00  0.18250000000E+03  0.18250000000E+03  0.00000000000E+00 0.  1.
         11   -1    0    0    0    0 -0.00000000000E+00 -0.00000000000E+00 -0.18250000000E+03  0.18250000000E+03  0.00000000000E+00 0. -1.
        -11    1    1    2    0    0  0.10064823757E+01  0.38675993868E+01  0.18081474760E+03  0.18085890711E+03  0.00000000000E+00 0.  1.
         11    1    1    2    0    0 -0.24682724896E+01  0.78906753979E-01 -0.16963369685E+03  0.16965167168E+03  0.00000000000E+00 0. -1.
        -15    1    1    2    0    0  0.16687510197E+01  0.15817119772E+01 -0.61561705968E+01  0.68075478817E+01  0.17770000000E+01 0.  1.
         15    1    1    2    0    0 -0.20696090579E+00 -0.55282181180E+01 -0.50248801507E+01  0.76818733330E+01  0.17770000000E+01 0. -1.
</event>
<event>
 6    1  0.1045352E-002  0.1913735E+03  0.7546771E-02  0.1061603E+00
        -11   -1    0    0    0    0  0.00000000000E+00  0.00000000000E+00  0.18250000000E+03  0.18250000000E+03  0.00000000000E+00 0. -1.
         11   -1    0    0    0    0 -0.00000000000E+00 -0.00000000000E+00 -0.18250000000E+03  0.18250000000E+03  0.00000000000E+00 0. -1.
        -11    1    1    2    0    0  0.12864747927E+02 -0.21840935086E+02  0.17176619794E+03  0.17362648110E+03  0.00000000000E+00 0. -1.
         11    1    1    2    0    0 -0.27352586615E+01 -0.12830401949E+01 -0.10674787362E+03  0.10679061922E+03  0.00000000000E+00 0. -1.
        -15    1    1    2    0    0  0.16319945232E+02  0.54401373197E+01 -0.75490032302E+01  0.18870105596E+02  0.17770000000E+01 0.  1.
         15    1    1    2    0    0 -0.26449434497E+02  0.17683837961E+02 -0.57469321092E+02  0.65712794082E+02  0.17770000000E+01 0. -1.
</event>
<event>
 6    1  0.1045352E-002  0.1969102E+03  0.7546771E-02  0.1057530E+00
        -11   -1    0    0    0    0  0.00000000000E+00  0.00000000000E+00  0.18250000000E+03  0.18250000000E+03  0.00000000000E+00 0. -1.
         11   -1    0    0    0    0 -0.00000000000E+00 -0.00000000000E+00 -0.18250000000E+03  0.18250000000E+03  0.00000000000E+00 0.  1.
        -11    1    1    2    0    0 -0.79538109431E+01  0.40675945134E+00  0.16790102974E+03  0.16808981037E+03  0.00000000000E+00 0. -1.
         11    1    1    2    0    0 -0.40642772986E+01  0.22216309891E+00 -0.89906287964E+02  0.89998379552E+02  0.00000000000E+00 0.  1.
        -15    1    1    2    0    0  0.27556732182E+02  0.11321038051E+02 -0.37225244766E+01  0.30075809359E+02  0.17770000000E+01 0. -1.
         15    1    1    2    0    0 -0.15538643940E+02 -0.11949960602E+02 -0.74272217304E+02  0.76836000717E+02  0.17770000000E+01 0.  1.
</event>
<event>
 6    1  0.1045352E-002  0.1827766E+03  0.7546771E-02  0.1068235E+00
        -11   -1    0    0    0    0  0.00000000000E+00  0.00000000000E+00  0.18250000000E+03  0.18250000000E+03  0.00000000000E+00 0. -1.
         11   -1    0    0    0    0 -0.00000000000E+00 -0.00000000000E+00 -0.18250000000E+03  0.18250000000E+03  0.00000000000E+00 0. -1.
        -11    1    1    2    0    0  0.21397369741E+01  0.60222069557E+00  0.95704938435E+02  0.95730749422E+02  0.00000000000E+00 0. -1.
         11    1    1    2    0    0 -0.20134139539E+01 -0.32723005845E+01 -0.18218284234E+03  0.18222335149E+03  0.00000000000E+00 0. -1.
        -15    1    1    2    0    0  0.52505168133E+00  0.45837338314E+01  0.23694021065E+02  0.24204352054E+02  0.17770000000E+01 0. -1.
         15    1    1    2    0    0 -0.65137470160E+00 -0.19136539425E+01  0.62783882837E+02  0.62841547033E+02  0.17770000000E+01 0. -1.
</event>
<event>
 6    1  0.1045352E-002  0.1825871E+03  0.7546771E-02  0.1068386E+00
        -11   -1    0    0    0    0  0.00000000000E+00  0.00000000000E+00  0.18250000000E+03  0.18250000000E+03  0.00000000000E+00 0.  1.
         11   -1    0    0    0    0 -0.00000000000E+00 -0.00000000000E+00 -0.18250000000E+03  0.18250000000E+03  0.00000000000E+00 0. -1.
        -11    1    1    2    0    0 -0.42701832982E+01  0.23099146599E+01  0.18234829749E+03  0.18241291558E+03  0.00000000000E+00 0.  1.
         11    1    1    2    0    0  0.54530967408E+00 -0.15366994228E+00 -0.28287941875E+02  0.28293614697E+02  0.00000000000E+00 0. -1.
        -15    1    1    2    0    0 -0.28704513806E-01  0.11677466675E+01 -0.85731270316E+02  0.85757640448E+02  0.17770000000E+01 0. -1.
         15    1    1    2    0    0  0.37535781379E+01 -0.33239913851E+01 -0.68329085302E+02  0.68535829278E+02  0.17770000000E+01 0. -1.
</event>
<event>
 6    1  0.1045352E-002  0.1826138E+03  0.7546771E-02  0.1068364E+00
        -11   -1    0    0    0    0  0.00000000000E+00  0.00000000000E+00  0.18250000000E+03  0.18250000000E+03  0.00000000000E+00 0.  1.
         11   -1    0    0    0    0 -0.00000000000E+00 -0.00000000000E+00 -0.18250000000E+03  0.18250000000E+03  0.00000000000E+00 0. -1.
        -11    1    1    2    0    0  0.11207398334E+01 -0.79252359833E-01  0.74197966794E+02  0.74206472865E+02  0.00000000000E+00 0.  1.
         11    1    1    2    0    0 -0.11620314007E+00 -0.25507599486E+01 -0.18236829719E+03  0.18238617190E+03  0.00000000000E+00 0. -1.
        -15    1    1    2    0    0  0.53033629912E+00 -0.31448319191E+00  0.75053862951E+02  0.75077428227E+02  0.17770000000E+01 0.  1.
         15    1    1    2    0    0 -0.15348729925E+01  0.29444955003E+01  0.33116467450E+02  0.33329927006E+02  0.17770000000E+01 0. -1.
</event>
<event>
 6    1  0.1045352E-002  0.1834224E+03  0.7546771E-02  0.1067723E+00
        -11   -1    0    0    0    0  0.00000000000E+00  0.00000000000E+00  0.18250000000E+03  0.18250000000E+03  0.00000000000E+00 0.  1.
         11   -1    0    0    0    0 -0.00000000000E+00 -0.00000000000E+00 -0.18250000000E+03  0.18250000000E+03  0.00000000000E+00 0. -1.
        -11    1    1    2    0    0 -0.46893660607E+01  0.10922253282E+01  0.13336111816E+03  0.13344800840E+03  0.00000000000E+00 0.  1.
         11    1    1    2    0    0  0.89872516187E+01  0.20621951850E+01 -0.18134331807E+03  0.18157759319E+03  0.00000000000E+00 0. -1.
        -15    1    1    2    0    0  0.41264707566E+01 -0.19113676645E+01  0.23244953388E+02  0.23752193042E+02  0.17770000000E+01 0.  1.
         15    1    1    2    0    0 -0.84243563146E+01 -0.12430528486E+01  0.24737246523E+02  0.26222205365E+02  0.17770000000E+01 0. -1.
</event>
<event>
 6    1  0.1045352E-002  0.1268977E+03  0.7546771E-02  0.1124046E+00
        -11   -1    0    0    0    0  0.00000000000E+00  0.00000000000E+00  0.18250000000E+03  0.18250000000E+03  0.00000000000E+00 0.  1.
         11   -1    0    0    0    0 -0.00000000000E+00 -0.00000000000E+00 -0.18250000000E+03  0.18250000000E+03  0.00000000000E+00 0. -1.
        -11    1    1    2    0    0  0.29416512634E+02  0.30705732279E+02  0.12502897076E+03  0.13206216998E+03  0.00000000000E+00 0.  1.
         11    1    1    2    0    0 -0.40781899715E+01  0.40508318838E+01 -0.12522040522E+03  0.12535226666E+03  0.00000000000E+00 0. -1.
        -15    1    1    2    0    0  0.30694975949E+02  0.98237437086E+01 -0.12923535477E+02  0.34768707010E+02  0.17770000000E+01 0.  1.
         15    1    1    2    0    0 -0.56033298612E+02 -0.44580307872E+02  0.13114969937E+02  0.72816856350E+02  0.17770000000E+01 0. -1.
</event>
<event>
 6    1  0.1045352E-002  0.1833138E+03  0.7546771E-02  0.1067809E+00
        -11   -1    0    0    0    0  0.00000000000E+00  0.00000000000E+00  0.18250000000E+03  0.18250000000E+03  0.00000000000E+00 0. -1.
         11   -1    0    0    0    0 -0.00000000000E+00 -0.00000000000E+00 -0.18250000000E+03  0.18250000000E+03  0.00000000000E+00 0.  1.
        -11    1    1    2    0    0 -0.86072717807E+00 -0.54787306637E+00  0.66328672923E+02  0.66336519866E+02  0.00000000000E+00 0. -1.
         11    1    1    2    0    0  0.39829695966E+01 -0.90458114226E+00 -0.18164025570E+03  0.18168617119E+03  0.00000000000E+00 0.  1.
        -15    1    1    2    0    0 -0.64471732047E+01 -0.28036554193E+01  0.16755477182E+02  0.18257334708E+02  0.17770000000E+01 0.  1.
         15    1    1    2    0    0  0.33249307862E+01  0.42561096279E+01  0.98556105591E+02  0.98719974231E+02  0.17770000000E+01 0. -1.
</event>
<event>
 6    1  0.1045352E-002  0.1827036E+03  0.7546771E-02  0.1068293E+00
        -11   -1    0    0    0    0  0.00000000000E+00  0.00000000000E+00  0.18250000000E+03  0.18250000000E+03  0.00000000000E+00 0. -1.
         11   -1    0    0    0    0 -0.00000000000E+00 -0.00000000000E+00 -0.18250000000E+03  0.18250000000E+03  0.00000000000E+00 0. -1.
        -11    1    1    2    0    0 -0.30018822944E+01 -0.14165549609E+01  0.18226618635E+03  0.18229640867E+03  0.00000000000E+00 0. -1.
         11    1    1    2    0    0  0.70937179451E+00 -0.16503501335E+00 -0.48635508123E+02  0.48640961085E+02  0.00000000000E+00 0. -1.
        -15    1    1    2    0    0  0.35651954616E+01 -0.27098623698E+01 -0.96603293341E+02  0.96723358017E+02  0.17770000000E+01 0. -1.
         15    1    1    2    0    0 -0.12726849617E+01  0.42914523440E+01 -0.37027384888E+02  0.37339272233E+02  0.17770000000E+01 0.  1.
</event>
<event>
 6    1  0.1045352E-002  0.1840042E+03  0.7546771E-02  0.1067264E+00
        -11   -1    0    0    0    0  0.00000000000E+00  0.00000000000E+00  0.18250000000E+03  0.18250000000E+03  0.00000000000E+00 0. -1.
         11   -1    0    0    0    0 -0.00000000000E+00 -0.00000000000E+00 -0.18250000000E+03  0.18250000000E+03  0.00000000000E+00 0.  1.
        -11    1    1    2    0    0  0.50801686801E+01  0.69712621902E+01  0.12868034091E+03  0.12896913099E+03  0.00000000000E+00 0. -1.
         11    1    1    2    0    0  0.31469899702E+01 -0.10338804432E+01 -0.18096544270E+03  0.18099575660E+03  0.00000000000E+00 0.  1.
        -15    1    1    2    0    0  0.23985222691E+00 -0.80451539319E+01  0.26822661943E+02  0.28060558683E+02  0.17770000000E+01 0. -1.
         15    1    1    2    0    0 -0.84670108772E+01  0.21077721849E+01  0.25462439848E+02  0.26974553727E+02  0.17770000000E+01 0.  1.
</event>
<event>
 6    1  0.1045352E-002  0.1837343E+03  0.7546771E-02  0.1067477E+00
        -11   -1    0    0    0    0  0.00000000000E+00  0.00000000000E+00  0.18250000000E+03  0.18250000000E+03  0.00000000000E+00 0.  1.
         11   -1    0    0    0    0 -0.00000000000E+00 -0.00000000000E+00 -0.18250000000E+03  0.18250000000E+03  0.00000000000E+00 0. -1.
        -11    1    1    2    0    0  0.60673680274E+01 -0.73832214372E+01  0.14257318940E+03  0.14289310427E+03  0.00000000000E+00 0.  1.
         11    1    1    2    0    0 -0.10649380642E+01 -0.23145561745E+01 -0.18124778981E+03  0.18126569608E+03  0.00000000000E+00 0. -1.
        -15    1    1    2    0    0 -0.51897814870E+01  0.71273902925E+01  0.34315070795E+02  0.35474150263E+02  0.17770000000E+01 0. -1.
         15    1    1    2    0    0  0.18735152381E+00  0.25703873192E+01  0.43595296203E+01  0.53670493825E+01  0.17770000000E+01 0.  1.
</event>
<event>
 6    1  0.1045352E-002  0.1574873E+03  0.7546771E-02  0.1090316E+00
        -11   -1    0    0    0    0  0.00000000000E+00  0.00000000000E+00  0.18250000000E+03  0.18250000000E+03  0.00000000000E+00 0. -1.
         11   -1    0    0    0    0 -0.00000000000E+00 -0.00000000000E+00 -0.18250000000E+03  0.18250000000E+03  0.00000000000E+00 0. -1.
        -11    1    1    2    0    0 -0.33817753939E+02  0.17302641774E+01  0.14611431649E+03  0.14998675868E+03  0.00000000000E+00 0. -1.
         11    1    1    2    0    0  0.90173033348E+01 -0.62781333116E+01 -0.16627542401E+03  0.16663806092E+03  0.00000000000E+00 0. -1.
        -15    1    1    2    0    0 -0.25617004546E+01  0.91649818938E+00 -0.81630977527E+01  0.87861352180E+01  0.17770000000E+01 0. -1.
         15    1    1    2    0    0  0.27362151059E+02  0.36313709448E+01  0.28324205267E+02  0.39589045183E+02  0.17770000000E+01 0.  1.
</event>
<event>
 6    1  0.1045352E-002  0.1834716E+03  0.7546771E-02  0.1067684E+00
        -11   -1    0    0    0    0  0.00000000000E+00  0.00000000000E+00  0.18250000000E+03  0.18250000000E+03  0.00000000000E+00 0. -1.
         11   -1    0    0    0    0 -0.00000000000E+00 -0.00000000000E+00 -0.18250000000E+03  0.18250000000E+03  0.00000000000E+00 0.  1.
        -11    1    1    2    0    0 -0.32504433112E+01 -0.85497599888E-01  0.18149930724E+03  0.18152843089E+03  0.00000000000E+00 0. -1.
         11    1    1    2    0    0 -0.40747493354E+01  0.28263233513E+01 -0.82457041280E+02  0.82606024856E+02  0.00000000000E+00 0.  1.
        -15    1    1    2    0    0 -0.16886352243E+01 -0.73690427200E+01 -0.59598305593E+02  0.60102163339E+02  0.17770000000E+01 0. -1.
         15    1    1    2    0    0  0.90138278709E+01  0.46282169685E+01 -0.39443960369E+02  0.40763380917E+02  0.17770000000E+01 0. -1.
</event>
<event>
 6    1  0.1045352E-002  0.1843443E+03  0.7546771E-02  0.1066996E+00
        -11   -1    0    0    0    0  0.00000000000E+00  0.00000000000E+00  0.18250000000E+03  0.18250000000E+03  0.00000000000E+00 0.  1.
         11   -1    0    0    0    0 -0.00000000000E+00 -0.00000000000E+00 -0.18250000000E+03  0.18250000000E+03  0.00000000000E+00 0.  1.
        -11    1    1    2    0    0  0.15131803657E+01  0.64351729588E+01  0.18053470336E+03  0.18065569540E+03  0.00000000000E+00 0.  1.
         11    1    1    2    0    0 -0.43608891807E+01 -0.50493980668E+00 -0.11871565246E+03  0.11879679481E+03  0.00000000000E+00 0.  1.
        -15    1    1    2    0    0 -0.60172236110E+01  0.22906996294E+00 -0.60616759520E+01  0.87270325644E+01  0.17770000000E+01 0. -1.
         15    1    1    2    0    0  0.88649324261E+01 -0.61593031150E+01 -0.55757374948E+02  0.56820477223E+02  0.17770000000E+01 0.  1.
</event>
<event>
 6    1  0.1086707E-002  0.1945516E+03  0.7546771E-02  0.1059247E+00
        -11   -1    0    0    0    0  0.00000000000E+00  0.00000000000E+00  0.18250000000E+03  0.18250000000E+03  0.00000000000E+00 0. -1.
         11   -1    0    0    0    0 -0.00000000000E+00 -0.00000000000E+00 -0.18250000000E+03  0.18250000000E+03  0.00000000000E+00 0. -1.
        -11    1    1    2    0    0  0.23329929636E+01 -0.17335202716E+01  0.17042360024E+03  0.17044838359E+03  0.00000000000E+00 0. -1.
         11    1    1    2    0    0  0.49314313709E+01  0.55848921749E+01 -0.12446265650E+03  0.12468545584E+03  0.00000000000E+00 0. -1.
        -15    1    1    2    0    0 -0.70727511682E+01 -0.93025820498E+01 -0.56577346767E+02  0.57798925060E+02  0.17770000000E+01 0.  1.
         15    1    1    2    0    0 -0.19167316629E+00  0.54512101466E+01  0.10616403024E+02  0.12067235509E+02  0.17770000000E+01 0. -1.
</event>
<event>
 6    1  0.1045352E-002  0.1881504E+03  0.7546771E-02  0.1064044E+00
        -11   -1    0    0    0    0  0.00000000000E+00  0.00000000000E+00  0.18250000000E+03  0.18250000000E+03  0.00000000000E+00 0. -1.
         11   -1    0    0    0    0 -0.00000000000E+00 -0.00000000000E+00 -0.18250000000E+03  0.18250000000E+03  0.00000000000E+00 0. -1.
        -11    1    1    2    0    0  0.28171712707E+01 -0.22297423122E+01  0.17681310341E+03  0.17684960204E+03  0.00000000000E+00 0. -1.
         11    1    1    2    0    0 -0.21992051208E+01  0.31775160041E-01 -0.15438192213E+03  0.15439758869E+03  0.00000000000E+00 0. -1.
        -15    1    1    2    0    0 -0.64734840762E+01  0.71739162522E+01  0.15816779537E+00  0.98261801596E+01  0.17770000000E+01 0. -1.
         15    1    1    2    0    0  0.58555179263E+01 -0.49759491000E+01 -0.22589349076E+02  0.23926629105E+02  0.17770000000E+01 0.  1.
</event>
<event>
 6    1  0.1045352E-002  0.1858193E+03  0.7546771E-02  0.1065843E+00
        -11   -1    0    0    0    0  0.00000000000E+00  0.00000000000E+00  0.18250000000E+03  0.18250000000E+03  0.00000000000E+00 0.  1.
         11   -1    0    0    0    0 -0.00000000000E+00 -0.00000000000E+00 -0.18250000000E+03  0.18250000000E+03  0.00000000000E+00 0.  1.
        -11    1    1    2    0    0  0.32691142478E+01  0.53706395190E+01  0.17907038311E+03  0.17918072716E+03  0.00000000000E+00 0.  1.
         11    1    1    2    0    0 -0.96306470763E+00  0.18941776454E+01 -0.10261952720E+03  0.10264152554E+03  0.00000000000E+00 0.  1.
        -15    1    1    2    0    0  0.42856519143E+01 -0.59947549303E+01 -0.75827735260E+02  0.76205689175E+02  0.17770000000E+01 0.  1.
         15    1    1    2    0    0 -0.65917014545E+01 -0.12700622341E+01 -0.62312065285E+00  0.69720581245E+01  0.17770000000E+01 0. -1.
</event>
<event>
 6    1  0.1045352E-002  0.1820075E+03  0.7546771E-02  0.1068848E+00
        -11   -1    0    0    0    0  0.00000000000E+00  0.00000000000E+00  0.18250000000E+03  0.18250000000E+03  0.00000000000E+00 0.  1.
         11   -1    0    0    0    0 -0.00000000000E+00 -0.00000000000E+00 -0.18250000000E+03  0.18250000000E+03  0.00000000000E+00 0.  1.
        -11    1    1    2    0    0 -0.39733061705E+00 -0.42140266119E+00  0.64937650997E+01  0.65195426981E+01  0.00000000000E+00 0.  1.
         11    1    1    2    0    0  0.63918869315E+01  0.33982716258E+01 -0.17950125855E+03  0.17964717167E+03  0.00000000000E+00 0.  1.
        -15    1    1    2    0    0 -0.82307272734E+01  0.86410646819E+01  0.10823446859E+02  0.16208565674E+02  0.17770000000E+01 0. -1.
         15    1    1    2    0    0  0.22361709589E+01 -0.11617933647E+02  0.16218404659E+03  0.16262471996E+03  0.17770000000E+01 0.  1.
</event>
<event>
 6    1  0.1045352E-002  0.1845338E+03  0.7546771E-02  0.1066847E+00
        -11   -1    0    0    0    0  0.00000000000E+00  0.00000000000E+00  0.18250000000E+03  0.18250000000E+03  0.00000000000E+00 0.  1.
         11   -1    0    0    0    0 -0.00000000000E+00 -0.00000000000E+00 -0.18250000000E+03  0.18250000000E+03  0.00000000000E+00 0.  1.
        -11    1    1    2    0    0  0.12903744134E+01  0.23678472561E+01  0.16857917087E+03  0.16860073730E+03  0.00000000000E+00 0.  1.
         11    1    1    2    0    0 -0.53080967531E+01  0.12324775713E+01 -0.18038391295E+03  0.18046620444E+03  0.00000000000E+00 0.  1.
        -15    1    1    2    0    0  0.24673495908E+01 -0.33655288829E+01  0.12633014936E+02  0.13422570322E+02  0.17770000000E+01 0.  1.
         15    1    1    2    0    0  0.15503727488E+01 -0.23479594450E+00 -0.82827285107E+00  0.25104879429E+01  0.17770000000E+01 0. -1.
</event>
<event>
 6    1  0.1045352E-002  0.1826227E+03  0.7546771E-02  0.1068357E+00
        -11   -1    0    0    0    0  0.00000000000E+00  0.00000000000E+00  0.18250000000E+03  0.18250000000E+03  0.00000000000E+00 0.  1.
         11   -1    0    0    0    0 -0.00000000000E+00 -0.00000000000E+00 -0.18250000000E+03  0.18250000000E+03  0.00000000000E+00 0. -1.
        -11    1    1    2    0    0  0.36842463244E+01  0.10870588353E+00  0.18234002447E+03  0.18237727384E+03  0.00000000000E+00 0.  1.
         11    1    1    2    0    0 -0.98654548389E+00 -0.14859807161E+01 -0.12132867948E+03  0.12134178948E+03  0.00000000000E+00 0. -1.
        -15    1    1    2    0    0 -0.16412674391E+01  0.10326022516E+01 -0.15516173111E+02  0.15737515154E+02  0.17770000000E+01 0.  1.
         15    1    1    2    0    0 -0.10564334013E+01  0.34467258100E+00 -0.45495171882E+02  0.45543421526E+02  0.17770000000E+01 0. -1.
</event>
<event>
 6    1  0.1045352E-002  0.1879522E+03  0.7546771E-02  0.1064196E+00
        -11   -1    0    0    0    0  0.00000000000E+00  0.00000000000E+00  0.18250000000E+03  0.18250000000E+03  0.00000000000E+00 0.  1.
         11   -1    0    0    0    0 -0.00000000000E+00 -0.00000000000E+00 -0.18250000000E+03  0.18250000000E+03  0.00000000000E+00 0. -1.
        -11    1    1    2    0    0  0.19389770786E+00 -0.42227027183E+01  0.13645571924E+03  0.13652117831E+03  0.00000000000E+00 0.  1.
         11    1    1    2    0    0 -0.14118016095E+01 -0.37253788812E+01 -0.17700292806E+03  0.17704775676E+03  0.00000000000E+00 0. -1.
        -15    1    1    2    0    0 -0.40632084030E+01  0.13300665091E+02  0.41350674339E+02  0.43662951706E+02  0.17770000000E+01 0.  1.
         15    1    1    2    0    0  0.52811123046E+01 -0.53525834910E+01 -0.80346551506E+00  0.77681132224E+01  0.17770000000E+01 0. -1.
</event>
<event>
 6    1  0.1045352E-002  0.1829185E+03  0.7546771E-02  0.1068122E+00
        -11   -1    0    0    0    0  0.00000000000E+00  0.00000000000E+00  0.18250000000E+03  0.18250000000E+03  0.00000000000E+00 0.  1.
         11   -1    0    0    0    0 -0.00000000000E+00 -0.00000000000E+00 -0.18250000000E+03  0.18250000000E+03  0.00000000000E+00 0. -1.
        -11    1    1    2    0    0 -0.10562764097E+01 -0.36648901816E+00  0.42496902380E+02  0.42511607191E+02  0.00000000000E+00 0.  1.
         11    1    1    2    0    0  0.17087816941E+01 -0.62182803759E+01 -0.18196721614E+03  0.18208145071E+03  0.00000000000E+00 0. -1.
        -15    1    1    2    0    0 -0.18747483369E+01 -0.30088670078E+01  0.82426002501E+02  0.82521340144E+02  0.17770000000E+01 0.  1.
         15    1    1    2    0    0  0.12222430526E+01  0.95936364018E+01  0.57044311256E+02  0.57885601951E+02  0.17770000000E+01 0.  1.
</event>
<event>
 6    1  0.1045352E-002  0.1769523E+03  0.7546771E-02  0.1072959E+00
        -11   -1    0    0    0    0  0.00000000000E+00  0.00000000000E+00  0.18250000000E+03  0.18250000000E+03  0.00000000000E+00 0.  1.
         11   -1    0    0    0    0 -0.00000000000E+00 -0.00000000000E+00 -0.18250000000E+03  0.18250000000E+03  0.00000000000E+00 0. -1.
        -11    1    1    2    0    0  0.24002520479E+01 -0.50155811365E+01  0.17627395239E+03  0.17636162722E+03  0.00000000000E+00 0.  1.
         11    1    1    2    0    0  0.15918742113E+01  0.42813253184E+01 -0.17750957118E+03  0.17756832959E+03  0.00000000000E+00 0. -1.
        -15    1    1    2    0    0 -0.18792225979E+01  0.48107717625E+01 -0.11769346561E+01  0.55872986951E+01  0.17770000000E+01 0.  1.
         15    1    1    2    0    0 -0.21129036613E+01 -0.40765159444E+01  0.24125534533E+01  0.54827445036E+01  0.17770000000E+01 0. -1.
</event>
<event>
 6    1  0.1045352E-002  0.1758030E+03  0.7546771E-02  0.1073914E+00
        -11   -1    0    0    0    0  0.00000000000E+00  0.00000000000E+00  0.18250000000E+03  0.18250000000E+03  0.00000000000E+00 0. -1.
         11   -1    0    0    0    0 -0.00000000000E+00 -0.00000000000E+00 -0.18250000000E+03  0.18250000000E+03  0.00000000000E+00 0.  1.
        -11    1    1    2    0    0 -0.75358628402E+00 -0.61981175457E+01  0.17616152668E+03  0.17627214197E+03  0.00000000000E+00 0. -1.
         11    1    1    2    0    0 -0.31931254265E+01  0.17883181621E+01 -0.17534646494E+03  0.17538465412E+03  0.00000000000E+00 0.  1.
        -15    1    1    2    0    0 -0.96195936125E+00  0.57563796411E+01 -0.37934054138E+01  0.71839352738E+01  0.17770000000E+01 0.  1.
         15    1    1    2    0    0  0.49086710718E+01 -0.13465802575E+01  0.29783436784E+01  0.61592686374E+01  0.17770000000E+01 0. -1.
</event>
<event>
 6    1  0.1045352E-002  0.1884607E+03  0.7546771E-02  0.1063807E+00
        -11   -1    0    0    0    0  0.00000000000E+00  0.00000000000E+00  0.18250000000E+03  0.18250000000E+03  0.00000000000E+00 0.  1.
         11   -1    0    0    0    0 -0.00000000000E+00 -0.00000000000E+00 -0.18250000000E+03  0.18250000000E+03  0.00000000000E+00 0. -1.
        -11    1    1    2    0    0  0.28199555798E+01  0.23491225417E+01  0.17650110612E+03  0.17653926188E+03  0.00000000000E+00 0.  1.
         11    1    1    2    0    0  0.15457432064E+01  0.32143336015E+01 -0.16549219047E+03  0.16553062064E+03  0.00000000000E+00 0. -1.
        -15    1    1    2    0    0 -0.23742446423E+01 -0.64679483085E+01 -0.15824461856E+02  0.17350582555E+02  0.17770000000E+01 0.  1.
         15    1    1    2    0    0 -0.19914541438E+01  0.90449216527E+00  0.48155462087E+01  0.55795349243E+01  0.17770000000E+01 0. -1.
</event>
<event>
 6    1  0.1045352E-002  0.1990351E+03  0.7546771E-02  0.1056005E+00
        -11   -1    0    0    0    0  0.00000000000E+00  0.00000000000E+00  0.18250000000E+03  0.18250000000E+03  0.00000000000E+00 0. -1.
         11   -1    0    0    0    0 -0.00000000000E+00 -0.00000000000E+00 -0.18250000000E+03  0.18250000000E+03  0.00000000000E+00 0.  1.
        -11    1    1    2    0    0  0.57570757369E+01  0.66012337099E+01  0.16573358846E+03  0.16596488349E+03  0.00000000000E+00 0. -1.
         11    1    1    2    0    0 -0.96747281975E+01 -0.45520534944E+01 -0.16275311162E+03  0.16310394507E+03  0.00000000000E+00 0.  1.
        -15    1    1    2    0    0 -0.11635053200E+02  0.27177236464E+01  0.94865702949E+01  0.15359467105E+02  0.17770000000E+01 0.  1.
         15    1    1    2    0    0  0.15552705661E+02 -0.47669038619E+01 -0.12467047136E+02  0.20571704331E+02  0.17770000000E+01 0.  1.
</event>
<event>
 6    1  0.1045352E-002  0.1844828E+03  0.7546771E-02  0.1066887E+00
        -11   -1    0    0    0    0  0.00000000000E+00  0.00000000000E+00  0.18250000000E+03  0.18250000000E+03  0.00000000000E+00 0.  1.
         11   -1    0    0    0    0 -0.00000000000E+00 -0.00000000000E+00 -0.18250000000E+03  0.18250000000E+03  0.00000000000E+00 0.  1.
        -11    1    1    2    0    0 -0.24663097512E+01 -0.81827805252E+00  0.18049849443E+03  0.18051719795E+03  0.00000000000E+00 0.  1.
         11    1    1    2    0    0 -0.52191790404E+01 -0.32342825322E+00 -0.16651360423E+03  0.16659569271E+03  0.00000000000E+00 0.  1.
        -15    1    1    2    0    0  0.35451447618E+00  0.28818941600E+01 -0.45577165879E+01  0.56887172508E+01  0.17770000000E+01 0.  1.
         15    1    1    2    0    0  0.73309743155E+01 -0.17401878543E+01 -0.94271736128E+01  0.12198392087E+02  0.17770000000E+01 0. -1.
</event>
<event>
 6    1  0.1045352E-002  0.1829407E+03  0.7546771E-02  0.1068105E+00
        -11   -1    0    0    0    0  0.00000000000E+00  0.00000000000E+00  0.18250000000E+03  0.18250000000E+03  0.00000000000E+00 0.  1.
         11   -1    0    0    0    0 -0.00000000000E+00 -0.00000000000E+00 -0.18250000000E+03  0.18250000000E+03  0.00000000000E+00 0. -1.
        -11    1    1    2    0    0  0.31498696073E+01 -0.11073744976E+01  0.47240777948E+02  0.47358621791E+02  0.00000000000E+00 0.  1.
         11    1    1    2    0    0  0.15190953378E+01  0.22059686714E+01 -0.18203958962E+03  0.18205929292E+03  0.00000000000E+00 0. -1.
        -15    1    1    2    0    0  0.11544503770E+01 -0.11503411542E+01  0.11069131444E+03  0.11071757250E+03  0.17770000000E+01 0.  1.
         15    1    1    2    0    0 -0.58234153221E+01  0.51746980417E-01  0.24107497240E+02  0.24864512783E+02  0.17770000000E+01 0. -1.
</event>
<event>
 6    1  0.1045352E-002  0.1845185E+03  0.7546771E-02  0.1066859E+00
        -11   -1    0    0    0    0  0.00000000000E+00  0.00000000000E+00  0.18250000000E+03  0.18250000000E+03  0.00000000000E+00 0. -1.
         11   -1    0    0    0    0 -0.00000000000E+00 -0.00000000000E+00 -0.18250000000E+03  0.18250000000E+03  0.00000000000E+00 0.  1.
        -11    1    1    2    0    0  0.35908539759E+01 -0.25580209864E+01  0.16747710601E+03  0.16753512689E+03  0.00000000000E+00 0. -1.
         11    1    1    2    0    0  0.13748281763E+01  0.80532495702E+01 -0.18029648812E+03  0.18048149105E+03  0.00000000000E+00 0.  1.
        -15    1    1    2    0    0 -0.52054009846E+01 -0.18286689408E+00  0.57302047339E+01  0.79449741978E+01  0.17770000000E+01 0.  1.
         15    1    1    2    0    0  0.23971883245E+00 -0.53123616897E+01  0.70891773766E+01  0.90384078641E+01  0.17770000000E+01 0. -1.
</event>
<event>
 6    1  0.1114141E-002  0.1746716E+03  0.7546771E-02  0.1074863E+00
        -11   -1    0    0    0    0  0.00000000000E+00  0.00000000000E+00  0.18250000000E+03  0.18250000000E+03  0.00000000000E+00 0. -1.
         11   -1    0    0    0    0 -0.00000000000E+00 -0.00000000000E+00 -0.18250000000E+03  0.18250000000E+03  0.00000000000E+00 0. -1.
        -11    1    1    2    0    0  0.22747431270E+01 -0.82724089609E+00  0.17459231641E+03  0.17460909407E+03  0.00000000000E+00 0. -1.
         11    1    1    2    0    0 -0.13524706631E+01  0.72226025351E+01 -0.17463926421E+03  0.17479378641E+03  0.00000000000E+00 0. -1.
        -15    1    1    2    0    0  0.39755806531E+00  0.76817312244E+00  0.58122557855E+01  0.61390706689E+01  0.17770000000E+01 0. -1.
         15    1    1    2    0    0 -0.13198305292E+01 -0.71635347615E+01 -0.57653079807E+01  0.94580488483E+01  0.17770000000E+01 0.  1.
</event>
<event>
 6    1  0.1045352E-002  0.1826765E+03  0.7546771E-02  0.1068314E+00
        -11   -1    0    0    0    0  0.00000000000E+00  0.00000000000E+00  0.18250000000E+03  0.18250000000E+03  0.00000000000E+00 0. -1.
         11   -1    0    0    0    0 -0.00000000000E+00 -0.00000000000E+00 -0.18250000000E+03  0.18250000000E+03  0.00000000000E+00 0.  1.
        -11    1    1    2    0    0 -0.16791691613E+01  0.42396402418E+01  0.18226650843E+03  0.18232354278E+03  0.00000000000E+00 0. -1.
         11    1    1    2    0    0 -0.66701396096E+00  0.15507528203E+00 -0.63365406650E+01  0.63734373431E+01  0.00000000000E+00 0.  1.
        -15    1    1    2    0    0  0.90094909235E-01 -0.26797720375E+01 -0.15967800651E+03  0.15971040288E+03  0.17770000000E+01 0.  1.
         15    1    1    2    0    0  0.22560882130E+01 -0.17149434862E+01 -0.16251961252E+02  0.16592616995E+02  0.17770000000E+01 0. -1.
</event>
<event>
 6    1  0.1045352E-002  0.1841114E+03  0.7546771E-02  0.1067179E+00
        -11   -1    0    0    0    0  0.00000000000E+00  0.00000000000E+00  0.18250000000E+03  0.18250000000E+03  0.00000000000E+00 0.  1.
         11   -1    0    0    0    0 -0.00000000000E+00 -0.00000000000E+00 -0.18250000000E+03  0.18250000000E+03  0.00000000000E+00 0.  1.
        -11    1    1    2    0    0 -0.41437043520E+01  0.90166344675E+00  0.18083888778E+03  0.18088860278E+03  0.00000000000E+00 0.  1.
         11    1    1    2    0    0  0.33302398104E+01  0.70965290987E+00 -0.17349066141E+03  0.17352407239E+03  0.00000000000E+00 0.  1.
        -15    1    1    2    0    0  0.29103089847E+01 -0.28404117074E+01 -0.32441665104E+01  0.54972886409E+01  0.17770000000E+01 0.  1.
         15    1    1    2    0    0 -0.20968444431E+01  0.12290953508E+01 -0.41040598618E+01  0.50900361835E+01  0.17770000000E+01 0. -1.
</event>
<event>
 6    1  0.1045352E-002  0.1972120E+03  0.7546771E-02  0.1057312E+00
        -11   -1    0    0    0    0  0.00000000000E+00  0.00000000000E+00  0.18250000000E+03  0.18250000000E+03  0.00000000000E+00 0. -1.
         11   -1    0    0    0    0 -0.00000000000E+00 -0.00000000000E+00 -0.18250000000E+03  0.18250000000E+03  0.00000000000E+00 0.  1.
        -11    1    1    2    0    0  0.97481077604E+00 -0.21096784782E+01  0.16777190340E+03  0.16778799889E+03  0.00000000000E+00 0. -1.
         11    1    1    2    0    0  0.17898859000E+01 -0.24337795094E+01 -0.16389714829E+03  0.16392498953E+03  0.00000000000E+00 0.  1.
        -15    1    1    2    0    0  0.10361418928E+01  0.13728637699E+01  0.14225179452E+02  0.14438552711E+02  0.17770000000E+01 0. -1.
         15    1    1    2    0    0 -0.38008385688E+01  0.31705942178E+01 -0.18099934566E+02  0.18848458871E+02  0.17770000000E+01 0. -1.
</event>
<event>
 6    1  0.1045352E-002  0.1826821E+03  0.7546771E-02  0.1068310E+00
        -11   -1    0    0    0    0  0.00000000000E+00  0.00000000000E+00  0.18250000000E+03  0.18250000000E+03  0.00000000000E+00 0. -1.
         11   -1    0    0    0    0 -0.00000000000E+00 -0.00000000000E+00 -0.18250000000E+03  0.18250000000E+03  0.00000000000E+00 0. -1.
        -11    1    1    2    0    0 -0.33337957983E+01 -0.31195933703E+00  0.18228717640E+03  0.18231792615E+03  0.00000000000E+00 0. -1.
         11    1    1    2    0    0  0.34092428990E+00  0.60804891903E+00 -0.40442702975E+01  0.41039097332E+01  0.00000000000E+00 0. -1.
        -15    1    1    2    0    0 -0.60985459340E+00 -0.12140920981E+01 -0.15176889201E+03  0.15178537562E+03  0.17770000000E+01 0. -1.
         15    1    1    2    0    0  0.36027261018E+01  0.91800251608E+00 -0.26474014096E+02  0.26792788495E+02  0.17770000000E+01 0. -1.
</event>
<event>
 6    1  0.1045352E-002  0.1837815E+03  0.7546771E-02  0.1067439E+00
        -11   -1    0    0    0    0  0.00000000000E+00  0.00000000000E+00  0.18250000000E+03  0.18250000000E+03  0.00000000000E+00 0.  1.
         11   -1    0    0    0    0 -0.00000000000E+00 -0.00000000000E+00 -0.18250000000E+03  0.18250000000E+03  0.00000000000E+00 0. -1.
        -11    1    1    2    0    0  0.14217566437E+01 -0.15359562346E+01  0.13979085543E+03  0.13980652279E+03  0.00000000000E+00 0.  1.
         11    1    1    2    0    0  0.42573785620E+01 -0.90998248297E+00 -0.18116617559E+03  0.18121847731E+03  0.00000000000E+00 0. -1.
        -15    1    1    2    0    0 -0.17948289184E+01  0.61129499521E+01  0.93162674162E+01  0.11425416208E+02  0.17770000000E+01 0. -1.
         15    1    1    2    0    0 -0.38843062873E+01 -0.36670112346E+01  0.32059052742E+02  0.32549583691E+02  0.17770000000E+01 0.  1.
</event>
<event>
 6    1  0.1045352E-002  0.1877390E+03  0.7546771E-02  0.1064359E+00
        -11   -1    0    0    0    0  0.00000000000E+00  0.00000000000E+00  0.18250000000E+03  0.18250000000E+03  0.00000000000E+00 0.  1.
         11   -1    0    0    0    0 -0.00000000000E+00 -0.00000000000E+00 -0.18250000000E+03  0.18250000000E+03  0.00000000000E+00 0.  1.
        -11    1    1    2    0    0  0.86135056271E+00 -0.81121129164E+01  0.17707319516E+03  0.17726100741E+03  0.00000000000E+00 0.  1.
         11    1    1    2    0    0  0.18347223835E+01 -0.47882682071E+01 -0.15859566843E+03  0.15867854223E+03  0.00000000000E+00 0.  1.
        -15    1    1    2    0    0 -0.63866930269E+00  0.15706914779E+01 -0.17160022296E+02  0.17334908837E+02  0.17770000000E+01 0. -1.
         15    1    1    2    0    0 -0.20574036435E+01  0.11329689646E+02 -0.13175044368E+01  0.11725541529E+02  0.17770000000E+01 0.  1.
</event>
<event>
 6    1  0.1045352E-002  0.1834479E+03  0.7546771E-02  0.1067703E+00
        -11   -1    0    0    0    0  0.00000000000E+00  0.00000000000E+00  0.18250000000E+03  0.18250000000E+03  0.00000000000E+00 0. -1.
         11   -1    0    0    0    0 -0.00000000000E+00 -0.00000000000E+00 -0.18250000000E+03  0.18250000000E+03  0.00000000000E+00 0. -1.
        -11    1    1    2    0    0  0.18968372903E+01  0.46366844843E+01  0.18148300266E+03  0.18155213325E+03  0.00000000000E+00 0. -1.
         11    1    1    2    0    0  0.17517522390E+01  0.14728872468E+01 -0.11434280314E+03  0.11436570580E+03  0.00000000000E+00 0. -1.
        -15    1    1    2    0    0 -0.34896540001E+01  0.29175067962E+00 -0.55802473042E+02  0.55940473095E+02  0.17770000000E+01 0. -1.
         15    1    1    2    0    0 -0.15893552923E+00 -0.64013224108E+01 -0.11337726474E+02  0.13141687856E+02  0.17770000000E+01 0. -1.
</event>
<event>
 6    1  0.1045352E-002  0.1841307E+03  0.7546771E-02  0.1067164E+00
        -11   -1    0    0    0    0  0.00000000000E+00  0.00000000000E+00  0.18250000000E+03  0.18250000000E+03  0.00000000000E+00 0.  1.
         11   -1    0    0    0    0 -0.00000000000E+00 -0.00000000000E+00 -0.18250000000E+03  0.18250000000E+03  0.00000000000E+00 0. -1.
        -11    1    1    2    0    0 -0.40165065881E-01  0.32167177473E+01  0.18084065388E+03  0.18086926489E+03  0.00000000000E+00 0.  1.
         11    1    1    2    0    0  0.87123527389E+01 -0.41711190172E+01 -0.15304628866E+03  0.15335080631E+03  0.00000000000E+00 0. -1.
        -15    1    1    2    0    0 -0.72821423062E+00  0.38444283505E+01 -0.12455734654E+02  0.13176227839E+02  0.17770000000E+01 0. -1.
         15    1    1    2    0    0 -0.79439734424E+01 -0.28900270806E+01 -0.15338630568E+02  0.17603700954E+02  0.17770000000E+01 0.  1.
</event>
<event>
 6    1  0.1045352E-002  0.1832191E+03  0.7546771E-02  0.1067884E+00
        -11   -1    0    0    0    0  0.00000000000E+00  0.00000000000E+00  0.18250000000E+03  0.18250000000E+03  0.00000000000E+00 0.  1.
         11   -1    0    0    0    0 -0.00000000000E+00 -0.00000000000E+00 -0.18250000000E+03  0.18250000000E+03  0.00000000000E+00 0. -1.
        -11    1    1    2    0    0 -0.73826755390E+00  0.26872866981E+01  0.18175952741E+03  0.18178089106E+03  0.00000000000E+00 0.  1.
         11    1    1    2    0    0 -0.14968900727E+01 -0.12876523100E+01 -0.96097555737E+02  0.96117838860E+02  0.00000000000E+00 0. -1.
        -15    1    1    2    0    0  0.16200722836E+01 -0.48186679457E+01 -0.10164239928E+02  0.11502769114E+02  0.17770000000E+01 0. -1.
         15    1    1    2    0    0  0.61508534305E+00  0.34190335576E+01 -0.75497731748E+02  0.75598500967E+02  0.17770000000E+01 0.  1.
</event>
<event>
 6    1  0.1045352E-002  0.1894978E+03  0.7546771E-02  0.1063017E+00
        -11   -1    0    0    0    0  0.00000000000E+00  0.00000000000E+00  0.18250000000E+03  0.18250000000E+03  0.00000000000E+00 0. -1.
         11   -1    0    0    0    0 -0.00000000000E+00 -0.00000000000E+00 -0.18250000000E+03  0.18250000000E+03  0.00000000000E+00 0.  1.
        -11    1    1    2    0    0 -0.20690278689E+01  0.13310955500E+01  0.17548499106E+03  0.17550223582E+03  0.00000000000E+00 0. -1.
         11    1    1    2    0    0  0.17842129837E+01 -0.69911351255E+01 -0.16888929123E+03  0.16904334378E+03  0.00000000000E+00 0.  1.
        -15    1    1    2    0    0 -0.12093740236E+01  0.43737761038E+01 -0.12805321590E+02  0.13701331795E+02  0.17770000000E+01 0.  1.
         15    1    1    2    0    0  0.14941889089E+01  0.12862634718E+01  0.62096217622E+01  0.67530886003E+01  0.17770000000E+01 0.  1.
</event>
<event>
 6    1  0.1045352E-002  0.1829787E+03  0.7546771E-02  0.1068074E+00
        -11   -1    0    0    0    0  0.00000000000E+00  0.00000000000E+00  0.18250000000E+03  0.18250000000E+03  0.00000000000E+00 0. -1.
         11   -1    0    0    0    0 -0.00000000000E+00 -0.00000000000E+00 -0.18250000000E+03  0.18250000000E+03  0.00000000000E+00 0. -1.
        -11    1    1    2    0    0  0.28898138337E+01  0.22464858695E+01  0.16100611865E+03  0.16104771953E+03  0.00000000000E+00 0. -1.
         11    1    1    2    0    0 -0.35227153159E+01 -0.83368647021E+00 -0.18198526249E+03  0.18202126337E+03  0.00000000000E+00 0. -1.
        -15    1    1    2    0    0  0.19089280527E+01  0.12834144763E+01  0.88886071839E+01  0.93518033393E+01  0.17770000000E+01 0. -1.
         15    1    1    2    0    0 -0.12760265705E+01 -0.26962138757E+01  0.12090536658E+02  0.12579213757E+02  0.17770000000E+01 0.  1.
</event>
<event>
 6    1  0.1045352E-002  0.1869223E+03  0.7546771E-02  0.1064988E+00
        -11   -1    0    0    0    0  0.00000000000E+00  0.00000000000E+00  0.18250000000E+03  0.18250000000E+03  0.00000000000E+00 0. -1.
         11   -1    0    0    0    0 -0.00000000000E+00 -0.00000000000E+00 -0.18250000000E+03  0.18250000000E+03  0.00000000000E+00 0.  1.
        -11    1    1    2    0    0 -0.26829029970E+01  0.14262776808E+01  0.17805174005E+03  0.17807766388E+03  0.00000000000E+00 0. -1.
         11    1    1    2    0    0 -0.11011454831E+01 -0.21295100374E+01 -0.16314206485E+03  0.16315967841E+03  0.00000000000E+00 0.  1.
        -15    1    1    2    0    0  0.47468019687E+01  0.11096661333E+01 -0.18722529129E+02  0.19428183493E+02  0.17770000000E+01 0. -1.
         15    1    1    2    0    0 -0.96275348864E+00 -0.40643377682E+00  0.38128539278E+01  0.43344742207E+01  0.17770000000E+01 0.  1.
</event>
<event>
 6    1  0.1045352E-002  0.1835481E+03  0.7546771E-02  0.1067624E+00
        -11   -1    0    0    0    0  0.00000000000E+00  0.00000000000E+00  0.18250000000E+03  0.18250000000E+03  0.00000000000E+00 0. -1.
         11   -1    0    0    0    0 -0.00000000000E+00 -0.00000000000E+00 -0.18250000000E+03  0.18250000000E+03  0.00000000000E+00 0. -1.
        -11    1    1    2    0    0 -0.74519181598E+01  0.31707547954E+01  0.18127113030E+03  0.18145194254E+03  0.00000000000E+00 0. -1.
         11    1    1    2    0    0 -0.76262038333E+00 -0.48602998328E+01 -0.13370905073E+03  0.13379953046E+03  0.00000000000E+00 0. -1.
        -15    1    1    2    0    0  0.88502770909E+01  0.24793846067E+00 -0.18466875078E+02  0.20556558132E+02  0.17770000000E+01 0.  1.
         15    1    1    2    0    0 -0.63573854781E+00  0.14416065767E+01 -0.29095204495E+02  0.29191968872E+02  0.17770000000E+01 0.  1.
</event>
<event>
 6    1  0.1045352E-002  0.1844763E+03  0.7546771E-02  0.1066892E+00
        -11   -1    0    0    0    0  0.00000000000E+00  0.00000000000E+00  0.18250000000E+03  0.18250000000E+03  0.00000000000E+00 0. -1.
         11   -1    0    0    0    0 -0.00000000000E+00 -0.00000000000E+00 -0.18250000000E+03  0.18250000000E+03  0.00000000000E+00 0.  1.
        -11    1    1    2    0    0 -0.19607104933E+01 -0.41249896696E+01  0.18046589052E+03  0.18052367592E+03  0.00000000000E+00 0. -1.
         11    1    1    2    0    0 -0.52439163375E+01 -0.53109056908E+01 -0.15650365086E+03  0.15668151489E+03  0.00000000000E+00 0.  1.
        -15    1    1    2    0    0  0.78435878126E+00  0.10018780113E+01 -0.92382519119E+00  0.23727958680E+01  0.17770000000E+01 0. -1.
         15    1    1    2    0    0  0.64202680494E+01  0.84340173491E+01 -0.23038414478E+02  0.25422013318E+02  0.17770000000E+01 0.  1.
</event>
<event>
 6    1  0.1045352E-002  0.1840564E+03  0.7546771E-02  0.1067223E+00
        -11   -1    0    0    0    0  0.00000000000E+00  0.00000000000E+00  0.18250000000E+03  0.18250000000E+03  0.00000000000E+00 0. -1.
         11   -1    0    0    0    0 -0.00000000000E+00 -0.00000000000E+00 -0.18250000000E+03  0.18250000000E+03  0.00000000000E+00 0. -1.
        -11    1    1    2    0    0 -0.10825704955E+01  0.78094625004E+00  0.67981691287E+02  0.67994795287E+02  0.00000000000E+00 0. -1.
         11    1    1    2    0    0 -0.93677750717E+01 -0.11611318714E+02 -0.18032746466E+03  0.18094356148E+03  0.00000000000E+00 0. -1.
        -15    1    1    2    0    0  0.73714372315E+01  0.13337423255E+02  0.30894016168E+02  0.34493809733E+02  0.17770000000E+01 0.  1.
         15    1    1    2    0    0  0.30789083357E+01 -0.25070507915E+01  0.81451757206E+02  0.81567833495E+02  0.17770000000E+01 0. -1.
</event>
<event>
 6    1  0.1045352E-002  0.1873366E+03  0.7546771E-02  0.1064669E+00
        -11   -1    0    0    0    0  0.00000000000E+00  0.00000000000E+00  0.18250000000E+03  0.18250000000E+03  0.00000000000E+00 0.  1.
         11   -1    0    0    0    0 -0.00000000000E+00 -0.00000000000E+00 -0.18250000000E+03  0.18250000000E+03  0.00000000000E+00 0.  1.
        -11    1    1    2    0    0  0.25626596579E+01  0.87429851196E+00  0.17764274118E+03  0.17766337585E+03  0.00000000000E+00 0.  1.
         11    1    1    2    0    0 -0.24270415442E+01  0.11698349050E-02 -0.16150451859E+03  0.16152275399E+03  0.00000000000E+00 0.  1.
        -15    1    1    2    0    0  0.40864744252E+01 -0.10226647426E+01 -0.19564472492E+02  0.20091576078E+02  0.17770000000E+01 0.  1.
         15    1    1    2    0    0 -0.42220925388E+01  0.14719639570E+00  0.34262499008E+01  0.57222940826E+01  0.17770000000E+01 0.  1.
</event>
<event>
 6    1  0.1045352E-002  0.1829608E+03  0.7546771E-02  0.1068089E+00
        -11   -1    0    0    0    0  0.00000000000E+00  0.00000000000E+00  0.18250000000E+03  0.18250000000E+03  0.00000000000E+00 0.  1.
         11   -1    0    0    0    0 -0.00000000000E+00 -0.00000000000E+00 -0.18250000000E+03  0.18250000000E+03  0.00000000000E+00 0. -1.
        -11    1    1    2    0    0  0.18643601269E+01  0.25140324239E+01  0.18201228114E+03  0.18203918997E+03  0.00000000000E+00 0.  1.
         11    1    1    2    0    0  0.10557952583E+01  0.19893979809E+01 -0.62617621380E+02  0.62658111329E+02  0.00000000000E+00 0. -1.
        -15    1    1    2    0    0  0.69877353461E+00 -0.16120132818E+01 -0.10582505923E+03  0.10585455948E+03  0.17770000000E+01 0. -1.
         15    1    1    2    0    0 -0.36189289198E+01 -0.28914171229E+01 -0.13569600532E+02  0.14448139226E+02  0.17770000000E+01 0. -1.
</event>
<event>
 6    1  0.1045352E-002  0.1790503E+03  0.7546771E-02  0.1071234E+00
        -11   -1    0    0    0    0  0.00000000000E+00  0.00000000000E+00  0.18250000000E+03  0.18250000000E+03  0.00000000000E+00 0. -1.
         11   -1    0    0    0    0 -0.00000000000E+00 -0.00000000000E+00 -0.18250000000E+03  0.18250000000E+03  0.00000000000E+00 0.  1.
        -11    1    1    2    0    0 -0.94826668892E+00  0.26063054834E+01  0.17915247771E+03  0.17917394427E+03  0.00000000000E+00 0. -1.
         11    1    1    2    0    0  0.25974832848E+01  0.94828092983E+00 -0.17892672374E+03  0.17894808919E+03  0.00000000000E+00 0.  1.
        -15    1    1    2    0    0 -0.45717459683E+00 -0.39258178038E+01 -0.12017312869E+01  0.44969924535E+01  0.17770000000E+01 0.  1.
         15    1    1    2    0    0 -0.11920419990E+01  0.37123139064E+00  0.97597731630E+00  0.23809740853E+01  0.17770000000E+01 0. -1.
</event>
<event>
 6    1  0.1045352E-002  0.1845064E+03  0.7546771E-02  0.1066869E+00
        -11   -1    0    0    0    0  0.00000000000E+00  0.00000000000E+00  0.18250000000E+03  0.18250000000E+03  0.00000000000E+00 0. -1.
         11   -1    0    0    0    0 -0.00000000000E+00 -0.00000000000E+00 -0.18250000000E+03  0.18250000000E+03  0.00000000000E+00 0.  1.
        -11    1    1    2    0    0 -0.51204620069E+00  0.16243177373E+02  0.10005256410E+03  0.10136379327E+03  0.00000000000E+00 0. -1.
         11    1    1    2    0    0  0.76239600439E+01 -0.10501084204E+02 -0.18002648056E+03  0.18049357673E+03  0.00000000000E+00 0.  1.
        -15    1    1    2    0    0  0.25374606640E+01  0.18343067207E+01  0.56340411445E+02  0.56455319312E+02  0.17770000000E+01 0. -1.
         15    1    1    2    0    0 -0.96493745072E+01 -0.75763998896E+01  0.23633505013E+02  0.26687310690E+02  0.17770000000E+01 0.  1.
</event>
<event>
 6    1  0.1045352E-002  0.1938365E+03  0.7546771E-02  0.1059773E+00
        -11   -1    0    0    0    0  0.00000000000E+00  0.00000000000E+00  0.18250000000E+03  0.18250000000E+03  0.00000000000E+00 0. -1.
         11   -1    0    0    0    0 -0.00000000000E+00 -0.00000000000E+00 -0.18250000000E+03  0.18250000000E+03  0.00000000000E+00 0. -1.
        -11    1    1    2    0    0 -0.94110815769E+01  0.79511968912E+01  0.14647379616E+03  0.14699103017E+03  0.00000000000E+00 0. -1.
         11    1    1    2    0    0  0.54457373863E+01 -0.10163321241E+02 -0.17077465932E+03  0.17116346987E+03  0.00000000000E+00 0. -1.
        -15    1    1    2    0    0  0.18211738987E+01 -0.53483790209E+00 -0.11012941819E+02  0.11315712194E+02  0.17770000000E+01 0.  1.
         15    1    1    2    0    0  0.21441702919E+01  0.27469622520E+01  0.35313804975E+02  0.35529787765E+02  0.17770000000E+01 0. -1.
</event>
<event>
 6    1  0.1045352E-002  0.1924528E+03  0.7546771E-02  0.1060797E+00
        -11   -1    0    0    0    0  0.00000000000E+00  0.00000000000E+00  0.18250000000E+03  0.18250000000E+03  0.00000000000E+00 0.  1.
         11   -1    0    0    0    0 -0.00000000000E+00 -0.00000000000E+00 -0.18250000000E+03  0.18250000000E+03  0.00000000000E+00 0. -1.
        -11    1    1    2    0    0 -0.31281572026E+01  0.50666863424E+00  0.15125994443E+03  0.15129313556E+03  0.00000000000E+00 0.  1.
         11    1    1    2    0    0  0.31596755569E+01  0.38995359908E+00 -0.17251787198E+03  0.17254724503E+03  0.00000000000E+00 0. -1.
        -15    1    1    2    0    0 -0.27738397501E+01 -0.18639668345E+00  0.30837316093E+02  0.31013331383E+02  0.17770000000E+01 0.  1.
         15    1    1    2    0    0  0.27423213958E+01 -0.71022554987E+00 -0.95793885374E+01  0.10146288027E+02  0.17770000000E+01 0. -1.
</event>
<event>
 6    1  0.1045352E-002  0.1837857E+03  0.7546771E-02  0.1067436E+00
        -11   -1    0    0    0    0  0.00000000000E+00  0.00000000000E+00  0.18250000000E+03  0.18250000000E+03  0.00000000000E+00 0. -1.
         11   -1    0    0    0    0 -0.00000000000E+00 -0.00000000000E+00 -0.18250000000E+03  0.18250000000E+03  0.00000000000E+00 0.  1.
        -11    1    1    2    0    0  0.44533148159E+01  0.21014755491E+01  0.17383453399E+03  0.17390426510E+03  0.00000000000E+00 0. -1.
         11    1    1    2    0    0 -0.24951919234E+01 -0.51600118138E+00 -0.18119638138E+03  0.18121429542E+03  0.00000000000E+00 0.  1.
        -15    1    1    2    0    0  0.13443683066E+01 -0.77415389006E+00  0.12622826314E+01  0.26753928367E+01  0.17770000000E+01 0. -1.
         15    1    1    2    0    0 -0.33024911991E+01 -0.81132047768E+00  0.60995647575E+01  0.72060466463E+01  0.17770000000E+01 0.  1.
</event>
<event>
 6    1  0.1045352E-002  0.2067044E+03  0.7546771E-02  0.1050670E+00
        -11   -1    0    0    0    0  0.00000000000E+00  0.00000000000E+00  0.18250000000E+03  0.18250000000E+03  0.00000000000E+00 0. -1.
         11   -1    0    0    0    0 -0.00000000000E+00 -0.00000000000E+00 -0.18250000000E+03  0.18250000000E+03  0.00000000000E+00 0. -1.
        -11    1    1    2    0    0 -0.25361314082E+01 -0.11338474431E+00  0.15827527041E+03  0.15829562863E+03  0.00000000000E+00 0. -1.
         11    1    1    2    0    0  0.97450341416E+01  0.11471421172E+02 -0.55443617808E+02  0.57450447777E+02  0.00000000000E+00 0. -1.
        -15    1    1    2    0    0 -0.11888522908E+01  0.11275217080E+02 -0.11975562669E+03  0.12030424657E+03  0.17770000000E+01 0. -1.
         15    1    1    2    0    0 -0.60200504425E+01 -0.22633253508E+02  0.16923974090E+02  0.28949677022E+02  0.17770000000E+01 0.  1.
</event>
<event>
 6    1  0.1057280E-002  0.1826300E+03  0.7546771E-02  0.1068351E+00
        -11   -1    0    0    0    0  0.00000000000E+00  0.00000000000E+00  0.18250000000E+03  0.18250000000E+03  0.00000000000E+00 0. -1.
         11   -1    0    0    0    0 -0.00000000000E+00 -0.00000000000E+00 -0.18250000000E+03  0.18250000000E+03  0.00000000000E+00 0. -1.
        -11    1    1    2    0    0 -0.28939039102E+01 -0.20066376441E+01  0.18233599269E+03  0.18236999618E+03  0.00000000000E+00 0. -1.
         11    1    1    2    0    0 -0.11423382682E+01  0.36565247052E+00 -0.58569782655E+02  0.58582062772E+02  0.00000000000E+00 0. -1.
        -15    1    1    2    0    0  0.31436028312E+01  0.11891799751E+01 -0.11436143048E+03  0.11442460793E+03  0.17770000000E+01 0. -1.
         15    1    1    2    0    0  0.89263934717E+00  0.45180519850E+00 -0.94047795545E+01  0.96233331237E+01  0.17770000000E+01 0.  1.
</event>
<event>
 6    1  0.1045352E-002  0.1828102E+03  0.7546771E-02  0.1068208E+00
        -11   -1    0    0    0    0  0.00000000000E+00  0.00000000000E+00  0.18250000000E+03  0.18250000000E+03  0.00000000000E+00 0.  1.
         11   -1    0    0    0    0 -0.00000000000E+00 -0.00000000000E+00 -0.18250000000E+03  0.18250000000E+03  0.00000000000E+00 0.  1.
        -11    1    1    2    0    0 -0.18549908933E+01 -0.12022414338E+01  0.14039950391E+03  0.14041690451E+03  0.00000000000E+00 0.  1.
         11    1    1    2    0    0 -0.18102498986E+01 -0.17146869375E+01 -0.18217274671E+03  0.18218980981E+03  0.00000000000E+00 0.  1.
        -15    1    1    2    0    0  0.10767614375E+01 -0.30326977899E+00  0.64092882152E+01  0.67444860573E+01  0.17770000000E+01 0. -1.
         15    1    1    2    0    0  0.25884793544E+01  0.32201981503E+01  0.35363954583E+02  0.35648799619E+02  0.17770000000E+01 0. -1.
</event>
<event>
 6    1  0.1045352E-002  0.1852938E+03  0.7546771E-02  0.1066252E+00
        -11   -1    0    0    0    0  0.00000000000E+00  0.00000000000E+00  0.18250000000E+03  0.18250000000E+03  0.00000000000E+00 0. -1.
         11   -1    0    0    0    0 -0.00000000000E+00 -0.00000000000E+00 -0.18250000000E+03  0.18250000000E+03  0.00000000000E+00 0. -1.
        -11    1    1    2    0    0  0.68559283488E+01 -0.67416295244E+00  0.17957413471E+03  0.17970622723E+03  0.00000000000E+00 0. -1.
         11    1    1    2    0    0 -0.12555364710E+01 -0.24434238742E+01 -0.16892460367E+03  0.16894693965E+03  0.00000000000E+00 0. -1.
        -15    1    1    2    0    0 -0.49841156703E+01  0.38374995480E+00 -0.11716086310E+02  0.12861301663E+02  0.17770000000E+01 0. -1.
         15    1    1    2    0    0 -0.61627620748E+00  0.27338368718E+01  0.10665552646E+01  0.34855314571E+01  0.17770000000E+01 0.  1.
</event>
<event>
 6    1  0.1045352E-002  0.1775012E+03  0.7546771E-02  0.1072505E+00
        -11   -1    0    0    0    0  0.00000000000E+00  0.00000000000E+00  0.18250000000E+03  0.18250000000E+03  0.00000000000E+00 0. -1.
         11   -1    0    0    0    0 -0.00000000000E+00 -0.00000000000E+00 -0.18250000000E+03  0.18250000000E+03  0.00000000000E+00 0.  1.
        -11    1    1    2    0    0  0.30586341622E+01  0.13341404131E+01  0.17904287535E+03  0.17907396904E+03  0.00000000000E+00 0. -1.
         11    1    1    2    0    0  0.32566211218E+01  0.13678476052E+00 -0.17597073397E+03  0.17600091905E+03  0.00000000000E+00 0.  1.
        -15    1    1    2    0    0 -0.58087022114E+01 -0.10897123846E+01  0.17024317680E+00  0.61737513880E+01  0.17770000000E+01 0. -1.
         15    1    1    2    0    0 -0.50655307255E+00 -0.38121278900E+00 -0.32423845551E+01  0.37513605278E+01  0.17770000000E+01 0.  1.
</event>
<event>
 6    1  0.1045352E-002  0.1842351E+03  0.7546771E-02  0.1067082E+00
        -11   -1    0    0    0    0  0.00000000000E+00  0.00000000000E+00  0.18250000000E+03  0.18250000000E+03  0.00000000000E+00 0.  1.
         11   -1    0    0    0    0 -0.00000000000E+00 -0.00000000000E+00 -0.18250000000E+03  0.18250000000E+03  0.00000000000E+00 0. -1.
        -11    1    1    2    0    0  0.34532197783E+01  0.53238915751E+00  0.16564529126E+03  0.16568213749E+03  0.00000000000E+00 0.  1.
         11    1    1    2    0    0  0.53242174160E+01 -0.84304011647E+00 -0.18068452551E+03  0.18076491852E+03  0.00000000000E+00 0. -1.
        -15    1    1    2    0    0 -0.79985101262E+01 -0.11070046812E+01  0.10040039104E+02  0.13006219198E+02  0.17770000000E+01 0.  1.
         15    1    1    2    0    0 -0.77892706806E+00  0.14176556402E+01  0.49991951449E+01  0.55467247983E+01  0.17770000000E+01 0. -1.
</event>
<event>
 6    1  0.1045352E-002  0.1717290E+03  0.7546771E-02  0.1077367E+00
        -11   -1    0    0    0    0  0.00000000000E+00  0.00000000000E+00  0.18250000000E+03  0.18250000000E+03  0.00000000000E+00 0. -1.
         11   -1    0    0    0    0 -0.00000000000E+00 -0.00000000000E+00 -0.18250000000E+03  0.18250000000E+03  0.00000000000E+00 0. -1.
        -11    1    1    2    0    0  0.34882386791E+01 -0.41301837855E+01  0.17254159182E+03  0.17262626433E+03  0.00000000000E+00 0. -1.
         11    1    1    2    0    0 -0.24725209104E+01 -0.34652738205E+01 -0.17086817450E+03  0.17092119394E+03  0.00000000000E+00 0. -1.
        -15    1    1    2    0    0  0.24252005959E+01  0.11787136187E+02 -0.66649778767E+01  0.13870754720E+02  0.17770000000E+01 0.  1.
         15    1    1    2    0    0 -0.34409183646E+01 -0.41916785806E+01  0.49915605494E+01  0.75817870079E+01  0.17770000000E+01 0. -1.
</event>
<event>
 6    1  0.1045352E-002  0.1830592E+03  0.7546771E-02  0.1068011E+00
        -11   -1    0    0    0    0  0.00000000000E+00  0.00000000000E+00  0.18250000000E+03  0.18250000000E+03  0.00000000000E+00 0. -1.
         11   -1    0    0    0    0 -0.00000000000E+00 -0.00000000000E+00 -0.18250000000E+03  0.18250000000E+03  0.00000000000E+00 0. -1.
        -11    1    1    2    0    0  0.12971772225E+01  0.13336197109E+01  0.80582255244E+02  0.80603728639E+02  0.00000000000E+00 0. -1.
         11    1    1    2    0    0  0.20877456908E+01  0.23338716195E+01 -0.18191383184E+03  0.18194078117E+03  0.00000000000E+00 0. -1.
        -15    1    1    2    0    0  0.90901831116E+00 -0.14099900313E+01  0.25250042403E+01  0.35139381884E+01  0.17770000000E+01 0.  1.
         15    1    1    2    0    0 -0.42939412245E+01 -0.22575012991E+01  0.98806572353E+02  0.98941552002E+02  0.17770000000E+01 0. -1.
</event>
<event>
 6    1  0.1045352E-002  0.1837187E+03  0.7546771E-02  0.1067489E+00
        -11   -1    0    0    0    0  0.00000000000E+00  0.00000000000E+00  0.18250000000E+03  0.18250000000E+03  0.00000000000E+00 0. -1.
         11   -1    0    0    0    0 -0.00000000000E+00 -0.00000000000E+00 -0.18250000000E+03  0.18250000000E+03  0.00000000000E+00 0. -1.
        -11    1    1    2    0    0 -0.54050561324E+01 -0.18169548587E+01  0.18119155269E+03  0.18128125861E+03  0.00000000000E+00 0. -1.
         11    1    1    2    0    0  0.65128237247E+00 -0.20100988303E+01 -0.15660963896E+03  0.15662389243E+03  0.00000000000E+00 0. -1.
        -15    1    1    2    0    0  0.47170016377E+01 -0.17952180616E+01 -0.95336792563E+01  0.10932597198E+02  0.17770000000E+01 0.  1.
         15    1    1    2    0    0  0.36772122178E-01  0.56222717505E+01 -0.15048234478E+02  0.16162251753E+02  0.17770000000E+01 0. -1.
</event>
<event>
 6    1  0.1045352E-002  0.1827916E+03  0.7546771E-02  0.1068223E+00
        -11   -1    0    0    0    0  0.00000000000E+00  0.00000000000E+00  0.18250000000E+03  0.18250000000E+03  0.00000000000E+00 0. -1.
         11   -1    0    0    0    0 -0.00000000000E+00 -0.00000000000E+00 -0.18250000000E+03  0.18250000000E+03  0.00000000000E+00 0. -1.
        -11    1    1    2    0    0 -0.25273114963E+01  0.20910611329E+01  0.11654965178E+03  0.11659580254E+03  0.00000000000E+00 0. -1.
         11    1    1    2    0    0  0.25326245866E+01  0.38401747349E+01 -0.18215030213E+03  0.18220837987E+03  0.00000000000E+00 0. -1.
        -15    1    1    2    0    0 -0.24025914523E+01 -0.23805246807E+01  0.20140811495E+02  0.20499984393E+02  0.17770000000E+01 0. -1.
         15    1    1    2    0    0  0.23972783620E+01 -0.35507111871E+01  0.45459838852E+02  0.45695833190E+02  0.17770000000E+01 0.  1.
</event>
<event>
 6    1  0.1045352E-002  0.1873701E+03  0.7546771E-02  0.1064643E+00
        -11   -1    0    0    0    0  0.00000000000E+00  0.00000000000E+00  0.18250000000E+03  0.18250000000E+03  0.00000000000E+00 0.  1.
         11   -1    0    0    0    0 -0.00000000000E+00 -0.00000000000E+00 -0.18250000000E+03  0.18250000000E+03  0.00000000000E+00 0.  1.
        -11    1    1    2    0    0  0.17730589394E+01 -0.24091631955E+01  0.17760471715E+03  0.17762990559E+03  0.00000000000E+00 0.  1.
         11    1    1    2    0    0 -0.28609369127E+01  0.66446700556E+00 -0.17344206698E+03  0.17346693366E+03  0.00000000000E+00 0.  1.
        -15    1    1    2    0    0  0.52725790818E+01  0.32932803976E+01 -0.59420010375E+01  0.87812807313E+01  0.17770000000E+01 0.  1.
         15    1    1    2    0    0 -0.41847011086E+01 -0.15485842076E+01  0.17793508678E+01  0.51218800188E+01  0.17770000000E+01 0.  1.
</event>
<event>
 6    1  0.1045352E-002  0.1834546E+03  0.7546771E-02  0.1067697E+00
        -11   -1    0    0    0    0  0.00000000000E+00  0.00000000000E+00  0.18250000000E+03  0.18250000000E+03  0.00000000000E+00 0. -1.
         11   -1    0    0    0    0 -0.00000000000E+00 -0.00000000000E+00 -0.18250000000E+03  0.18250000000E+03  0.00000000000E+00 0. -1.
        -11    1    1    2    0    0 -0.25947765511E+01  0.28812287901E+00  0.18152664934E+03  0.18154542214E+03  0.00000000000E+00 0. -1.
         11    1    1    2    0    0  0.24683471238E+01 -0.39789059672E+00 -0.14007661283E+03  0.14009892403E+03  0.00000000000E+00 0. -1.
        -15    1    1    2    0    0  0.86685240585E-01 -0.34051424473E+01 -0.37771106960E+02  0.37965994777E+02  0.17770000000E+01 0.  1.
         15    1    1    2    0    0  0.39744186788E-01  0.35149101650E+01 -0.36789295503E+01  0.53896590527E+01  0.17770000000E+01 0. -1.
</event>
<event>
 6    1  0.1045352E-002  0.1826080E+03  0.7546771E-02  0.1068369E+00
        -11   -1    0    0    0    0  0.00000000000E+00  0.00000000000E+00  0.18250000000E+03  0.18250000000E+03  0.00000000000E+00 0. -1.
         11   -1    0    0    0    0 -0.00000000000E+00 -0.00000000000E+00 -0.18250000000E+03  0.18250000000E+03  0.00000000000E+00 0. -1.
        -11    1    1    2    0    0 -0.78389241433E+00  0.34478845361E+00  0.47300253710E+02  0.47308005321E+02  0.00000000000E+00 0. -1.
         11    1    1    2    0    0  0.18174321164E+01 -0.29330788844E+01 -0.18235935181E+03  0.18239199326E+03  0.00000000000E+00 0. -1.
        -15    1    1    2    0    0  0.78146014262E+00 -0.18817008704E+01  0.32562994585E+02  0.32675033641E+02  0.17770000000E+01 0. -1.
         15    1    1    2    0    0 -0.18149998447E+01  0.44699913012E+01  0.10249610352E+03  0.10262496778E+03  0.17770000000E+01 0. -1.
</event>
<event>
 6    1  0.1045352E-002  0.2029638E+03  0.7546771E-02  0.1053240E+00
        -11   -1    0    0    0    0  0.00000000000E+00  0.00000000000E+00  0.18250000000E+03  0.18250000000E+03  0.00000000000E+00 0.  1.
         11   -1    0    0    0    0 -0.00000000000E+00 -0.00000000000E+00 -0.18250000000E+03  0.18250000000E+03  0.00000000000E+00 0.  1.
        -11    1    1    2    0    0 -0.10668126281E+01  0.42178414267E+01  0.11218318265E+03  0.11226751420E+03  0.00000000000E+00 0.  1.
         11    1    1    2    0    0 -0.29748640194E+02  0.60013736367E+01 -0.15916885871E+03  0.16203618010E+03  0.00000000000E+00 0.  1.
        -15    1    1    2    0    0  0.37388394857E+01 -0.40536756015E+01  0.59786548049E+02  0.60066631862E+02  0.17770000000E+01 0. -1.
         15    1    1    2    0    0  0.27076613336E+02 -0.61655394618E+01 -0.12800871992E+02  0.30629673837E+02  0.17770000000E+01 0.  1.
</event>
<event>
 6    1  0.1045352E-002  0.1860751E+03  0.7546771E-02  0.1065644E+00
        -11   -1    0    0    0    0  0.00000000000E+00  0.00000000000E+00  0.18250000000E+03  0.18250000000E+03  0.00000000000E+00 0.  1.
         11   -1    0    0    0    0 -0.00000000000E+00 -0.00000000000E+00 -0.18250000000E+03  0.18250000000E+03  0.00000000000E+00 0. -1.
        -11    1    1    2    0    0 -0.17359503655E+01 -0.50900875801E+01  0.17884406754E+03  0.17892490886E+03  0.00000000000E+00 0.  1.
         11    1    1    2    0    0 -0.30459108381E+01  0.26427861138E+01 -0.17263955946E+03  0.17268665085E+03  0.00000000000E+00 0. -1.
        -15    1    1    2    0    0  0.40881065237E+01  0.26319673573E+01 -0.87713726605E+01  0.10185017156E+02  0.17770000000E+01 0. -1.
         15    1    1    2    0    0  0.69375467989E+00 -0.18466589095E+00  0.25668645797E+01  0.32034231406E+01  0.17770000000E+01 0.  1.
</event>
<event>
 6    1  0.1045352E-002  0.1715547E+03  0.7546771E-02  0.1077517E+00
        -11   -1    0    0    0    0  0.00000000000E+00  0.00000000000E+00  0.18250000000E+03  0.18250000000E+03  0.00000000000E+00 0. -1.
         11   -1    0    0    0    0 -0.00000000000E+00 -0.00000000000E+00 -0.18250000000E+03  0.18250000000E+03  0.00000000000E+00 0. -1.
        -11    1    1    2    0    0 -0.39018715928E+01  0.41671676589E+01  0.17223818106E+03  0.17233276213E+03  0.00000000000E+00 0. -1.
         11    1    1    2    0    0  0.10058067391E+00  0.51718018870E+01 -0.17084936146E+03  0.17092765125E+03  0.00000000000E+00 0. -1.
        -15    1    1    2    0    0 -0.11003253345E+01 -0.57172563792E+01  0.82166450457E+01  0.10225884859E+02  0.17770000000E+01 0. -1.
         15    1    1    2    0    0  0.49016162534E+01 -0.36217131667E+01 -0.96054646497E+01  0.11513701763E+02  0.17770000000E+01 0.  1.
</event>
<event>
 6    1  0.1045352E-002  0.1841409E+03  0.7546771E-02  0.1067156E+00
        -11   -1    0    0    0    0  0.00000000000E+00  0.00000000000E+00  0.18250000000E+03  0.18250000000E+03  0.00000000000E+00 0.  1.
         11   -1    0    0    0    0 -0.00000000000E+00 -0.00000000000E+00 -0.18250000000E+03  0.18250000000E+03  0.00000000000E+00 0. -1.
        -11    1    1    2    0    0 -0.37253533897E+01  0.67362232830E+00  0.17240913570E+03  0.17245069469E+03  0.00000000000E+00 0.  1.
         11    1    1    2    0    0  0.18354495101E+01  0.17460238352E+01 -0.18084131087E+03  0.18085905339E+03  0.00000000000E+00 0. -1.
        -15    1    1    2    0    0  0.19880884039E+01  0.28997864470E+00  0.27856604009E-01  0.26823661395E+01  0.17770000000E+01 0.  1.
         15    1    1    2    0    0 -0.98184524343E-01 -0.27096248082E+01  0.84043185626E+01  0.90078857843E+01  0.17770000000E+01 0. -1.
</event>
<event>
 6    1  0.1045352E-002  0.1843807E+03  0.7546771E-02  0.1066968E+00
        -11   -1    0    0    0    0  0.00000000000E+00  0.00000000000E+00  0.18250000000E+03  0.18250000000E+03  0.00000000000E+00 0. -1.
         11   -1    0    0    0    0 -0.00000000000E+00 -0.00000000000E+00 -0.18250000000E+03  0.18250000000E+03  0.00000000000E+00 0.  1.
        -11    1    1    2    0    0 -0.87966832934E+00  0.94111915543E+00  0.25366134727E+02  0.25398825025E+02  0.00000000000E+00 0. -1.
         11    1    1    2    0    0 -0.19438804685E+01  0.93047867049E+01 -0.18036897558E+03  0.18061928214E+03  0.00000000000E+00 0.  1.
        -15    1    1    2    0    0  0.14754528055E+01 -0.22395549939E+02  0.11197535702E+03  0.11421635578E+03  0.17770000000E+01 0. -1.
         15    1    1    2    0    0  0.13480959923E+01  0.12149644079E+02  0.43027483836E+02  0.44765537061E+02  0.17770000000E+01 0.  1.
</event>
<event>
 6    1  0.1045352E-002  0.1644857E+03  0.7546771E-02  0.1083773E+00
        -11   -1    0    0    0    0  0.00000000000E+00  0.00000000000E+00  0.18250000000E+03  0.18250000000E+03  0.00000000000E+00 0. -1.
         11   -1    0    0    0    0 -0.00000000000E+00 -0.00000000000E+00 -0.18250000000E+03  0.18250000000E+03  0.00000000000E+00 0.  1.
        -11    1    1    2    0    0 -0.35488464116E+01 -0.51993612992E+01  0.16646753932E+03  0.16658652201E+03  0.00000000000E+00 0. -1.
         11    1    1    2    0    0  0.13099076345E+02  0.13325743600E+02 -0.16158326701E+03  0.16266011626E+03  0.00000000000E+00 0.  1.
        -15    1    1    2    0    0 -0.12307374646E+02 -0.11749400792E+02 -0.16116701107E+02  0.23503737430E+02  0.17770000000E+01 0.  1.
         15    1    1    2    0    0  0.27571447118E+01  0.36230184908E+01  0.11232428793E+02  0.12249624302E+02  0.17770000000E+01 0. -1.
</event>
<event>
 6    1  0.1045352E-002  0.1841691E+03  0.7546771E-02  0.1067134E+00
        -11   -1    0    0    0    0  0.00000000000E+00  0.00000000000E+00  0.18250000000E+03  0.18250000000E+03  0.00000000000E+00 0. -1.
         11   -1    0    0    0    0 -0.00000000000E+00 -0.00000000000E+00 -0.18250000000E+03  0.18250000000E+03  0.00000000000E+00 0. -1.
        -11    1    1    2    0    0 -0.17438678996E+00  0.46864946683E+01  0.18077003815E+03  0.18083086113E+03  0.00000000000E+00 0. -1.
         11    1    1    2    0    0  0.61314769103E+01 -0.56922038767E+00 -0.13442333160E+03  0.13456430099E+03  0.00000000000E+00 0. -1.
        -15    1    1    2    0    0 -0.66398774081E+00 -0.49612877111E+01 -0.34402143660E+01  0.63283536055E+01  0.17770000000E+01 0.  1.
         15    1    1    2    0    0 -0.52931023795E+01  0.84401343046E+00 -0.42906492182E+02  0.43276484282E+02  0.17770000000E+01 0. -1.
</event>
<event>
 6    1  0.1045352E-002  0.1839089E+03  0.7546771E-02  0.1067339E+00
        -11   -1    0    0    0    0  0.00000000000E+00  0.00000000000E+00  0.18250000000E+03  0.18250000000E+03  0.00000000000E+00 0.  1.
         11   -1    0    0    0    0 -0.00000000000E+00 -0.00000000000E+00 -0.18250000000E+03  0.18250000000E+03  0.00000000000E+00 0.  1.
        -11    1    1    2    0    0  0.17945889097E+00 -0.12420680133E+02  0.18066453800E+03  0.18109108424E+03  0.00000000000E+00 0.  1.
         11    1    1    2    0    0 -0.15456918879E+01  0.49705420635E+00 -0.11940347937E+03  0.11941451801E+03  0.00000000000E+00 0.  1.
        -15    1    1    2    0    0  0.26132149962E+01  0.12936739643E+02 -0.26568301525E+02  0.29719025895E+02  0.17770000000E+01 0. -1.
         15    1    1    2    0    0 -0.12469819993E+01 -0.10131137163E+01 -0.34692757098E+02  0.34775371854E+02  0.17770000000E+01 0.  1.
</event>
<event>
 6    1  0.1045352E-002  0.1807782E+03  0.7546771E-02  0.1069834E+00
        -11   -1    0    0    0    0  0.00000000000E+00  0.00000000000E+00  0.18250000000E+03  0.18250000000E+03  0.00000000000E+00 0.  1.
         11   -1    0    0    0    0 -0.00000000000E+00 -0.00000000000E+00 -0.18250000000E+03  0.18250000000E+03  0.00000000000E+00 0.  1.
        -11    1    1    2    0    0  0.39072494970E+00 -0.33915018926E+00  0.34860382103E+01  0.35242234947E+01  0.00000000000E+00 0.  1.
         11    1    1    2    0    0  0.13357938476E+01 -0.27230298848E+01 -0.18240167543E+03  0.18242689066E+03  0.00000000000E+00 0.  1.
        -15    1    1    2    0    0 -0.31074910983E+01  0.76654831025E+00  0.86785734989E+02  0.86862912821E+02  0.17770000000E+01 0. -1.
         15    1    1    2    0    0  0.13809723010E+01  0.22956317638E+01  0.92129902226E+02  0.92185973027E+02  0.17770000000E+01 0.  1.
</event>
<event>
 6    1  0.1045352E-002  0.1875738E+03  0.7546771E-02  0.1064486E+00
        -11   -1    0    0    0    0  0.00000000000E+00  0.00000000000E+00  0.18250000000E+03  0.18250000000E+03  0.00000000000E+00 0.  1.
         11   -1    0    0    0    0 -0.00000000000E+00 -0.00000000000E+00 -0.18250000000E+03  0.18250000000E+03  0.00000000000E+00 0. -1.
        -11    1    1    2    0    0 -0.32627842419E+00 -0.33682361775E+01  0.15983171882E+03  0.15986753834E+03  0.00000000000E+00 0.  1.
         11    1    1    2    0    0  0.21768572092E+01 -0.37845550947E+01 -0.17737251004E+03  0.17742623505E+03  0.00000000000E+00 0. -1.
        -15    1    1    2    0    0 -0.81611836504E+00 -0.88377732803E+00 -0.40463072361E+01  0.45801138414E+01  0.17770000000E+01 0. -1.
         15    1    1    2    0    0 -0.10344604200E+01  0.80365686002E+01  0.21587098455E+02  0.23126112772E+02  0.17770000000E+01 0.  1.
</event>
<event>
 6    1  0.1045352E-002  0.1771811E+03  0.7546771E-02  0.1072769E+00
        -11   -1    0    0    0    0  0.00000000000E+00  0.00000000000E+00  0.18250000000E+03  0.18250000000E+03  0.00000000000E+00 0. -1.
         11   -1    0    0    0    0 -0.00000000000E+00 -0.00000000000E+00 -0.18250000000E+03  0.18250000000E+03  0.00000000000E+00 0.  1.
        -11    1    1    2    0    0  0.25705561469E+01 -0.14977323012E+01  0.17872871102E+03  0.17875347019E+03  0.00000000000E+00 0. -1.
         11    1    1    2    0    0  0.35168829244E+01  0.37714969429E+01 -0.17560631200E+03  0.17568201237E+03  0.00000000000E+00 0.  1.
        -15    1    1    2    0    0 -0.44628059898E+01  0.81465646571E-01  0.13269052590E+01  0.49841429073E+01  0.17770000000E+01 0.  1.
         15    1    1    2    0    0 -0.16246330815E+01 -0.23552302883E+01 -0.44493042818E+01  0.55803745352E+01  0.17770000000E+01 0. -1.
</event>
<event>
 6    1  0.1045352E-002  0.1833531E+03  0.7546771E-02  0.1067778E+00
        -11   -1    0    0    0    0  0.00000000000E+00  0.00000000000E+00  0.18250000000E+03  0.18250000000E+03  0.00000000000E+00 0. -1.
         11   -1    0    0    0    0 -0.00000000000E+00 -0.00000000000E+00 -0.18250000000E+03  0.18250000000E+03  0.00000000000E+00 0.  1.
        -11    1    1    2    0    0 -0.50531229620E+01  0.37636638835E+01  0.18153761762E+03  0.18164692628E+03  0.00000000000E+00 0. -1.
         11    1    1    2    0    0 -0.12089349471E+01  0.41184570409E+00 -0.77863739197E+02  0.77874212820E+02  0.00000000000E+00 0.  1.
        -15    1    1    2    0    0  0.75115638514E+01  0.23129404799E+01 -0.20542848728E+02  0.22066709044E+02  0.17770000000E+01 0.  1.
         15    1    1    2    0    0 -0.12495059422E+01 -0.64884500675E+01 -0.83131029695E+02  0.83412151851E+02  0.17770000000E+01 0. -1.
</event>
<event>
 6    1  0.1045352E-002  0.1838484E+03  0.7546771E-02  0.1067387E+00
        -11   -1    0    0    0    0  0.00000000000E+00  0.00000000000E+00  0.18250000000E+03  0.18250000000E+03  0.00000000000E+00 0.  1.
         11   -1    0    0    0    0 -0.00000000000E+00 -0.00000000000E+00 -0.18250000000E+03  0.18250000000E+03  0.00000000000E+00 0. -1.
        -11    1    1    2    0    0  0.24736707681E+01 -0.57263733365E+01  0.12799348069E+03  0.12814539202E+03  0.00000000000E+00 0.  1.
         11    1    1    2    0    0  0.19836165960E+01 -0.23429288806E+01 -0.18112558958E+03  0.18115160295E+03  0.00000000000E+00 0. -1.
        -15    1    1    2    0    0 -0.93168998880E+00 -0.31708109503E+01  0.59040837313E+01  0.69955716010E+01  0.17770000000E+01 0. -1.
         15    1    1    2    0    0 -0.35255973753E+01  0.11240113167E+02  0.47228025164E+02  0.48707433424E+02  0.17770000000E+01 0.  1.
</event>
<event>
 6    1  0.1045352E-002  0.1838082E+03  0.7546771E-02  0.1067418E+00
        -11   -1    0    0    0    0  0.00000000000E+00  0.00000000000E+00  0.18250000000E+03  0.18250000000E+03  0.00000000000E+00 0.  1.
         11   -1    0    0    0    0 -0.00000000000E+00 -0.00000000000E+00 -0.18250000000E+03  0.18250000000E+03  0.00000000000E+00 0.  1.
        -11    1    1    2    0    0  0.15465324981E+01 -0.25989896114E+01  0.18116652285E+03  0.18119176447E+03  0.00000000000E+00 0.  1.
         11    1    1    2    0    0  0.36500494181E+01  0.10648209813E+01 -0.13874316569E+03  0.13879525471E+03  0.00000000000E+00 0.  1.
        -15    1    1    2    0    0  0.16120929475E+01  0.38132166936E+01 -0.44732957092E+01  0.63488242003E+01  0.17770000000E+01 0. -1.
         15    1    1    2    0    0 -0.68086748637E+01 -0.22790480634E+01 -0.37950061454E+02  0.38664156616E+02  0.17770000000E+01 0.  1.
</event>
<event>
 6    1  0.1045352E-002  0.1920584E+03  0.7546771E-02  0.1061091E+00
        -11   -1    0    0    0    0  0.00000000000E+00  0.00000000000E+00  0.18250000000E+03  0.18250000000E+03  0.00000000000E+00 0. -1.
         11   -1    0    0    0    0 -0.00000000000E+00 -0.00000000000E+00 -0.18250000000E+03  0.18250000000E+03  0.00000000000E+00 0. -1.
        -11    1    1    2    0    0 -0.26066397250E+01  0.90747816845E-01  0.17292188446E+03  0.17294155351E+03  0.00000000000E+00 0. -1.
         11    1    1    2    0    0 -0.27553158660E+00  0.23152455229E+01 -0.48166391560E+02  0.48222790829E+02  0.00000000000E+00 0. -1.
        -15    1    1    2    0    0  0.60374965553E+01 -0.57476679504E+00 -0.13378605558E+03  0.13393523853E+03  0.17770000000E+01 0. -1.
         15    1    1    2    0    0 -0.31553252436E+01 -0.18312265447E+01  0.90305626854E+01  0.99004171359E+01  0.17770000000E+01 0.  1.
</event>
<event>
 6    1  0.1045352E-002  0.1981933E+03  0.7546771E-02  0.1056607E+00
        -11   -1    0    0    0    0  0.00000000000E+00  0.00000000000E+00  0.18250000000E+03  0.18250000000E+03  0.00000000000E+00 0. -1.
         11   -1    0    0    0    0 -0.00000000000E+00 -0.00000000000E+00 -0.18250000000E+03  0.18250000000E+03  0.00000000000E+00 0. -1.
        -11    1    1    2    0    0 -0.21255125428E+01 -0.17581437167E+01  0.16678384374E+03  0.16680665276E+03  0.00000000000E+00 0. -1.
         11    1    1    2    0    0 -0.98818648841E+01 -0.58218191426E+00 -0.13446824316E+03  0.13483211267E+03  0.00000000000E+00 0. -1.
        -15    1    1    2    0    0 -0.11071031452E+02  0.94728446242E+01  0.77081324362E+01  0.16579371440E+02  0.17770000000E+01 0.  1.
         15    1    1    2    0    0  0.23078408879E+02 -0.71325189933E+01 -0.40023733023E+02  0.46781863127E+02  0.17770000000E+01 0. -1.
</event>
<event>
 6    1  0.1045352E-002  0.1827997E+03  0.7546771E-02  0.1068216E+00
        -11   -1    0    0    0    0  0.00000000000E+00  0.00000000000E+00  0.18250000000E+03  0.18250000000E+03  0.00000000000E+00 0.  1.
         11   -1    0    0    0    0 -0.00000000000E+00 -0.00000000000E+00 -0.18250000000E+03  0.18250000000E+03  0.00000000000E+00 0. -1.
        -11    1    1    2    0    0 -0.11246468855E+01  0.20704831822E+01  0.97426788740E+02  0.97455276385E+02  0.00000000000E+00 0.  1.
         11    1    1    2    0    0  0.12803329507E+01 -0.53617578738E+01 -0.18211684291E+03  0.18220025294E+03  0.00000000000E+00 0. -1.
        -15    1    1    2    0    0  0.11190678922E+00  0.45688674888E+01  0.19166196859E+02  0.19783526084E+02  0.17770000000E+01 0.  1.
         15    1    1    2    0    0 -0.26759285448E+00 -0.12775927972E+01  0.65523857313E+02  0.65560944589E+02  0.17770000000E+01 0.  1.
</event>
<event>
 6    1  0.1045352E-002  0.1831107E+03  0.7546771E-02  0.1067970E+00
        -11   -1    0    0    0    0  0.00000000000E+00  0.00000000000E+00  0.18250000000E+03  0.18250000000E+03  0.00000000000E+00 0.  1.
         11   -1    0    0    0    0 -0.00000000000E+00 -0.00000000000E+00 -0.18250000000E+03  0.18250000000E+03  0.00000000000E+00 0. -1.
        -11    1    1    2    0    0 -0.47300906914E+01  0.42232736471E+01  0.14521104805E+03  0.14534943507E+03  0.00000000000E+00 0.  1.
         11    1    1    2    0    0 -0.14799059241E+01 -0.20170661437E+01 -0.18187209469E+03  0.18188930014E+03  0.00000000000E+00 0. -1.
        -15    1    1    2    0    0  0.12899416532E+01 -0.25400678927E+00  0.21346014946E+02  0.21460161975E+02  0.17770000000E+01 0.  1.
         15    1    1    2    0    0  0.49200549622E+01 -0.19522007142E+01  0.15315031691E+02  0.16301102820E+02  0.17770000000E+01 0. -1.
</event>
<event>
 6    1  0.1045352E-002  0.1833582E+03  0.7546771E-02  0.1067774E+00
        -11   -1    0    0    0    0  0.00000000000E+00  0.00000000000E+00  0.18250000000E+03  0.18250000000E+03  0.00000000000E+00 0. -1.
         11   -1    0    0    0    0 -0.00000000000E+00 -0.00000000000E+00 -0.18250000000E+03  0.18250000000E+03  0.00000000000E+00 0. -1.
        -11    1    1    2    0    0  0.10731808866E+00 -0.41326888028E+01  0.13586095070E+03  0.13592383367E+03  0.00000000000E+00 0. -1.
         11    1    1    2    0    0 -0.21473688881E+01 -0.16927533803E+01 -0.18162117418E+03  0.18164175598E+03  0.00000000000E+00 0. -1.
        -15    1    1    2    0    0  0.11498618590E+01  0.26586367918E+01  0.30665361920E+01  0.45773251034E+01  0.17770000000E+01 0. -1.
         15    1    1    2    0    0  0.89018894045E+00  0.31668053913E+01  0.42693687283E+02  0.42857085243E+02  0.17770000000E+01 0. -1.
</event>
<event>
 6    1  0.1045352E-002  0.1846929E+03  0.7546771E-02  0.1066723E+00
        -11   -1    0    0    0    0  0.00000000000E+00  0.00000000000E+00  0.18250000000E+03  0.18250000000E+03  0.00000000000E+00 0. -1.
         11   -1    0    0    0    0 -0.00000000000E+00 -0.00000000000E+00 -0.18250000000E+03  0.18250000000E+03  0.00000000000E+00 0. -1.
        -11    1    1    2    0    0 -0.73967274389E+01  0.18060143083E+01  0.11276178319E+03  0.11301855163E+03  0.00000000000E+00 0. -1.
         11    1    1    2    0    0 -0.28473065080E+01  0.10076170934E+02 -0.18000281466E+03  0.18030709820E+03  0.00000000000E+00 0. -1.
        -15    1    1    2    0    0  0.90593212076E+01  0.12069201909E+01  0.14050093235E+02  0.16854993504E+02  0.17770000000E+01 0.  1.
         15    1    1    2    0    0  0.11847127393E+01 -0.13089105433E+02  0.53190938241E+02  0.54819356666E+02  0.17770000000E+01 0. -1.
</event>
<event>
 6    1  0.1045352E-002  0.1850534E+03  0.7546771E-02  0.1066440E+00
        -11   -1    0    0    0    0  0.00000000000E+00  0.00000000000E+00  0.18250000000E+03  0.18250000000E+03  0.00000000000E+00 0. -1.
         11   -1    0    0    0    0 -0.00000000000E+00 -0.00000000000E+00 -0.18250000000E+03  0.18250000000E+03  0.00000000000E+00 0.  1.
        -11    1    1    2    0    0 -0.22452987534E+01 -0.29094769448E+01  0.17990906043E+03  0.17994659332E+03  0.00000000000E+00 0. -1.
         11    1    1    2    0    0 -0.37744030586E+01  0.11294693497E+01 -0.16148888289E+03  0.16153693422E+03  0.00000000000E+00 0.  1.
        -15    1    1    2    0    0  0.70174624157E+01  0.60467961483E+00 -0.19586846522E+02  0.20890493098E+02  0.17770000000E+01 0.  1.
         15    1    1    2    0    0 -0.99776060364E+00  0.11753279802E+01  0.11666689802E+01  0.26259793587E+01  0.17770000000E+01 0. -1.
</event>
<event>
 6    1  0.1045352E-002  0.1848478E+03  0.7546771E-02  0.1066601E+00
        -11   -1    0    0    0    0  0.00000000000E+00  0.00000000000E+00  0.18250000000E+03  0.18250000000E+03  0.00000000000E+00 0.  1.
         11   -1    0    0    0    0 -0.00000000000E+00 -0.00000000000E+00 -0.18250000000E+03  0.18250000000E+03  0.00000000000E+00 0.  1.
        -11    1    1    2    0    0  0.38092949204E+01  0.44908060090E+01  0.18005589113E+03  0.18015216345E+03  0.00000000000E+00 0.  1.
         11    1    1    2    0    0  0.47855319444E+00 -0.27267484360E+01 -0.17019413259E+03  0.17021664707E+03  0.00000000000E+00 0.  1.
        -15    1    1    2    0    0 -0.30864961361E+01 -0.26278446691E+01  0.77274545793E-01  0.44267060393E+01  0.17770000000E+01 0. -1.
         15    1    1    2    0    0 -0.12013519788E+01  0.86378709606E+00 -0.99390330796E+01  0.10204483440E+02  0.17770000000E+01 0.  1.
</event>
<event>
 6    1  0.1045352E-002  0.1832550E+03  0.7546771E-02  0.1067855E+00
        -11   -1    0    0    0    0  0.00000000000E+00  0.00000000000E+00  0.18250000000E+03  0.18250000000E+03  0.00000000000E+00 0.  1.
         11   -1    0    0    0    0 -0.00000000000E+00 -0.00000000000E+00 -0.18250000000E+03  0.18250000000E+03  0.00000000000E+00 0. -1.
        -11    1    1    2    0    0 -0.44191369926E+00 -0.43233131095E+01  0.14927377708E+03  0.14933702437E+03  0.00000000000E+00 0.  1.
         11    1    1    2    0    0  0.28219513859E+01  0.38360347707E+01 -0.18168261859E+03  0.18174502049E+03  0.00000000000E+00 0. -1.
        -15    1    1    2    0    0 -0.17760303255E+01 -0.20976516555E+01  0.33477975155E+01  0.46818696468E+01  0.17770000000E+01 0. -1.
         15    1    1    2    0    0 -0.60400736120E+00  0.25849299944E+01  0.29061044001E+02  0.29236085500E+02  0.17770000000E+01 0.  1.
</event>
<event>
 6    1  0.1045352E-002  0.1931531E+03  0.7546771E-02  0.1060278E+00
        -11   -1    0    0    0    0  0.00000000000E+00  0.00000000000E+00  0.18250000000E+03  0.18250000000E+03  0.00000000000E+00 0.  1.
         11   -1    0    0    0    0 -0.00000000000E+00 -0.00000000000E+00 -0.18250000000E+03  0.18250000000E+03  0.00000000000E+00 0.  1.
        -11    1    1    2    0    0  0.11284916547E+02  0.87338352252E+01  0.11385810264E+03  0.11474884206E+03  0.00000000000E+00 0.  1.
         11    1    1    2    0    0  0.50765104240E+01 -0.49136378702E+01 -0.17170160940E+03  0.17184690124E+03  0.00000000000E+00 0.  1.
        -15    1    1    2    0    0 -0.14294999373E+02  0.68766979384E+01 -0.32768054758E+01  0.16295127024E+02  0.17770000000E+01 0. -1.
         15    1    1    2    0    0 -0.20664275986E+01 -0.10696895293E+02  0.61120312237E+02  0.62109129675E+02  0.17770000000E+01 0.  1.
</event>
<event>
 6    1  0.1045352E-002  0.1827069E+03  0.7546771E-02  0.1068290E+00
        -11   -1    0    0    0    0  0.00000000000E+00  0.00000000000E+00  0.18250000000E+03  0.18250000000E+03  0.00000000000E+00 0. -1.
         11   -1    0    0    0    0 -0.00000000000E+00 -0.00000000000E+00 -0.18250000000E+03  0.18250000000E+03  0.00000000000E+00 0. -1.
        -11    1    1    2    0    0  0.12347193884E+01  0.23285132864E+01  0.18227406784E+03  0.18229312196E+03  0.00000000000E+00 0. -1.
         11    1    1    2    0    0  0.11453363184E+01 -0.21938279894E+01 -0.13268460841E+03  0.13270768623E+03  0.00000000000E+00 0. -1.
        -15    1    1    2    0    0 -0.34437487484E+00  0.20815766229E+01 -0.27067442405E+02  0.27207640887E+02  0.17770000000E+01 0. -1.
         15    1    1    2    0    0 -0.20356808319E+01 -0.22162619199E+01 -0.22522017032E+02  0.22791550924E+02  0.17770000000E+01 0. -1.
</event>
<event>
 6    1  0.1045352E-002  0.1867067E+03  0.7546771E-02  0.1065155E+00
        -11   -1    0    0    0    0  0.00000000000E+00  0.00000000000E+00  0.18250000000E+03  0.18250000000E+03  0.00000000000E+00 0.  1.
         11   -1    0    0    0    0 -0.00000000000E+00 -0.00000000000E+00 -0.18250000000E+03  0.18250000000E+03  0.00000000000E+00 0.  1.
        -11    1    1    2    0    0 -0.85175374089E+00 -0.23170748162E+01  0.17827619629E+03  0.17829328782E+03  0.00000000000E+00 0.  1.
         11    1    1    2    0    0  0.11769977234E+02 -0.92064487061E+01 -0.89552593330E+02  0.90790737601E+02  0.00000000000E+00 0.  1.
        -15    1    1    2    0    0 -0.12336570451E+02 -0.92580821364E+01 -0.36707030653E+02  0.39855575315E+02  0.17770000000E+01 0. -1.
         15    1    1    2    0    0  0.14183469579E+01  0.20781605659E+02 -0.52016572305E+02  0.56060399260E+02  0.17770000000E+01 0.  1.
</event>
<event>
 6    1  0.1045352E-002  0.1829443E+03  0.7546771E-02  0.1068102E+00
        -11   -1    0    0    0    0  0.00000000000E+00  0.00000000000E+00  0.18250000000E+03  0.18250000000E+03  0.00000000000E+00 0. -1.
         11   -1    0    0    0    0 -0.00000000000E+00 -0.00000000000E+00 -0.18250000000E+03  0.18250000000E+03  0.00000000000E+00 0. -1.
        -11    1    1    2    0    0 -0.14502600680E+01 -0.31972520411E+01  0.14856513719E+03  0.14860661379E+03  0.00000000000E+00 0. -1.
         11    1    1    2    0    0  0.23142301906E+01  0.12511636802E+01 -0.18203672759E+03  0.18205573670E+03  0.00000000000E+00 0. -1.
        -15    1    1    2    0    0 -0.13585479498E+01 -0.21898570722E+01  0.13111123345E+02  0.13479629479E+02  0.17770000000E+01 0. -1.
         15    1    1    2    0    0  0.49457782721E+00  0.41359454331E+01  0.20360467057E+02  0.20858020031E+02  0.17770000000E+01 0.  1.
</event>
<event>
 6    1  0.1045352E-002  0.1374305E+03  0.7546771E-02  0.1111347E+00
        -11   -1    0    0    0    0  0.00000000000E+00  0.00000000000E+00  0.18250000000E+03  0.18250000000E+03  0.00000000000E+00 0.  1.
         11   -1    0    0    0    0 -0.00000000000E+00 -0.00000000000E+00 -0.18250000000E+03  0.18250000000E+03  0.00000000000E+00 0.  1.
        -11    1    1    2    0    0  0.93906851327E+00  0.74463656256E+01  0.14399609679E+03  0.14419156044E+03  0.00000000000E+00 0.  1.
         11    1    1    2    0    0  0.54009448475E+01  0.30673818963E+02 -0.13004540825E+03  0.13372307797E+03  0.00000000000E+00 0.  1.
        -15    1    1    2    0    0 -0.24574977813E+01 -0.67980983944E+01  0.31140055022E+02  0.32017404531E+02  0.17770000000E+01 0. -1.
         15    1    1    2    0    0 -0.38825155795E+01 -0.31322086194E+02 -0.45090743563E+02  0.55067957061E+02  0.17770000000E+01 0.  1.
</event>
<event>
 6    1  0.1045352E-002  0.1828403E+03  0.7546771E-02  0.1068184E+00
        -11   -1    0    0    0    0  0.00000000000E+00  0.00000000000E+00  0.18250000000E+03  0.18250000000E+03  0.00000000000E+00 0. -1.
         11   -1    0    0    0    0 -0.00000000000E+00 -0.00000000000E+00 -0.18250000000E+03  0.18250000000E+03  0.00000000000E+00 0. -1.
        -11    1    1    2    0    0 -0.84143424931E+00  0.46565118590E+01  0.18209826460E+03  0.18215973508E+03  0.00000000000E+00 0. -1.
         11    1    1    2    0    0 -0.10620122311E+00 -0.10198334882E+01 -0.15253608171E+02  0.15288031308E+02  0.00000000000E+00 0. -1.
        -15    1    1    2    0    0 -0.40362607770E+01  0.25422950637E+01 -0.27291423327E+02  0.27762099731E+02  0.17770000000E+01 0. -1.
         15    1    1    2    0    0  0.49838962494E+01 -0.61789734345E+01 -0.13955323310E+03  0.13979013388E+03  0.17770000000E+01 0.  1.
</event>
<event>
 6    1  0.1045352E-002  0.1826061E+03  0.7546771E-02  0.1068370E+00
        -11   -1    0    0    0    0  0.00000000000E+00  0.00000000000E+00  0.18250000000E+03  0.18250000000E+03  0.00000000000E+00 0. -1.
         11   -1    0    0    0    0 -0.00000000000E+00 -0.00000000000E+00 -0.18250000000E+03  0.18250000000E+03  0.00000000000E+00 0. -1.
        -11    1    1    2    0    0  0.21228541583E+01 -0.15304453133E+01  0.18237515114E+03  0.18239392678E+03  0.00000000000E+00 0. -1.
         11    1    1    2    0    0 -0.78816377350E+00  0.26684000384E+00 -0.74433907439E+01  0.74897577723E+01  0.00000000000E+00 0. -1.
        -15    1    1    2    0    0  0.24778711526E+01 -0.99264967396E+00 -0.60273841433E+02  0.60359082903E+02  0.17770000000E+01 0. -1.
         15    1    1    2    0    0 -0.38125615374E+01  0.22562549834E+01 -0.11465791896E+03  0.11475723255E+03  0.17770000000E+01 0. -1.
</event>
<event>
 6    1  0.1045352E-002  0.1741377E+03  0.7546771E-02  0.1075313E+00
        -11   -1    0    0    0    0  0.00000000000E+00  0.00000000000E+00  0.18250000000E+03  0.18250000000E+03  0.00000000000E+00 0. -1.
         11   -1    0    0    0    0 -0.00000000000E+00 -0.00000000000E+00 -0.18250000000E+03  0.18250000000E+03  0.00000000000E+00 0.  1.
        -11    1    1    2    0    0 -0.14816369246E+01 -0.46988943790E+01  0.17237681199E+03  0.17244720980E+03  0.00000000000E+00 0. -1.
         11    1    1    2    0    0 -0.23395409285E+00 -0.29678367123E+01 -0.17590954489E+03  0.17593473441E+03  0.00000000000E+00 0.  1.
        -15    1    1    2    0    0  0.75691343187E+00  0.28341548902E+01 -0.53213766778E+01  0.63308870336E+01  0.17770000000E+01 0. -1.
         15    1    1    2    0    0  0.95867758553E+00  0.48325762012E+01  0.88541095852E+01  0.10287168755E+02  0.17770000000E+01 0. -1.
</event>
<event>
 6    1  0.1045352E-002  0.1886882E+03  0.7546771E-02  0.1063633E+00
        -11   -1    0    0    0    0  0.00000000000E+00  0.00000000000E+00  0.18250000000E+03  0.18250000000E+03  0.00000000000E+00 0. -1.
         11   -1    0    0    0    0 -0.00000000000E+00 -0.00000000000E+00 -0.18250000000E+03  0.18250000000E+03  0.00000000000E+00 0. -1.
        -11    1    1    2    0    0  0.15291220271E+02 -0.79538896205E+01  0.17546726686E+03  0.17631179063E+03  0.00000000000E+00 0. -1.
         11    1    1    2    0    0 -0.18436512995E+01 -0.12734166148E+01 -0.97133646880E+02  0.97159487422E+02  0.00000000000E+00 0. -1.
        -15    1    1    2    0    0 -0.19545179076E+02 -0.21294827302E+01 -0.75727360352E+02  0.78258159681E+02  0.17770000000E+01 0. -1.
         15    1    1    2    0    0  0.60976101044E+01  0.11356788966E+02 -0.26062596251E+01  0.13270562265E+02  0.17770000000E+01 0.  1.
</event>
<event>
 6    1  0.1045352E-002  0.1825910E+03  0.7546771E-02  0.1068382E+00
        -11   -1    0    0    0    0  0.00000000000E+00  0.00000000000E+00  0.18250000000E+03  0.18250000000E+03  0.00000000000E+00 0. -1.
         11   -1    0    0    0    0 -0.00000000000E+00 -0.00000000000E+00 -0.18250000000E+03  0.18250000000E+03  0.00000000000E+00 0.  1.
        -11    1    1    2    0    0 -0.13552801680E+01  0.39394139102E+00  0.40952214499E+02  0.40976527995E+02  0.00000000000E+00 0. -1.
         11    1    1    2    0    0 -0.27168896966E+01 -0.16135599018E+01 -0.18238163616E+03  0.18240900820E+03  0.00000000000E+00 0.  1.
        -15    1    1    2    0    0  0.11266280627E+01  0.40863399576E+00  0.16963629931E+02  0.17098501162E+02  0.17770000000E+01 0.  1.
         15    1    1    2    0    0  0.29455418020E+01  0.81098451506E+00  0.12446579173E+03  0.12451596264E+03  0.17770000000E+01 0. -1.
</event>
<event>
 6    1  0.1045352E-002  0.1827424E+03  0.7546771E-02  0.1068262E+00
        -11   -1    0    0    0    0  0.00000000000E+00  0.00000000000E+00  0.18250000000E+03  0.18250000000E+03  0.00000000000E+00 0. -1.
         11   -1    0    0    0    0 -0.00000000000E+00 -0.00000000000E+00 -0.18250000000E+03  0.18250000000E+03  0.00000000000E+00 0.  1.
        -11    1    1    2    0    0 -0.88292980966E+00  0.16316133027E-01  0.11298258597E+02  0.11332717176E+02  0.00000000000E+00 0. -1.
         11    1    1    2    0    0 -0.81372139988E+00 -0.23989879667E+01 -0.18224003544E+03  0.18225764127E+03  0.00000000000E+00 0.  1.
        -15    1    1    2    0    0 -0.11558413430E+01  0.20214833976E+01  0.97043441418E+01  0.10136783936E+02  0.17770000000E+01 0.  1.
         15    1    1    2    0    0  0.28524925525E+01  0.36118843604E+00  0.16123743270E+03  0.16127285762E+03  0.17770000000E+01 0. -1.
</event>
<event>
 6    1  0.1045352E-002  0.1829760E+03  0.7546771E-02  0.1068077E+00
        -11   -1    0    0    0    0  0.00000000000E+00  0.00000000000E+00  0.18250000000E+03  0.18250000000E+03  0.00000000000E+00 0. -1.
         11   -1    0    0    0    0 -0.00000000000E+00 -0.00000000000E+00 -0.18250000000E+03  0.18250000000E+03  0.00000000000E+00 0. -1.
        -11    1    1    2    0    0  0.39392911157E+00  0.23727475102E+01  0.15178063027E+03  0.15179968655E+03  0.00000000000E+00 0. -1.
         11    1    1    2    0    0  0.11186239085E+01  0.30372747983E+01 -0.18199522886E+03  0.18202400855E+03  0.00000000000E+00 0. -1.
        -15    1    1    2    0    0 -0.23443753903E+01 -0.31534741751E+01  0.22353126855E+02  0.22765335590E+02  0.17770000000E+01 0.  1.
         15    1    1    2    0    0  0.83182237018E+00 -0.22565481334E+01  0.78614717417E+01  0.84109693187E+01  0.17770000000E+01 0.  1.
</event>
<event>
 6    1  0.1045352E-002  0.1851829E+03  0.7546771E-02  0.1066339E+00
        -11   -1    0    0    0    0  0.00000000000E+00  0.00000000000E+00  0.18250000000E+03  0.18250000000E+03  0.00000000000E+00 0.  1.
         11   -1    0    0    0    0 -0.00000000000E+00 -0.00000000000E+00 -0.18250000000E+03  0.18250000000E+03  0.00000000000E+00 0. -1.
        -11    1    1    2    0    0  0.37144093113E+01  0.33423423542E+01  0.17974768395E+03  0.17981712370E+03  0.00000000000E+00 0.  1.
         11    1    1    2    0    0 -0.69478475128E+01  0.12697135908E+01 -0.15531281016E+03  0.15547332169E+03  0.00000000000E+00 0. -1.
        -15    1    1    2    0    0  0.94613558847E+01 -0.23078344962E+01 -0.16168475609E+02  0.18958393597E+02  0.17770000000E+01 0. -1.
         15    1    1    2    0    0 -0.62279176832E+01 -0.23042214488E+01 -0.82663981871E+01  0.10751161014E+02  0.17770000000E+01 0.  1.
</event>
<event>
 6    1  0.1045352E-002  0.1858254E+03  0.7546771E-02  0.1065838E+00
        -11   -1    0    0    0    0  0.00000000000E+00  0.00000000000E+00  0.18250000000E+03  0.18250000000E+03  0.00000000000E+00 0.  1.
         11   -1    0    0    0    0 -0.00000000000E+00 -0.00000000000E+00 -0.18250000000E+03  0.18250000000E+03  0.00000000000E+00 0. -1.
        -11    1    1    2    0    0 -0.51222250449E+01 -0.98797634428E+01  0.17882863293E+03  0.17917457094E+03  0.00000000000E+00 0.  1.
         11    1    1    2    0    0 -0.38304274506E+01 -0.19353132919E+01 -0.14991601320E+03  0.14997742705E+03  0.00000000000E+00 0. -1.
        -15    1    1    2    0    0 -0.26805852057E+01  0.79133308895E+01 -0.14571860682E+02  0.16890920506E+02  0.17770000000E+01 0. -1.
         15    1    1    2    0    0  0.11633237701E+02  0.39017458451E+01 -0.14340759050E+02  0.18957081505E+02  0.17770000000E+01 0.  1.
</event>
<event>
 6    1  0.1045352E-002  0.1833525E+03  0.7546771E-02  0.1067778E+00
        -11   -1    0    0    0    0  0.00000000000E+00  0.00000000000E+00  0.18250000000E+03  0.18250000000E+03  0.00000000000E+00 0. -1.
         11   -1    0    0    0    0 -0.00000000000E+00 -0.00000000000E+00 -0.18250000000E+03  0.18250000000E+03  0.00000000000E+00 0.  1.
        -11    1    1    2    0    0  0.36286455879E+00 -0.37462785989E+01  0.16818198602E+03  0.16822409666E+03  0.00000000000E+00 0. -1.
         11    1    1    2    0    0 -0.31169569844E+01  0.45452600282E+01 -0.18156390101E+03  0.18164752947E+03  0.00000000000E+00 0.  1.
        -15    1    1    2    0    0  0.72489965113E-03  0.18419238638E+01  0.31102415045E+01  0.40279045746E+01  0.17770000000E+01 0. -1.
         15    1    1    2    0    0  0.27533675260E+01 -0.26409052931E+01  0.10271673487E+02  0.11100469302E+02  0.17770000000E+01 0.  1.
</event>
<event>
 6    1  0.1045352E-002  0.1827904E+03  0.7546771E-02  0.1068224E+00
        -11   -1    0    0    0    0  0.00000000000E+00  0.00000000000E+00  0.18250000000E+03  0.18250000000E+03  0.00000000000E+00 0. -1.
         11   -1    0    0    0    0 -0.00000000000E+00 -0.00000000000E+00 -0.18250000000E+03  0.18250000000E+03  0.00000000000E+00 0. -1.
        -11    1    1    2    0    0  0.33769853179E+01  0.22348728972E+01  0.18216457670E+03  0.18220958177E+03  0.00000000000E+00 0. -1.
         11    1    1    2    0    0 -0.92334115698E+00 -0.18178903885E+01 -0.11493599045E+03  0.11495407424E+03  0.00000000000E+00 0. -1.
        -15    1    1    2    0    0 -0.18824858782E+01 -0.39666857629E+01 -0.27405860603E+02  0.27812178509E+02  0.17770000000E+01 0. -1.
         15    1    1    2    0    0 -0.57115828264E+00  0.35497032541E+01 -0.39822725647E+02  0.40024165475E+02  0.17770000000E+01 0. -1.
</event>
<event>
 6    1  0.1045352E-002  0.1826126E+03  0.7546771E-02  0.1068365E+00
        -11   -1    0    0    0    0  0.00000000000E+00  0.00000000000E+00  0.18250000000E+03  0.18250000000E+03  0.00000000000E+00 0. -1.
         11   -1    0    0    0    0 -0.00000000000E+00 -0.00000000000E+00 -0.18250000000E+03  0.18250000000E+03  0.00000000000E+00 0. -1.
        -11    1    1    2    0    0  0.10042633475E+01 -0.14615775121E+01  0.10272818414E+03  0.10274348918E+03  0.00000000000E+00 0. -1.
         11    1    1    2    0    0  0.24433147768E+01 -0.33397801809E+00 -0.18237077135E+03  0.18238744357E+03  0.00000000000E+00 0. -1.
        -15    1    1    2    0    0 -0.33498455205E+00  0.11589866942E+01  0.40726685586E+02  0.40783282269E+02  0.17770000000E+01 0. -1.
         15    1    1    2    0    0 -0.31125935723E+01  0.63656883595E+00  0.38915901631E+02  0.39085784978E+02  0.17770000000E+01 0. -1.
</event>
<event>
 6    1  0.1045352E-002  0.1790893E+03  0.7546771E-02  0.1071203E+00
        -11   -1    0    0    0    0  0.00000000000E+00  0.00000000000E+00  0.18250000000E+03  0.18250000000E+03  0.00000000000E+00 0.  1.
         11   -1    0    0    0    0 -0.00000000000E+00 -0.00000000000E+00 -0.18250000000E+03  0.18250000000E+03  0.00000000000E+00 0. -1.
        -11    1    1    2    0    0  0.51224197681E+01  0.83012694194E+00  0.18205302762E+03  0.18212696989E+03  0.00000000000E+00 0.  1.
         11    1    1    2    0    0 -0.49123249084E+00 -0.50767257299E+00 -0.74200107000E+01  0.74535628789E+01  0.00000000000E+00 0. -1.
        -15    1    1    2    0    0  0.31851356693E+01  0.23601633148E+01 -0.12473001588E+03  0.12480564912E+03  0.17770000000E+01 0. -1.
         15    1    1    2    0    0 -0.78163229466E+01 -0.26826176838E+01 -0.49903001040E+02  0.50613818112E+02  0.17770000000E+01 0. -1.
</event>
<event>
 6    1  0.1045352E-002  0.1833021E+03  0.7546771E-02  0.1067818E+00
        -11   -1    0    0    0    0  0.00000000000E+00  0.00000000000E+00  0.18250000000E+03  0.18250000000E+03  0.00000000000E+00 0.  1.
         11   -1    0    0    0    0 -0.00000000000E+00 -0.00000000000E+00 -0.18250000000E+03  0.18250000000E+03  0.00000000000E+00 0. -1.
        -11    1    1    2    0    0  0.74503864705E+01 -0.39763284702E+01  0.11631367913E+03  0.11661985851E+03  0.00000000000E+00 0.  1.
         11    1    1    2    0    0  0.19353383594E+01  0.44101696048E+01 -0.18163406075E+03  0.18169790080E+03  0.00000000000E+00 0. -1.
        -15    1    1    2    0    0 -0.77243607041E+01  0.35833173275E+01  0.43800062837E+02  0.44655449218E+02  0.17770000000E+01 0. -1.
         15    1    1    2    0    0 -0.16613641258E+01 -0.40171584621E+01  0.21520318784E+02  0.22026791469E+02  0.17770000000E+01 0.  1.
</event>
<event>
 6    1  0.1045352E-002  0.1826330E+03  0.7546771E-02  0.1068349E+00
        -11   -1    0    0    0    0  0.00000000000E+00  0.00000000000E+00  0.18250000000E+03  0.18250000000E+03  0.00000000000E+00 0.  1.
         11   -1    0    0    0    0 -0.00000000000E+00 -0.00000000000E+00 -0.18250000000E+03  0.18250000000E+03  0.00000000000E+00 0. -1.
        -11    1    1    2    0    0  0.13265455860E+01 -0.13367413971E+01  0.99569366157E+02  0.99587174263E+02  0.00000000000E+00 0.  1.
         11    1    1    2    0    0 -0.34203219396E+00  0.38819318150E+01 -0.18232540452E+03  0.18236704613E+03  0.00000000000E+00 0. -1.
        -15    1    1    2    0    0 -0.80267833460E+00  0.93980652318E+00  0.51485467706E+02  0.51530948397E+02  0.17770000000E+01 0.  1.
         15    1    1    2    0    0 -0.18183505742E+00 -0.34849969411E+01  0.31270570660E+02  0.31514831208E+02  0.17770000000E+01 0. -1.
</event>
<event>
 6    1  0.1045352E-002  0.1834168E+03  0.7546771E-02  0.1067727E+00
        -11   -1    0    0    0    0  0.00000000000E+00  0.00000000000E+00  0.18250000000E+03  0.18250000000E+03  0.00000000000E+00 0. -1.
         11   -1    0    0    0    0 -0.00000000000E+00 -0.00000000000E+00 -0.18250000000E+03  0.18250000000E+03  0.00000000000E+00 0. -1.
        -11    1    1    2    0    0 -0.40821121109E+01  0.80281545876E+00  0.18153555871E+03  0.18158322398E+03  0.00000000000E+00 0. -1.
         11    1    1    2    0    0  0.33576334934E+01 -0.17927997344E+01 -0.16982827928E+03  0.16987092828E+03  0.00000000000E+00 0. -1.
        -15    1    1    2    0    0  0.30535396636E+01 -0.15944375630E+00 -0.48654125956E+01  0.60149393607E+01  0.17770000000E+01 0. -1.
         15    1    1    2    0    0 -0.23290610461E+01  0.11494280319E+01 -0.68418668418E+01  0.75309083806E+01  0.17770000000E+01 0.  1.
</event>
<event>
 6    1  0.1045352E-002  0.1858880E+03  0.7546771E-02  0.1065789E+00
        -11   -1    0    0    0    0  0.00000000000E+00  0.00000000000E+00  0.18250000000E+03  0.18250000000E+03  0.00000000000E+00 0. -1.
         11   -1    0    0    0    0 -0.00000000000E+00 -0.00000000000E+00 -0.18250000000E+03  0.18250000000E+03  0.00000000000E+00 0. -1.
        -11    1    1    2    0    0 -0.26322947808E+01 -0.31710676104E+01  0.17906453778E+03  0.17911195754E+03  0.00000000000E+00 0. -1.
         11    1    1    2    0    0  0.68919843009E+00 -0.36710145049E+01 -0.16651212407E+03  0.16655401167E+03  0.00000000000E+00 0. -1.
        -15    1    1    2    0    0 -0.33906477418E+01 -0.78687750797E+00 -0.78183001154E+01  0.87406643922E+01  0.17770000000E+01 0.  1.
         15    1    1    2    0    0  0.53337440925E+01  0.76289596233E+01 -0.47341135908E+01  0.10593366390E+02  0.17770000000E+01 0. -1.
</event>
<event>
 6    1  0.1045352E-002  0.1879216E+03  0.7546771E-02  0.1064219E+00
        -11   -1    0    0    0    0  0.00000000000E+00  0.00000000000E+00  0.18250000000E+03  0.18250000000E+03  0.00000000000E+00 0.  1.
         11   -1    0    0    0    0 -0.00000000000E+00 -0.00000000000E+00 -0.18250000000E+03  0.18250000000E+03  0.00000000000E+00 0. -1.
        -11    1    1    2    0    0  0.57164754773E+01  0.25623902225E+01  0.10928914820E+03  0.10946854274E+03  0.00000000000E+00 0.  1.
         11    1    1    2    0    0  0.14295644247E+01 -0.33114100440E+01 -0.17704170408E+03  0.17707844045E+03  0.00000000000E+00 0. -1.
        -15    1    1    2    0    0 -0.84776368113E+00 -0.25222787388E+00  0.71035629043E+02  0.71063356554E+02  0.17770000000E+01 0.  1.
         15    1    1    2    0    0 -0.62982762208E+01  0.10012476954E+01 -0.32830731616E+01  0.73896602551E+01  0.17770000000E+01 0.  1.
</event>
<event>
 6    1  0.1045352E-002  0.1828866E+03  0.7546771E-02  0.1068147E+00
        -11   -1    0    0    0    0  0.00000000000E+00  0.00000000000E+00  0.18250000000E+03  0.18250000000E+03  0.00000000000E+00 0.  1.
         11   -1    0    0    0    0 -0.00000000000E+00 -0.00000000000E+00 -0.18250000000E+03  0.18250000000E+03  0.00000000000E+00 0. -1.
        -11    1    1    2    0    0 -0.26856637317E+01 -0.34964608948E+00  0.15356402566E+03  0.15358790648E+03  0.00000000000E+00 0.  1.
         11    1    1    2    0    0  0.88642010273E+00 -0.27422478197E+01 -0.18209054974E+03  0.18211335472E+03  0.00000000000E+00 0. -1.
        -15    1    1    2    0    0 -0.59403168188E-01  0.51209770068E+00  0.19156204313E+02  0.19245354387E+02  0.17770000000E+01 0. -1.
         15    1    1    2    0    0  0.18586467972E+01  0.25797962085E+01  0.93703197731E+01  0.10053384408E+02  0.17770000000E+01 0.  1.
</event>
<event>
 6    1  0.1045352E-002  0.1648653E+03  0.7546771E-02  0.1083428E+00
        -11   -1    0    0    0    0  0.00000000000E+00  0.00000000000E+00  0.18250000000E+03  0.18250000000E+03  0.00000000000E+00 0. -1.
         11   -1    0    0    0    0 -0.00000000000E+00 -0.00000000000E+00 -0.18250000000E+03  0.18250000000E+03  0.00000000000E+00 0.  1.
        -11    1    1    2    0    0  0.26945004015E+01 -0.14301161146E+02  0.16618602834E+03  0.16682199962E+03  0.00000000000E+00 0. -1.
         11    1    1    2    0    0 -0.59762607859E+00 -0.33608554493E+01 -0.16336442786E+03  0.16340008812E+03  0.00000000000E+00 0.  1.
        -15    1    1    2    0    0 -0.13213544556E+01  0.18948177949E+02  0.10143157495E+02  0.21606036151E+02  0.17770000000E+01 0. -1.
         15    1    1    2    0    0 -0.77551986728E+00 -0.12861613543E+01 -0.12964757969E+02  0.13171876111E+02  0.17770000000E+01 0.  1.
</event>
<event>
 6    1  0.1045352E-002  0.1873052E+03  0.7546771E-02  0.1064693E+00
        -11   -1    0    0    0    0  0.00000000000E+00  0.00000000000E+00  0.18250000000E+03  0.18250000000E+03  0.00000000000E+00 0. -1.
         11   -1    0    0    0    0 -0.00000000000E+00 -0.00000000000E+00 -0.18250000000E+03  0.18250000000E+03  0.00000000000E+00 0. -1.
        -11    1    1    2    0    0 -0.34439813519E+01 -0.10389759239E+02  0.17051056538E+03  0.17086152584E+03  0.00000000000E+00 0. -1.
         11    1    1    2    0    0 -0.12452706666E+01  0.23674289630E+01 -0.17767462117E+03  0.17769475633E+03  0.00000000000E+00 0. -1.
        -15    1    1    2    0    0  0.30575170630E+01  0.78886230577E+01  0.96643288130E+01  0.12966717578E+02  0.17770000000E+01 0.  1.
         15    1    1    2    0    0  0.16317349556E+01  0.13370721883E+00 -0.25002730192E+01  0.34770002525E+01  0.17770000000E+01 0. -1.
</event>
<event>
 6    1  0.1045352E-002  0.1836578E+03  0.7546771E-02  0.1067537E+00
        -11   -1    0    0    0    0  0.00000000000E+00  0.00000000000E+00  0.18250000000E+03  0.18250000000E+03  0.00000000000E+00 0. -1.
         11   -1    0    0    0    0 -0.00000000000E+00 -0.00000000000E+00 -0.18250000000E+03  0.18250000000E+03  0.00000000000E+00 0. -1.
        -11    1    1    2    0    0 -0.36815029091E+01 -0.12165396314E+01  0.15507094095E+03  0.15511940613E+03  0.00000000000E+00 0. -1.
         11    1    1    2    0    0  0.27438485616E+01 -0.48392046193E+00 -0.18132082934E+03  0.18134223457E+03  0.00000000000E+00 0. -1.
        -15    1    1    2    0    0  0.31945220655E+01  0.23256920669E+01  0.24951131499E+02  0.25324504080E+02  0.17770000000E+01 0.  1.
         15    1    1    2    0    0 -0.22568677180E+01 -0.62523197353E+00  0.12987568972E+01  0.32138552232E+01  0.17770000000E+01 0.  1.
</event>
<event>
 6    1  0.1045352E-002  0.1830167E+03  0.7546771E-02  0.1068044E+00
        -11   -1    0    0    0    0  0.00000000000E+00  0.00000000000E+00  0.18250000000E+03  0.18250000000E+03  0.00000000000E+00 0.  1.
         11   -1    0    0    0    0 -0.00000000000E+00 -0.00000000000E+00 -0.18250000000E+03  0.18250000000E+03  0.00000000000E+00 0. -1.
        -11    1    1    2    0    0 -0.10888523323E+01  0.17333301939E+01  0.12049438123E+03  0.12051176681E+03  0.00000000000E+00 0.  1.
         11    1    1    2    0    0  0.10626037404E+01  0.55742584128E+01 -0.18189478008E+03  0.18198327534E+03  0.00000000000E+00 0. -1.
        -15    1    1    2    0    0  0.89376186549E+00 -0.78946308741E+01  0.31554205146E+02  0.32587568156E+02  0.17770000000E+01 0. -1.
         15    1    1    2    0    0 -0.86751327350E+00  0.58704226732E+00  0.29846193707E+02  0.29917389687E+02  0.17770000000E+01 0.  1.
</event>
<event>
 6    1  0.1045352E-002  0.1874717E+03  0.7546771E-02  0.1064565E+00
        -11   -1    0    0    0    0  0.00000000000E+00  0.00000000000E+00  0.18250000000E+03  0.18250000000E+03  0.00000000000E+00 0. -1.
         11   -1    0    0    0    0 -0.00000000000E+00 -0.00000000000E+00 -0.18250000000E+03  0.18250000000E+03  0.00000000000E+00 0.  1.
        -11    1    1    2    0    0  0.47142278159E+00 -0.30250764874E+01  0.16969666149E+03  0.16972427713E+03  0.00000000000E+00 0. -1.
         11    1    1    2    0    0 -0.24939726115E+01  0.14475453836E+01 -0.17750483444E+03  0.17752825560E+03  0.00000000000E+00 0.  1.
        -15    1    1    2    0    0 -0.32875431648E+01  0.22578715766E+01  0.10592430240E+02  0.11457016693E+02  0.17770000000E+01 0. -1.
         15    1    1    2    0    0  0.53100929947E+01 -0.68034047281E+00 -0.27842572921E+01  0.62904505753E+01  0.17770000000E+01 0.  1.
</event>
<event>
 6    1  0.1045352E-002  0.1828100E+03  0.7546771E-02  0.1068208E+00
        -11   -1    0    0    0    0  0.00000000000E+00  0.00000000000E+00  0.18250000000E+03  0.18250000000E+03  0.00000000000E+00 0. -1.
         11   -1    0    0    0    0 -0.00000000000E+00 -0.00000000000E+00 -0.18250000000E+03  0.18250000000E+03  0.00000000000E+00 0. -1.
        -11    1    1    2    0    0 -0.72109132980E+00 -0.21255048849E+01  0.43227626727E+02  0.43285857461E+02  0.00000000000E+00 0. -1.
         11    1    1    2    0    0  0.19938488305E+01  0.18609730151E+01 -0.18216958867E+03  0.18219000437E+03  0.00000000000E+00 0. -1.
        -15    1    1    2    0    0 -0.11909071787E+01 -0.45861455739E+01  0.27452183632E+02  0.27914711288E+02  0.17770000000E+01 0.  1.
         15    1    1    2    0    0 -0.81850321941E-01  0.48506774437E+01  0.11148977832E+03  0.11160942688E+03  0.17770000000E+01 0. -1.
</event>
<event>
 6    1  0.1045352E-002  0.1859209E+03  0.7546771E-02  0.1065764E+00
        -11   -1    0    0    0    0  0.00000000000E+00  0.00000000000E+00  0.18250000000E+03  0.18250000000E+03  0.00000000000E+00 0. -1.
         11   -1    0    0    0    0 -0.00000000000E+00 -0.00000000000E+00 -0.18250000000E+03  0.18250000000E+03  0.00000000000E+00 0. -1.
        -11    1    1    2    0    0  0.26127475153E+01 -0.31950405199E+01  0.14048399315E+03  0.14054460881E+03  0.00000000000E+00 0. -1.
         11    1    1    2    0    0  0.37904572613E+01  0.41402432257E+01 -0.17899114728E+03  0.17907914447E+03  0.00000000000E+00 0. -1.
        -15    1    1    2    0    0 -0.52176687910E+01  0.13282799651E-01  0.41337288548E+02  0.41703158124E+02  0.17770000000E+01 0.  1.
         15    1    1    2    0    0 -0.11855359857E+01 -0.95848550548E+00 -0.28301344170E+01  0.36730885990E+01  0.17770000000E+01 0. -1.
</event>
<event>
 6    1  0.1045352E-002  0.1860863E+03  0.7546771E-02  0.1065635E+00
        -11   -1    0    0    0    0  0.00000000000E+00  0.00000000000E+00  0.18250000000E+03  0.18250000000E+03  0.00000000000E+00 0.  1.
         11   -1    0    0    0    0 -0.00000000000E+00 -0.00000000000E+00 -0.18250000000E+03  0.18250000000E+03  0.00000000000E+00 0. -1.
        -11    1    1    2    0    0 -0.11121341396E+01 -0.32422945790E+01  0.17888086113E+03  0.17891369930E+03  0.00000000000E+00 0.  1.
         11    1    1    2    0    0 -0.75318324800E+00  0.40120051340E+00 -0.55389548506E+02  0.55396121981E+02  0.00000000000E+00 0. -1.
        -15    1    1    2    0    0 -0.53270352930E+01  0.12844051709E+02 -0.11445024079E+03  0.11530551728E+03  0.17770000000E+01 0. -1.
         15    1    1    2    0    0  0.71923526806E+01 -0.10002957644E+02 -0.90410718429E+01  0.15384661445E+02  0.17770000000E+01 0.  1.
</event>
<event>
 6    1  0.1045352E-002  0.1972038E+03  0.7546771E-02  0.1057318E+00
        -11   -1    0    0    0    0  0.00000000000E+00  0.00000000000E+00  0.18250000000E+03  0.18250000000E+03  0.00000000000E+00 0.  1.
         11   -1    0    0    0    0 -0.00000000000E+00 -0.00000000000E+00 -0.18250000000E+03  0.18250000000E+03  0.00000000000E+00 0.  1.
        -11    1    1    2    0    0  0.37016512534E+00  0.27070900467E+01  0.10152441398E+03  0.10156117364E+03  0.00000000000E+00 0.  1.
         11    1    1    2    0    0 -0.36485006476E+01 -0.12736061415E+01 -0.16775171456E+03  0.16779621976E+03  0.00000000000E+00 0.  1.
        -15    1    1    2    0    0  0.34276752887E+02 -0.21760615763E+01  0.49761418363E+02  0.60489565373E+02  0.17770000000E+01 0.  1.
         15    1    1    2    0    0 -0.30998417365E+02  0.74257767099E+00  0.16465882218E+02  0.35153041219E+02  0.17770000000E+01 0. -1.
</event>
<event>
 6    1  0.1045352E-002  0.1859980E+03  0.7546771E-02  0.1065704E+00
        -11   -1    0    0    0    0  0.00000000000E+00  0.00000000000E+00  0.18250000000E+03  0.18250000000E+03  0.00000000000E+00 0.  1.
         11   -1    0    0    0    0 -0.00000000000E+00 -0.00000000000E+00 -0.18250000000E+03  0.18250000000E+03  0.00000000000E+00 0. -1.
        -11    1    1    2    0    0  0.11411097327E+01  0.32178959745E+01  0.16311623257E+03  0.16315196080E+03  0.00000000000E+00 0.  1.
         11    1    1    2    0    0 -0.10103746069E+02 -0.67211903798E+01 -0.17859019917E+03  0.17900200927E+03  0.00000000000E+00 0. -1.
        -15    1    1    2    0    0 -0.13833898206E+00 -0.29780762692E+01  0.93675318987E+01  0.99898177568E+01  0.17770000000E+01 0. -1.
         15    1    1    2    0    0  0.91009753182E+01  0.64813706745E+01  0.61064347016E+01  0.12856212169E+02  0.17770000000E+01 0. -1.
</event>
<event>
 6    1  0.1045352E-002  0.1746837E+03  0.7546771E-02  0.1074853E+00
        -11   -1    0    0    0    0  0.00000000000E+00  0.00000000000E+00  0.18250000000E+03  0.18250000000E+03  0.00000000000E+00 0.  1.
         11   -1    0    0    0    0 -0.00000000000E+00 -0.00000000000E+00 -0.18250000000E+03  0.18250000000E+03  0.00000000000E+00 0.  1.
        -11    1    1    2    0    0  0.26789709065E+01 -0.84961175948E+01  0.17416146928E+03  0.17438915758E+03  0.00000000000E+00 0.  1.
         11    1    1    2    0    0  0.23485368623E+01  0.56405688622E+00 -0.17508897168E+03  0.17510563038E+03  0.00000000000E+00 0.  1.
        -15    1    1    2    0    0 -0.42181046341E+01  0.21961559964E+01 -0.49307611770E+01  0.70771210707E+01  0.17770000000E+01 0. -1.
         15    1    1    2    0    0 -0.80940313464E+00  0.57359047122E+01  0.58582635792E+01  0.84280909740E+01  0.17770000000E+01 0. -1.
</event>
<event>
 6    1  0.1045352E-002  0.1949938E+03  0.7546771E-02  0.1058923E+00
        -11   -1    0    0    0    0  0.00000000000E+00  0.00000000000E+00  0.18250000000E+03  0.18250000000E+03  0.00000000000E+00 0.  1.
         11   -1    0    0    0    0 -0.00000000000E+00 -0.00000000000E+00 -0.18250000000E+03  0.18250000000E+03  0.00000000000E+00 0. -1.
        -11    1    1    2    0    0  0.17438681753E+01 -0.40130757234E+01  0.16994984808E+03  0.17000616670E+03  0.00000000000E+00 0.  1.
         11    1    1    2    0    0 -0.97501468152E+00  0.11900290969E+01 -0.66604130559E+02  0.66621896029E+02  0.00000000000E+00 0. -1.
        -15    1    1    2    0    0  0.48286653018E+01 -0.18431224553E+01 -0.11466377690E+03  0.11479395703E+03  0.17770000000E+01 0. -1.
         15    1    1    2    0    0 -0.55975187956E+01  0.46661690818E+01  0.11318059376E+02  0.13577980248E+02  0.17770000000E+01 0.  1.
</event>
<event>
 6    1  0.1045352E-002  0.1826120E+03  0.7546771E-02  0.1068366E+00
        -11   -1    0    0    0    0  0.00000000000E+00  0.00000000000E+00  0.18250000000E+03  0.18250000000E+03  0.00000000000E+00 0. -1.
         11   -1    0    0    0    0 -0.00000000000E+00 -0.00000000000E+00 -0.18250000000E+03  0.18250000000E+03  0.00000000000E+00 0. -1.
        -11    1    1    2    0    0 -0.10349652250E+01  0.35406880519E+00  0.34636678505E+02  0.34653946609E+02  0.00000000000E+00 0. -1.
         11    1    1    2    0    0  0.26544043245E+01 -0.32822430993E+01 -0.18233918770E+03  0.18238804334E+03  0.00000000000E+00 0. -1.
        -15    1    1    2    0    0 -0.87482368704E+00  0.97443081962E+00  0.13193891413E+03  0.13195737805E+03  0.17770000000E+01 0. -1.
         15    1    1    2    0    0 -0.74461541248E+00  0.19537434745E+01  0.15763595071E+02  0.16000631995E+02  0.17770000000E+01 0.  1.
</event>
<event>
 6    1  0.1045352E-002  0.1847707E+03  0.7546771E-02  0.1066662E+00
        -11   -1    0    0    0    0  0.00000000000E+00  0.00000000000E+00  0.18250000000E+03  0.18250000000E+03  0.00000000000E+00 0.  1.
         11   -1    0    0    0    0 -0.00000000000E+00 -0.00000000000E+00 -0.18250000000E+03  0.18250000000E+03  0.00000000000E+00 0. -1.
        -11    1    1    2    0    0  0.18329611267E+01 -0.17297715823E+01  0.18021171075E+03  0.18022933321E+03  0.00000000000E+00 0.  1.
         11    1    1    2    0    0  0.15666391619E+00 -0.37744647366E+01 -0.17402029678E+03  0.17406129616E+03  0.00000000000E+00 0. -1.
        -15    1    1    2    0    0  0.14928679334E+01  0.13991310277E+01 -0.66062511689E+00  0.27893326880E+01  0.17770000000E+01 0. -1.
         15    1    1    2    0    0 -0.34824929763E+01  0.41051052913E+01 -0.55307888499E+01  0.79200379472E+01  0.17770000000E+01 0. -1.
</event>
<event>
 6    1  0.1045352E-002  0.1782579E+03  0.7546771E-02  0.1071883E+00
        -11   -1    0    0    0    0  0.00000000000E+00  0.00000000000E+00  0.18250000000E+03  0.18250000000E+03  0.00000000000E+00 0.  1.
         11   -1    0    0    0    0 -0.00000000000E+00 -0.00000000000E+00 -0.18250000000E+03  0.18250000000E+03  0.00000000000E+00 0. -1.
        -11    1    1    2    0    0  0.15602900515E-01  0.30069377582E+01  0.17765733191E+03  0.17768277772E+03  0.00000000000E+00 0.  1.
         11    1    1    2    0    0 -0.23754062510E+01  0.19577506137E+01 -0.17885095193E+03  0.17887743946E+03  0.00000000000E+00 0. -1.
        -15    1    1    2    0    0  0.17905269887E+01 -0.55046303526E+01 -0.18470306521E+00  0.60579523305E+01  0.17770000000E+01 0. -1.
         15    1    1    2    0    0  0.56927636182E+00  0.53994198072E+00  0.13783230870E+01  0.23818304832E+01  0.17770000000E+01 0.  1.
</event>
<event>
 6    1  0.1045352E-002  0.1838704E+03  0.7546771E-02  0.1067369E+00
        -11   -1    0    0    0    0  0.00000000000E+00  0.00000000000E+00  0.18250000000E+03  0.18250000000E+03  0.00000000000E+00 0.  1.
         11   -1    0    0    0    0 -0.00000000000E+00 -0.00000000000E+00 -0.18250000000E+03  0.18250000000E+03  0.00000000000E+00 0.  1.
        -11    1    1    2    0    0 -0.35043307873E+01  0.73727376486E+00  0.18109417936E+03  0.18112958263E+03  0.00000000000E+00 0.  1.
         11    1    1    2    0    0 -0.24765419335E+01  0.22112618763E+01 -0.14312761112E+03  0.14316611332E+03  0.00000000000E+00 0.  1.
        -15    1    1    2    0    0  0.57195593701E+01 -0.14859218288E+01 -0.58458507223E+01  0.85001778062E+01  0.17770000000E+01 0. -1.
         15    1    1    2    0    0  0.26131335070E+00 -0.14626138124E+01 -0.32120717518E+02  0.32204126237E+02  0.17770000000E+01 0.  1.
</event>
<event>
 6    1  0.1045352E-002  0.1861100E+03  0.7546771E-02  0.1065617E+00
        -11   -1    0    0    0    0  0.00000000000E+00  0.00000000000E+00  0.18250000000E+03  0.18250000000E+03  0.00000000000E+00 0. -1.
         11   -1    0    0    0    0 -0.00000000000E+00 -0.00000000000E+00 -0.18250000000E+03  0.18250000000E+03  0.00000000000E+00 0. -1.
        -11    1    1    2    0    0  0.76024083324E+01 -0.61843216250E+01  0.12819827755E+03  0.12857231744E+03  0.00000000000E+00 0. -1.
         11    1    1    2    0    0 -0.53370956766E+01 -0.63618324472E+00 -0.17880920692E+03  0.17888997120E+03  0.00000000000E+00 0. -1.
        -15    1    1    2    0    0 -0.48409573639E+01  0.82250068841E+01  0.52656649606E+02  0.53544057403E+02  0.17770000000E+01 0.  1.
         15    1    1    2    0    0  0.25756447082E+01 -0.14045020143E+01 -0.20457202401E+01  0.39936539499E+01  0.17770000000E+01 0.  1.
</event>
<event>
 6    1  0.1045352E-002  0.1754267E+03  0.7546771E-02  0.1074229E+00
        -11   -1    0    0    0    0  0.00000000000E+00  0.00000000000E+00  0.18250000000E+03  0.18250000000E+03  0.00000000000E+00 0. -1.
         11   -1    0    0    0    0 -0.00000000000E+00 -0.00000000000E+00 -0.18250000000E+03  0.18250000000E+03  0.00000000000E+00 0.  1.
        -11    1    1    2    0    0  0.29774616223E+01 -0.53814374827E+01  0.17552428130E+03  0.17563199729E+03  0.00000000000E+00 0. -1.
         11    1    1    2    0    0  0.77202414460E+00  0.49104336638E+01 -0.17517139714E+03  0.17524190924E+03  0.00000000000E+00 0.  1.
        -15    1    1    2    0    0  0.11127874334E+01 -0.31188267478E+01 -0.50307955443E+01  0.62794911389E+01  0.17770000000E+01 0.  1.
         15    1    1    2    0    0 -0.48622732003E+01  0.35898305667E+01  0.46779113818E+01  0.78466023264E+01  0.17770000000E+01 0.  1.
</event>
<event>
 6    1  0.1045352E-002  0.1833679E+03  0.7546771E-02  0.1067766E+00
        -11   -1    0    0    0    0  0.00000000000E+00  0.00000000000E+00  0.18250000000E+03  0.18250000000E+03  0.00000000000E+00 0. -1.
         11   -1    0    0    0    0 -0.00000000000E+00 -0.00000000000E+00 -0.18250000000E+03  0.18250000000E+03  0.00000000000E+00 0.  1.
        -11    1    1    2    0    0  0.16266680608E+01 -0.18354857612E+01  0.18161557241E+03  0.18163213152E+03  0.00000000000E+00 0. -1.
         11    1    1    2    0    0  0.23164068892E+01 -0.11937017309E+01 -0.15483933653E+03  0.15486126307E+03  0.00000000000E+00 0.  1.
        -15    1    1    2    0    0 -0.17908582163E+01  0.21935929301E+01 -0.24709355423E+02  0.24934494130E+02  0.17770000000E+01 0.  1.
         15    1    1    2    0    0 -0.21522167336E+01  0.83559456195E+00 -0.20668804625E+01  0.35721112786E+01  0.17770000000E+01 0. -1.
</event>
<event>
 6    1  0.1045352E-002  0.1603951E+03  0.7546771E-02  0.1087553E+00
        -11   -1    0    0    0    0  0.00000000000E+00  0.00000000000E+00  0.18250000000E+03  0.18250000000E+03  0.00000000000E+00 0. -1.
         11   -1    0    0    0    0 -0.00000000000E+00 -0.00000000000E+00 -0.18250000000E+03  0.18250000000E+03  0.00000000000E+00 0. -1.
        -11    1    1    2    0    0  0.81398881275E-01  0.51223220066E+02  0.54945285551E+02  0.75118634865E+02  0.00000000000E+00 0. -1.
         11    1    1    2    0    0  0.38769976672E+02 -0.15216280143E+02 -0.13824261413E+03  0.14438028478E+03  0.00000000000E+00 0. -1.
        -15    1    1    2    0    0  0.70123173357E+01 -0.32371143876E+02  0.92746637231E+02  0.98499543131E+02  0.17770000000E+01 0. -1.
         15    1    1    2    0    0 -0.45863692889E+02 -0.36357960465E+01 -0.94493086543E+01  0.47001537224E+02  0.17770000000E+01 0.  1.
</event>
<event>
 6    1  0.1045352E-002  0.1827772E+03  0.7546771E-02  0.1068234E+00
        -11   -1    0    0    0    0  0.00000000000E+00  0.00000000000E+00  0.18250000000E+03  0.18250000000E+03  0.00000000000E+00 0. -1.
         11   -1    0    0    0    0 -0.00000000000E+00 -0.00000000000E+00 -0.18250000000E+03  0.18250000000E+03  0.00000000000E+00 0.  1.
        -11    1    1    2    0    0  0.26851654206E+01 -0.20708600544E+01  0.18219124434E+03  0.18222279794E+03  0.00000000000E+00 0. -1.
         11    1    1    2    0    0  0.19840367481E+01  0.13249081457E+01 -0.74996272126E+02  0.75034209640E+02  0.00000000000E+00 0.  1.
        -15    1    1    2    0    0 -0.17907429147E+01  0.27083293034E+01 -0.91264147355E+02  0.91339170837E+02  0.17770000000E+01 0. -1.
         15    1    1    2    0    0 -0.28784592540E+01 -0.19623773947E+01 -0.15930824862E+02  0.16403821582E+02  0.17770000000E+01 0.  1.
</event>
<event>
 6    1  0.1045352E-002  0.1957458E+03  0.7546771E-02  0.1058374E+00
        -11   -1    0    0    0    0  0.00000000000E+00  0.00000000000E+00  0.18250000000E+03  0.18250000000E+03  0.00000000000E+00 0.  1.
         11   -1    0    0    0    0 -0.00000000000E+00 -0.00000000000E+00 -0.18250000000E+03  0.18250000000E+03  0.00000000000E+00 0.  1.
        -11    1    1    2    0    0 -0.10408780883E+02  0.37200483881E+01  0.11494659719E+03  0.11547684480E+03  0.00000000000E+00 0.  1.
         11    1    1    2    0    0 -0.66069254733E+01  0.13510559315E+02 -0.16858467823E+03  0.16925418875E+03  0.00000000000E+00 0.  1.
        -15    1    1    2    0    0  0.27439322560E+02 -0.14751598006E+02  0.64712285824E+01  0.31867861469E+02  0.17770000000E+01 0. -1.
         15    1    1    2    0    0 -0.10423616204E+02 -0.24790096976E+01  0.47166852449E+02  0.48401104975E+02  0.17770000000E+01 0.  1.
</event>
<event>
 6    1  0.1045352E-002  0.1846466E+03  0.7546771E-02  0.1066759E+00
        -11   -1    0    0    0    0  0.00000000000E+00  0.00000000000E+00  0.18250000000E+03  0.18250000000E+03  0.00000000000E+00 0.  1.
         11   -1    0    0    0    0 -0.00000000000E+00 -0.00000000000E+00 -0.18250000000E+03  0.18250000000E+03  0.00000000000E+00 0. -1.
        -11    1    1    2    0    0  0.43679006856E+01 -0.18488785857E+00  0.18030038420E+03  0.18035337891E+03  0.00000000000E+00 0.  1.
         11    1    1    2    0    0  0.26857052989E+01  0.24375951356E+01 -0.17112336029E+03  0.17116179282E+03  0.00000000000E+00 0. -1.
        -15    1    1    2    0    0 -0.23491492063E+01 -0.39826884546E+00 -0.13727461210E+00  0.29755156504E+01  0.17770000000E+01 0.  1.
         15    1    1    2    0    0 -0.47044567781E+01 -0.18544384315E+01 -0.90397493000E+01  0.10509312626E+02  0.17770000000E+01 0. -1.
</event>
<event>
 6    1  0.1045352E-002  0.1829304E+03  0.7546771E-02  0.1068113E+00
        -11   -1    0    0    0    0  0.00000000000E+00  0.00000000000E+00  0.18250000000E+03  0.18250000000E+03  0.00000000000E+00 0. -1.
         11   -1    0    0    0    0 -0.00000000000E+00 -0.00000000000E+00 -0.18250000000E+03  0.18250000000E+03  0.00000000000E+00 0.  1.
        -11    1    1    2    0    0 -0.19921583295E+01  0.18901753234E+01  0.11425043923E+03  0.11428343853E+03  0.00000000000E+00 0. -1.
         11    1    1    2    0    0 -0.16340090060E+01 -0.83758946029E+01 -0.18186952560E+03  0.18206962937E+03  0.00000000000E+00 0.  1.
        -15    1    1    2    0    0  0.15983343315E+01  0.74163915566E+01  0.60134879996E+02  0.60637604319E+02  0.17770000000E+01 0. -1.
         15    1    1    2    0    0  0.20278330039E+01 -0.93067227707E+00  0.74842063736E+01  0.80093277884E+01  0.17770000000E+01 0. -1.
</event>
<event>
 6    1  0.1045352E-002  0.1861841E+03  0.7546771E-02  0.1065559E+00
        -11   -1    0    0    0    0  0.00000000000E+00  0.00000000000E+00  0.18250000000E+03  0.18250000000E+03  0.00000000000E+00 0. -1.
         11   -1    0    0    0    0 -0.00000000000E+00 -0.00000000000E+00 -0.18250000000E+03  0.18250000000E+03  0.00000000000E+00 0.  1.
        -11    1    1    2    0    0 -0.52718433880E+00  0.40516101040E+01  0.17876917843E+03  0.17881586234E+03  0.00000000000E+00 0. -1.
         11    1    1    2    0    0  0.17316417399E+01  0.55115267193E+01 -0.14247511001E+03  0.14259218942E+03  0.00000000000E+00 0.  1.
        -15    1    1    2    0    0 -0.51091775127E+00 -0.52079320213E+01 -0.38105336011E+02  0.38503999200E+02  0.17770000000E+01 0. -1.
         15    1    1    2    0    0 -0.69353964983E+00 -0.43552048020E+01  0.18112675927E+01  0.50879490372E+01  0.17770000000E+01 0.  1.
</event>
<event>
 6    1  0.1045352E-002  0.1867849E+03  0.7546771E-02  0.1065094E+00
        -11   -1    0    0    0    0  0.00000000000E+00  0.00000000000E+00  0.18250000000E+03  0.18250000000E+03  0.00000000000E+00 0. -1.
         11   -1    0    0    0    0 -0.00000000000E+00 -0.00000000000E+00 -0.18250000000E+03  0.18250000000E+03  0.00000000000E+00 0.  1.
        -11    1    1    2    0    0  0.28672941557E+01 -0.27058011632E+01  0.12948096233E+03  0.12954096781E+03  0.00000000000E+00 0. -1.
         11    1    1    2    0    0  0.28167175444E+01  0.81582856744E+00 -0.17819097552E+03  0.17821510382E+03  0.00000000000E+00 0.  1.
        -15    1    1    2    0    0 -0.71675251033E+01  0.14400373742E+02  0.19216051103E+02  0.25122868646E+02  0.17770000000E+01 0. -1.
         15    1    1    2    0    0  0.14835134031E+01 -0.12510401146E+02  0.29493962088E+02  0.32121059719E+02  0.17770000000E+01 0.  1.
</event>
<event>
 6    1  0.1045352E-002  0.1566604E+03  0.7546771E-02  0.1091113E+00
        -11   -1    0    0    0    0  0.00000000000E+00  0.00000000000E+00  0.18250000000E+03  0.18250000000E+03  0.00000000000E+00 0. -1.
         11   -1    0    0    0    0 -0.00000000000E+00 -0.00000000000E+00 -0.18250000000E+03  0.18250000000E+03  0.00000000000E+00 0.  1.
        -11    1    1    2    0    0 -0.29486473114E+01  0.46265377570E+01  0.16143240553E+03  0.16152560456E+03  0.00000000000E+00 0. -1.
         11    1    1    2    0    0  0.19390933511E+02  0.15863446054E+01 -0.15120786583E+03  0.15245439804E+03  0.00000000000E+00 0.  1.
        -15    1    1    2    0    0 -0.11004164978E+01  0.63398036734E+01 -0.25227862427E+02  0.26096106965E+02  0.17770000000E+01 0.  1.
         15    1    1    2    0    0 -0.15341869702E+02 -0.12552686036E+02  0.15003322727E+02  0.24923890437E+02  0.17770000000E+01 0. -1.
</event>
<event>
 6    1  0.1045352E-002  0.1840363E+03  0.7546771E-02  0.1067238E+00
        -11   -1    0    0    0    0  0.00000000000E+00  0.00000000000E+00  0.18250000000E+03  0.18250000000E+03  0.00000000000E+00 0.  1.
         11   -1    0    0    0    0 -0.00000000000E+00 -0.00000000000E+00 -0.18250000000E+03  0.18250000000E+03  0.00000000000E+00 0. -1.
        -11    1    1    2    0    0  0.60668686467E+00  0.28665732194E+01  0.18093995584E+03  0.18096367848E+03  0.00000000000E+00 0.  1.
         11    1    1    2    0    0 -0.23252524445E+01  0.14589791196E+01 -0.14767230139E+03  0.14769781318E+03  0.00000000000E+00 0. -1.
        -15    1    1    2    0    0 -0.15826218359E+01 -0.24779168546E+01 -0.70292549604E+00  0.35066504055E+01  0.17770000000E+01 0.  1.
         15    1    1    2    0    0  0.33011874158E+01 -0.18476354844E+01 -0.32564728949E+02  0.32831857940E+02  0.17770000000E+01 0.  1.
</event>
<event>
 6    1  0.1045352E-002  0.1855318E+03  0.7546771E-02  0.1066067E+00
        -11   -1    0    0    0    0  0.00000000000E+00  0.00000000000E+00  0.18250000000E+03  0.18250000000E+03  0.00000000000E+00 0. -1.
         11   -1    0    0    0    0 -0.00000000000E+00 -0.00000000000E+00 -0.18250000000E+03  0.18250000000E+03  0.00000000000E+00 0.  1.
        -11    1    1    2    0    0 -0.46372043493E+01 -0.94295728840E+00  0.17940575377E+03  0.17946815127E+03  0.00000000000E+00 0. -1.
         11    1    1    2    0    0 -0.15387283152E+01  0.14121841222E+01 -0.14758719527E+03  0.14760197207E+03  0.00000000000E+00 0.  1.
        -15    1    1    2    0    0  0.37381058901E+01 -0.48553169825E+01 -0.31973891593E+02  0.32604217691E+02  0.17770000000E+01 0.  1.
         15    1    1    2    0    0  0.24378267744E+01  0.43860901487E+01  0.15533309631E+00  0.53256589775E+01  0.17770000000E+01 0. -1.
</event>
<event>
 6    1  0.1045352E-002  0.1960656E+03  0.7546771E-02  0.1058142E+00
        -11   -1    0    0    0    0  0.00000000000E+00  0.00000000000E+00  0.18250000000E+03  0.18250000000E+03  0.00000000000E+00 0.  1.
         11   -1    0    0    0    0 -0.00000000000E+00 -0.00000000000E+00 -0.18250000000E+03  0.18250000000E+03  0.00000000000E+00 0.  1.
        -11    1    1    2    0    0  0.63633001214E+00 -0.22657238151E+01  0.14801070925E+03  0.14802941760E+03  0.00000000000E+00 0.  1.
         11    1    1    2    0    0  0.80108692481E+01 -0.20634176272E+02 -0.16747798133E+03  0.16893435852E+03  0.00000000000E+00 0.  1.
        -15    1    1    2    0    0 -0.31274519306E+01  0.24851994803E+02  0.27952376584E+02  0.37575200425E+02  0.17770000000E+01 0.  1.
         15    1    1    2    0    0 -0.55197473297E+01 -0.19520947154E+01 -0.84851045036E+01  0.10461023458E+02  0.17770000000E+01 0. -1.
</event>
<event>
 6    1  0.1045352E-002  0.2003424E+03  0.7546771E-02  0.1055078E+00
        -11   -1    0    0    0    0  0.00000000000E+00  0.00000000000E+00  0.18250000000E+03  0.18250000000E+03  0.00000000000E+00 0. -1.
         11   -1    0    0    0    0 -0.00000000000E+00 -0.00000000000E+00 -0.18250000000E+03  0.18250000000E+03  0.00000000000E+00 0.  1.
        -11    1    1    2    0    0  0.35640161328E+02  0.19354923898E+02  0.15958479535E+03  0.16465764812E+03  0.00000000000E+00 0. -1.
         11    1    1    2    0    0 -0.66668524561E+01  0.21302252850E+02 -0.10006657105E+03  0.10252585791E+03  0.00000000000E+00 0.  1.
        -15    1    1    2    0    0 -0.17913202111E+02  0.64478334009E+01 -0.42311285356E+02  0.46431239084E+02  0.17770000000E+01 0.  1.
         15    1    1    2    0    0 -0.11060106760E+02 -0.47105010149E+02 -0.17206938943E+02  0.51385254884E+02  0.17770000000E+01 0. -1.
</event>
<event>
 6    1  0.1045352E-002  0.1843196E+03  0.7546771E-02  0.1067016E+00
        -11   -1    0    0    0    0  0.00000000000E+00  0.00000000000E+00  0.18250000000E+03  0.18250000000E+03  0.00000000000E+00 0. -1.
         11   -1    0    0    0    0 -0.00000000000E+00 -0.00000000000E+00 -0.18250000000E+03  0.18250000000E+03  0.00000000000E+00 0. -1.
        -11    1    1    2    0    0 -0.85411085358E+00 -0.54665097592E+01  0.15621047028E+03  0.15630842350E+03  0.00000000000E+00 0. -1.
         11    1    1    2    0    0 -0.23352794335E+01  0.20604481081E+01 -0.18065354802E+03  0.18068039017E+03  0.00000000000E+00 0. -1.
        -15    1    1    2    0    0 -0.42633638024E+01 -0.10844899943E+01  0.97437012401E+01  0.10837427385E+02  0.17770000000E+01 0. -1.
         15    1    1    2    0    0  0.74527540895E+01  0.44905516454E+01  0.14699376509E+02  0.17173758946E+02  0.17770000000E+01 0.  1.
</event>
<event>
 6    1  0.1045352E-002  0.1892012E+03  0.7546771E-02  0.1063242E+00
        -11   -1    0    0    0    0  0.00000000000E+00  0.00000000000E+00  0.18250000000E+03  0.18250000000E+03  0.00000000000E+00 0.  1.
         11   -1    0    0    0    0 -0.00000000000E+00 -0.00000000000E+00 -0.18250000000E+03  0.18250000000E+03  0.00000000000E+00 0.  1.
        -11    1    1    2    0    0 -0.90694369414E+01 -0.22189267478E+01  0.15857466050E+03  0.15884930366E+03  0.00000000000E+00 0.  1.
         11    1    1    2    0    0  0.15980215280E+02  0.33924715427E+01 -0.17503808055E+03  0.17579876504E+03  0.00000000000E+00 0.  1.
        -15    1    1    2    0    0  0.88923685506E+01  0.31410260904E+00  0.87863511491E+01  0.12630541335E+02  0.17770000000E+01 0.  1.
         15    1    1    2    0    0 -0.15803146889E+02 -0.14876474040E+01  0.76770689097E+01  0.17721389969E+02  0.17770000000E+01 0. -1.
</event>
<event>
 6    1  0.1045352E-002  0.1835721E+03  0.7546771E-02  0.1067605E+00
        -11   -1    0    0    0    0  0.00000000000E+00  0.00000000000E+00  0.18250000000E+03  0.18250000000E+03  0.00000000000E+00 0.  1.
         11   -1    0    0    0    0 -0.00000000000E+00 -0.00000000000E+00 -0.18250000000E+03  0.18250000000E+03  0.00000000000E+00 0.  1.
        -11    1    1    2    0    0 -0.88239504529E+01 -0.52865330964E+01  0.77974439442E+02  0.78650001526E+02  0.00000000000E+00 0.  1.
         11    1    1    2    0    0 -0.26477331645E+01  0.14177442488E+01 -0.18140303922E+03  0.18142790064E+03  0.00000000000E+00 0.  1.
        -15    1    1    2    0    0  0.81962236469E+01  0.42239028306E-01  0.91112432676E+02  0.91497611900E+02  0.17770000000E+01 0.  1.
         15    1    1    2    0    0  0.32754599705E+01  0.38265498193E+01  0.12316167106E+02  0.13424485939E+02  0.17770000000E+01 0. -1.
</event>
<event>
 6    1  0.1045352E-002  0.1847723E+03  0.7546771E-02  0.1066660E+00
        -11   -1    0    0    0    0  0.00000000000E+00  0.00000000000E+00  0.18250000000E+03  0.18250000000E+03  0.00000000000E+00 0.  1.
         11   -1    0    0    0    0 -0.00000000000E+00 -0.00000000000E+00 -0.18250000000E+03  0.18250000000E+03  0.00000000000E+00 0.  1.
        -11    1    1    2    0    0 -0.10035518952E+01  0.25775856283E+01  0.17117747257E+03  0.17119981945E+03  0.00000000000E+00 0.  1.
         11    1    1    2    0    0 -0.23660498388E+01  0.12951775009E+01 -0.18020747458E+03  0.18022766040E+03  0.00000000000E+00 0.  1.
        -15    1    1    2    0    0  0.30365922489E+01 -0.16012723667E+01  0.98286741337E+01  0.10561511724E+02  0.17770000000E+01 0. -1.
         15    1    1    2    0    0  0.33300948510E+00 -0.22714907625E+01 -0.79867212179E+00  0.30110084290E+01  0.17770000000E+01 0.  1.
</event>
<event>
 6    1  0.1045352E-002  0.1787280E+03  0.7546771E-02  0.1071498E+00
        -11   -1    0    0    0    0  0.00000000000E+00  0.00000000000E+00  0.18250000000E+03  0.18250000000E+03  0.00000000000E+00 0.  1.
         11   -1    0    0    0    0 -0.00000000000E+00 -0.00000000000E+00 -0.18250000000E+03  0.18250000000E+03  0.00000000000E+00 0.  1.
        -11    1    1    2    0    0  0.13394040271E+01 -0.23664021346E+01  0.17775970694E+03  0.17778050308E+03  0.00000000000E+00 0.  1.
         11    1    1    2    0    0 -0.40772608356E-01 -0.25159794310E+01 -0.17969891573E+03  0.17971653271E+03  0.00000000000E+00 0.  1.
        -15    1    1    2    0    0  0.45276581505E+00  0.25837800241E+01 -0.65119035974E+00  0.32346087832E+01  0.17770000000E+01 0.  1.
         15    1    1    2    0    0 -0.17513972338E+01  0.22986015415E+01  0.25903991471E+01  0.42683554278E+01  0.17770000000E+01 0.  1.
</event>
<event>
 6    1  0.1045352E-002  0.1851846E+03  0.7546771E-02  0.1066338E+00
        -11   -1    0    0    0    0  0.00000000000E+00  0.00000000000E+00  0.18250000000E+03  0.18250000000E+03  0.00000000000E+00 0.  1.
         11   -1    0    0    0    0 -0.00000000000E+00 -0.00000000000E+00 -0.18250000000E+03  0.18250000000E+03  0.00000000000E+00 0. -1.
        -11    1    1    2    0    0 -0.22442319675E+01 -0.96349953415E+00  0.15776314149E+03  0.15778204499E+03  0.00000000000E+00 0.  1.
         11    1    1    2    0    0 -0.19001220594E+01 -0.30777504378E+01 -0.17977898025E+03  0.17981536295E+03  0.00000000000E+00 0. -1.
        -15    1    1    2    0    0  0.27279525283E+01  0.11388164564E+01  0.23258287173E+02  0.23512640837E+02  0.17770000000E+01 0. -1.
         15    1    1    2    0    0  0.14164014986E+01  0.29024335156E+01 -0.12424484074E+01  0.38899512288E+01  0.17770000000E+01 0. -1.
</event>
